<event>
 7    1  0.5634483E-012  0.5930196E+02  0.7816164E-02  0.1266605E+00
        -11   -1    0    0    0    0  0.00000000000E+00  0.00000000000E+00  0.45593999997E+02  0.45594000000E+02  0.51100000000E-03 0. -1.
         11   -1    0    0    0    0 -0.00000000000E+00 -0.00000000000E+00 -0.45593999997E+02  0.45594000000E+02  0.51100000000E-03 0.  1.
    9900012    2    1    2    0    0  0.17897525592E+02 -0.16324067731E+02 -0.20734577726E+02  0.59301963509E+02  0.50000035530E+02 0.  0.
         12    1    1    2    0    0 -0.17897525592E+02  0.16324067731E+02  0.20734577726E+02  0.31886036491E+02  0.00000000000E+00 0. -1.
         11    1    3    3    0    0 -0.97498515997E+00 -0.11666524362E+02 -0.76804895854E+01  0.14001725154E+02  0.51100000000E-03 0. -1.
        -11    1    3    3    0    0  0.79711961741E+01 -0.10460819635E+01 -0.26456299275E+02  0.27650859435E+02  0.51100000000E-03 0.  1.
        -12    1    3    3    0    0  0.10901314577E+02 -0.36114614054E+01  0.13402211134E+02  0.17649378920E+02  0.00000000000E+00 0.  1.
</event>
<event>
 7    1  0.5634483E-012  0.5930195E+02  0.7816164E-02  0.1266605E+00
        -11   -1    0    0    0    0  0.00000000000E+00  0.00000000000E+00  0.45593999997E+02  0.45594000000E+02  0.51100000000E-03 0. -1.
         11   -1    0    0    0    0 -0.00000000000E+00 -0.00000000000E+00 -0.45593999997E+02  0.45594000000E+02  0.51100000000E-03 0.  1.
    9900012    2    1    2    0    0 -0.22258802521E+02  0.22790204487E+02 -0.13684077637E+01  0.59301948974E+02  0.50000009021E+02 0.  0.
         12    1    1    2    0    0  0.22258802521E+02 -0.22790204487E+02  0.13684077637E+01  0.31886051026E+02  0.00000000000E+00 0. -1.
         11    1    3    3    0    0  0.21614496581E+01  0.84821375873E+01  0.15307037743E+02  0.17633035116E+02  0.51100000000E-03 0. -1.
        -11    1    3    3    0    0 -0.10290092555E+02  0.13608298866E+02  0.31138357426E+01  0.17342657700E+02  0.51100000000E-03 0.  1.
        -12    1    3    3    0    0 -0.14130159624E+02  0.69976803386E+00 -0.19789281249E+02  0.24326256158E+02  0.00000000000E+00 0.  1.
</event>
<event>
 7    1  0.5634483E-012  0.5930194E+02  0.7816164E-02  0.1266605E+00
        -11   -1    0    0    0    0  0.00000000000E+00  0.00000000000E+00  0.45593999997E+02  0.45594000000E+02  0.51100000000E-03 0.  1.
         11   -1    0    0    0    0 -0.00000000000E+00 -0.00000000000E+00 -0.45593999997E+02  0.45594000000E+02  0.51100000000E-03 0. -1.
    9900012    2    1    2    0    0  0.58610900012E+01 -0.19106221259E+01  0.31284466233E+02  0.59301942225E+02  0.49999996713E+02 0.  0.
         12    1    1    2    0    0 -0.58610900012E+01  0.19106221259E+01 -0.31284466233E+02  0.31886057775E+02  0.00000000000E+00 0. -1.
         11    1    3    3    0    0  0.63883758834E+01  0.12698924438E+02  0.19257609259E+02  0.23935946669E+02  0.51100000000E-03 0. -1.
        -11    1    3    3    0    0 -0.20865667024E+00 -0.12136518585E+02  0.21978010690E+02  0.25107201659E+02  0.51100000000E-03 0.  1.
         12    1    3    3    0    0 -0.31862921202E+00 -0.24730279789E+01 -0.99511537157E+01  0.10258793898E+02  0.00000000000E+00 0. -1.
</event>
<event>
 7    1  0.5634483E-012  0.5930196E+02  0.7816164E-02  0.1266605E+00
        -11   -1    0    0    0    0  0.00000000000E+00  0.00000000000E+00  0.45593999997E+02  0.45594000000E+02  0.51100000000E-03 0. -1.
         11   -1    0    0    0    0 -0.00000000000E+00 -0.00000000000E+00 -0.45593999997E+02  0.45594000000E+02  0.51100000000E-03 0.  1.
    9900012    2    1    2    0    0  0.26071409620E+02 -0.87827491549E+01 -0.16120307034E+02  0.59301962599E+02  0.50000033869E+02 0.  0.
         12    1    1    2    0    0 -0.26071409620E+02  0.87827491549E+01  0.16120307034E+02  0.31886037401E+02  0.00000000000E+00 0. -1.
         11    1    3    3    0    0 -0.59439540559E+01 -0.15096690446E+01  0.62070867623E+01  0.87256871809E+01  0.51100000000E-03 0. -1.
        -11    1    3    3    0    0  0.49029628091E+01 -0.13306435038E+02 -0.17266289498E+02  0.22343343775E+02  0.51100000000E-03 0.  1.
        -12    1    3    3    0    0  0.27112400867E+02  0.60333549282E+01 -0.50611042979E+01  0.28232931643E+02  0.00000000000E+00 0.  1.
</event>
<event>
 7    1  0.5634483E-012  0.5930201E+02  0.7816164E-02  0.1266605E+00
        -11   -1    0    0    0    0  0.00000000000E+00  0.00000000000E+00  0.45593999997E+02  0.45594000000E+02  0.51100000000E-03 0. -1.
         11   -1    0    0    0    0 -0.00000000000E+00 -0.00000000000E+00 -0.45593999997E+02  0.45594000000E+02  0.51100000000E-03 0.  1.
    9900012    2    1    2    0    0 -0.13290623996E+02  0.79616712811E+01 -0.27869109552E+02  0.59302013062E+02  0.50000125902E+02 0.  0.
         12    1    1    2    0    0  0.13290623996E+02 -0.79616712811E+01  0.27869109552E+02  0.31885986938E+02  0.00000000000E+00 0. -1.
         11    1    3    3    0    0  0.30796744322E+01 -0.67308980181E+01  0.44963385295E+01  0.86606260266E+01  0.51100000000E-03 0. -1.
        -11    1    3    3    0    0 -0.61043090801E+01 -0.10248328458E+02 -0.11116614455E+02  0.16305518781E+02  0.51100000000E-03 0.  1.
        -12    1    3    3    0    0 -0.10265989348E+02  0.24940897758E+02 -0.21248833627E+02  0.34335868254E+02  0.00000000000E+00 0.  1.
</event>
<event>
 7    1  0.5634483E-012  0.5930195E+02  0.7816164E-02  0.1266605E+00
        -11   -1    0    0    0    0  0.00000000000E+00  0.00000000000E+00  0.45593999997E+02  0.45594000000E+02  0.51100000000E-03 0.  1.
         11   -1    0    0    0    0 -0.00000000000E+00 -0.00000000000E+00 -0.45593999997E+02  0.45594000000E+02  0.51100000000E-03 0. -1.
    9900012    2    1    2    0    0  0.31405591103E+02 -0.70726644665E+00 -0.54689133641E+01  0.59301946752E+02  0.50000004969E+02 0.  0.
         12    1    1    2    0    0 -0.31405591103E+02  0.70726644665E+00  0.54689133641E+01  0.31886053248E+02  0.00000000000E+00 0. -1.
         11    1    3    3    0    0  0.31183808758E+02  0.65104929122E+00  0.42109447229E+01  0.31473573829E+02  0.51100000000E-03 0. -1.
        -11    1    3    3    0    0  0.11183325742E+02 -0.67082936418E+01 -0.14661261252E+01  0.13123166703E+02  0.51100000000E-03 0.  1.
         12    1    3    3    0    0 -0.10961543398E+02  0.53499779040E+01 -0.82137319618E+01  0.14705206220E+02  0.00000000000E+00 0. -1.
</event>
<event>
 7    1  0.5634483E-012  0.5930193E+02  0.7816164E-02  0.1266605E+00
        -11   -1    0    0    0    0  0.00000000000E+00  0.00000000000E+00  0.45593999997E+02  0.45594000000E+02  0.51100000000E-03 0.  1.
         11   -1    0    0    0    0 -0.00000000000E+00 -0.00000000000E+00 -0.45593999997E+02  0.45594000000E+02  0.51100000000E-03 0. -1.
    9900012    2    1    2    0    0  0.23887016864E+02  0.20678118809E+02 -0.43066824172E+01  0.59301926463E+02  0.49999967967E+02 0.  0.
         12    1    1    2    0    0 -0.23887016864E+02 -0.20678118809E+02  0.43066824172E+01  0.31886073537E+02  0.00000000000E+00 0. -1.
         11    1    3    3    0    0 -0.14048054083E+02  0.10029820912E+02  0.58506074737E+01  0.18225661555E+02  0.51100000000E-03 0. -1.
        -11    1    3    3    0    0  0.40667296279E+01  0.24381081185E+00  0.43284750094E+00  0.40969611664E+01  0.51100000000E-03 0.  1.
        -12    1    3    3    0    0  0.33868341319E+02  0.10404487085E+02 -0.10590137392E+02  0.36979303742E+02  0.00000000000E+00 0.  1.
</event>
<event>
 7    1  0.5634483E-012  0.5930194E+02  0.7816164E-02  0.1266605E+00
        -11   -1    0    0    0    0  0.00000000000E+00  0.00000000000E+00  0.45593999997E+02  0.45594000000E+02  0.51100000000E-03 0. -1.
         11   -1    0    0    0    0 -0.00000000000E+00 -0.00000000000E+00 -0.45593999997E+02  0.45594000000E+02  0.51100000000E-03 0.  1.
    9900012    2    1    2    0    0 -0.11649174179E+02  0.72016904753E-01 -0.29681851280E+02  0.59301941276E+02  0.49999994982E+02 0.  0.
         12    1    1    2    0    0  0.11649174179E+02 -0.72016904753E-01  0.29681851280E+02  0.31886058724E+02  0.00000000000E+00 0. -1.
         11    1    3    3    0    0  0.42312859122E+01 -0.96996092680E+01  0.42274991086E+01  0.11395523217E+02  0.51100000000E-03 0. -1.
        -11    1    3    3    0    0  0.77150964383E+01  0.22004079065E+01 -0.13928922140E+02  0.16074183657E+02  0.51100000000E-03 0.  1.
        -12    1    3    3    0    0 -0.23595556530E+02  0.75712182662E+01 -0.19980428249E+02  0.31832234402E+02  0.00000000000E+00 0.  1.
</event>
<event>
 7    1  0.5634483E-012  0.5930202E+02  0.7816164E-02  0.1266605E+00
        -11   -1    0    0    0    0  0.00000000000E+00  0.00000000000E+00  0.45593999997E+02  0.45594000000E+02  0.51100000000E-03 0.  1.
         11   -1    0    0    0    0 -0.00000000000E+00 -0.00000000000E+00 -0.45593999997E+02  0.45594000000E+02  0.51100000000E-03 0. -1.
    9900012    2    1    2    0    0 -0.26146678579E+02 -0.17789784715E+01  0.18163213359E+02  0.59302017427E+02  0.50000133862E+02 0.  0.
         12    1    1    2    0    0  0.26146678579E+02  0.17789784715E+01 -0.18163213359E+02  0.31885982573E+02  0.00000000000E+00 0. -1.
         11    1    3    3    0    0 -0.33517030652E+02  0.58954703139E+01  0.14692475771E+02  0.37067732038E+02  0.51100000000E-03 0. -1.
        -11    1    3    3    0    0 -0.56876414666E+01 -0.10364227012E+01  0.48157698128E+01  0.75242990783E+01  0.51100000000E-03 0.  1.
         12    1    3    3    0    0  0.13057993539E+02 -0.66380260843E+01 -0.13450322245E+01  0.14709986310E+02  0.00000000000E+00 0. -1.
</event>
<event>
 7    1  0.5634483E-012  0.5930194E+02  0.7816164E-02  0.1266605E+00
        -11   -1    0    0    0    0  0.00000000000E+00  0.00000000000E+00  0.45593999997E+02  0.45594000000E+02  0.51100000000E-03 0. -1.
         11   -1    0    0    0    0 -0.00000000000E+00 -0.00000000000E+00 -0.45593999997E+02  0.45594000000E+02  0.51100000000E-03 0.  1.
    9900012    2    1    2    0    0 -0.26962298948E+02  0.14386010490E+02 -0.90993400792E+01  0.59301939531E+02  0.49999991798E+02 0.  0.
         12    1    1    2    0    0  0.26962298948E+02 -0.14386010490E+02  0.90993400792E+01  0.31886060469E+02  0.00000000000E+00 0. -1.
         11    1    3    3    0    0 -0.11240585778E+02  0.37127819204E+01 -0.21061048749E+01  0.12023776289E+02  0.51100000000E-03 0. -1.
        -11    1    3    3    0    0 -0.26573476287E+02  0.18243690901E+01  0.69394157222E+01  0.27525142241E+02  0.51100000000E-03 0.  1.
         12    1    3    3    0    0  0.10851763117E+02  0.88488594797E+01 -0.13932650926E+02  0.19753021001E+02  0.00000000000E+00 0. -1.
</event>
<event>
 7    1  0.5634483E-012  0.5930195E+02  0.7816164E-02  0.1266605E+00
        -11   -1    0    0    0    0  0.00000000000E+00  0.00000000000E+00  0.45593999997E+02  0.45594000000E+02  0.51100000000E-03 0.  1.
         11   -1    0    0    0    0 -0.00000000000E+00 -0.00000000000E+00 -0.45593999997E+02  0.45594000000E+02  0.51100000000E-03 0. -1.
    9900012    2    1    2    0    0 -0.19400740160E+02  0.14987566815E+02  0.20388829000E+02  0.59301949354E+02  0.50000009714E+02 0.  0.
         12    1    1    2    0    0  0.19400740160E+02 -0.14987566815E+02 -0.20388829000E+02  0.31886050646E+02  0.00000000000E+00 0. -1.
         11    1    3    3    0    0 -0.10901650317E+02  0.32072232494E+01 -0.45098438768E+01  0.12225831369E+02  0.51100000000E-03 0. -1.
        -11    1    3    3    0    0  0.81700407645E+01  0.19306804338E+02  0.17641576178E+02  0.27399406383E+02  0.51100000000E-03 0.  1.
         12    1    3    3    0    0 -0.16669130607E+02 -0.75264607724E+01  0.72570966993E+01  0.19676711602E+02  0.00000000000E+00 0. -1.
</event>
<event>
 7    1  0.5634483E-012  0.5930234E+02  0.7816164E-02  0.1266603E+00
        -11   -1    0    0    0    0  0.00000000000E+00  0.00000000000E+00  0.45593999997E+02  0.45594000000E+02  0.51100000000E-03 0.  1.
         11   -1    0    0    0    0 -0.00000000000E+00 -0.00000000000E+00 -0.45593999997E+02  0.45594000000E+02  0.51100000000E-03 0. -1.
    9900012    2    1    2    0    0  0.13681745692E+02 -0.71084134774E+01  0.27910129775E+02  0.59302344112E+02  0.50000729653E+02 0.  0.
         12    1    1    2    0    0 -0.13681745692E+02  0.71084134774E+01 -0.27910129775E+02  0.31885655888E+02  0.00000000000E+00 0. -1.
         11    1    3    3    0    0 -0.36530405101E+01 -0.24069898396E+01 -0.16223113023E+01  0.46658546140E+01  0.51100000000E-03 0. -1.
        -11    1    3    3    0    0  0.17832141863E+02  0.98713221856E+01 -0.14097637624E+01  0.20430754251E+02  0.51100000000E-03 0.  1.
        -12    1    3    3    0    0 -0.49735566149E+00 -0.14572745823E+02  0.30942204840E+02  0.34205735248E+02  0.00000000000E+00 0.  1.
</event>
<event>
 7    1  0.5634483E-012  0.5930194E+02  0.7816164E-02  0.1266605E+00
        -11   -1    0    0    0    0  0.00000000000E+00  0.00000000000E+00  0.45593999997E+02  0.45594000000E+02  0.51100000000E-03 0.  1.
         11   -1    0    0    0    0 -0.00000000000E+00 -0.00000000000E+00 -0.45593999997E+02  0.45594000000E+02  0.51100000000E-03 0. -1.
    9900012    2    1    2    0    0 -0.79061657154E+01 -0.30774047234E+02  0.26779189617E+01  0.59301942083E+02  0.49999996454E+02 0.  0.
         12    1    1    2    0    0  0.79061657154E+01  0.30774047234E+02 -0.26779189617E+01  0.31886057917E+02  0.00000000000E+00 0. -1.
         11    1    3    3    0    0  0.10724595229E+02  0.36348182665E+01 -0.24382073661E+01  0.11583337260E+02  0.51100000000E-03 0. -1.
        -11    1    3    3    0    0 -0.93610772747E-01  0.29882969037E+01  0.51780504624E+01  0.59792046472E+01  0.51100000000E-03 0.  1.
        -12    1    3    3    0    0 -0.18537150172E+02 -0.37397162405E+02 -0.61924134525E-01  0.41739400176E+02  0.00000000000E+00 0.  1.
</event>
<event>
 7    1  0.5634483E-012  0.5930194E+02  0.7816164E-02  0.1266605E+00
        -11   -1    0    0    0    0  0.00000000000E+00  0.00000000000E+00  0.45593999997E+02  0.45594000000E+02  0.51100000000E-03 0. -1.
         11   -1    0    0    0    0 -0.00000000000E+00 -0.00000000000E+00 -0.45593999997E+02  0.45594000000E+02  0.51100000000E-03 0.  1.
    9900012    2    1    2    0    0 -0.21849120789E+02 -0.14993118742E+02 -0.17735355350E+02  0.59301944768E+02  0.50000001350E+02 0.  0.
         12    1    1    2    0    0  0.21849120789E+02  0.14993118742E+02  0.17735355350E+02  0.31886055232E+02  0.00000000000E+00 0. -1.
         11    1    3    3    0    0 -0.59590816778E+01  0.30690537489E+01 -0.17914105267E+01  0.69382200378E+01  0.51100000000E-03 0. -1.
        -11    1    3    3    0    0  0.89933931240E+01  0.29867373326E+01 -0.17319658868E+02  0.19742651882E+02  0.51100000000E-03 0.  1.
         12    1    3    3    0    0 -0.24883432236E+02 -0.21048909824E+02  0.13757140452E+01  0.32621072847E+02  0.00000000000E+00 0. -1.
</event>
<event>
 7    1  0.5634483E-012  0.5930192E+02  0.7816164E-02  0.1266605E+00
        -11   -1    0    0    0    0  0.00000000000E+00  0.00000000000E+00  0.45593999997E+02  0.45594000000E+02  0.51100000000E-03 0.  1.
         11   -1    0    0    0    0 -0.00000000000E+00 -0.00000000000E+00 -0.45593999997E+02  0.45594000000E+02  0.51100000000E-03 0. -1.
    9900012    2    1    2    0    0  0.94762628370E+01  0.33082575951E+00  0.30443600235E+02  0.59301924696E+02  0.49999964743E+02 0.  0.
         12    1    1    2    0    0 -0.94762628370E+01 -0.33082575951E+00 -0.30443600235E+02  0.31886075304E+02  0.00000000000E+00 0. -1.
         11    1    3    3    0    0 -0.33361169835E+01  0.69459910448E+01 -0.57503333396E+01  0.96147179834E+01  0.51100000000E-03 0. -1.
        -11    1    3    3    0    0 -0.58437107875E+01  0.78032803209E+01  0.62736465626E+01  0.11593048822E+02  0.51100000000E-03 0.  1.
        -12    1    3    3    0    0  0.18656090608E+02 -0.14418445606E+02  0.29920287012E+02  0.38094157890E+02  0.00000000000E+00 0.  1.
</event>
<event>
 7    1  0.5634483E-012  0.5930196E+02  0.7816164E-02  0.1266605E+00
        -11   -1    0    0    0    0  0.00000000000E+00  0.00000000000E+00  0.45593999997E+02  0.45594000000E+02  0.51100000000E-03 0. -1.
         11   -1    0    0    0    0 -0.00000000000E+00 -0.00000000000E+00 -0.45593999997E+02  0.45594000000E+02  0.51100000000E-03 0.  1.
    9900012    2    1    2    0    0  0.28933125392E+01 -0.30499922579E+02 -0.88375755188E+01  0.59301964251E+02  0.50000036882E+02 0.  0.
         12    1    1    2    0    0 -0.28933125392E+01  0.30499922579E+02  0.88375755188E+01  0.31886035749E+02  0.00000000000E+00 0. -1.
         11    1    3    3    0    0  0.17783256144E+01 -0.58443412080E+01 -0.68890142139E+01  0.92074580231E+01  0.51100000000E-03 0. -1.
        -11    1    3    3    0    0 -0.73445840814E+01  0.32046675261E+01 -0.15902373220E+02  0.17807253679E+02  0.51100000000E-03 0.  1.
         12    1    3    3    0    0  0.84595710062E+01 -0.27860248897E+02  0.13953811915E+02  0.32287252549E+02  0.00000000000E+00 0. -1.
</event>
<event>
 7    1  0.5634483E-012  0.5930193E+02  0.7816164E-02  0.1266605E+00
        -11   -1    0    0    0    0  0.00000000000E+00  0.00000000000E+00  0.45593999997E+02  0.45594000000E+02  0.51100000000E-03 0. -1.
         11   -1    0    0    0    0 -0.00000000000E+00 -0.00000000000E+00 -0.45593999997E+02  0.45594000000E+02  0.51100000000E-03 0.  1.
    9900012    2    1    2    0    0  0.16901228344E+02  0.27036919554E+02 -0.27352817786E+00  0.59301931629E+02  0.49999977387E+02 0.  0.
         12    1    1    2    0    0 -0.16901228344E+02 -0.27036919554E+02  0.27352817786E+00  0.31886068371E+02  0.00000000000E+00 0. -1.
         11    1    3    3    0    0 -0.35028860538E+01  0.24467088393E+02  0.11870228190E+02  0.27419171079E+02  0.51100000000E-03 0. -1.
        -11    1    3    3    0    0  0.70201125249E+01 -0.70587163724E+01  0.20066387780E+01  0.10155493889E+02  0.51100000000E-03 0.  1.
         12    1    3    3    0    0  0.13384001873E+02  0.96285475338E+01 -0.14150395146E+02  0.21727266660E+02  0.00000000000E+00 0. -1.
</event>
<event>
 7    1  0.5634483E-012  0.5930167E+02  0.7816164E-02  0.1266606E+00
        -11   -1    0    0    0    0  0.00000000000E+00  0.00000000000E+00  0.45593999997E+02  0.45594000000E+02  0.51100000000E-03 0.  1.
         11   -1    0    0    0    0 -0.00000000000E+00 -0.00000000000E+00 -0.45593999997E+02  0.45594000000E+02  0.51100000000E-03 0. -1.
    9900012    2    1    2    0    0 -0.17207343866E+02  0.26684403666E+02  0.29304679596E+01  0.59301674963E+02  0.49999509288E+02 0.  0.
         12    1    1    2    0    0  0.17207343866E+02 -0.26684403666E+02 -0.29304679596E+01  0.31886325037E+02  0.00000000000E+00 0. -1.
         11    1    3    3    0    0 -0.15105437203E+01  0.27776299676E+01 -0.97428925271E+01  0.10243091605E+02  0.51100000000E-03 0. -1.
        -11    1    3    3    0    0 -0.17976856385E+02  0.76855995939E+00 -0.62842767014E+01  0.19059123375E+02  0.51100000000E-03 0.  1.
         12    1    3    3    0    0  0.22800562402E+01  0.23138213739E+02  0.18957637188E+02  0.29999459983E+02  0.00000000000E+00 0. -1.
</event>
<event>
 7    1  0.5634483E-012  0.5930194E+02  0.7816164E-02  0.1266605E+00
        -11   -1    0    0    0    0  0.00000000000E+00  0.00000000000E+00  0.45593999997E+02  0.45594000000E+02  0.51100000000E-03 0.  1.
         11   -1    0    0    0    0 -0.00000000000E+00 -0.00000000000E+00 -0.45593999997E+02  0.45594000000E+02  0.51100000000E-03 0. -1.
    9900012    2    1    2    0    0 -0.24647557366E+02 -0.15106218693E+01  0.20172678281E+02  0.59301937032E+02  0.49999987242E+02 0.  0.
         12    1    1    2    0    0  0.24647557366E+02  0.15106218693E+01 -0.20172678281E+02  0.31886062968E+02  0.00000000000E+00 0. -1.
         11    1    3    3    0    0  0.10138772026E+02 -0.22012335602E+01  0.37666233702E+00  0.10381811122E+02  0.51100000000E-03 0. -1.
        -11    1    3    3    0    0  0.80051650555E+00  0.54327052759E+01 -0.31321880956E+01  0.63218443367E+01  0.51100000000E-03 0.  1.
         12    1    3    3    0    0 -0.35586845898E+02 -0.47420935850E+01  0.22928204040E+02  0.42598281574E+02  0.00000000000E+00 0. -1.
</event>
<event>
 7    1  0.5634483E-012  0.5930195E+02  0.7816164E-02  0.1266605E+00
        -11   -1    0    0    0    0  0.00000000000E+00  0.00000000000E+00  0.45593999997E+02  0.45594000000E+02  0.51100000000E-03 0.  1.
         11   -1    0    0    0    0 -0.00000000000E+00 -0.00000000000E+00 -0.45593999997E+02  0.45594000000E+02  0.51100000000E-03 0. -1.
    9900012    2    1    2    0    0  0.21695619158E+02 -0.11457423296E+02  0.20365356078E+02  0.59301950270E+02  0.50000011384E+02 0.  0.
         12    1    1    2    0    0 -0.21695619158E+02  0.11457423296E+02 -0.20365356078E+02  0.31886049730E+02  0.00000000000E+00 0. -1.
         11    1    3    3    0    0 -0.17793612989E+01 -0.17785845189E+02 -0.18159104752E+01  0.17966634266E+02  0.51100000000E-03 0. -1.
        -11    1    3    3    0    0  0.12268470693E+02 -0.92850714709E+01  0.73074631284E+01  0.17033113133E+02  0.51100000000E-03 0.  1.
        -12    1    3    3    0    0  0.11206509764E+02  0.15613493363E+02  0.14873803425E+02  0.24302202872E+02  0.00000000000E+00 0.  1.
</event>
<event>
 7    1  0.5634483E-012  0.5930189E+02  0.7816164E-02  0.1266605E+00
        -11   -1    0    0    0    0  0.00000000000E+00  0.00000000000E+00  0.45593999997E+02  0.45594000000E+02  0.51100000000E-03 0.  1.
         11   -1    0    0    0    0 -0.00000000000E+00 -0.00000000000E+00 -0.45593999997E+02  0.45594000000E+02  0.51100000000E-03 0. -1.
    9900012    2    1    2    0    0  0.25911934464E+02 -0.13027940683E+02  0.13250211882E+02  0.59301894859E+02  0.49999910329E+02 0.  0.
         12    1    1    2    0    0 -0.25911934464E+02  0.13027940683E+02 -0.13250211882E+02  0.31886105141E+02  0.00000000000E+00 0. -1.
         11    1    3    3    0    0  0.86785381096E+01 -0.67463948553E+01  0.13926030542E+00  0.10993191573E+02  0.51100000000E-03 0. -1.
        -11    1    3    3    0    0  0.17662401999E+02 -0.23354777119E+02  0.10048474495E+02  0.30957679154E+02  0.51100000000E-03 0.  1.
        -12    1    3    3    0    0 -0.42900564462E+00  0.17073231291E+02  0.30624770813E+01  0.17351024133E+02  0.00000000000E+00 0.  1.
</event>
<event>
 7    1  0.5634483E-012  0.5930198E+02  0.7816164E-02  0.1266605E+00
        -11   -1    0    0    0    0  0.00000000000E+00  0.00000000000E+00  0.45593999997E+02  0.45594000000E+02  0.51100000000E-03 0.  1.
         11   -1    0    0    0    0 -0.00000000000E+00 -0.00000000000E+00 -0.45593999997E+02  0.45594000000E+02  0.51100000000E-03 0. -1.
    9900012    2    1    2    0    0  0.95803998374E+01  0.24591736498E+02  0.17893596778E+02  0.59301978443E+02  0.50000062766E+02 0.  0.
         12    1    1    2    0    0 -0.95803998374E+01 -0.24591736498E+02 -0.17893596778E+02  0.31886021557E+02  0.00000000000E+00 0. -1.
         11    1    3    3    0    0  0.43802792587E+01  0.26448027959E+02  0.12460571299E+02  0.29562660006E+02  0.51100000000E-03 0. -1.
        -11    1    3    3    0    0 -0.55784951689E+01  0.10068609929E+02  0.71861828906E+01  0.13569736145E+02  0.51100000000E-03 0.  1.
         12    1    3    3    0    0  0.10778615748E+02 -0.11924901389E+02 -0.17531574116E+01  0.16169582292E+02  0.00000000000E+00 0. -1.
</event>
<event>
 7    1  0.5634483E-012  0.5930194E+02  0.7816164E-02  0.1266605E+00
        -11   -1    0    0    0    0  0.00000000000E+00  0.00000000000E+00  0.45593999997E+02  0.45594000000E+02  0.51100000000E-03 0.  1.
         11   -1    0    0    0    0 -0.00000000000E+00 -0.00000000000E+00 -0.45593999997E+02  0.45594000000E+02  0.51100000000E-03 0. -1.
    9900012    2    1    2    0    0 -0.62702994081E+01 -0.94156820873E+01  0.29811893145E+02  0.59301941969E+02  0.49999996246E+02 0.  0.
         12    1    1    2    0    0  0.62702994081E+01  0.94156820873E+01 -0.29811893145E+02  0.31886058031E+02  0.00000000000E+00 0. -1.
         11    1    3    3    0    0  0.24335762102E+01  0.10319303211E+02  0.44577571172E+01  0.11501387338E+02  0.51100000000E-03 0. -1.
        -11    1    3    3    0    0 -0.19766606069E+02 -0.48253485314E+01  0.65492944862E+01  0.21375124853E+02  0.51100000000E-03 0.  1.
        -12    1    3    3    0    0  0.11062730451E+02 -0.14909636767E+02  0.18804841542E+02  0.26425429778E+02  0.00000000000E+00 0.  1.
</event>
<event>
 7    1  0.5634483E-012  0.5930193E+02  0.7816164E-02  0.1266605E+00
        -11   -1    0    0    0    0  0.00000000000E+00  0.00000000000E+00  0.45593999997E+02  0.45594000000E+02  0.51100000000E-03 0.  1.
         11   -1    0    0    0    0 -0.00000000000E+00 -0.00000000000E+00 -0.45593999997E+02  0.45594000000E+02  0.51100000000E-03 0. -1.
    9900012    2    1    2    0    0 -0.81675804034E+01 -0.92001371918E+01  0.29417163790E+02  0.59301930636E+02  0.49999975577E+02 0.  0.
         12    1    1    2    0    0  0.81675804034E+01  0.92001371918E+01 -0.29417163790E+02  0.31886069364E+02  0.00000000000E+00 0. -1.
         11    1    3    3    0    0 -0.85949402455E+01 -0.25741941863E+02  0.27355259610E+01  0.27276430691E+02  0.51100000000E-03 0.  1.
        -11    1    3    3    0    0 -0.38546892712E+00  0.30460286068E+01  0.14406051158E+01  0.33914922863E+01  0.51100000000E-03 0. -1.
        -12    1    3    3    0    0  0.81282876928E+00  0.13495776064E+02  0.25241032714E+02  0.28634007659E+02  0.00000000000E+00 0.  1.
</event>
<event>
 7    1  0.5634483E-012  0.5930195E+02  0.7816164E-02  0.1266605E+00
        -11   -1    0    0    0    0  0.00000000000E+00  0.00000000000E+00  0.45593999997E+02  0.45594000000E+02  0.51100000000E-03 0. -1.
         11   -1    0    0    0    0 -0.00000000000E+00 -0.00000000000E+00 -0.45593999997E+02  0.45594000000E+02  0.51100000000E-03 0.  1.
    9900012    2    1    2    0    0 -0.26256355301E+02  0.17792592969E+02  0.32783982127E+01  0.59301945790E+02  0.50000003214E+02 0.  0.
         12    1    1    2    0    0  0.26256355301E+02 -0.17792592969E+02 -0.32783982127E+01  0.31886054210E+02  0.00000000000E+00 0. -1.
         11    1    3    3    0    0 -0.11624719965E+02  0.27589642858E+02  0.26000458076E-01  0.29938657011E+02  0.51100000000E-03 0.  1.
        -11    1    3    3    0    0 -0.12124756471E+02 -0.31790460940E+01  0.12510912320E+02  0.17709855473E+02  0.51100000000E-03 0. -1.
        -12    1    3    3    0    0 -0.25068788651E+01 -0.66180037957E+01 -0.92585145649E+01  0.11653433307E+02  0.00000000000E+00 0.  1.
</event>
<event>
 7    1  0.5634483E-012  0.5930178E+02  0.7816164E-02  0.1266605E+00
        -11   -1    0    0    0    0  0.00000000000E+00  0.00000000000E+00  0.45593999997E+02  0.45594000000E+02  0.51100000000E-03 0. -1.
         11   -1    0    0    0    0 -0.00000000000E+00 -0.00000000000E+00 -0.45593999997E+02  0.45594000000E+02  0.51100000000E-03 0.  1.
    9900012    2    1    2    0    0 -0.97816669890E+01  0.13821709137E+02 -0.27018708091E+02  0.59301776651E+02  0.49999694744E+02 0.  0.
         12    1    1    2    0    0  0.97816669890E+01 -0.13821709137E+02  0.27018708091E+02  0.31886223349E+02  0.00000000000E+00 0. -1.
         11    1    3    3    0    0 -0.69699070654E+01 -0.40368982162E+01  0.53051090396E+01  0.96447049665E+01  0.51100000000E-03 0. -1.
        -11    1    3    3    0    0  0.18683813440E+01 -0.24269917952E+01 -0.28285111012E+02  0.28450459455E+02  0.51100000000E-03 0.  1.
         12    1    3    3    0    0 -0.46801412676E+01  0.20285599149E+02 -0.40387061190E+01  0.21206612229E+02  0.00000000000E+00 0. -1.
</event>
<event>
 7    1  0.5634483E-012  0.5930193E+02  0.7816164E-02  0.1266605E+00
        -11   -1    0    0    0    0  0.00000000000E+00  0.00000000000E+00  0.45593999997E+02  0.45594000000E+02  0.51100000000E-03 0.  1.
         11   -1    0    0    0    0 -0.00000000000E+00 -0.00000000000E+00 -0.45593999997E+02  0.45594000000E+02  0.51100000000E-03 0. -1.
    9900012    2    1    2    0    0 -0.20766567358E+02  0.23868580660E+02  0.39701399027E+01  0.59301929791E+02  0.49999974035E+02 0.  0.
         12    1    1    2    0    0  0.20766567358E+02 -0.23868580660E+02 -0.39701399027E+01  0.31886070209E+02  0.00000000000E+00 0. -1.
         11    1    3    3    0    0 -0.45054109553E+01  0.13732118844E+02 -0.13100867061E+02  0.19506474152E+02  0.51100000000E-03 0. -1.
        -11    1    3    3    0    0 -0.79859159555E+01  0.18721301799E+02  0.18174500309E+01  0.20434410184E+02  0.51100000000E-03 0.  1.
        -12    1    3    3    0    0 -0.82752404469E+01 -0.85848399836E+01  0.15253556932E+02  0.19361045454E+02  0.00000000000E+00 0.  1.
</event>
<event>
 7    1  0.5634483E-012  0.5930195E+02  0.7816164E-02  0.1266605E+00
        -11   -1    0    0    0    0  0.00000000000E+00  0.00000000000E+00  0.45593999997E+02  0.45594000000E+02  0.51100000000E-03 0.  1.
         11   -1    0    0    0    0 -0.00000000000E+00 -0.00000000000E+00 -0.45593999997E+02  0.45594000000E+02  0.51100000000E-03 0. -1.
    9900012    2    1    2    0    0 -0.21381276387E+02 -0.20610409685E+02  0.11609149076E+02  0.59301948040E+02  0.50000007317E+02 0.  0.
         12    1    1    2    0    0  0.21381276387E+02  0.20610409685E+02 -0.11609149076E+02  0.31886051960E+02  0.00000000000E+00 0. -1.
         11    1    3    3    0    0 -0.17888664023E+02 -0.11865327444E+02 -0.92618462947E+01  0.23378881345E+02  0.51100000000E-03 0. -1.
        -11    1    3    3    0    0 -0.13045977554E+02 -0.10929736571E+02  0.58670586619E+01  0.18002195684E+02  0.51100000000E-03 0.  1.
        -12    1    3    3    0    0  0.95533651910E+01  0.21846543295E+01  0.15003936709E+02  0.17920871011E+02  0.00000000000E+00 0.  1.
</event>
<event>
 7    1  0.5634483E-012  0.5930199E+02  0.7816164E-02  0.1266605E+00
        -11   -1    0    0    0    0  0.00000000000E+00  0.00000000000E+00  0.45593999997E+02  0.45594000000E+02  0.51100000000E-03 0. -1.
         11   -1    0    0    0    0 -0.00000000000E+00 -0.00000000000E+00 -0.45593999997E+02  0.45594000000E+02  0.51100000000E-03 0.  1.
    9900012    2    1    2    0    0 -0.42597869541E+01  0.31298693461E+02  0.43547149665E+01  0.59301991474E+02  0.50000086531E+02 0.  0.
         12    1    1    2    0    0  0.42597869541E+01 -0.31298693461E+02 -0.43547149665E+01  0.31886008526E+02  0.00000000000E+00 0. -1.
         11    1    3    3    0    0 -0.22849579239E+01  0.19582029554E+02  0.12052851357E+02  0.23107317894E+02  0.51100000000E-03 0. -1.
        -11    1    3    3    0    0 -0.38662962882E+01  0.56228545854E+01  0.12920261322E+02  0.14611567115E+02  0.51100000000E-03 0.  1.
        -12    1    3    3    0    0  0.18914672581E+01  0.60938093219E+01 -0.20618397713E+02  0.21583106465E+02  0.00000000000E+00 0.  1.
</event>
<event>
 7    1  0.5634483E-012  0.5930195E+02  0.7816164E-02  0.1266605E+00
        -11   -1    0    0    0    0  0.00000000000E+00  0.00000000000E+00  0.45593999997E+02  0.45594000000E+02  0.51100000000E-03 0.  1.
         11   -1    0    0    0    0 -0.00000000000E+00 -0.00000000000E+00 -0.45593999997E+02  0.45594000000E+02  0.51100000000E-03 0. -1.
    9900012    2    1    2    0    0  0.70561280224E+01 -0.24886343161E+02  0.18644071420E+02  0.59301946345E+02  0.50000004225E+02 0.  0.
         12    1    1    2    0    0 -0.70561280224E+01  0.24886343161E+02 -0.18644071420E+02  0.31886053655E+02  0.00000000000E+00 0. -1.
         11    1    3    3    0    0 -0.12247119858E+01 -0.64505707017E+01  0.18705426731E+02  0.19824297497E+02  0.51100000000E-03 0.  1.
        -11    1    3    3    0    0  0.73627934922E+01 -0.77027904832E+01 -0.16608632059E+02  0.19732976672E+02  0.51100000000E-03 0. -1.
         12    1    3    3    0    0  0.91804651601E+00 -0.10732981976E+02  0.16547276748E+02  0.19744672175E+02  0.00000000000E+00 0. -1.
</event>
<event>
 7    1  0.5634483E-012  0.5930204E+02  0.7816164E-02  0.1266604E+00
        -11   -1    0    0    0    0  0.00000000000E+00  0.00000000000E+00  0.45593999997E+02  0.45594000000E+02  0.51100000000E-03 0.  1.
         11   -1    0    0    0    0 -0.00000000000E+00 -0.00000000000E+00 -0.45593999997E+02  0.45594000000E+02  0.51100000000E-03 0. -1.
    9900012    2    1    2    0    0 -0.21196033685E+02 -0.11955498771E+02  0.20603611556E+02  0.59302037509E+02  0.50000170487E+02 0.  0.
         12    1    1    2    0    0  0.21196033685E+02  0.11955498771E+02 -0.20603611556E+02  0.31885962491E+02  0.00000000000E+00 0. -1.
         11    1    3    3    0    0  0.37678596536E+01  0.61938849374E+01 -0.29451079986E+01  0.78252564413E+01  0.51100000000E-03 0. -1.
        -11    1    3    3    0    0 -0.74857742807E+01 -0.19670958404E+00 -0.81523361914E+01  0.11069602381E+02  0.51100000000E-03 0.  1.
        -12    1    3    3    0    0 -0.17478119058E+02 -0.17952674124E+02  0.31701055746E+02  0.40407178687E+02  0.00000000000E+00 0.  1.
</event>
<event>
 7    1  0.5634483E-012  0.5930190E+02  0.7816164E-02  0.1266605E+00
        -11   -1    0    0    0    0  0.00000000000E+00  0.00000000000E+00  0.45593999997E+02  0.45594000000E+02  0.51100000000E-03 0.  1.
         11   -1    0    0    0    0 -0.00000000000E+00 -0.00000000000E+00 -0.45593999997E+02  0.45594000000E+02  0.51100000000E-03 0. -1.
    9900012    2    1    2    0    0  0.88314223186E+01  0.30215131240E+02  0.50769465983E+01  0.59301897027E+02  0.49999914282E+02 0.  0.
         12    1    1    2    0    0 -0.88314223186E+01 -0.30215131240E+02 -0.50769465983E+01  0.31886102973E+02  0.00000000000E+00 0. -1.
         11    1    3    3    0    0 -0.76171942622E+01 -0.36836500162E+00  0.49172126977E+01  0.90739364213E+01  0.51100000000E-03 0. -1.
        -11    1    3    3    0    0  0.53211630462E+01  0.26076593820E+02  0.15461028663E+02  0.30779001430E+02  0.51100000000E-03 0.  1.
         12    1    3    3    0    0  0.11127453535E+02  0.45069024216E+01 -0.15301294763E+02  0.19448959176E+02  0.00000000000E+00 0. -1.
</event>
<event>
 7    1  0.5634483E-012  0.5930195E+02  0.7816164E-02  0.1266605E+00
        -11   -1    0    0    0    0  0.00000000000E+00  0.00000000000E+00  0.45593999997E+02  0.45594000000E+02  0.51100000000E-03 0. -1.
         11   -1    0    0    0    0 -0.00000000000E+00 -0.00000000000E+00 -0.45593999997E+02  0.45594000000E+02  0.51100000000E-03 0.  1.
    9900012    2    1    2    0    0  0.21166589182E+02 -0.10881929184E+02 -0.21219781087E+02  0.59301953056E+02  0.50000016465E+02 0.  0.
         12    1    1    2    0    0 -0.21166589182E+02  0.10881929184E+02  0.21219781087E+02  0.31886046944E+02  0.00000000000E+00 0. -1.
         11    1    3    3    0    0  0.71955715342E+01  0.42926348268E+01  0.48242538249E+01  0.96683188140E+01  0.51100000000E-03 0. -1.
        -11    1    3    3    0    0  0.25639639450E+01  0.11492251908E+02 -0.19664288251E+01  0.11937864449E+02  0.51100000000E-03 0.  1.
        -12    1    3    3    0    0  0.11407053703E+02 -0.26666815919E+02 -0.24077606086E+02  0.37695769793E+02  0.00000000000E+00 0.  1.
</event>
<event>
 7    1  0.5634483E-012  0.5930200E+02  0.7816164E-02  0.1266605E+00
        -11   -1    0    0    0    0  0.00000000000E+00  0.00000000000E+00  0.45593999997E+02  0.45594000000E+02  0.51100000000E-03 0.  1.
         11   -1    0    0    0    0 -0.00000000000E+00 -0.00000000000E+00 -0.45593999997E+02  0.45594000000E+02  0.51100000000E-03 0. -1.
    9900012    2    1    2    0    0 -0.17452407502E+02 -0.38770876020E+01  0.26402628253E+02  0.59301998141E+02  0.50000098690E+02 0.  0.
         12    1    1    2    0    0  0.17452407502E+02  0.38770876020E+01 -0.26402628253E+02  0.31886001859E+02  0.00000000000E+00 0. -1.
         11    1    3    3    0    0 -0.23551978179E+02 -0.11923012414E+02  0.20059699014E+02  0.33154870320E+02  0.51100000000E-03 0. -1.
        -11    1    3    3    0    0 -0.83190178586E+01  0.42593268770E+01  0.62428689029E+01  0.11239276488E+02  0.51100000000E-03 0.  1.
        -12    1    3    3    0    0  0.14418588536E+02  0.37865979346E+01  0.10006033577E+00  0.14907851333E+02  0.00000000000E+00 0.  1.
</event>
<event>
 7    1  0.5634483E-012  0.5930193E+02  0.7816164E-02  0.1266605E+00
        -11   -1    0    0    0    0  0.00000000000E+00  0.00000000000E+00  0.45593999997E+02  0.45594000000E+02  0.51100000000E-03 0. -1.
         11   -1    0    0    0    0 -0.00000000000E+00 -0.00000000000E+00 -0.45593999997E+02  0.45594000000E+02  0.51100000000E-03 0.  1.
    9900012    2    1    2    0    0  0.12859413958E+02  0.13728897421E+02 -0.25746341146E+02  0.59301933542E+02  0.49999980876E+02 0.  0.
         12    1    1    2    0    0 -0.12859413958E+02 -0.13728897421E+02  0.25746341146E+02  0.31886066458E+02  0.00000000000E+00 0. -1.
         11    1    3    3    0    0 -0.40817526806E+01  0.76201254823E+01  0.58637647261E+01  0.10445609333E+02  0.51100000000E-03 0. -1.
        -11    1    3    3    0    0  0.19746242411E+02 -0.44431106997E+00 -0.37567867647E+01  0.20105346272E+02  0.51100000000E-03 0.  1.
        -12    1    3    3    0    0 -0.28050757718E+01  0.65530830090E+01 -0.27853319107E+02  0.28750977937E+02  0.00000000000E+00 0.  1.
</event>
<event>
 7    1  0.5634483E-012  0.5930196E+02  0.7816164E-02  0.1266605E+00
        -11   -1    0    0    0    0  0.00000000000E+00  0.00000000000E+00  0.45593999997E+02  0.45594000000E+02  0.51100000000E-03 0.  1.
         11   -1    0    0    0    0 -0.00000000000E+00 -0.00000000000E+00 -0.45593999997E+02  0.45594000000E+02  0.51100000000E-03 0. -1.
    9900012    2    1    2    0    0  0.99682083683E+01  0.50162149505E+00  0.30283704787E+02  0.59301959514E+02  0.50000028244E+02 0.  0.
         12    1    1    2    0    0 -0.99682083683E+01 -0.50162149505E+00 -0.30283704787E+02  0.31886040486E+02  0.00000000000E+00 0. -1.
         11    1    3    3    0    0 -0.49653112274E+01  0.35481705665E+01 -0.59991411364E+01  0.85576588265E+01  0.51100000000E-03 0. -1.
        -11    1    3    3    0    0  0.19123244113E+01 -0.15752643385E+02  0.99225530462E+01  0.18715229560E+02  0.51100000000E-03 0.  1.
        -12    1    3    3    0    0  0.13021195184E+02  0.12706094313E+02  0.26360292878E+02  0.32029071128E+02  0.00000000000E+00 0.  1.
</event>
<event>
 7    1  0.5634483E-012  0.5930195E+02  0.7816164E-02  0.1266605E+00
        -11   -1    0    0    0    0  0.00000000000E+00  0.00000000000E+00  0.45593999997E+02  0.45594000000E+02  0.51100000000E-03 0. -1.
         11   -1    0    0    0    0 -0.00000000000E+00 -0.00000000000E+00 -0.45593999997E+02  0.45594000000E+02  0.51100000000E-03 0.  1.
    9900012    2    1    2    0    0  0.11748434801E+02  0.60733967287E+01 -0.29013938141E+02  0.59301945454E+02  0.50000002601E+02 0.  0.
         12    1    1    2    0    0 -0.11748434801E+02 -0.60733967287E+01  0.29013938141E+02  0.31886054546E+02  0.00000000000E+00 0. -1.
         11    1    3    3    0    0  0.18148821413E+02 -0.36895031564E+01  0.31022049370E+01  0.18778067737E+02  0.51100000000E-03 0. -1.
        -11    1    3    3    0    0  0.55281723103E+01 -0.19401532019E+01 -0.17033941349E+02  0.18013329556E+02  0.51100000000E-03 0.  1.
         12    1    3    3    0    0 -0.11928558922E+02  0.11703053087E+02 -0.15082201728E+02  0.22510548160E+02  0.00000000000E+00 0. -1.
</event>
<event>
 7    1  0.5634483E-012  0.5930196E+02  0.7816164E-02  0.1266605E+00
        -11   -1    0    0    0    0  0.00000000000E+00  0.00000000000E+00  0.45593999997E+02  0.45594000000E+02  0.51100000000E-03 0.  1.
         11   -1    0    0    0    0 -0.00000000000E+00 -0.00000000000E+00 -0.45593999997E+02  0.45594000000E+02  0.51100000000E-03 0. -1.
    9900012    2    1    2    0    0  0.18155373595E+01  0.27027036169E+02  0.16821499003E+02  0.59301957776E+02  0.50000025074E+02 0.  0.
         12    1    1    2    0    0 -0.18155373595E+01 -0.27027036169E+02 -0.16821499003E+02  0.31886042224E+02  0.00000000000E+00 0. -1.
         11    1    3    3    0    0 -0.65312389268E+01  0.14168108011E+02 -0.12038155795E+01  0.15647413164E+02  0.51100000000E-03 0. -1.
        -11    1    3    3    0    0  0.12812929038E+02  0.23106834717E+02  0.57274562784E+01  0.27035175547E+02  0.51100000000E-03 0.  1.
         12    1    3    3    0    0 -0.44661527517E+01 -0.10247906559E+02  0.12297858304E+02  0.16619369065E+02  0.00000000000E+00 0. -1.
</event>
<event>
 7    1  0.5634483E-012  0.5930195E+02  0.7816164E-02  0.1266605E+00
        -11   -1    0    0    0    0  0.00000000000E+00  0.00000000000E+00  0.45593999997E+02  0.45594000000E+02  0.51100000000E-03 0.  1.
         11   -1    0    0    0    0 -0.00000000000E+00 -0.00000000000E+00 -0.45593999997E+02  0.45594000000E+02  0.51100000000E-03 0. -1.
    9900012    2    1    2    0    0  0.23475387887E+02  0.16862972066E+02  0.13463536736E+02  0.59301945293E+02  0.50000002307E+02 0.  0.
         12    1    1    2    0    0 -0.23475387887E+02 -0.16862972066E+02 -0.13463536736E+02  0.31886054707E+02  0.00000000000E+00 0. -1.
         11    1    3    3    0    0  0.24109577848E+02  0.15620374288E+02  0.18771006541E+02  0.34316446840E+02  0.51100000000E-03 0. -1.
        -11    1    3    3    0    0  0.25211915343E+01 -0.54849895924E+01  0.78331532164E+01  0.98893785019E+01  0.51100000000E-03 0.  1.
         12    1    3    3    0    0 -0.31553814943E+01  0.67275873700E+01 -0.13140623021E+02  0.15096119951E+02  0.00000000000E+00 0. -1.
</event>
<event>
 7    1  0.5634483E-012  0.5930194E+02  0.7816164E-02  0.1266605E+00
        -11   -1    0    0    0    0  0.00000000000E+00  0.00000000000E+00  0.45593999997E+02  0.45594000000E+02  0.51100000000E-03 0.  1.
         11   -1    0    0    0    0 -0.00000000000E+00 -0.00000000000E+00 -0.45593999997E+02  0.45594000000E+02  0.51100000000E-03 0. -1.
    9900012    2    1    2    0    0 -0.29976369924E+01  0.68361481262E+01  0.31000032061E+02  0.59301941346E+02  0.49999995109E+02 0.  0.
         12    1    1    2    0    0  0.29976369924E+01 -0.68361481262E+01 -0.31000032061E+02  0.31886058654E+02  0.00000000000E+00 0. -1.
         11    1    3    3    0    0  0.96524130228E+01  0.13922555802E+02  0.22835420315E+02  0.28433484810E+02  0.51100000000E-03 0. -1.
        -11    1    3    3    0    0  0.45000425258E+01 -0.58115359708E+01  0.11208703549E+02  0.13403707270E+02  0.51100000000E-03 0.  1.
         12    1    3    3    0    0 -0.17150092541E+02 -0.12748717052E+01 -0.30440918027E+01  0.17464749266E+02  0.00000000000E+00 0. -1.
</event>
<event>
 7    1  0.5634483E-012  0.5930194E+02  0.7816164E-02  0.1266605E+00
        -11   -1    0    0    0    0  0.00000000000E+00  0.00000000000E+00  0.45593999997E+02  0.45594000000E+02  0.51100000000E-03 0.  1.
         11   -1    0    0    0    0 -0.00000000000E+00 -0.00000000000E+00 -0.45593999997E+02  0.45594000000E+02  0.51100000000E-03 0. -1.
    9900012    2    1    2    0    0  0.25774202839E+02 -0.16523472270E+02  0.89099072169E+01  0.59301935419E+02  0.49999984299E+02 0.  0.
         12    1    1    2    0    0 -0.25774202839E+02  0.16523472270E+02 -0.89099072169E+01  0.31886064581E+02  0.00000000000E+00 0. -1.
         11    1    3    3    0    0  0.57168623129E+01  0.11710714994E+02 -0.56060161454E+00  0.13043681797E+02  0.51100000000E-03 0. -1.
        -11    1    3    3    0    0  0.76529299620E+01 -0.21830412339E+02  0.18510286921E+02  0.29627098441E+02  0.51100000000E-03 0.  1.
         12    1    3    3    0    0  0.12404410565E+02 -0.64037749250E+01 -0.90397780892E+01  0.16631155181E+02  0.00000000000E+00 0. -1.
</event>
<event>
 7    1  0.5634483E-012  0.5930198E+02  0.7816164E-02  0.1266605E+00
        -11   -1    0    0    0    0  0.00000000000E+00  0.00000000000E+00  0.45593999997E+02  0.45594000000E+02  0.51100000000E-03 0. -1.
         11   -1    0    0    0    0 -0.00000000000E+00 -0.00000000000E+00 -0.45593999997E+02  0.45594000000E+02  0.51100000000E-03 0.  1.
    9900012    2    1    2    0    0  0.23446544179E+02  0.20125291067E+02  0.78708562539E+01  0.59301981863E+02  0.50000069003E+02 0.  0.
         12    1    1    2    0    0 -0.23446544179E+02 -0.20125291067E+02 -0.78708562539E+01  0.31886018137E+02  0.00000000000E+00 0. -1.
         11    1    3    3    0    0  0.58718959725E+01  0.13231843550E+02 -0.38231801999E+01  0.14972560006E+02  0.51100000000E-03 0. -1.
        -11    1    3    3    0    0 -0.26339002086E+00  0.16674086765E+02  0.16464120834E+02  0.23434201904E+02  0.51100000000E-03 0.  1.
         12    1    3    3    0    0  0.17838038227E+02 -0.97806392484E+01 -0.47700843802E+01  0.20895219953E+02  0.00000000000E+00 0. -1.
</event>
<event>
 7    1  0.5634483E-012  0.5930190E+02  0.7816164E-02  0.1266605E+00
        -11   -1    0    0    0    0  0.00000000000E+00  0.00000000000E+00  0.45593999997E+02  0.45594000000E+02  0.51100000000E-03 0.  1.
         11   -1    0    0    0    0 -0.00000000000E+00 -0.00000000000E+00 -0.45593999997E+02  0.45594000000E+02  0.51100000000E-03 0. -1.
    9900012    2    1    2    0    0 -0.76396513645E+01 -0.13400963678E+02  0.27906505760E+02  0.59301903278E+02  0.49999925682E+02 0.  0.
         12    1    1    2    0    0  0.76396513645E+01  0.13400963678E+02 -0.27906505760E+02  0.31886096722E+02  0.00000000000E+00 0. -1.
         11    1    3    3    0    0  0.48550168378E+01 -0.15464519588E+02  0.67720306728E-01  0.16208859950E+02  0.51100000000E-03 0. -1.
        -11    1    3    3    0    0  0.63375781906E+00 -0.10267270108E+01  0.29481464678E+02  0.29506144735E+02  0.51100000000E-03 0.  1.
         12    1    3    3    0    0 -0.13128426021E+02  0.30902829208E+01 -0.16426792250E+01  0.13586898593E+02  0.00000000000E+00 0. -1.
</event>
<event>
 7    1  0.5634483E-012  0.5930199E+02  0.7816164E-02  0.1266605E+00
        -11   -1    0    0    0    0  0.00000000000E+00  0.00000000000E+00  0.45593999997E+02  0.45594000000E+02  0.51100000000E-03 0.  1.
         11   -1    0    0    0    0 -0.00000000000E+00 -0.00000000000E+00 -0.45593999997E+02  0.45594000000E+02  0.51100000000E-03 0. -1.
    9900012    2    1    2    0    0 -0.14674166893E+02  0.28276365457E+02 -0.13542113571E+01  0.59301985733E+02  0.50000076060E+02 0.  0.
         12    1    1    2    0    0  0.14674166893E+02 -0.28276365457E+02  0.13542113571E+01  0.31886014267E+02  0.00000000000E+00 0. -1.
         11    1    3    3    0    0 -0.38891747537E+01  0.10874202741E+01 -0.11814144092E+02  0.12485277890E+02  0.51100000000E-03 0. -1.
        -11    1    3    3    0    0  0.95791279222E+01  0.19215767997E+02  0.12513033214E+02  0.24851185725E+02  0.51100000000E-03 0.  1.
         12    1    3    3    0    0 -0.20364120061E+02  0.79731771861E+01 -0.20531004793E+01  0.21965522118E+02  0.00000000000E+00 0. -1.
</event>
<event>
 7    1  0.5634483E-012  0.5930201E+02  0.7816164E-02  0.1266605E+00
        -11   -1    0    0    0    0  0.00000000000E+00  0.00000000000E+00  0.45593999997E+02  0.45594000000E+02  0.51100000000E-03 0.  1.
         11   -1    0    0    0    0 -0.00000000000E+00 -0.00000000000E+00 -0.45593999997E+02  0.45594000000E+02  0.51100000000E-03 0. -1.
    9900012    2    1    2    0    0  0.12128601371E+02  0.27094188660E+02  0.11641225423E+02  0.59302013114E+02  0.50000125996E+02 0.  0.
         12    1    1    2    0    0 -0.12128601371E+02 -0.27094188660E+02 -0.11641225423E+02  0.31885986886E+02  0.00000000000E+00 0. -1.
         11    1    3    3    0    0 -0.76614787452E+01  0.13655761320E+02 -0.10034148928E+02  0.18597371286E+02  0.51100000000E-03 0. -1.
        -11    1    3    3    0    0  0.10160787028E+02  0.20047203790E+02  0.16746577822E+02  0.28028197264E+02  0.51100000000E-03 0.  1.
        -12    1    3    3    0    0  0.96292930882E+01 -0.66087764506E+01  0.49287965286E+01  0.12676444564E+02  0.00000000000E+00 0.  1.
</event>
<event>
 7    1  0.5634483E-012  0.5930188E+02  0.7816164E-02  0.1266605E+00
        -11   -1    0    0    0    0  0.00000000000E+00  0.00000000000E+00  0.45593999997E+02  0.45594000000E+02  0.51100000000E-03 0.  1.
         11   -1    0    0    0    0 -0.00000000000E+00 -0.00000000000E+00 -0.45593999997E+02  0.45594000000E+02  0.51100000000E-03 0. -1.
    9900012    2    1    2    0    0  0.31229990031E+02  0.60476203390E+01 -0.21997236503E+01  0.59301878047E+02  0.49999879666E+02 0.  0.
         12    1    1    2    0    0 -0.31229990031E+02 -0.60476203390E+01  0.21997236503E+01  0.31886121953E+02  0.00000000000E+00 0. -1.
         11    1    3    3    0    0  0.67355532564E+00 -0.56872616858E+01 -0.11380743763E+02  0.12740484729E+02  0.51100000000E-03 0. -1.
        -11    1    3    3    0    0  0.75507213600E+01  0.13063783917E+02 -0.86786007932E+01  0.17406721554E+02  0.51100000000E-03 0.  1.
        -12    1    3    3    0    0  0.23005713345E+02 -0.13289018920E+01  0.17859620906E+02  0.29154671764E+02  0.00000000000E+00 0.  1.
</event>
<event>
 7    1  0.5634483E-012  0.5930201E+02  0.7816164E-02  0.1266605E+00
        -11   -1    0    0    0    0  0.00000000000E+00  0.00000000000E+00  0.45593999997E+02  0.45594000000E+02  0.51100000000E-03 0.  1.
         11   -1    0    0    0    0 -0.00000000000E+00 -0.00000000000E+00 -0.45593999997E+02  0.45594000000E+02  0.51100000000E-03 0. -1.
    9900012    2    1    2    0    0 -0.11860408733E+02 -0.27498098236E+02  0.10949972040E+02  0.59302006373E+02  0.50000113702E+02 0.  0.
         12    1    1    2    0    0  0.11860408733E+02  0.27498098236E+02 -0.10949972040E+02  0.31885993627E+02  0.00000000000E+00 0. -1.
         11    1    3    3    0    0 -0.22282111082E+01 -0.18990899742E+02 -0.78186049439E+01  0.20657922966E+02  0.51100000000E-03 0.  1.
        -11    1    3    3    0    0  0.10389403604E+02 -0.82049650019E+01  0.10829495134E+02  0.17103775111E+02  0.51100000000E-03 0. -1.
         12    1    3    3    0    0 -0.20021601229E+02 -0.30223349295E+00  0.79390818490E+01  0.21540308295E+02  0.00000000000E+00 0. -1.
</event>
<event>
 7    1  0.5634483E-012  0.5930194E+02  0.7816164E-02  0.1266605E+00
        -11   -1    0    0    0    0  0.00000000000E+00  0.00000000000E+00  0.45593999997E+02  0.45594000000E+02  0.51100000000E-03 0.  1.
         11   -1    0    0    0    0 -0.00000000000E+00 -0.00000000000E+00 -0.45593999997E+02  0.45594000000E+02  0.51100000000E-03 0. -1.
    9900012    2    1    2    0    0 -0.24767061750E+02 -0.19413216656E+02  0.51420193592E+01  0.59301942047E+02  0.49999996388E+02 0.  0.
         12    1    1    2    0    0  0.24767061750E+02  0.19413216656E+02 -0.51420193592E+01  0.31886057953E+02  0.00000000000E+00 0. -1.
         11    1    3    3    0    0 -0.33642699661E+02 -0.80910273701E+00 -0.65105263302E+01  0.34276418148E+02  0.51100000000E-03 0. -1.
        -11    1    3    3    0    0  0.57455077399E+01 -0.35785075239E+01  0.29706280494E+01  0.73919690582E+01  0.51100000000E-03 0.  1.
        -12    1    3    3    0    0  0.31301301701E+01 -0.15025606395E+02  0.86819176399E+01  0.17633554841E+02  0.00000000000E+00 0.  1.
</event>
<event>
 7    1  0.5634483E-012  0.5930194E+02  0.7816164E-02  0.1266605E+00
        -11   -1    0    0    0    0  0.00000000000E+00  0.00000000000E+00  0.45593999997E+02  0.45594000000E+02  0.51100000000E-03 0.  1.
         11   -1    0    0    0    0 -0.00000000000E+00 -0.00000000000E+00 -0.45593999997E+02  0.45594000000E+02  0.51100000000E-03 0. -1.
    9900012    2    1    2    0    0 -0.13420176840E+02  0.24641204996E+02  0.15146960038E+02  0.59301944608E+02  0.50000001058E+02 0.  0.
         12    1    1    2    0    0  0.13420176840E+02 -0.24641204996E+02 -0.15146960038E+02  0.31886055392E+02  0.00000000000E+00 0. -1.
         11    1    3    3    0    0 -0.11577265081E+02  0.23754086667E+02  0.21854594033E+01  0.26515390497E+02  0.51100000000E-03 0. -1.
        -11    1    3    3    0    0 -0.17126219296E+01  0.95321315080E+01  0.19615795803E+02  0.21876335392E+02  0.51100000000E-03 0.  1.
        -12    1    3    3    0    0 -0.13028982997E+00 -0.86450131788E+01 -0.66542951680E+01  0.10910218718E+02  0.00000000000E+00 0.  1.
</event>
<event>
 7    1  0.5634483E-012  0.5930193E+02  0.7816164E-02  0.1266605E+00
        -11   -1    0    0    0    0  0.00000000000E+00  0.00000000000E+00  0.45593999997E+02  0.45594000000E+02  0.51100000000E-03 0. -1.
         11   -1    0    0    0    0 -0.00000000000E+00 -0.00000000000E+00 -0.45593999997E+02  0.45594000000E+02  0.51100000000E-03 0.  1.
    9900012    2    1    2    0    0 -0.10264947075E+02  0.11771550247E+01 -0.30165649521E+02  0.59301933397E+02  0.49999980612E+02 0.  0.
         12    1    1    2    0    0  0.10264947075E+02 -0.11771550247E+01  0.30165649521E+02  0.31886066603E+02  0.00000000000E+00 0. -1.
         11    1    3    3    0    0  0.67336462521E+00 -0.13473458407E+02 -0.34181643869E+00  0.13494604111E+02  0.51100000000E-03 0. -1.
        -11    1    3    3    0    0 -0.93050281396E+01 -0.75036842168E+01 -0.65375672869E+01  0.13624559141E+02  0.51100000000E-03 0.  1.
        -12    1    3    3    0    0 -0.16332835609E+01  0.22154297649E+02 -0.23286265795E+02  0.32182770145E+02  0.00000000000E+00 0.  1.
</event>
<event>
 7    1  0.5634483E-012  0.5930199E+02  0.7816164E-02  0.1266605E+00
        -11   -1    0    0    0    0  0.00000000000E+00  0.00000000000E+00  0.45593999997E+02  0.45594000000E+02  0.51100000000E-03 0. -1.
         11   -1    0    0    0    0 -0.00000000000E+00 -0.00000000000E+00 -0.45593999997E+02  0.45594000000E+02  0.51100000000E-03 0.  1.
    9900012    2    1    2    0    0 -0.14837145276E+01 -0.35465364807E+01 -0.31653410729E+02  0.59301988325E+02  0.50000080787E+02 0.  0.
         12    1    1    2    0    0  0.14837145276E+01  0.35465364807E+01  0.31653410729E+02  0.31886011675E+02  0.00000000000E+00 0. -1.
         11    1    3    3    0    0 -0.11352410810E+02 -0.21454038593E+01 -0.12052645036E+02  0.16695695300E+02  0.51100000000E-03 0. -1.
        -11    1    3    3    0    0 -0.12625228050E+02  0.47148482390E+01 -0.25270140237E+01  0.13711745964E+02  0.51100000000E-03 0.  1.
        -12    1    3    3    0    0  0.22493924333E+02 -0.61159808604E+01 -0.17073751669E+02  0.28894547060E+02  0.00000000000E+00 0.  1.
</event>
<event>
 7    1  0.5634483E-012  0.5930193E+02  0.7816164E-02  0.1266605E+00
        -11   -1    0    0    0    0  0.00000000000E+00  0.00000000000E+00  0.45593999997E+02  0.45594000000E+02  0.51100000000E-03 0.  1.
         11   -1    0    0    0    0 -0.00000000000E+00 -0.00000000000E+00 -0.45593999997E+02  0.45594000000E+02  0.51100000000E-03 0. -1.
    9900012    2    1    2    0    0 -0.21366108480E+02  0.23606901804E+02  0.17103116141E+01  0.59301928273E+02  0.49999971267E+02 0.  0.
         12    1    1    2    0    0  0.21366108480E+02 -0.23606901804E+02 -0.17103116141E+01  0.31886071727E+02  0.00000000000E+00 0. -1.
         11    1    3    3    0    0 -0.29482411164E+01  0.37418022996E+01  0.11909992764E+02  0.12827358965E+02  0.51100000000E-03 0. -1.
        -11    1    3    3    0    0 -0.42670626370E+01 -0.10323638097E+02 -0.65126412296E+01  0.12930577062E+02  0.51100000000E-03 0.  1.
        -12    1    3    3    0    0 -0.14150804727E+02  0.30188737602E+02 -0.36870399202E+01  0.33543992245E+02  0.00000000000E+00 0.  1.
</event>
<event>
 7    1  0.5634483E-012  0.5930194E+02  0.7816164E-02  0.1266605E+00
        -11   -1    0    0    0    0  0.00000000000E+00  0.00000000000E+00  0.45593999997E+02  0.45594000000E+02  0.51100000000E-03 0.  1.
         11   -1    0    0    0    0 -0.00000000000E+00 -0.00000000000E+00 -0.45593999997E+02  0.45594000000E+02  0.51100000000E-03 0. -1.
    9900012    2    1    2    0    0 -0.25616650193E+02 -0.74439096416E+01  0.17466998576E+02  0.59301943531E+02  0.49999999095E+02 0.  0.
         12    1    1    2    0    0  0.25616650193E+02  0.74439096416E+01 -0.17466998576E+02  0.31886056469E+02  0.00000000000E+00 0. -1.
         11    1    3    3    0    0 -0.26797978571E+02 -0.15069066684E+02  0.20933293565E+02  0.37194236193E+02  0.51100000000E-03 0. -1.
        -11    1    3    3    0    0 -0.44595621227E+01 -0.44588022115E+01  0.33393141342E+01  0.71357992289E+01  0.51100000000E-03 0.  1.
         12    1    3    3    0    0  0.56408905007E+01  0.12083959254E+02 -0.68056091236E+01  0.14971908109E+02  0.00000000000E+00 0. -1.
</event>
<event>
 7    1  0.5634483E-012  0.5930196E+02  0.7816164E-02  0.1266605E+00
        -11   -1    0    0    0    0  0.00000000000E+00  0.00000000000E+00  0.45593999997E+02  0.45594000000E+02  0.51100000000E-03 0.  1.
         11   -1    0    0    0    0 -0.00000000000E+00 -0.00000000000E+00 -0.45593999997E+02  0.45594000000E+02  0.51100000000E-03 0. -1.
    9900012    2    1    2    0    0  0.13416525251E+02 -0.20597492153E+02  0.20309109319E+02  0.59301956750E+02  0.50000023202E+02 0.  0.
         12    1    1    2    0    0 -0.13416525251E+02  0.20597492153E+02 -0.20309109319E+02  0.31886043250E+02  0.00000000000E+00 0. -1.
         11    1    3    3    0    0  0.31376680958E+01 -0.90034549936E+01  0.23255027685E+01  0.98140270169E+01  0.51100000000E-03 0. -1.
        -11    1    3    3    0    0  0.22230958658E+02 -0.12341387112E+02  0.24958477459E+02  0.35629355258E+02  0.51100000000E-03 0.  1.
         12    1    3    3    0    0 -0.11952101503E+02  0.74734995265E+00 -0.69748709085E+01  0.13858574475E+02  0.00000000000E+00 0. -1.
</event>
<event>
 7    1  0.5634483E-012  0.5930205E+02  0.7816164E-02  0.1266604E+00
        -11   -1    0    0    0    0  0.00000000000E+00  0.00000000000E+00  0.45593999997E+02  0.45594000000E+02  0.51100000000E-03 0.  1.
         11   -1    0    0    0    0 -0.00000000000E+00 -0.00000000000E+00 -0.45593999997E+02  0.45594000000E+02  0.51100000000E-03 0. -1.
    9900012    2    1    2    0    0 -0.22098910669E+02  0.22957985511E+02  0.11327313268E+01  0.59302046482E+02  0.50000186852E+02 0.  0.
         12    1    1    2    0    0  0.22098910669E+02 -0.22957985511E+02 -0.11327313268E+01  0.31885953518E+02  0.00000000000E+00 0. -1.
         11    1    3    3    0    0 -0.65895616489E+00  0.41749432220E+00 -0.11794885918E+02  0.11820653908E+02  0.51100000000E-03 0. -1.
        -11    1    3    3    0    0  0.86031485924E+01  0.19162855864E+01 -0.38370464344E-02  0.88139849747E+01  0.51100000000E-03 0.  1.
         12    1    3    3    0    0 -0.30043103096E+02  0.20624205603E+02  0.12931454291E+02  0.38667407600E+02  0.00000000000E+00 0. -1.
</event>
<event>
 7    1  0.5634483E-012  0.5930197E+02  0.7816164E-02  0.1266605E+00
        -11   -1    0    0    0    0  0.00000000000E+00  0.00000000000E+00  0.45593999997E+02  0.45594000000E+02  0.51100000000E-03 0.  1.
         11   -1    0    0    0    0 -0.00000000000E+00 -0.00000000000E+00 -0.45593999997E+02  0.45594000000E+02  0.51100000000E-03 0. -1.
    9900012    2    1    2    0    0 -0.24709422708E+02  0.20111355552E+02 -0.13024751928E+01  0.59301974310E+02  0.50000055227E+02 0.  0.
         12    1    1    2    0    0  0.24709422708E+02 -0.20111355552E+02  0.13024751928E+01  0.31886025690E+02  0.00000000000E+00 0. -1.
         11    1    3    3    0    0 -0.10210738115E+02 -0.51645185916E+01 -0.16386844023E+01  0.11559269526E+02  0.51100000000E-03 0.  1.
        -11    1    3    3    0    0  0.38947237549E+01  0.26744120975E+02 -0.69479913531E+01  0.27905043701E+02  0.51100000000E-03 0. -1.
         12    1    3    3    0    0 -0.18393408348E+02 -0.14682468313E+01  0.72842005626E+01  0.19837661083E+02  0.00000000000E+00 0. -1.
</event>
<event>
 7    1  0.5634483E-012  0.5930190E+02  0.7816164E-02  0.1266605E+00
        -11   -1    0    0    0    0  0.00000000000E+00  0.00000000000E+00  0.45593999997E+02  0.45594000000E+02  0.51100000000E-03 0.  1.
         11   -1    0    0    0    0 -0.00000000000E+00 -0.00000000000E+00 -0.45593999997E+02  0.45594000000E+02  0.51100000000E-03 0. -1.
    9900012    2    1    2    0    0  0.31336529091E+02  0.25242306093E+01 -0.53266731625E+01  0.59301902048E+02  0.49999923439E+02 0.  0.
         12    1    1    2    0    0 -0.31336529091E+02 -0.25242306093E+01  0.53266731625E+01  0.31886097952E+02  0.00000000000E+00 0. -1.
         11    1    3    3    0    0  0.10790231463E+02  0.16035685632E+02 -0.78537899732E+00  0.19343968805E+02  0.51100000000E-03 0. -1.
        -11    1    3    3    0    0  0.25151591341E+02  0.99861208724E-01 -0.47031080149E+01  0.25587726443E+02  0.51100000000E-03 0.  1.
         12    1    3    3    0    0 -0.46052937136E+01 -0.13611316231E+02  0.16181384974E+00  0.14370206799E+02  0.00000000000E+00 0. -1.
</event>
<event>
 7    1  0.5634483E-012  0.5930198E+02  0.7816164E-02  0.1266605E+00
        -11   -1    0    0    0    0  0.00000000000E+00  0.00000000000E+00  0.45593999997E+02  0.45594000000E+02  0.51100000000E-03 0.  1.
         11   -1    0    0    0    0 -0.00000000000E+00 -0.00000000000E+00 -0.45593999997E+02  0.45594000000E+02  0.51100000000E-03 0. -1.
    9900012    2    1    2    0    0 -0.19358280598E+02 -0.24366803572E+02 -0.69450638755E+01  0.59301983375E+02  0.50000071759E+02 0.  0.
         12    1    1    2    0    0  0.19358280598E+02  0.24366803572E+02  0.69450638755E+01  0.31886016625E+02  0.00000000000E+00 0. -1.
         11    1    3    3    0    0 -0.11631336333E+02 -0.38042909010E+01  0.29099227018E+00  0.12241131112E+02  0.51100000000E-03 0. -1.
        -11    1    3    3    0    0 -0.81877517628E+01 -0.32027901030E+02 -0.11226450709E+02  0.34912160047E+02  0.51100000000E-03 0.  1.
         12    1    3    3    0    0  0.46080749740E+00  0.11465388360E+02  0.39903945633E+01  0.12148692216E+02  0.00000000000E+00 0. -1.
</event>
<event>
 7    1  0.5634483E-012  0.5930195E+02  0.7816164E-02  0.1266605E+00
        -11   -1    0    0    0    0  0.00000000000E+00  0.00000000000E+00  0.45593999997E+02  0.45594000000E+02  0.51100000000E-03 0. -1.
         11   -1    0    0    0    0 -0.00000000000E+00 -0.00000000000E+00 -0.45593999997E+02  0.45594000000E+02  0.51100000000E-03 0.  1.
    9900012    2    1    2    0    0 -0.16429852566E+01  0.20256442980E+02 -0.24570257179E+02  0.59301946299E+02  0.50000004143E+02 0.  0.
         12    1    1    2    0    0  0.16429852566E+01 -0.20256442980E+02  0.24570257179E+02  0.31886053701E+02  0.00000000000E+00 0. -1.
         11    1    3    3    0    0  0.25498748927E+00 -0.24454125036E+01 -0.27152284840E+02  0.27263375309E+02  0.51100000000E-03 0. -1.
        -11    1    3    3    0    0 -0.62010805331E+01  0.24506121022E+01 -0.66077263340E+01  0.93872758040E+01  0.51100000000E-03 0.  1.
         12    1    3    3    0    0  0.43031077873E+01  0.20251243381E+02  0.91897539953E+01  0.22651295186E+02  0.00000000000E+00 0. -1.
</event>
<event>
 7    1  0.5634483E-012  0.5930194E+02  0.7816164E-02  0.1266605E+00
        -11   -1    0    0    0    0  0.00000000000E+00  0.00000000000E+00  0.45593999997E+02  0.45594000000E+02  0.51100000000E-03 0. -1.
         11   -1    0    0    0    0 -0.00000000000E+00 -0.00000000000E+00 -0.45593999997E+02  0.45594000000E+02  0.51100000000E-03 0.  1.
    9900012    2    1    2    0    0  0.12170175199E+02  0.41655088083E+01 -0.29176294221E+02  0.59301940782E+02  0.49999994080E+02 0.  0.
         12    1    1    2    0    0 -0.12170175199E+02 -0.41655088083E+01  0.29176294221E+02  0.31886059218E+02  0.00000000000E+00 0. -1.
         11    1    3    3    0    0  0.15909149054E+01  0.10475055311E+02  0.44968626062E+01  0.11509976870E+02  0.51100000000E-03 0. -1.
        -11    1    3    3    0    0  0.16050179114E+02  0.51294607702E+01 -0.69765746345E+01  0.18237110826E+02  0.51100000000E-03 0.  1.
        -12    1    3    3    0    0 -0.54709188205E+01 -0.11439007273E+02 -0.26696582193E+02  0.29554853086E+02  0.00000000000E+00 0.  1.
</event>
<event>
 7    1  0.5634483E-012  0.5930194E+02  0.7816164E-02  0.1266605E+00
        -11   -1    0    0    0    0  0.00000000000E+00  0.00000000000E+00  0.45593999997E+02  0.45594000000E+02  0.51100000000E-03 0.  1.
         11   -1    0    0    0    0 -0.00000000000E+00 -0.00000000000E+00 -0.45593999997E+02  0.45594000000E+02  0.51100000000E-03 0. -1.
    9900012    2    1    2    0    0 -0.26272877701E+02  0.12276891291E+02 -0.13256505174E+02  0.59301935773E+02  0.49999984945E+02 0.  0.
         12    1    1    2    0    0  0.26272877701E+02 -0.12276891291E+02  0.13256505174E+02  0.31886064227E+02  0.00000000000E+00 0. -1.
         11    1    3    3    0    0 -0.17176638228E+02 -0.14971844011E+02 -0.12624588011E+02  0.26049438316E+02  0.51100000000E-03 0. -1.
        -11    1    3    3    0    0  0.22110606113E+01 -0.37980919896E+00  0.23526475989E+01  0.32508452809E+01  0.51100000000E-03 0.  1.
        -12    1    3    3    0    0 -0.11307300085E+02  0.27628544500E+02 -0.29845647616E+01  0.30001652175E+02  0.00000000000E+00 0.  1.
</event>
<event>
 7    1  0.5634483E-012  0.5930193E+02  0.7816164E-02  0.1266605E+00
        -11   -1    0    0    0    0  0.00000000000E+00  0.00000000000E+00  0.45593999997E+02  0.45594000000E+02  0.51100000000E-03 0.  1.
         11   -1    0    0    0    0 -0.00000000000E+00 -0.00000000000E+00 -0.45593999997E+02  0.45594000000E+02  0.51100000000E-03 0. -1.
    9900012    2    1    2    0    0 -0.96028851676E+01 -0.26856782834E+02  0.14255500594E+02  0.59301929610E+02  0.49999973706E+02 0.  0.
         12    1    1    2    0    0  0.96028851676E+01  0.26856782834E+02 -0.14255500594E+02  0.31886070390E+02  0.00000000000E+00 0. -1.
         11    1    3    3    0    0 -0.17656071793E+02 -0.98608715894E+01 -0.65864356710E+01  0.21268634059E+02  0.51100000000E-03 0. -1.
        -11    1    3    3    0    0 -0.56806555577E+01 -0.13730408254E+02  0.27928996199E+01  0.15119333548E+02  0.51100000000E-03 0.  1.
        -12    1    3    3    0    0  0.13733842183E+02 -0.32655029904E+01  0.18049036645E+02  0.22913962003E+02  0.00000000000E+00 0.  1.
</event>
<event>
 7    1  0.5634483E-012  0.5930198E+02  0.7816164E-02  0.1266605E+00
        -11   -1    0    0    0    0  0.00000000000E+00  0.00000000000E+00  0.45593999997E+02  0.45594000000E+02  0.51100000000E-03 0. -1.
         11   -1    0    0    0    0 -0.00000000000E+00 -0.00000000000E+00 -0.45593999997E+02  0.45594000000E+02  0.51100000000E-03 0.  1.
    9900012    2    1    2    0    0  0.14708626337E+02  0.26430768218E+02 -0.10089071801E+02  0.59301975363E+02  0.50000057149E+02 0.  0.
         12    1    1    2    0    0 -0.14708626337E+02 -0.26430768218E+02  0.10089071801E+02  0.31886024637E+02  0.00000000000E+00 0. -1.
         11    1    3    3    0    0  0.10459180359E+02 -0.27920011874E+01  0.37144787935E+01  0.11444958601E+02  0.51100000000E-03 0. -1.
        -11    1    3    3    0    0  0.18978681133E+02  0.10891246182E+02 -0.99092994160E+01  0.24020903316E+02  0.51100000000E-03 0.  1.
        -12    1    3    3    0    0 -0.14729235155E+02  0.18331523223E+02 -0.38942511789E+01  0.23836113446E+02  0.00000000000E+00 0.  1.
</event>
<event>
 7    1  0.5634483E-012  0.5930198E+02  0.7816164E-02  0.1266605E+00
        -11   -1    0    0    0    0  0.00000000000E+00  0.00000000000E+00  0.45593999997E+02  0.45594000000E+02  0.51100000000E-03 0.  1.
         11   -1    0    0    0    0 -0.00000000000E+00 -0.00000000000E+00 -0.45593999997E+02  0.45594000000E+02  0.51100000000E-03 0. -1.
    9900012    2    1    2    0    0  0.18283543097E+01 -0.30481154540E+02  0.91801219557E+01  0.59301979541E+02  0.50000064768E+02 0.  0.
         12    1    1    2    0    0 -0.18283543097E+01  0.30481154540E+02 -0.91801219557E+01  0.31886020459E+02  0.00000000000E+00 0. -1.
         11    1    3    3    0    0  0.56898289414E+01 -0.10630902777E+02 -0.29307665958E+01  0.12408853305E+02  0.51100000000E-03 0. -1.
        -11    1    3    3    0    0 -0.14206413043E+02 -0.28310596953E+02  0.61805567618E+01  0.32272455028E+02  0.51100000000E-03 0.  1.
        -12    1    3    3    0    0  0.10344938411E+02  0.84603451902E+01  0.59303317897E+01  0.14620671209E+02  0.00000000000E+00 0.  1.
</event>
<event>
 7    1  0.5634483E-012  0.5930192E+02  0.7816164E-02  0.1266605E+00
        -11   -1    0    0    0    0  0.00000000000E+00  0.00000000000E+00  0.45593999997E+02  0.45594000000E+02  0.51100000000E-03 0.  1.
         11   -1    0    0    0    0 -0.00000000000E+00 -0.00000000000E+00 -0.45593999997E+02  0.45594000000E+02  0.51100000000E-03 0. -1.
    9900012    2    1    2    0    0  0.31485480175E+01  0.15012042510E+02  0.27954383375E+02  0.59301916440E+02  0.49999949687E+02 0.  0.
         12    1    1    2    0    0 -0.31485480175E+01 -0.15012042510E+02 -0.27954383375E+02  0.31886083560E+02  0.00000000000E+00 0. -1.
         11    1    3    3    0    0  0.11285374209E+02  0.83548024492E+01 -0.49265560562E+01  0.14880636742E+02  0.51100000000E-03 0. -1.
        -11    1    3    3    0    0  0.66093261319E+01  0.12060595602E+02  0.11720457046E+02  0.18069595232E+02  0.51100000000E-03 0.  1.
         12    1    3    3    0    0 -0.14746152324E+02 -0.54033555415E+01  0.21160482385E+02  0.26351684466E+02  0.00000000000E+00 0. -1.
</event>
<event>
 7    1  0.5634483E-012  0.5930194E+02  0.7816164E-02  0.1266605E+00
        -11   -1    0    0    0    0  0.00000000000E+00  0.00000000000E+00  0.45593999997E+02  0.45594000000E+02  0.51100000000E-03 0. -1.
         11   -1    0    0    0    0 -0.00000000000E+00 -0.00000000000E+00 -0.45593999997E+02  0.45594000000E+02  0.51100000000E-03 0.  1.
    9900012    2    1    2    0    0  0.13739005744E+02  0.27699712603E+02  0.77901358839E+01  0.59301943890E+02  0.49999999749E+02 0.  0.
         12    1    1    2    0    0 -0.13739005744E+02 -0.27699712603E+02 -0.77901358839E+01  0.31886056110E+02  0.00000000000E+00 0. -1.
         11    1    3    3    0    0  0.14452568287E+02  0.93817818558E+01  0.12916078564E+02  0.21534150706E+02  0.51100000000E-03 0. -1.
        -11    1    3    3    0    0  0.27787012081E+00  0.15159420435E+02  0.12613120390E+02  0.19722475655E+02  0.51100000000E-03 0.  1.
         12    1    3    3    0    0 -0.99143266401E+00  0.31585103129E+01 -0.17739063071E+02  0.18045317530E+02  0.00000000000E+00 0. -1.
</event>
<event>
 7    1  0.5634483E-012  0.5930198E+02  0.7816164E-02  0.1266605E+00
        -11   -1    0    0    0    0  0.00000000000E+00  0.00000000000E+00  0.45593999997E+02  0.45594000000E+02  0.51100000000E-03 0. -1.
         11   -1    0    0    0    0 -0.00000000000E+00 -0.00000000000E+00 -0.45593999997E+02  0.45594000000E+02  0.51100000000E-03 0.  1.
    9900012    2    1    2    0    0 -0.20755301402E+02 -0.13912092885E+02 -0.19808819561E+02  0.59301981165E+02  0.50000067730E+02 0.  0.
         12    1    1    2    0    0  0.20755301402E+02  0.13912092885E+02  0.19808819561E+02  0.31886018835E+02  0.00000000000E+00 0. -1.
         11    1    3    3    0    0  0.45940672133E+00  0.20117242584E+01  0.10008516351E+02  0.10219025826E+02  0.51100000000E-03 0. -1.
        -11    1    3    3    0    0  0.22649527205E+01 -0.80819557613E+01 -0.21316527045E+02  0.22909437909E+02  0.51100000000E-03 0.  1.
        -12    1    3    3    0    0 -0.23479660844E+02 -0.78418613825E+01 -0.85008088665E+01  0.26173517430E+02  0.00000000000E+00 0.  1.
</event>
<event>
 7    1  0.5634483E-012  0.5930195E+02  0.7816164E-02  0.1266605E+00
        -11   -1    0    0    0    0  0.00000000000E+00  0.00000000000E+00  0.45593999997E+02  0.45594000000E+02  0.51100000000E-03 0.  1.
         11   -1    0    0    0    0 -0.00000000000E+00 -0.00000000000E+00 -0.45593999997E+02  0.45594000000E+02  0.51100000000E-03 0. -1.
    9900012    2    1    2    0    0 -0.26050563008E+02 -0.11134255029E+02  0.14632729097E+02  0.59301949305E+02  0.50000009625E+02 0.  0.
         12    1    1    2    0    0  0.26050563008E+02  0.11134255029E+02 -0.14632729097E+02  0.31886050695E+02  0.00000000000E+00 0. -1.
         11    1    3    3    0    0 -0.10906251668E+02 -0.10939551132E+02 -0.75595927025E+00  0.15465819703E+02  0.51100000000E-03 0. -1.
        -11    1    3    3    0    0 -0.19916962673E+02  0.42771914948E+00  0.25664487247E+02  0.32488986622E+02  0.51100000000E-03 0.  1.
         12    1    3    3    0    0  0.47726513327E+01 -0.62242304665E+00 -0.10275798880E+02  0.11347142980E+02  0.00000000000E+00 0. -1.
</event>
<event>
 7    1  0.5634483E-012  0.5930192E+02  0.7816164E-02  0.1266605E+00
        -11   -1    0    0    0    0  0.00000000000E+00  0.00000000000E+00  0.45593999997E+02  0.45594000000E+02  0.51100000000E-03 0.  1.
         11   -1    0    0    0    0 -0.00000000000E+00 -0.00000000000E+00 -0.45593999997E+02  0.45594000000E+02  0.51100000000E-03 0. -1.
    9900012    2    1    2    0    0  0.25366411111E+02 -0.12668487674E+02  0.14586863310E+02  0.59301921944E+02  0.49999959724E+02 0.  0.
         12    1    1    2    0    0 -0.25366411111E+02  0.12668487674E+02 -0.14586863310E+02  0.31886078056E+02  0.00000000000E+00 0. -1.
         11    1    3    3    0    0  0.92984711896E+01  0.75518636862E+01 -0.44985909154E+00  0.11987267623E+02  0.51100000000E-03 0. -1.
        -11    1    3    3    0    0  0.10367658363E+02  0.64969918622E+01  0.15802260955E+02  0.19985261939E+02  0.51100000000E-03 0.  1.
        -12    1    3    3    0    0  0.57002815586E+01 -0.26717343222E+02 -0.76553855430E+00  0.27329392382E+02  0.00000000000E+00 0.  1.
</event>
<event>
 7    1  0.5634483E-012  0.5930196E+02  0.7816164E-02  0.1266605E+00
        -11   -1    0    0    0    0  0.00000000000E+00  0.00000000000E+00  0.45593999997E+02  0.45594000000E+02  0.51100000000E-03 0.  1.
         11   -1    0    0    0    0 -0.00000000000E+00 -0.00000000000E+00 -0.45593999997E+02  0.45594000000E+02  0.51100000000E-03 0. -1.
    9900012    2    1    2    0    0 -0.15960055066E+02 -0.15657003510E+02  0.22734432194E+02  0.59301960362E+02  0.50000029790E+02 0.  0.
         12    1    1    2    0    0  0.15960055066E+02  0.15657003510E+02 -0.22734432194E+02  0.31886039638E+02  0.00000000000E+00 0. -1.
         11    1    3    3    0    0 -0.92705492768E+01  0.14923622352E+02  0.97161453198E+01  0.20076380852E+02  0.51100000000E-03 0. -1.
        -11    1    3    3    0    0  0.27375737023E+01  0.62540595038E+00  0.48735026608E+01  0.56246307278E+01  0.51100000000E-03 0.  1.
        -12    1    3    3    0    0 -0.94270794919E+01 -0.31206031812E+02  0.81447842131E+01  0.33600948782E+02  0.00000000000E+00 0.  1.
</event>
<event>
 7    1  0.5634483E-012  0.5930194E+02  0.7816164E-02  0.1266605E+00
        -11   -1    0    0    0    0  0.00000000000E+00  0.00000000000E+00  0.45593999997E+02  0.45594000000E+02  0.51100000000E-03 0.  1.
         11   -1    0    0    0    0 -0.00000000000E+00 -0.00000000000E+00 -0.45593999997E+02  0.45594000000E+02  0.51100000000E-03 0. -1.
    9900012    2    1    2    0    0  0.29135946846E+02 -0.12207467351E+02 -0.43353640009E+01  0.59301936606E+02  0.49999986465E+02 0.  0.
         12    1    1    2    0    0 -0.29135946846E+02  0.12207467351E+02  0.43353640009E+01  0.31886063394E+02  0.00000000000E+00 0. -1.
         11    1    3    3    0    0 -0.20143243395E+01 -0.13472686786E+02 -0.21078452327E+01  0.13784549451E+02  0.51100000000E-03 0.  1.
        -11    1    3    3    0    0  0.40370358153E+01  0.59926501204E+01  0.12398357344E+02  0.14350218770E+02  0.51100000000E-03 0. -1.
        -12    1    3    3    0    0  0.27113235370E+02 -0.47274306860E+01 -0.14625876113E+02  0.31167168386E+02  0.00000000000E+00 0.  1.
</event>
<event>
 7    1  0.5634483E-012  0.5930196E+02  0.7816164E-02  0.1266605E+00
        -11   -1    0    0    0    0  0.00000000000E+00  0.00000000000E+00  0.45593999997E+02  0.45594000000E+02  0.51100000000E-03 0.  1.
         11   -1    0    0    0    0 -0.00000000000E+00 -0.00000000000E+00 -0.45593999997E+02  0.45594000000E+02  0.51100000000E-03 0. -1.
    9900012    2    1    2    0    0 -0.26241083373E+01  0.10829557387E+02  0.29875645953E+02  0.59301961066E+02  0.50000031075E+02 0.  0.
         12    1    1    2    0    0  0.26241083373E+01 -0.10829557387E+02 -0.29875645953E+02  0.31886038934E+02  0.00000000000E+00 0. -1.
         11    1    3    3    0    0  0.71391245621E+00  0.18476295645E+02  0.10982636669E+02  0.21505847582E+02  0.51100000000E-03 0. -1.
        -11    1    3    3    0    0 -0.11850357735E+02  0.82823305686E+01  0.62562790108E+01  0.15753380761E+02  0.51100000000E-03 0.  1.
        -12    1    3    3    0    0  0.85123369411E+01 -0.15929068827E+02  0.12636730273E+02  0.22042732723E+02  0.00000000000E+00 0.  1.
</event>
<event>
 7    1  0.5634483E-012  0.5930195E+02  0.7816164E-02  0.1266605E+00
        -11   -1    0    0    0    0  0.00000000000E+00  0.00000000000E+00  0.45593999997E+02  0.45594000000E+02  0.51100000000E-03 0.  1.
         11   -1    0    0    0    0 -0.00000000000E+00 -0.00000000000E+00 -0.45593999997E+02  0.45594000000E+02  0.51100000000E-03 0. -1.
    9900012    2    1    2    0    0 -0.27274494494E+02 -0.15208311427E+01 -0.16447166571E+02  0.59301948732E+02  0.50000008579E+02 0.  0.
         12    1    1    2    0    0  0.27274494494E+02  0.15208311427E+01  0.16447166571E+02  0.31886051268E+02  0.00000000000E+00 0. -1.
         11    1    3    3    0    0 -0.32710914801E+01  0.73006086109E+01 -0.25232445658E+02  0.26470270866E+02  0.51100000000E-03 0. -1.
        -11    1    3    3    0    0 -0.19215116105E+01  0.49764424960E+01  0.31346162637E+01  0.61873262534E+01  0.51100000000E-03 0.  1.
         12    1    3    3    0    0 -0.22081891403E+02 -0.13797882250E+02  0.56506628232E+01  0.26644351613E+02  0.00000000000E+00 0. -1.
</event>
<event>
 7    1  0.5634483E-012  0.5930196E+02  0.7816164E-02  0.1266605E+00
        -11   -1    0    0    0    0  0.00000000000E+00  0.00000000000E+00  0.45593999997E+02  0.45594000000E+02  0.51100000000E-03 0. -1.
         11   -1    0    0    0    0 -0.00000000000E+00 -0.00000000000E+00 -0.45593999997E+02  0.45594000000E+02  0.51100000000E-03 0.  1.
    9900012    2    1    2    0    0  0.21168808152E+02 -0.20114238467E+02 -0.12806971288E+02  0.59301960089E+02  0.50000029292E+02 0.  0.
         12    1    1    2    0    0 -0.21168808152E+02  0.20114238467E+02  0.12806971288E+02  0.31886039911E+02  0.00000000000E+00 0. -1.
         11    1    3    3    0    0 -0.11632460666E+02 -0.13072428478E+02 -0.21394116592E+01  0.17628942395E+02  0.51100000000E-03 0. -1.
        -11    1    3    3    0    0  0.76971682885E+01 -0.61949815406E+01 -0.13132127419E+02  0.16434018582E+02  0.51100000000E-03 0.  1.
         12    1    3    3    0    0  0.25104100529E+02 -0.84682844773E+00  0.24645677907E+01  0.25238999112E+02  0.00000000000E+00 0. -1.
</event>
<event>
 7    1  0.5634483E-012  0.5930192E+02  0.7816164E-02  0.1266605E+00
        -11   -1    0    0    0    0  0.00000000000E+00  0.00000000000E+00  0.45593999997E+02  0.45594000000E+02  0.51100000000E-03 0. -1.
         11   -1    0    0    0    0 -0.00000000000E+00 -0.00000000000E+00 -0.45593999997E+02  0.45594000000E+02  0.51100000000E-03 0.  1.
    9900012    2    1    2    0    0 -0.23067466010E+02  0.97801084157E+01 -0.19722159795E+02  0.59301920032E+02  0.49999956238E+02 0.  0.
         12    1    1    2    0    0  0.23067466010E+02 -0.97801084157E+01  0.19722159795E+02  0.31886079968E+02  0.00000000000E+00 0. -1.
         11    1    3    3    0    0 -0.84699920097E+01  0.12961483446E+02  0.10327685197E+02  0.18611875229E+02  0.51100000000E-03 0. -1.
        -11    1    3    3    0    0 -0.12086384870E+02 -0.12607071707E+02 -0.16769648331E+02  0.24212394794E+02  0.51100000000E-03 0.  1.
        -12    1    3    3    0    0 -0.25110891300E+01  0.94256966768E+01 -0.13280196661E+02  0.16477650009E+02  0.00000000000E+00 0.  1.
</event>
<event>
 7    1  0.5634483E-012  0.5930203E+02  0.7816164E-02  0.1266604E+00
        -11   -1    0    0    0    0  0.00000000000E+00  0.00000000000E+00  0.45593999997E+02  0.45594000000E+02  0.51100000000E-03 0. -1.
         11   -1    0    0    0    0 -0.00000000000E+00 -0.00000000000E+00 -0.45593999997E+02  0.45594000000E+02  0.51100000000E-03 0.  1.
    9900012    2    1    2    0    0 -0.14165216564E+02 -0.28555413841E+02 -0.80613332436E+00  0.59302033323E+02  0.50000162854E+02 0.  0.
         12    1    1    2    0    0  0.14165216564E+02  0.28555413841E+02  0.80613332436E+00  0.31885966677E+02  0.00000000000E+00 0. -1.
         11    1    3    3    0    0  0.13232947707E+02 -0.24152377737E+02 -0.50077352036E+01  0.27991528496E+02  0.51100000000E-03 0.  1.
        -11    1    3    3    0    0 -0.10562259668E+02  0.51258136614E+00  0.81280649185E+01  0.13337522578E+02  0.51100000000E-03 0. -1.
        -12    1    3    3    0    0 -0.16835904604E+02 -0.49156174699E+01 -0.39264630393E+01  0.17972982249E+02  0.00000000000E+00 0.  1.
</event>
<event>
 7    1  0.5634483E-012  0.5930198E+02  0.7816164E-02  0.1266605E+00
        -11   -1    0    0    0    0  0.00000000000E+00  0.00000000000E+00  0.45593999997E+02  0.45594000000E+02  0.51100000000E-03 0.  1.
         11   -1    0    0    0    0 -0.00000000000E+00 -0.00000000000E+00 -0.45593999997E+02  0.45594000000E+02  0.51100000000E-03 0. -1.
    9900012    2    1    2    0    0 -0.10741759966E+02  0.20697680497E+02  0.21747154238E+02  0.59301982648E+02  0.50000070434E+02 0.  0.
         12    1    1    2    0    0  0.10741759966E+02 -0.20697680497E+02 -0.21747154238E+02  0.31886017352E+02  0.00000000000E+00 0. -1.
         11    1    3    3    0    0 -0.71110820197E+01  0.86970615209E+01  0.17895759330E+02  0.21129708205E+02  0.51100000000E-03 0. -1.
        -11    1    3    3    0    0 -0.15664076139E+02  0.13545577991E+02  0.11639471255E+02  0.23755488961E+02  0.51100000000E-03 0.  1.
         12    1    3    3    0    0  0.12033398194E+02 -0.15449590150E+01 -0.77880763468E+01  0.14416785482E+02  0.00000000000E+00 0. -1.
</event>
<event>
 7    1  0.6130284E-012  0.5930195E+02  0.7816164E-02  0.1266605E+00
        -11   -1    0    0    0    0  0.00000000000E+00  0.00000000000E+00  0.45593999997E+02  0.45594000000E+02  0.51100000000E-03 0. -1.
         11   -1    0    0    0    0 -0.00000000000E+00 -0.00000000000E+00 -0.45593999997E+02  0.45594000000E+02  0.51100000000E-03 0.  1.
    9900012    2    1    2    0    0  0.26891507186E+02  0.10133600526E+02 -0.13815837791E+02  0.59301946744E+02  0.50000004955E+02 0.  0.
         12    1    1    2    0    0 -0.26891507186E+02 -0.10133600526E+02  0.13815837791E+02  0.31886053256E+02  0.00000000000E+00 0. -1.
         11    1    3    3    0    0 -0.64939820735E+01  0.51349200449E+01 -0.31878829160E+01  0.88714037663E+01  0.51100000000E-03 0. -1.
        -11    1    3    3    0    0  0.19733320590E+02  0.51177653788E+01 -0.23883890057E+02  0.31401204889E+02  0.51100000000E-03 0.  1.
         12    1    3    3    0    0  0.13652168669E+02 -0.11908489720E+00  0.13255935181E+02  0.19029338089E+02  0.00000000000E+00 0. -1.
</event>
<event>
 7    1  0.5634483E-012  0.5930195E+02  0.7816164E-02  0.1266605E+00
        -11   -1    0    0    0    0  0.00000000000E+00  0.00000000000E+00  0.45593999997E+02  0.45594000000E+02  0.51100000000E-03 0.  1.
         11   -1    0    0    0    0 -0.00000000000E+00 -0.00000000000E+00 -0.45593999997E+02  0.45594000000E+02  0.51100000000E-03 0. -1.
    9900012    2    1    2    0    0  0.28081128534E+02  0.89229805800E+01 -0.12188149093E+02  0.59301947556E+02  0.50000006434E+02 0.  0.
         12    1    1    2    0    0 -0.28081128534E+02 -0.89229805800E+01  0.12188149093E+02  0.31886052444E+02  0.00000000000E+00 0. -1.
         11    1    3    3    0    0 -0.10080894868E+02  0.26031031459E+01 -0.56618708523E+01  0.11851471180E+02  0.51100000000E-03 0. -1.
        -11    1    3    3    0    0  0.21207826884E+02  0.16519545072E+02 -0.97278071173E+00  0.26900066787E+02  0.51100000000E-03 0.  1.
        -12    1    3    3    0    0  0.16954196517E+02 -0.10199667638E+02 -0.55534975294E+01  0.20550409589E+02  0.00000000000E+00 0.  1.
</event>
<event>
 7    1  0.5634483E-012  0.5930181E+02  0.7816164E-02  0.1266605E+00
        -11   -1    0    0    0    0  0.00000000000E+00  0.00000000000E+00  0.45593999997E+02  0.45594000000E+02  0.51100000000E-03 0.  1.
         11   -1    0    0    0    0 -0.00000000000E+00 -0.00000000000E+00 -0.45593999997E+02  0.45594000000E+02  0.51100000000E-03 0. -1.
    9900012    2    1    2    0    0 -0.26104516033E+02 -0.32936122113E+01  0.18012096435E+02  0.59301807742E+02  0.49999751447E+02 0.  0.
         12    1    1    2    0    0  0.26104516033E+02  0.32936122113E+01 -0.18012096435E+02  0.31886192258E+02  0.00000000000E+00 0. -1.
         11    1    3    3    0    0 -0.11412240073E+01  0.14035904628E+01 -0.59767014496E+01  0.62444710666E+01  0.51100000000E-03 0. -1.
        -11    1    3    3    0    0 -0.90134765187E+00  0.12422420966E+02  0.19570925211E+02  0.23198062077E+02  0.51100000000E-03 0.  1.
         12    1    3    3    0    0 -0.24061944374E+02 -0.17119623640E+02  0.44178726735E+01  0.29859274599E+02  0.00000000000E+00 0. -1.
</event>
<event>
 7    1  0.5634483E-012  0.5930193E+02  0.7816164E-02  0.1266605E+00
        -11   -1    0    0    0    0  0.00000000000E+00  0.00000000000E+00  0.45593999997E+02  0.45594000000E+02  0.51100000000E-03 0.  1.
         11   -1    0    0    0    0 -0.00000000000E+00 -0.00000000000E+00 -0.45593999997E+02  0.45594000000E+02  0.51100000000E-03 0. -1.
    9900012    2    1    2    0    0  0.12277052739E+02 -0.25950748151E+02  0.13876375301E+02  0.59301934939E+02  0.49999983425E+02 0.  0.
         12    1    1    2    0    0 -0.12277052739E+02  0.25950748151E+02 -0.13876375301E+02  0.31886065061E+02  0.00000000000E+00 0. -1.
         11    1    3    3    0    0 -0.17509692822E+02 -0.14156823817E+02  0.35685086522E+01  0.22797790629E+02  0.51100000000E-03 0. -1.
        -11    1    3    3    0    0  0.94738042657E+01  0.21282376243E+00  0.86820061922E+01  0.12852061819E+02  0.51100000000E-03 0.  1.
        -12    1    3    3    0    0  0.20312941296E+02 -0.12006748096E+02  0.16258604571E+01  0.23652082491E+02  0.00000000000E+00 0.  1.
</event>
<event>
 7    1  0.5634483E-012  0.5930194E+02  0.7816164E-02  0.1266605E+00
        -11   -1    0    0    0    0  0.00000000000E+00  0.00000000000E+00  0.45593999997E+02  0.45594000000E+02  0.51100000000E-03 0.  1.
         11   -1    0    0    0    0 -0.00000000000E+00 -0.00000000000E+00 -0.45593999997E+02  0.45594000000E+02  0.51100000000E-03 0. -1.
    9900012    2    1    2    0    0 -0.24573091424E+02 -0.23728035103E+01  0.20180531483E+02  0.59301939260E+02  0.49999991304E+02 0.  0.
         12    1    1    2    0    0  0.24573091424E+02  0.23728035103E+01 -0.20180531483E+02  0.31886060740E+02  0.00000000000E+00 0. -1.
         11    1    3    3    0    0 -0.13801779940E+02 -0.70551721446E+01 -0.50029279170E+01  0.16287844287E+02  0.51100000000E-03 0. -1.
        -11    1    3    3    0    0 -0.18426663519E+02  0.14900606722E+01  0.22456113874E+01  0.18622700664E+02  0.51100000000E-03 0.  1.
         12    1    3    3    0    0  0.76553520352E+01  0.31923079621E+01  0.22937848012E+02  0.24391394309E+02  0.00000000000E+00 0. -1.
</event>
<event>
 7    1  0.5634483E-012  0.5930196E+02  0.7816164E-02  0.1266605E+00
        -11   -1    0    0    0    0  0.00000000000E+00  0.00000000000E+00  0.45593999997E+02  0.45594000000E+02  0.51100000000E-03 0.  1.
         11   -1    0    0    0    0 -0.00000000000E+00 -0.00000000000E+00 -0.45593999997E+02  0.45594000000E+02  0.51100000000E-03 0. -1.
    9900012    2    1    2    0    0 -0.13960180345E+01 -0.21317623953E+02  0.23671287590E+02  0.59301955819E+02  0.50000021504E+02 0.  0.
         12    1    1    2    0    0  0.13960180345E+01  0.21317623953E+02 -0.23671287590E+02  0.31886044181E+02  0.00000000000E+00 0. -1.
         11    1    3    3    0    0 -0.19090229684E+02 -0.14761059063E+02  0.71242148441E+01  0.25161084465E+02  0.51100000000E-03 0.  1.
        -11    1    3    3    0    0 -0.12112354563E+01 -0.96808042751E+01  0.17071104370E+01  0.99045085213E+01  0.51100000000E-03 0. -1.
         12    1    3    3    0    0  0.18905447106E+02  0.31242393855E+01  0.14839962309E+02  0.24236362832E+02  0.00000000000E+00 0. -1.
</event>
<event>
 7    1  0.5634483E-012  0.5930194E+02  0.7816164E-02  0.1266605E+00
        -11   -1    0    0    0    0  0.00000000000E+00  0.00000000000E+00  0.45593999997E+02  0.45594000000E+02  0.51100000000E-03 0. -1.
         11   -1    0    0    0    0 -0.00000000000E+00 -0.00000000000E+00 -0.45593999997E+02  0.45594000000E+02  0.51100000000E-03 0.  1.
    9900012    2    1    2    0    0  0.27279040581E+02 -0.98948929499E+01 -0.13216125670E+02  0.59301938167E+02  0.49999989311E+02 0.  0.
         12    1    1    2    0    0 -0.27279040581E+02  0.98948929499E+01  0.13216125670E+02  0.31886061833E+02  0.00000000000E+00 0. -1.
         11    1    3    3    0    0 -0.10149955719E+02 -0.52219464077E+01 -0.68920120225E+01  0.13333797485E+02  0.51100000000E-03 0. -1.
        -11    1    3    3    0    0  0.46775288214E+01  0.64543746801E+01 -0.80582043231E+01  0.11334588019E+02  0.51100000000E-03 0.  1.
        -12    1    3    3    0    0  0.32751467479E+02 -0.11127321222E+02  0.17340906756E+01  0.34633552663E+02  0.00000000000E+00 0.  1.
</event>
<event>
 7    1  0.5634483E-012  0.5930194E+02  0.7816164E-02  0.1266605E+00
        -11   -1    0    0    0    0  0.00000000000E+00  0.00000000000E+00  0.45593999997E+02  0.45594000000E+02  0.51100000000E-03 0.  1.
         11   -1    0    0    0    0 -0.00000000000E+00 -0.00000000000E+00 -0.45593999997E+02  0.45594000000E+02  0.51100000000E-03 0. -1.
    9900012    2    1    2    0    0 -0.18369120329E+02  0.20441333473E+02  0.16169357551E+02  0.59301940045E+02  0.49999992736E+02 0.  0.
         12    1    1    2    0    0  0.18369120329E+02 -0.20441333473E+02 -0.16169357551E+02  0.31886059955E+02  0.00000000000E+00 0. -1.
         11    1    3    3    0    0 -0.66985093785E+01  0.14759730828E+02  0.15487330027E+02  0.22418230832E+02  0.51100000000E-03 0. -1.
        -11    1    3    3    0    0 -0.11915026038E+02 -0.71420388465E+01  0.13054406872E+02  0.19062898610E+02  0.51100000000E-03 0.  1.
         12    1    3    3    0    0  0.24441508706E+00  0.12823641492E+02 -0.12372379347E+02  0.17820810603E+02  0.00000000000E+00 0. -1.
</event>
<event>
 7    1  0.5634483E-012  0.5930194E+02  0.7816164E-02  0.1266605E+00
        -11   -1    0    0    0    0  0.00000000000E+00  0.00000000000E+00  0.45593999997E+02  0.45594000000E+02  0.51100000000E-03 0.  1.
         11   -1    0    0    0    0 -0.00000000000E+00 -0.00000000000E+00 -0.45593999997E+02  0.45594000000E+02  0.51100000000E-03 0. -1.
    9900012    2    1    2    0    0  0.14783311870E+02  0.49999624079E+01  0.27806020092E+02  0.59301942118E+02  0.49999996517E+02 0.  0.
         12    1    1    2    0    0 -0.14783311870E+02 -0.49999624079E+01 -0.27806020092E+02  0.31886057882E+02  0.00000000000E+00 0. -1.
         11    1    3    3    0    0  0.12781025904E+02  0.23047383078E+01  0.92929112886E+01  0.15969490984E+02  0.51100000000E-03 0. -1.
        -11    1    3    3    0    0  0.46988135095E+01  0.12171942822E+02  0.27218865232E+02  0.30184460659E+02  0.51100000000E-03 0.  1.
         12    1    3    3    0    0 -0.26965275433E+01 -0.94767187215E+01 -0.87057564292E+01  0.13147990475E+02  0.00000000000E+00 0. -1.
</event>
<event>
 7    1  0.5634483E-012  0.5930195E+02  0.7816164E-02  0.1266605E+00
        -11   -1    0    0    0    0  0.00000000000E+00  0.00000000000E+00  0.45593999997E+02  0.45594000000E+02  0.51100000000E-03 0. -1.
         11   -1    0    0    0    0 -0.00000000000E+00 -0.00000000000E+00 -0.45593999997E+02  0.45594000000E+02  0.51100000000E-03 0.  1.
    9900012    2    1    2    0    0 -0.48180953577E+01 -0.28545106425E+02  0.13367231307E+02  0.59301952636E+02  0.50000015700E+02 0.  0.
         12    1    1    2    0    0  0.48180953577E+01  0.28545106425E+02 -0.13367231307E+02  0.31886047364E+02  0.00000000000E+00 0. -1.
         11    1    3    3    0    0 -0.22108607196E+01 -0.18946150562E+02  0.14594757673E+02  0.24017732575E+02  0.51100000000E-03 0. -1.
        -11    1    3    3    0    0 -0.18190073332E+02 -0.63250650951E+01 -0.18646344520E+01  0.19348438649E+02  0.51100000000E-03 0.  1.
        -12    1    3    3    0    0  0.15582838693E+02 -0.32738907677E+01  0.63710808573E+00  0.15935781412E+02  0.00000000000E+00 0.  1.
</event>
<event>
 7    1  0.5634483E-012  0.5930200E+02  0.7816164E-02  0.1266605E+00
        -11   -1    0    0    0    0  0.00000000000E+00  0.00000000000E+00  0.45593999997E+02  0.45594000000E+02  0.51100000000E-03 0.  1.
         11   -1    0    0    0    0 -0.00000000000E+00 -0.00000000000E+00 -0.45593999997E+02  0.45594000000E+02  0.51100000000E-03 0. -1.
    9900012    2    1    2    0    0  0.26497892450E+02  0.11563966805E+02  0.13448176604E+02  0.59301998580E+02  0.50000099491E+02 0.  0.
         12    1    1    2    0    0 -0.26497892450E+02 -0.11563966805E+02 -0.13448176604E+02  0.31886001420E+02  0.00000000000E+00 0. -1.
         11    1    3    3    0    0  0.16535999587E+02  0.73814467442E+01  0.22164930281E+01  0.18243844989E+02  0.51100000000E-03 0. -1.
        -11    1    3    3    0    0  0.87831826961E+01  0.34731869418E+01 -0.13396673042E+02  0.16391405512E+02  0.51100000000E-03 0.  1.
         12    1    3    3    0    0  0.11787101675E+01  0.70933311864E+00  0.24628356618E+02  0.24666748080E+02  0.00000000000E+00 0. -1.
</event>
<event>
 7    1  0.5634483E-012  0.5930193E+02  0.7816164E-02  0.1266605E+00
        -11   -1    0    0    0    0  0.00000000000E+00  0.00000000000E+00  0.45593999997E+02  0.45594000000E+02  0.51100000000E-03 0.  1.
         11   -1    0    0    0    0 -0.00000000000E+00 -0.00000000000E+00 -0.45593999997E+02  0.45594000000E+02  0.51100000000E-03 0. -1.
    9900012    2    1    2    0    0  0.21187861937E+02  0.35793306154E+01 -0.23558107580E+02  0.59301928842E+02  0.49999972305E+02 0.  0.
         12    1    1    2    0    0 -0.21187861937E+02 -0.35793306154E+01  0.23558107580E+02  0.31886071158E+02  0.00000000000E+00 0. -1.
         11    1    3    3    0    0 -0.64317942658E+01 -0.66344240399E+01 -0.12645184799E+02  0.15661553520E+02  0.51100000000E-03 0. -1.
        -11    1    3    3    0    0  0.66149527501E+01  0.15221182858E+02 -0.14145008453E+02  0.21806496094E+02  0.51100000000E-03 0.  1.
        -12    1    3    3    0    0  0.21004703453E+02 -0.50074282029E+01  0.32320856713E+01  0.21833879228E+02  0.00000000000E+00 0.  1.
</event>
<event>
 7    1  0.5634483E-012  0.5930195E+02  0.7816164E-02  0.1266605E+00
        -11   -1    0    0    0    0  0.00000000000E+00  0.00000000000E+00  0.45593999997E+02  0.45594000000E+02  0.51100000000E-03 0. -1.
         11   -1    0    0    0    0 -0.00000000000E+00 -0.00000000000E+00 -0.45593999997E+02  0.45594000000E+02  0.51100000000E-03 0.  1.
    9900012    2    1    2    0    0  0.67119240068E+00  0.85874927072E+01 -0.30700564970E+02  0.59301949449E+02  0.50000009887E+02 0.  0.
         12    1    1    2    0    0 -0.67119240068E+00 -0.85874927072E+01  0.30700564970E+02  0.31886050551E+02  0.00000000000E+00 0. -1.
         11    1    3    3    0    0 -0.46724423701E+01  0.12948006782E+02 -0.15572257594E+02  0.20784075735E+02  0.51100000000E-03 0. -1.
        -11    1    3    3    0    0  0.64708472261E+01  0.82602756390E+01 -0.21802815828E+02  0.24196421135E+02  0.51100000000E-03 0.  1.
         12    1    3    3    0    0 -0.11272124554E+01 -0.12620789714E+02  0.66745084509E+01  0.14321452579E+02  0.00000000000E+00 0. -1.
</event>
<event>
 7    1  0.5634483E-012  0.5930198E+02  0.7816164E-02  0.1266605E+00
        -11   -1    0    0    0    0  0.00000000000E+00  0.00000000000E+00  0.45593999997E+02  0.45594000000E+02  0.51100000000E-03 0. -1.
         11   -1    0    0    0    0 -0.00000000000E+00 -0.00000000000E+00 -0.45593999997E+02  0.45594000000E+02  0.51100000000E-03 0.  1.
    9900012    2    1    2    0    0 -0.60655045024E+01 -0.20008495465E+02 -0.24074632265E+02  0.59301981837E+02  0.50000068954E+02 0.  0.
         12    1    1    2    0    0  0.60655045024E+01  0.20008495465E+02  0.24074632265E+02  0.31886018163E+02  0.00000000000E+00 0. -1.
         11    1    3    3    0    0  0.41722258259E+01  0.11047441159E+02 -0.60876413361E+01  0.13285812049E+02  0.51100000000E-03 0. -1.
        -11    1    3    3    0    0 -0.50208982329E+01 -0.31082455937E+00 -0.13630010877E+02  0.14528703581E+02  0.51100000000E-03 0.  1.
         12    1    3    3    0    0 -0.52168320953E+01 -0.30745112064E+02 -0.43569800518E+01  0.31487466207E+02  0.00000000000E+00 0. -1.
</event>
<event>
 7    1  0.5634483E-012  0.5930193E+02  0.7816164E-02  0.1266605E+00
        -11   -1    0    0    0    0  0.00000000000E+00  0.00000000000E+00  0.45593999997E+02  0.45594000000E+02  0.51100000000E-03 0.  1.
         11   -1    0    0    0    0 -0.00000000000E+00 -0.00000000000E+00 -0.45593999997E+02  0.45594000000E+02  0.51100000000E-03 0. -1.
    9900012    2    1    2    0    0  0.27743774323E+02  0.40208493236E+01 -0.15193335479E+02  0.59301926458E+02  0.49999967957E+02 0.  0.
         12    1    1    2    0    0 -0.27743774323E+02 -0.40208493236E+01  0.15193335479E+02  0.31886073542E+02  0.00000000000E+00 0. -1.
         11    1    3    3    0    0  0.35018133099E+01  0.16417137230E+02 -0.11140357379E+02  0.20146777759E+02  0.51100000000E-03 0. -1.
        -11    1    3    3    0    0  0.39472634221E+01 -0.71063063364E+00  0.10734028979E+02  0.11458850850E+02  0.51100000000E-03 0.  1.
         12    1    3    3    0    0  0.20294697591E+02 -0.11685657273E+02 -0.14787007079E+02  0.27696297849E+02  0.00000000000E+00 0. -1.
</event>
<event>
 7    1  0.5634483E-012  0.5930195E+02  0.7816164E-02  0.1266605E+00
        -11   -1    0    0    0    0  0.00000000000E+00  0.00000000000E+00  0.45593999997E+02  0.45594000000E+02  0.51100000000E-03 0. -1.
         11   -1    0    0    0    0 -0.00000000000E+00 -0.00000000000E+00 -0.45593999997E+02  0.45594000000E+02  0.51100000000E-03 0.  1.
    9900012    2    1    2    0    0  0.61048907020E+01 -0.26889807123E+02 -0.16012148889E+02  0.59301947726E+02  0.50000006744E+02 0.  0.
         12    1    1    2    0    0 -0.61048907020E+01  0.26889807123E+02  0.16012148889E+02  0.31886052274E+02  0.00000000000E+00 0. -1.
         11    1    3    3    0    0 -0.59353729343E+01  0.83558479138E+01 -0.43408273550E+01  0.11130661643E+02  0.51100000000E-03 0. -1.
        -11    1    3    3    0    0 -0.44917454856E+01 -0.93982373355E+01  0.67230882045E+01  0.12397683565E+02  0.51100000000E-03 0.  1.
        -12    1    3    3    0    0  0.16532009122E+02 -0.25847417701E+02 -0.18394409739E+02  0.35773602517E+02  0.00000000000E+00 0.  1.
</event>
<event>
 7    1  0.5634483E-012  0.5930192E+02  0.7816164E-02  0.1266605E+00
        -11   -1    0    0    0    0  0.00000000000E+00  0.00000000000E+00  0.45593999997E+02  0.45594000000E+02  0.51100000000E-03 0. -1.
         11   -1    0    0    0    0 -0.00000000000E+00 -0.00000000000E+00 -0.45593999997E+02  0.45594000000E+02  0.51100000000E-03 0.  1.
    9900012    2    1    2    0    0  0.26764495033E+02 -0.35755177192E+01 -0.16958755251E+02  0.59301923085E+02  0.49999961806E+02 0.  0.
         12    1    1    2    0    0 -0.26764495033E+02  0.35755177192E+01  0.16958755251E+02  0.31886076915E+02  0.00000000000E+00 0. -1.
         11    1    3    3    0    0  0.51079550584E+01  0.11633680647E+02  0.20047063826E+01  0.12862837099E+02  0.51100000000E-03 0. -1.
        -11    1    3    3    0    0  0.25032187173E+02 -0.30216676438E+01 -0.20175830765E+01  0.25294495681E+02  0.51100000000E-03 0.  1.
         12    1    3    3    0    0 -0.33756471981E+01 -0.12187530723E+02 -0.16945878558E+02  0.21144590306E+02  0.00000000000E+00 0. -1.
</event>
<event>
 7    1  0.5634483E-012  0.5930195E+02  0.7816164E-02  0.1266605E+00
        -11   -1    0    0    0    0  0.00000000000E+00  0.00000000000E+00  0.45593999997E+02  0.45594000000E+02  0.51100000000E-03 0.  1.
         11   -1    0    0    0    0 -0.00000000000E+00 -0.00000000000E+00 -0.45593999997E+02  0.45594000000E+02  0.51100000000E-03 0. -1.
    9900012    2    1    2    0    0  0.28535427012E+02  0.13847943328E+02 -0.32686843667E+01  0.59301946204E+02  0.50000003969E+02 0.  0.
         12    1    1    2    0    0 -0.28535427012E+02 -0.13847943328E+02  0.32686843667E+01  0.31886053796E+02  0.00000000000E+00 0. -1.
         11    1    3    3    0    0  0.18097353643E+02  0.68263303907E+01  0.30682881278E+00  0.19344434333E+02  0.51100000000E-03 0. -1.
        -11    1    3    3    0    0  0.28272508513E+01  0.14880573791E+02  0.13091759537E+02  0.20020464324E+02  0.51100000000E-03 0.  1.
         12    1    3    3    0    0  0.76108225174E+01 -0.78589608534E+01 -0.16667272716E+02  0.19937047547E+02  0.00000000000E+00 0. -1.
</event>
<event>
 7    1  0.5634483E-012  0.5930196E+02  0.7816164E-02  0.1266605E+00
        -11   -1    0    0    0    0  0.00000000000E+00  0.00000000000E+00  0.45593999997E+02  0.45594000000E+02  0.51100000000E-03 0.  1.
         11   -1    0    0    0    0 -0.00000000000E+00 -0.00000000000E+00 -0.45593999997E+02  0.45594000000E+02  0.51100000000E-03 0. -1.
    9900012    2    1    2    0    0  0.11090764234E+02  0.82541386018E+01  0.28732971856E+02  0.59301960311E+02  0.50000029697E+02 0.  0.
         12    1    1    2    0    0 -0.11090764234E+02 -0.82541386018E+01 -0.28732971856E+02  0.31886039689E+02  0.00000000000E+00 0. -1.
         11    1    3    3    0    0 -0.54238827799E+01  0.12959836943E+02 -0.44599676138E+01  0.14739986071E+02  0.51100000000E-03 0. -1.
        -11    1    3    3    0    0  0.16630562507E+02 -0.25566859442E+00  0.70873890261E+01  0.18079603403E+02  0.51100000000E-03 0.  1.
         12    1    3    3    0    0 -0.11591549393E+00 -0.44500297470E+01  0.26105550444E+02  0.26482370837E+02  0.00000000000E+00 0. -1.
</event>
<event>
 7    1  0.5634483E-012  0.5930196E+02  0.7816164E-02  0.1266605E+00
        -11   -1    0    0    0    0  0.00000000000E+00  0.00000000000E+00  0.45593999997E+02  0.45594000000E+02  0.51100000000E-03 0. -1.
         11   -1    0    0    0    0 -0.00000000000E+00 -0.00000000000E+00 -0.45593999997E+02  0.45594000000E+02  0.51100000000E-03 0.  1.
    9900012    2    1    2    0    0 -0.82954161700E+01 -0.11809990881E+02 -0.28432903887E+02  0.59301955443E+02  0.50000020818E+02 0.  0.
         12    1    1    2    0    0  0.82954161700E+01  0.11809990881E+02  0.28432903887E+02  0.31886044557E+02  0.00000000000E+00 0. -1.
         11    1    3    3    0    0  0.29199420478E+01 -0.60744857561E+01  0.91231674670E+01  0.11342734399E+02  0.51100000000E-03 0. -1.
        -11    1    3    3    0    0 -0.12535664468E+02 -0.49358646335E+01 -0.35690101837E+01  0.13937125862E+02  0.51100000000E-03 0.  1.
        -12    1    3    3    0    0  0.13203062504E+01 -0.79964049186E+00 -0.33987061171E+02  0.34022095181E+02  0.00000000000E+00 0.  1.
</event>
<event>
 7    1  0.5634483E-012  0.5930194E+02  0.7816164E-02  0.1266605E+00
        -11   -1    0    0    0    0  0.00000000000E+00  0.00000000000E+00  0.45593999997E+02  0.45594000000E+02  0.51100000000E-03 0.  1.
         11   -1    0    0    0    0 -0.00000000000E+00 -0.00000000000E+00 -0.45593999997E+02  0.45594000000E+02  0.51100000000E-03 0. -1.
    9900012    2    1    2    0    0 -0.20090657768E+02 -0.28564018034E+01  0.24595272867E+02  0.59301937086E+02  0.49999987339E+02 0.  0.
         12    1    1    2    0    0  0.20090657768E+02  0.28564018034E+01 -0.24595272867E+02  0.31886062914E+02  0.00000000000E+00 0. -1.
         11    1    3    3    0    0 -0.85105911106E+01 -0.13560269038E+02 -0.46631991082E-01  0.16009785515E+02  0.51100000000E-03 0.  1.
        -11    1    3    3    0    0 -0.15143171902E+01  0.51215127237E+01 -0.74682536966E+01  0.91813867509E+01  0.51100000000E-03 0. -1.
        -12    1    3    3    0    0 -0.10065749467E+02  0.55823545107E+01  0.32110158554E+02  0.34110764820E+02  0.00000000000E+00 0.  1.
</event>
<event>
 7    1  0.5634483E-012  0.5930201E+02  0.7816164E-02  0.1266605E+00
        -11   -1    0    0    0    0  0.00000000000E+00  0.00000000000E+00  0.45593999997E+02  0.45594000000E+02  0.51100000000E-03 0. -1.
         11   -1    0    0    0    0 -0.00000000000E+00 -0.00000000000E+00 -0.45593999997E+02  0.45594000000E+02  0.51100000000E-03 0.  1.
    9900012    2    1    2    0    0  0.12143267289E+02 -0.29469696072E+02 -0.89129871684E+00  0.59302010279E+02  0.50000120827E+02 0.  0.
         12    1    1    2    0    0 -0.12143267289E+02  0.29469696072E+02  0.89129871684E+00  0.31885989721E+02  0.00000000000E+00 0. -1.
         11    1    3    3    0    0  0.49187524375E+01 -0.18126729863E+02 -0.15734241509E+02  0.24501812529E+02  0.51100000000E-03 0. -1.
        -11    1    3    3    0    0 -0.25683235962E+01 -0.18064398276E+02  0.39173124248E+01  0.18661835603E+02  0.51100000000E-03 0.  1.
         12    1    3    3    0    0  0.97928384482E+01  0.67214320664E+01  0.10925630367E+02  0.16138362148E+02  0.00000000000E+00 0. -1.
</event>
<event>
 7    1  0.5634483E-012  0.5930199E+02  0.7816164E-02  0.1266605E+00
        -11   -1    0    0    0    0  0.00000000000E+00  0.00000000000E+00  0.45593999997E+02  0.45594000000E+02  0.51100000000E-03 0. -1.
         11   -1    0    0    0    0 -0.00000000000E+00 -0.00000000000E+00 -0.45593999997E+02  0.45594000000E+02  0.51100000000E-03 0.  1.
    9900012    2    1    2    0    0 -0.83818667811E+01  0.22265341805E+02 -0.21230084065E+02  0.59301990437E+02  0.50000084640E+02 0.  0.
         12    1    1    2    0    0  0.83818667811E+01 -0.22265341805E+02  0.21230084065E+02  0.31886009563E+02  0.00000000000E+00 0. -1.
         11    1    3    3    0    0 -0.10747190365E+01  0.17860465142E+02 -0.14308236614E+02  0.22910191430E+02  0.51100000000E-03 0. -1.
        -11    1    3    3    0    0 -0.20383373423E+02  0.11319809728E+01 -0.97423622651E+01  0.22620276651E+02  0.51100000000E-03 0.  1.
         12    1    3    3    0    0  0.13076225678E+02  0.32728956899E+01  0.28205148140E+01  0.13771522356E+02  0.00000000000E+00 0. -1.
</event>
<event>
 7    1  0.5634483E-012  0.5930194E+02  0.7816164E-02  0.1266605E+00
        -11   -1    0    0    0    0  0.00000000000E+00  0.00000000000E+00  0.45593999997E+02  0.45594000000E+02  0.51100000000E-03 0. -1.
         11   -1    0    0    0    0 -0.00000000000E+00 -0.00000000000E+00 -0.45593999997E+02  0.45594000000E+02  0.51100000000E-03 0.  1.
    9900012    2    1    2    0    0  0.22039008933E+02 -0.13453957169E+02 -0.18708124351E+02  0.59301940429E+02  0.49999993436E+02 0.  0.
         12    1    1    2    0    0 -0.22039008933E+02  0.13453957169E+02  0.18708124351E+02  0.31886059571E+02  0.00000000000E+00 0. -1.
         11    1    3    3    0    0 -0.29554617444E+01 -0.22536170299E+01  0.22180135231E+01  0.43281783801E+01  0.51100000000E-03 0. -1.
        -11    1    3    3    0    0  0.10456168195E+02 -0.79335763225E+01  0.12656670912E+02  0.18233606484E+02  0.51100000000E-03 0.  1.
         12    1    3    3    0    0  0.14538302483E+02 -0.32667638165E+01 -0.33582808787E+02  0.36740155565E+02  0.00000000000E+00 0. -1.
</event>
<event>
 7    1  0.5634483E-012  0.5930196E+02  0.7816164E-02  0.1266605E+00
        -11   -1    0    0    0    0  0.00000000000E+00  0.00000000000E+00  0.45593999997E+02  0.45594000000E+02  0.51100000000E-03 0.  1.
         11   -1    0    0    0    0 -0.00000000000E+00 -0.00000000000E+00 -0.45593999997E+02  0.45594000000E+02  0.51100000000E-03 0. -1.
    9900012    2    1    2    0    0 -0.20142602306E+02  0.57774411120E+01  0.24033653951E+02  0.59301956412E+02  0.50000022586E+02 0.  0.
         12    1    1    2    0    0  0.20142602306E+02 -0.57774411120E+01 -0.24033653951E+02  0.31886043588E+02  0.00000000000E+00 0. -1.
         11    1    3    3    0    0 -0.15835935431E+02  0.63467987762E+01  0.19651349557E+01  0.17173248421E+02  0.51100000000E-03 0. -1.
        -11    1    3    3    0    0 -0.77839806550E+01  0.75921910722E+01 -0.61889327258E+01  0.12511379167E+02  0.51100000000E-03 0.  1.
        -12    1    3    3    0    0  0.34773137798E+01 -0.81615487364E+01  0.28257451721E+02  0.29617328824E+02  0.00000000000E+00 0.  1.
</event>
<event>
 7    1  0.5634483E-012  0.5930194E+02  0.7816164E-02  0.1266605E+00
        -11   -1    0    0    0    0  0.00000000000E+00  0.00000000000E+00  0.45593999997E+02  0.45594000000E+02  0.51100000000E-03 0.  1.
         11   -1    0    0    0    0 -0.00000000000E+00 -0.00000000000E+00 -0.45593999997E+02  0.45594000000E+02  0.51100000000E-03 0. -1.
    9900012    2    1    2    0    0 -0.19048188089E+02 -0.24217906698E+02  0.82085520625E+01  0.59301940330E+02  0.49999993257E+02 0.  0.
         12    1    1    2    0    0  0.19048188089E+02  0.24217906698E+02 -0.82085520625E+01  0.31886059670E+02  0.00000000000E+00 0. -1.
         11    1    3    3    0    0 -0.67298808841E+01  0.52971719458E+01  0.88597593520E+01  0.12322607816E+02  0.51100000000E-03 0. -1.
        -11    1    3    3    0    0 -0.79019539678E+01 -0.15103335140E+02  0.16790829139E+02  0.23926628519E+02  0.51100000000E-03 0.  1.
         12    1    3    3    0    0 -0.44163532370E+01 -0.14411743503E+02 -0.17442036429E+02  0.23052703995E+02  0.00000000000E+00 0. -1.
</event>
<event>
 7    1  0.5634483E-012  0.5930195E+02  0.7816164E-02  0.1266605E+00
        -11   -1    0    0    0    0  0.00000000000E+00  0.00000000000E+00  0.45593999997E+02  0.45594000000E+02  0.51100000000E-03 0. -1.
         11   -1    0    0    0    0 -0.00000000000E+00 -0.00000000000E+00 -0.45593999997E+02  0.45594000000E+02  0.51100000000E-03 0.  1.
    9900012    2    1    2    0    0 -0.28986028165E+01  0.30533554317E+02 -0.87189705306E+01  0.59301948432E+02  0.50000008032E+02 0.  0.
         12    1    1    2    0    0  0.28986028165E+01 -0.30533554317E+02  0.87189705306E+01  0.31886051568E+02  0.00000000000E+00 0. -1.
         11    1    3    3    0    0  0.79696507268E+01  0.12327956133E+02 -0.20664160138E+02  0.25347610333E+02  0.51100000000E-03 0. -1.
        -11    1    3    3    0    0 -0.14025016127E+02  0.12598928102E+01  0.25089346146E+01  0.14303256987E+02  0.51100000000E-03 0.  1.
         12    1    3    3    0    0  0.31567625841E+01  0.16945705373E+02  0.94362549924E+01  0.19651081112E+02  0.00000000000E+00 0. -1.
</event>
<event>
 7    1  0.5634483E-012  0.5930196E+02  0.7816164E-02  0.1266605E+00
        -11   -1    0    0    0    0  0.00000000000E+00  0.00000000000E+00  0.45593999997E+02  0.45594000000E+02  0.51100000000E-03 0.  1.
         11   -1    0    0    0    0 -0.00000000000E+00 -0.00000000000E+00 -0.45593999997E+02  0.45594000000E+02  0.51100000000E-03 0. -1.
    9900012    2    1    2    0    0 -0.26343050120E+02  0.12330512766E+02  0.13066062469E+02  0.59301955668E+02  0.50000021229E+02 0.  0.
         12    1    1    2    0    0  0.26343050120E+02 -0.12330512766E+02 -0.13066062469E+02  0.31886044332E+02  0.00000000000E+00 0. -1.
         11    1    3    3    0    0 -0.36812411458E+01  0.73239436920E+01 -0.77509660829E+01  0.11281363528E+02  0.51100000000E-03 0. -1.
        -11    1    3    3    0    0 -0.12608979373E+02 -0.94032282184E+01 -0.52525051872E+01  0.16582999510E+02  0.51100000000E-03 0.  1.
        -12    1    3    3    0    0 -0.10052829601E+02  0.14409797292E+02  0.26069533739E+02  0.31437592630E+02  0.00000000000E+00 0.  1.
</event>
<event>
 7    1  0.5634483E-012  0.5930195E+02  0.7816164E-02  0.1266605E+00
        -11   -1    0    0    0    0  0.00000000000E+00  0.00000000000E+00  0.45593999997E+02  0.45594000000E+02  0.51100000000E-03 0.  1.
         11   -1    0    0    0    0 -0.00000000000E+00 -0.00000000000E+00 -0.45593999997E+02  0.45594000000E+02  0.51100000000E-03 0. -1.
    9900012    2    1    2    0    0  0.17777571480E+02 -0.33106899815E+01  0.26262470015E+02  0.59301952155E+02  0.50000014823E+02 0.  0.
         12    1    1    2    0    0 -0.17777571480E+02  0.33106899815E+01 -0.26262470015E+02  0.31886047845E+02  0.00000000000E+00 0. -1.
         11    1    3    3    0    0 -0.46197788739E+00 -0.19011452596E+02  0.13981769755E+02  0.23603784424E+02  0.51100000000E-03 0. -1.
        -11    1    3    3    0    0  0.60077624731E+01 -0.39259508864E+01  0.10209143776E+02  0.12479299548E+02  0.51100000000E-03 0.  1.
         12    1    3    3    0    0  0.12231786894E+02  0.19626713501E+02  0.20715564830E+01  0.23218868184E+02  0.00000000000E+00 0. -1.
</event>
<event>
 7    1  0.5634483E-012  0.5930195E+02  0.7816164E-02  0.1266605E+00
        -11   -1    0    0    0    0  0.00000000000E+00  0.00000000000E+00  0.45593999997E+02  0.45594000000E+02  0.51100000000E-03 0.  1.
         11   -1    0    0    0    0 -0.00000000000E+00 -0.00000000000E+00 -0.45593999997E+02  0.45594000000E+02  0.51100000000E-03 0. -1.
    9900012    2    1    2    0    0  0.15656711314E+02  0.19056582648E+02  0.20209752144E+02  0.59301952375E+02  0.50000015224E+02 0.  0.
         12    1    1    2    0    0 -0.15656711314E+02 -0.19056582648E+02 -0.20209752144E+02  0.31886047625E+02  0.00000000000E+00 0. -1.
         11    1    3    3    0    0  0.92965519739E+01 -0.13967288612E+01 -0.13131195198E+02  0.16149458743E+02  0.51100000000E-03 0. -1.
        -11    1    3    3    0    0  0.92541145934E+01  0.31665957769E+01  0.13623819800E+02  0.16771238235E+02  0.51100000000E-03 0.  1.
         12    1    3    3    0    0 -0.28939552533E+01  0.17286715732E+02  0.19717127542E+02  0.26381255397E+02  0.00000000000E+00 0. -1.
</event>
<event>
 7    1  0.5634483E-012  0.5930190E+02  0.7816164E-02  0.1266605E+00
        -11   -1    0    0    0    0  0.00000000000E+00  0.00000000000E+00  0.45593999997E+02  0.45594000000E+02  0.51100000000E-03 0. -1.
         11   -1    0    0    0    0 -0.00000000000E+00 -0.00000000000E+00 -0.45593999997E+02  0.45594000000E+02  0.51100000000E-03 0.  1.
    9900012    2    1    2    0    0 -0.24179738698E+02  0.19426565485E+02 -0.73940719790E+01  0.59301897848E+02  0.49999915779E+02 0.  0.
         12    1    1    2    0    0  0.24179738698E+02 -0.19426565485E+02  0.73940719790E+01  0.31886102152E+02  0.00000000000E+00 0. -1.
         11    1    3    3    0    0 -0.96320674339E+00  0.21702052188E+02 -0.22448527906E+02  0.31238489749E+02  0.51100000000E-03 0.  1.
        -11    1    3    3    0    0 -0.84727763256E+01 -0.27827629475E+01  0.52203591964E+01  0.10333627567E+02  0.51100000000E-03 0. -1.
        -12    1    3    3    0    0 -0.14743755629E+02  0.50727624393E+00  0.98340967302E+01  0.17729780532E+02  0.00000000000E+00 0.  1.
</event>
<event>
 7    1  0.5634483E-012  0.5930195E+02  0.7816164E-02  0.1266605E+00
        -11   -1    0    0    0    0  0.00000000000E+00  0.00000000000E+00  0.45593999997E+02  0.45594000000E+02  0.51100000000E-03 0. -1.
         11   -1    0    0    0    0 -0.00000000000E+00 -0.00000000000E+00 -0.45593999997E+02  0.45594000000E+02  0.51100000000E-03 0.  1.
    9900012    2    1    2    0    0 -0.45489560064E+01 -0.88393129327E+01 -0.30296765533E+02  0.59301945750E+02  0.50000003141E+02 0.  0.
         12    1    1    2    0    0  0.45489560064E+01  0.88393129327E+01  0.30296765533E+02  0.31886054250E+02  0.00000000000E+00 0. -1.
         11    1    3    3    0    0  0.64107173272E+01  0.98513159499E+01 -0.31877583725E+01  0.12178157755E+02  0.51100000000E-03 0. -1.
        -11    1    3    3    0    0 -0.10992716329E+02  0.59716433990E+01 -0.35182663064E+01  0.12995327439E+02  0.51100000000E-03 0.  1.
         12    1    3    3    0    0  0.33042995562E-01 -0.24662272282E+02 -0.23590740854E+02  0.34128460557E+02  0.00000000000E+00 0. -1.
</event>
<event>
 7    1  0.5634483E-012  0.5930196E+02  0.7816164E-02  0.1266605E+00
        -11   -1    0    0    0    0  0.00000000000E+00  0.00000000000E+00  0.45593999997E+02  0.45594000000E+02  0.51100000000E-03 0. -1.
         11   -1    0    0    0    0 -0.00000000000E+00 -0.00000000000E+00 -0.45593999997E+02  0.45594000000E+02  0.51100000000E-03 0.  1.
    9900012    2    1    2    0    0  0.14273895673E+02  0.12270667804E+02 -0.25737254718E+02  0.59301958125E+02  0.50000025709E+02 0.  0.
         12    1    1    2    0    0 -0.14273895673E+02 -0.12270667804E+02  0.25737254718E+02  0.31886041875E+02  0.00000000000E+00 0. -1.
         11    1    3    3    0    0  0.17864199738E+02  0.25426794640E+01  0.18435586451E+01  0.18138179618E+02  0.51100000000E-03 0. -1.
        -11    1    3    3    0    0  0.41709567867E+01  0.17311059065E+02 -0.97772212984E+01  0.20314125702E+02  0.51100000000E-03 0.  1.
         12    1    3    3    0    0 -0.77612608519E+01 -0.75830707249E+01 -0.17803592065E+02  0.20849652804E+02  0.00000000000E+00 0. -1.
</event>
<event>
 7    1  0.5634483E-012  0.5930198E+02  0.7816164E-02  0.1266605E+00
        -11   -1    0    0    0    0  0.00000000000E+00  0.00000000000E+00  0.45593999997E+02  0.45594000000E+02  0.51100000000E-03 0. -1.
         11   -1    0    0    0    0 -0.00000000000E+00 -0.00000000000E+00 -0.45593999997E+02  0.45594000000E+02  0.51100000000E-03 0.  1.
    9900012    2    1    2    0    0  0.23734427895E+01  0.39145991948E+01 -0.31555683736E+02  0.59301976517E+02  0.50000059253E+02 0.  0.
         12    1    1    2    0    0 -0.23734427895E+01 -0.39145991948E+01  0.31555683736E+02  0.31886023483E+02  0.00000000000E+00 0. -1.
         11    1    3    3    0    0  0.23915022597E+01  0.26819559925E+01 -0.19283966749E+02  0.19615900307E+02  0.51100000000E-03 0. -1.
        -11    1    3    3    0    0  0.15064183180E+02 -0.36318266605E+01 -0.17141541366E+02  0.23107406182E+02  0.51100000000E-03 0.  1.
         12    1    3    3    0    0 -0.15082242651E+02  0.48644698628E+01  0.48698243797E+01  0.16578670028E+02  0.00000000000E+00 0. -1.
</event>
<event>
 7    1  0.5634483E-012  0.5930206E+02  0.7816164E-02  0.1266604E+00
        -11   -1    0    0    0    0  0.00000000000E+00  0.00000000000E+00  0.45593999997E+02  0.45594000000E+02  0.51100000000E-03 0.  1.
         11   -1    0    0    0    0 -0.00000000000E+00 -0.00000000000E+00 -0.45593999997E+02  0.45594000000E+02  0.51100000000E-03 0. -1.
    9900012    2    1    2    0    0 -0.97971076308E+01  0.18288701134E+02  0.24212673178E+02  0.59302055612E+02  0.50000203502E+02 0.  0.
         12    1    1    2    0    0  0.97971076308E+01 -0.18288701134E+02 -0.24212673178E+02  0.31885944388E+02  0.00000000000E+00 0. -1.
         11    1    3    3    0    0 -0.49450037906E+01 -0.45450447031E+01 -0.39523266389E+01  0.77930340667E+01  0.51100000000E-03 0. -1.
        -11    1    3    3    0    0  0.13623087847E+02  0.12380638932E+02  0.23365519306E+02  0.29745860814E+02  0.51100000000E-03 0.  1.
         12    1    3    3    0    0 -0.18475191687E+02  0.10453106904E+02  0.47994805111E+01  0.21763160731E+02  0.00000000000E+00 0. -1.
</event>
<event>
 7    1  0.5634483E-012  0.5930195E+02  0.7816164E-02  0.1266605E+00
        -11   -1    0    0    0    0  0.00000000000E+00  0.00000000000E+00  0.45593999997E+02  0.45594000000E+02  0.51100000000E-03 0. -1.
         11   -1    0    0    0    0 -0.00000000000E+00 -0.00000000000E+00 -0.45593999997E+02  0.45594000000E+02  0.51100000000E-03 0.  1.
    9900012    2    1    2    0    0 -0.22108114836E+02  0.97672407167E+01 -0.20797889334E+02  0.59301953936E+02  0.50000018071E+02 0.  0.
         12    1    1    2    0    0  0.22108114836E+02 -0.97672407167E+01  0.20797889334E+02  0.31886046064E+02  0.00000000000E+00 0. -1.
         11    1    3    3    0    0 -0.13112022998E+02 -0.10529920641E+02 -0.74267318913E+01  0.18383708077E+02  0.51100000000E-03 0. -1.
        -11    1    3    3    0    0  0.84084093449E+01  0.63490353295E+01 -0.15249485217E+02  0.18535328348E+02  0.51100000000E-03 0.  1.
        -12    1    3    3    0    0 -0.17404501183E+02  0.13948126028E+02  0.18783277743E+01  0.22382917512E+02  0.00000000000E+00 0.  1.
</event>
<event>
 7    1  0.5634483E-012  0.5930195E+02  0.7816164E-02  0.1266605E+00
        -11   -1    0    0    0    0  0.00000000000E+00  0.00000000000E+00  0.45593999997E+02  0.45594000000E+02  0.51100000000E-03 0. -1.
         11   -1    0    0    0    0 -0.00000000000E+00 -0.00000000000E+00 -0.45593999997E+02  0.45594000000E+02  0.51100000000E-03 0.  1.
    9900012    2    1    2    0    0  0.43329167250E+01  0.14092715540E+02 -0.28272621958E+02  0.59301953663E+02  0.50000017573E+02 0.  0.
         12    1    1    2    0    0 -0.43329167250E+01 -0.14092715540E+02  0.28272621958E+02  0.31886046337E+02  0.00000000000E+00 0. -1.
         11    1    3    3    0    0  0.46385536985E+00  0.35060604708E+01  0.12573295980E+02  0.13061217167E+02  0.51100000000E-03 0. -1.
        -11    1    3    3    0    0  0.23262010205E+01  0.48315358893E+01 -0.42077549239E+00  0.53788476938E+01  0.51100000000E-03 0.  1.
        -12    1    3    3    0    0  0.15428603347E+01  0.57551191797E+01 -0.40425142445E+02  0.40861888802E+02  0.00000000000E+00 0.  1.
</event>
<event>
 7    1  0.5634483E-012  0.5930193E+02  0.7816164E-02  0.1266605E+00
        -11   -1    0    0    0    0  0.00000000000E+00  0.00000000000E+00  0.45593999997E+02  0.45594000000E+02  0.51100000000E-03 0. -1.
         11   -1    0    0    0    0 -0.00000000000E+00 -0.00000000000E+00 -0.45593999997E+02  0.45594000000E+02  0.51100000000E-03 0.  1.
    9900012    2    1    2    0    0 -0.30512979890E+02  0.58484105558E+01  0.71746662778E+01  0.59301926488E+02  0.49999968012E+02 0.  0.
         12    1    1    2    0    0  0.30512979890E+02 -0.58484105558E+01 -0.71746662778E+01  0.31886073512E+02  0.00000000000E+00 0. -1.
         11    1    3    3    0    0 -0.39889736360E+01  0.91976006215E+01  0.11565844856E+02  0.15306094713E+02  0.51100000000E-03 0. -1.
        -11    1    3    3    0    0  0.15320423663E+01  0.11750778014E+02 -0.13187398599E+00  0.11850963199E+02  0.51100000000E-03 0.  1.
         12    1    3    3    0    0 -0.28056048620E+02 -0.15099968079E+02 -0.42593045924E+01  0.32144868576E+02  0.00000000000E+00 0. -1.
</event>
<event>
 7    1  0.5634483E-012  0.5930191E+02  0.7816164E-02  0.1266605E+00
        -11   -1    0    0    0    0  0.00000000000E+00  0.00000000000E+00  0.45593999997E+02  0.45594000000E+02  0.51100000000E-03 0. -1.
         11   -1    0    0    0    0 -0.00000000000E+00 -0.00000000000E+00 -0.45593999997E+02  0.45594000000E+02  0.51100000000E-03 0.  1.
    9900012    2    1    2    0    0  0.11958947846E+02 -0.11015866178E+02 -0.27429131175E+02  0.59301906194E+02  0.49999931000E+02 0.  0.
         12    1    1    2    0    0 -0.11958947846E+02  0.11015866178E+02  0.27429131175E+02  0.31886093806E+02  0.00000000000E+00 0. -1.
         11    1    3    3    0    0  0.10496681668E+02  0.98362987805E+01 -0.81608389049E+01  0.16538814698E+02  0.51100000000E-03 0. -1.
        -11    1    3    3    0    0  0.20815360442E+01  0.35714675597E+01 -0.17815120506E+02  0.18288430543E+02  0.51100000000E-03 0.  1.
         12    1    3    3    0    0 -0.61926986626E+00 -0.24423632518E+02 -0.14531717637E+01  0.24474660952E+02  0.00000000000E+00 0. -1.
</event>
<event>
 7    1  0.5634483E-012  0.5930188E+02  0.7816164E-02  0.1266605E+00
        -11   -1    0    0    0    0  0.00000000000E+00  0.00000000000E+00  0.45593999997E+02  0.45594000000E+02  0.51100000000E-03 0.  1.
         11   -1    0    0    0    0 -0.00000000000E+00 -0.00000000000E+00 -0.45593999997E+02  0.45594000000E+02  0.51100000000E-03 0. -1.
    9900012    2    1    2    0    0 -0.24564855704E+02  0.81584596780E+01  0.18620742724E+02  0.59301879827E+02  0.49999882913E+02 0.  0.
         12    1    1    2    0    0  0.24564855704E+02 -0.81584596780E+01 -0.18620742724E+02  0.31886120173E+02  0.00000000000E+00 0. -1.
         11    1    3    3    0    0 -0.13578344956E+02 -0.13407217406E+02  0.22200575599E+01  0.19210767453E+02  0.51100000000E-03 0. -1.
        -11    1    3    3    0    0 -0.15758751553E+02  0.78344108199E+01 -0.74225831981E+00  0.17614402944E+02  0.51100000000E-03 0.  1.
        -12    1    3    3    0    0  0.47722408039E+01  0.13731266264E+02  0.17142943484E+02  0.22476709430E+02  0.00000000000E+00 0.  1.
</event>
<event>
 7    1  0.5634483E-012  0.5930194E+02  0.7816164E-02  0.1266605E+00
        -11   -1    0    0    0    0  0.00000000000E+00  0.00000000000E+00  0.45593999997E+02  0.45594000000E+02  0.51100000000E-03 0.  1.
         11   -1    0    0    0    0 -0.00000000000E+00 -0.00000000000E+00 -0.45593999997E+02  0.45594000000E+02  0.51100000000E-03 0. -1.
    9900012    2    1    2    0    0  0.15187114189E+02  0.17957419505E+01  0.27979415920E+02  0.59301939695E+02  0.49999992098E+02 0.  0.
         12    1    1    2    0    0 -0.15187114189E+02 -0.17957419505E+01 -0.27979415920E+02  0.31886060305E+02  0.00000000000E+00 0. -1.
         11    1    3    3    0    0  0.18789425446E+01  0.70327176413E+01  0.56429351194E+01  0.92104429606E+01  0.51100000000E-03 0. -1.
        -11    1    3    3    0    0  0.19656943589E+02  0.33572796517E+01  0.30641095532E+02  0.36558767670E+02  0.51100000000E-03 0.  1.
         12    1    3    3    0    0 -0.63487719441E+01 -0.85942553425E+01 -0.83046147307E+01  0.13532729064E+02  0.00000000000E+00 0. -1.
</event>
<event>
 7    1  0.5634483E-012  0.5930193E+02  0.7816164E-02  0.1266605E+00
        -11   -1    0    0    0    0  0.00000000000E+00  0.00000000000E+00  0.45593999997E+02  0.45594000000E+02  0.51100000000E-03 0. -1.
         11   -1    0    0    0    0 -0.00000000000E+00 -0.00000000000E+00 -0.45593999997E+02  0.45594000000E+02  0.51100000000E-03 0.  1.
    9900012    2    1    2    0    0 -0.36164851319E+00 -0.30203179256E+02 -0.10215608539E+02  0.59301929615E+02  0.49999973714E+02 0.  0.
         12    1    1    2    0    0  0.36164851319E+00  0.30203179256E+02  0.10215608539E+02  0.31886070385E+02  0.00000000000E+00 0. -1.
         11    1    3    3    0    0 -0.77858021708E+00 -0.24949830295E+01  0.76122740506E+01  0.80484684229E+01  0.51100000000E-03 0. -1.
        -11    1    3    3    0    0 -0.18081414949E+02 -0.17596221411E+02 -0.16465576933E+02  0.30127724749E+02  0.51100000000E-03 0.  1.
         12    1    3    3    0    0  0.18498346653E+02 -0.10111974815E+02 -0.13623056568E+01  0.21125736443E+02  0.00000000000E+00 0. -1.
</event>
<event>
 7    1  0.5634483E-012  0.5930184E+02  0.7816164E-02  0.1266605E+00
        -11   -1    0    0    0    0  0.00000000000E+00  0.00000000000E+00  0.45593999997E+02  0.45594000000E+02  0.51100000000E-03 0.  1.
         11   -1    0    0    0    0 -0.00000000000E+00 -0.00000000000E+00 -0.45593999997E+02  0.45594000000E+02  0.51100000000E-03 0. -1.
    9900012    2    1    2    0    0  0.12096406305E+02 -0.13198033953E+02  0.26385906612E+02  0.59301839782E+02  0.49999809880E+02 0.  0.
         12    1    1    2    0    0 -0.12096406305E+02  0.13198033953E+02 -0.26385906612E+02  0.31886160218E+02  0.00000000000E+00 0. -1.
         11    1    3    3    0    0 -0.61113695034E+01 -0.92217541405E+01 -0.93622213471E+01  0.14492783565E+02  0.51100000000E-03 0. -1.
        -11    1    3    3    0    0 -0.93448720447E+00 -0.56697848755E+00  0.19330291178E+02  0.19361169599E+02  0.51100000000E-03 0.  1.
        -12    1    3    3    0    0  0.19142263013E+02 -0.34093013246E+01  0.16417836782E+02  0.25447886619E+02  0.00000000000E+00 0.  1.
</event>
<event>
 7    1  0.5634483E-012  0.5930193E+02  0.7816164E-02  0.1266605E+00
        -11   -1    0    0    0    0  0.00000000000E+00  0.00000000000E+00  0.45593999997E+02  0.45594000000E+02  0.51100000000E-03 0. -1.
         11   -1    0    0    0    0 -0.00000000000E+00 -0.00000000000E+00 -0.45593999997E+02  0.45594000000E+02  0.51100000000E-03 0.  1.
    9900012    2    1    2    0    0 -0.84573425527E+01  0.18079035772E+01 -0.30690818225E+02  0.59301929660E+02  0.49999973797E+02 0.  0.
         12    1    1    2    0    0  0.84573425527E+01 -0.18079035772E+01  0.30690818225E+02  0.31886070340E+02  0.00000000000E+00 0. -1.
         11    1    3    3    0    0  0.14849741707E+02  0.46977831649E+01 -0.89331119788E+01  0.17955068513E+02  0.51100000000E-03 0. -1.
        -11    1    3    3    0    0 -0.13127062772E+02  0.10912108642E+02 -0.61095551959E+01  0.18130652415E+02  0.51100000000E-03 0.  1.
        -12    1    3    3    0    0 -0.10180021487E+02 -0.13801988230E+02 -0.15648151050E+02  0.23216208732E+02  0.00000000000E+00 0.  1.
</event>
<event>
 7    1  0.5634483E-012  0.5930195E+02  0.7816164E-02  0.1266605E+00
        -11   -1    0    0    0    0  0.00000000000E+00  0.00000000000E+00  0.45593999997E+02  0.45594000000E+02  0.51100000000E-03 0. -1.
         11   -1    0    0    0    0 -0.00000000000E+00 -0.00000000000E+00 -0.45593999997E+02  0.45594000000E+02  0.51100000000E-03 0.  1.
    9900012    2    1    2    0    0  0.20469731257E+02  0.12515736479E+02 -0.21001585174E+02  0.59301950744E+02  0.50000012249E+02 0.  0.
         12    1    1    2    0    0 -0.20469731257E+02 -0.12515736479E+02  0.21001585174E+02  0.31886049256E+02  0.00000000000E+00 0. -1.
         11    1    3    3    0    0 -0.11503758156E+02 -0.46738388866E+01 -0.10297125009E+02  0.16131088164E+02  0.51100000000E-03 0. -1.
        -11    1    3    3    0    0  0.10113645919E+01  0.81177926640E+01 -0.68650908694E+01  0.10679461081E+02  0.51100000000E-03 0.  1.
         12    1    3    3    0    0  0.30962124820E+02  0.90717827018E+01 -0.38393692948E+01  0.32491401499E+02  0.00000000000E+00 0. -1.
</event>
<event>
 7    1  0.5634483E-012  0.5930195E+02  0.7816164E-02  0.1266605E+00
        -11   -1    0    0    0    0  0.00000000000E+00  0.00000000000E+00  0.45593999997E+02  0.45594000000E+02  0.51100000000E-03 0. -1.
         11   -1    0    0    0    0 -0.00000000000E+00 -0.00000000000E+00 -0.45593999997E+02  0.45594000000E+02  0.51100000000E-03 0.  1.
    9900012    2    1    2    0    0 -0.91257006794E+01  0.23774867049E+02  0.19188466812E+02  0.59301953291E+02  0.50000016894E+02 0.  0.
         12    1    1    2    0    0  0.91257006794E+01 -0.23774867049E+02 -0.19188466812E+02  0.31886046709E+02  0.00000000000E+00 0. -1.
         11    1    3    3    0    0 -0.62202553397E+01  0.19307217973E+01 -0.11934409984E+02  0.13595933402E+02  0.51100000000E-03 0. -1.
        -11    1    3    3    0    0 -0.55105493555E+01 -0.34823175414E+01  0.15825745692E+01  0.67079976287E+01  0.51100000000E-03 0.  1.
        -12    1    3    3    0    0  0.26051040158E+01  0.25326462793E+02  0.29540302227E+02  0.38998022260E+02  0.00000000000E+00 0.  1.
</event>
<event>
 7    1  0.5634483E-012  0.5930194E+02  0.7816164E-02  0.1266605E+00
        -11   -1    0    0    0    0  0.00000000000E+00  0.00000000000E+00  0.45593999997E+02  0.45594000000E+02  0.51100000000E-03 0.  1.
         11   -1    0    0    0    0 -0.00000000000E+00 -0.00000000000E+00 -0.45593999997E+02  0.45594000000E+02  0.51100000000E-03 0. -1.
    9900012    2    1    2    0    0  0.90259150343E+01  0.26684201155E+02  0.14940124291E+02  0.59301936472E+02  0.49999986220E+02 0.  0.
         12    1    1    2    0    0 -0.90259150343E+01 -0.26684201155E+02 -0.14940124291E+02  0.31886063528E+02  0.00000000000E+00 0. -1.
         11    1    3    3    0    0 -0.10888218776E+01  0.10670115361E+01  0.14014387989E+01  0.20707674103E+01  0.51100000000E-03 0. -1.
        -11    1    3    3    0    0 -0.53678052846E+01 -0.11689495294E+02  0.10714218876E+02  0.16740732367E+02  0.51100000000E-03 0.  1.
         12    1    3    3    0    0  0.15482542197E+02  0.37306684913E+02  0.28244666163E+01  0.40490436694E+02  0.00000000000E+00 0. -1.
</event>
<event>
 7    1  0.5634483E-012  0.5930191E+02  0.7816164E-02  0.1266605E+00
        -11   -1    0    0    0    0  0.00000000000E+00  0.00000000000E+00  0.45593999997E+02  0.45594000000E+02  0.51100000000E-03 0. -1.
         11   -1    0    0    0    0 -0.00000000000E+00 -0.00000000000E+00 -0.45593999997E+02  0.45594000000E+02  0.51100000000E-03 0.  1.
    9900012    2    1    2    0    0 -0.26986050154E+02  0.16168623353E+02  0.52011091119E+01  0.59301908674E+02  0.49999935524E+02 0.  0.
         12    1    1    2    0    0  0.26986050154E+02 -0.16168623353E+02 -0.52011091119E+01  0.31886091326E+02  0.00000000000E+00 0. -1.
         11    1    3    3    0    0  0.10806543842E+00 -0.11339256915E+02  0.95182600400E+01  0.14804989023E+02  0.51100000000E-03 0. -1.
        -11    1    3    3    0    0 -0.10171909869E+02 -0.70898795953E+00 -0.54767286024E+01  0.11574323771E+02  0.51100000000E-03 0.  1.
        -12    1    3    3    0    0 -0.16922205724E+02  0.28216868227E+02  0.11595776743E+01  0.32922595880E+02  0.00000000000E+00 0.  1.
</event>
<event>
 7    1  0.5634483E-012  0.5930195E+02  0.7816164E-02  0.1266605E+00
        -11   -1    0    0    0    0  0.00000000000E+00  0.00000000000E+00  0.45593999997E+02  0.45594000000E+02  0.51100000000E-03 0. -1.
         11   -1    0    0    0    0 -0.00000000000E+00 -0.00000000000E+00 -0.45593999997E+02  0.45594000000E+02  0.51100000000E-03 0.  1.
    9900012    2    1    2    0    0 -0.54034078594E+01  0.30580381036E+02 -0.72362933296E+01  0.59301945651E+02  0.50000002961E+02 0.  0.
         12    1    1    2    0    0  0.54034078594E+01 -0.30580381036E+02  0.72362933296E+01  0.31886054349E+02  0.00000000000E+00 0. -1.
         11    1    3    3    0    0 -0.23526484066E+01  0.18313380439E+02  0.53646293716E+01  0.19227431086E+02  0.51100000000E-03 0. -1.
        -11    1    3    3    0    0 -0.23798990865E+01  0.23594711782E+02 -0.15539981739E+02  0.28352519754E+02  0.51100000000E-03 0.  1.
        -12    1    3    3    0    0 -0.67086036635E+00 -0.11327711185E+02  0.29390590375E+01  0.11721994811E+02  0.00000000000E+00 0.  1.
</event>
<event>
 7    1  0.5634483E-012  0.5930195E+02  0.7816164E-02  0.1266605E+00
        -11   -1    0    0    0    0  0.00000000000E+00  0.00000000000E+00  0.45593999997E+02  0.45594000000E+02  0.51100000000E-03 0. -1.
         11   -1    0    0    0    0 -0.00000000000E+00 -0.00000000000E+00 -0.45593999997E+02  0.45594000000E+02  0.51100000000E-03 0.  1.
    9900012    2    1    2    0    0  0.17580026517E+02 -0.26228767432E+02 -0.44400957040E+01  0.59301952531E+02  0.50000015508E+02 0.  0.
         12    1    1    2    0    0 -0.17580026517E+02  0.26228767432E+02  0.44400957040E+01  0.31886047469E+02  0.00000000000E+00 0. -1.
         11    1    3    3    0    0  0.85376286855E+01 -0.54419680329E+01  0.13922278579E+02  0.17214411426E+02  0.51100000000E-03 0. -1.
        -11    1    3    3    0    0  0.17357378589E+02 -0.97423264898E+01 -0.19938605749E+02  0.28173383119E+02  0.51100000000E-03 0.  1.
         12    1    3    3    0    0 -0.83149807570E+01 -0.11044472909E+02  0.15762314663E+01  0.13914157986E+02  0.00000000000E+00 0. -1.
</event>
<event>
 7    1  0.5634483E-012  0.5930193E+02  0.7816164E-02  0.1266605E+00
        -11   -1    0    0    0    0  0.00000000000E+00  0.00000000000E+00  0.45593999997E+02  0.45594000000E+02  0.51100000000E-03 0. -1.
         11   -1    0    0    0    0 -0.00000000000E+00 -0.00000000000E+00 -0.45593999997E+02  0.45594000000E+02  0.51100000000E-03 0.  1.
    9900012    2    1    2    0    0  0.28594863124E+02  0.12826834574E+02 -0.58760397924E+01  0.59301925831E+02  0.49999966813E+02 0.  0.
         12    1    1    2    0    0 -0.28594863124E+02 -0.12826834574E+02  0.58760397924E+01  0.31886074169E+02  0.00000000000E+00 0. -1.
         11    1    3    3    0    0  0.20776669712E+02  0.89580766594E+01 -0.86913913156E+00  0.22642273402E+02  0.51100000000E-03 0. -1.
        -11    1    3    3    0    0  0.13618788659E+02  0.67642162367E+00 -0.17700164126E+02  0.22343338182E+02  0.51100000000E-03 0.  1.
         12    1    3    3    0    0 -0.58005952464E+01  0.31923362910E+01  0.12693263465E+02  0.14316314246E+02  0.00000000000E+00 0. -1.
</event>
<event>
 7    1  0.5634483E-012  0.5930193E+02  0.7816164E-02  0.1266605E+00
        -11   -1    0    0    0    0  0.00000000000E+00  0.00000000000E+00  0.45593999997E+02  0.45594000000E+02  0.51100000000E-03 0.  1.
         11   -1    0    0    0    0 -0.00000000000E+00 -0.00000000000E+00 -0.45593999997E+02  0.45594000000E+02  0.51100000000E-03 0. -1.
    9900012    2    1    2    0    0 -0.33846599615E+01 -0.23289133426E+02  0.21514692357E+02  0.59301927084E+02  0.49999969099E+02 0.  0.
         12    1    1    2    0    0  0.33846599615E+01  0.23289133426E+02 -0.21514692357E+02  0.31886072916E+02  0.00000000000E+00 0. -1.
         11    1    3    3    0    0  0.82528274476E+01 -0.17296479454E+02  0.19528666996E+02  0.27361399768E+02  0.51100000000E-03 0. -1.
        -11    1    3    3    0    0 -0.21513814129E+01 -0.11327085588E+02 -0.10347410652E+02  0.15491940400E+02  0.51100000000E-03 0.  1.
        -12    1    3    3    0    0 -0.94861059963E+01  0.53344316159E+01  0.12333436013E+02  0.16448586915E+02  0.00000000000E+00 0.  1.
</event>
<event>
 7    1  0.5634483E-012  0.5930192E+02  0.7816164E-02  0.1266605E+00
        -11   -1    0    0    0    0  0.00000000000E+00  0.00000000000E+00  0.45593999997E+02  0.45594000000E+02  0.51100000000E-03 0.  1.
         11   -1    0    0    0    0 -0.00000000000E+00 -0.00000000000E+00 -0.45593999997E+02  0.45594000000E+02  0.51100000000E-03 0. -1.
    9900012    2    1    2    0    0 -0.22317472748E+02  0.11378692393E+01  0.22745494245E+02  0.59301923968E+02  0.49999963416E+02 0.  0.
         12    1    1    2    0    0  0.22317472748E+02 -0.11378692393E+01 -0.22745494245E+02  0.31886076032E+02  0.00000000000E+00 0. -1.
         11    1    3    3    0    0 -0.22151094558E+02  0.18746617664E+02  0.11479365204E+02  0.31207090376E+02  0.51100000000E-03 0. -1.
        -11    1    3    3    0    0  0.61938162232E+01  0.52085583935E+00  0.95092107188E+00  0.62879966093E+01  0.51100000000E-03 0.  1.
        -12    1    3    3    0    0 -0.63601944127E+01 -0.18129604264E+02  0.10315207970E+02  0.21806836983E+02  0.00000000000E+00 0.  1.
</event>
<event>
 7    1  0.5634483E-012  0.5930194E+02  0.7816164E-02  0.1266605E+00
        -11   -1    0    0    0    0  0.00000000000E+00  0.00000000000E+00  0.45593999997E+02  0.45594000000E+02  0.51100000000E-03 0.  1.
         11   -1    0    0    0    0 -0.00000000000E+00 -0.00000000000E+00 -0.45593999997E+02  0.45594000000E+02  0.51100000000E-03 0. -1.
    9900012    2    1    2    0    0 -0.27347186806E+02 -0.16282565410E+02 -0.19313854771E+01  0.59301940156E+02  0.49999992938E+02 0.  0.
         12    1    1    2    0    0  0.27347186806E+02  0.16282565410E+02  0.19313854771E+01  0.31886059844E+02  0.00000000000E+00 0. -1.
         11    1    3    3    0    0 -0.32065944222E+01  0.10151125473E+02  0.37207228892E+01  0.11277028652E+02  0.51100000000E-03 0. -1.
        -11    1    3    3    0    0 -0.10272582300E+02 -0.74392282317E+01  0.12884422299E+02  0.18079723506E+02  0.51100000000E-03 0.  1.
        -12    1    3    3    0    0 -0.13868010084E+02 -0.18994462651E+02 -0.18536530666E+02  0.29945187997E+02  0.00000000000E+00 0.  1.
</event>
<event>
 7    1  0.5634483E-012  0.5930191E+02  0.7816164E-02  0.1266605E+00
        -11   -1    0    0    0    0  0.00000000000E+00  0.00000000000E+00  0.45593999997E+02  0.45594000000E+02  0.51100000000E-03 0. -1.
         11   -1    0    0    0    0 -0.00000000000E+00 -0.00000000000E+00 -0.45593999997E+02  0.45594000000E+02  0.51100000000E-03 0.  1.
    9900012    2    1    2    0    0 -0.30305234370E+02  0.36279557367E+01 -0.92278454449E+01  0.59301914875E+02  0.49999946832E+02 0.  0.
         12    1    1    2    0    0  0.30305234370E+02 -0.36279557367E+01  0.92278454449E+01  0.31886085125E+02  0.00000000000E+00 0. -1.
         11    1    3    3    0    0  0.38624232673E+01 -0.63781974657E+00  0.87581508769E+01  0.95932442150E+01  0.51100000000E-03 0. -1.
        -11    1    3    3    0    0 -0.10197570464E+02 -0.89022412852E+01  0.45396056279E+01  0.14277547506E+02  0.51100000000E-03 0.  1.
         12    1    3    3    0    0 -0.23970087173E+02  0.13168016768E+02 -0.22525601950E+02  0.35431123153E+02  0.00000000000E+00 0. -1.
</event>
<event>
 7    1  0.5634483E-012  0.5930170E+02  0.7816164E-02  0.1266606E+00
        -11   -1    0    0    0    0  0.00000000000E+00  0.00000000000E+00  0.45593999997E+02  0.45594000000E+02  0.51100000000E-03 0.  1.
         11   -1    0    0    0    0 -0.00000000000E+00 -0.00000000000E+00 -0.45593999997E+02  0.45594000000E+02  0.51100000000E-03 0. -1.
    9900012    2    1    2    0    0  0.30108997109E+02  0.53692557436E+01 -0.90197190845E+01  0.59301702841E+02  0.49999560131E+02 0.  0.
         12    1    1    2    0    0 -0.30108997109E+02 -0.53692557436E+01  0.90197190845E+01  0.31886297159E+02  0.00000000000E+00 0. -1.
         11    1    3    3    0    0  0.14145378270E+02  0.11966487362E+02  0.37675377033E+01  0.18907217850E+02  0.51100000000E-03 0.  1.
        -11    1    3    3    0    0 -0.53806011185E+01  0.76237722300E+01 -0.11368144856E+02  0.14707395730E+02  0.51100000000E-03 0. -1.
        -12    1    3    3    0    0  0.21344219957E+02 -0.14221003849E+02 -0.14191119315E+01  0.25687089261E+02  0.00000000000E+00 0.  1.
</event>
<event>
 7    1  0.5634483E-012  0.5930193E+02  0.7816164E-02  0.1266605E+00
        -11   -1    0    0    0    0  0.00000000000E+00  0.00000000000E+00  0.45593999997E+02  0.45594000000E+02  0.51100000000E-03 0. -1.
         11   -1    0    0    0    0 -0.00000000000E+00 -0.00000000000E+00 -0.45593999997E+02  0.45594000000E+02  0.51100000000E-03 0.  1.
    9900012    2    1    2    0    0  0.23364255203E+02  0.15902687085E+01 -0.21640334351E+02  0.59301930211E+02  0.49999974802E+02 0.  0.
         12    1    1    2    0    0 -0.23364255203E+02 -0.15902687085E+01  0.21640334351E+02  0.31886069789E+02  0.00000000000E+00 0. -1.
         11    1    3    3    0    0  0.10692324115E+01 -0.11627135759E+02 -0.73486690185E+00  0.11699297993E+02  0.51100000000E-03 0. -1.
        -11    1    3    3    0    0  0.25719505084E+02 -0.32215466640E+01 -0.11511274153E+02  0.28361606752E+02  0.51100000000E-03 0.  1.
         12    1    3    3    0    0 -0.34244822927E+01  0.16438951132E+02 -0.93941932965E+01  0.19241025466E+02  0.00000000000E+00 0. -1.
</event>
<event>
 7    1  0.5634483E-012  0.5930196E+02  0.7816164E-02  0.1266605E+00
        -11   -1    0    0    0    0  0.00000000000E+00  0.00000000000E+00  0.45593999997E+02  0.45594000000E+02  0.51100000000E-03 0. -1.
         11   -1    0    0    0    0 -0.00000000000E+00 -0.00000000000E+00 -0.45593999997E+02  0.45594000000E+02  0.51100000000E-03 0.  1.
    9900012    2    1    2    0    0 -0.62063002273E+01  0.38282375445E+01 -0.31041036421E+02  0.59301960620E+02  0.50000030261E+02 0.  0.
         12    1    1    2    0    0  0.62063002273E+01 -0.38282375445E+01  0.31041036421E+02  0.31886039380E+02  0.00000000000E+00 0. -1.
         11    1    3    3    0    0 -0.40343541246E+01 -0.16920838639E+02 -0.13983982031E+02  0.22319107222E+02  0.51100000000E-03 0. -1.
        -11    1    3    3    0    0  0.10184205325E+02  0.62319922972E+01 -0.86528650633E+00  0.11970985218E+02  0.51100000000E-03 0.  1.
        -12    1    3    3    0    0 -0.12356151428E+02  0.14517083887E+02 -0.16191767884E+02  0.25011868180E+02  0.00000000000E+00 0.  1.
</event>
<event>
 7    1  0.5634483E-012  0.5930194E+02  0.7816164E-02  0.1266605E+00
        -11   -1    0    0    0    0  0.00000000000E+00  0.00000000000E+00  0.45593999997E+02  0.45594000000E+02  0.51100000000E-03 0.  1.
         11   -1    0    0    0    0 -0.00000000000E+00 -0.00000000000E+00 -0.45593999997E+02  0.45594000000E+02  0.51100000000E-03 0. -1.
    9900012    2    1    2    0    0 -0.30212075620E+02 -0.81742314247E+01  0.60936869221E+01  0.59301943597E+02  0.49999999215E+02 0.  0.
         12    1    1    2    0    0  0.30212075620E+02  0.81742314247E+01 -0.60936869221E+01  0.31886056403E+02  0.00000000000E+00 0. -1.
         11    1    3    3    0    0 -0.18931941409E+01 -0.27820588241E+00 -0.11435758678E+02  0.11594747060E+02  0.51100000000E-03 0. -1.
        -11    1    3    3    0    0 -0.21788072112E+01  0.58778887449E+01  0.17039634756E+02  0.18156154049E+02  0.51100000000E-03 0.  1.
        -12    1    3    3    0    0 -0.26140074267E+02 -0.13773914287E+02  0.48981084419E+00  0.29551042489E+02  0.00000000000E+00 0.  1.
</event>
<event>
 7    1  0.5634483E-012  0.5930194E+02  0.7816164E-02  0.1266605E+00
        -11   -1    0    0    0    0  0.00000000000E+00  0.00000000000E+00  0.45593999997E+02  0.45594000000E+02  0.51100000000E-03 0. -1.
         11   -1    0    0    0    0 -0.00000000000E+00 -0.00000000000E+00 -0.45593999997E+02  0.45594000000E+02  0.51100000000E-03 0.  1.
    9900012    2    1    2    0    0  0.10337151481E+01  0.16521869414E+02 -0.27252162066E+02  0.59301936066E+02  0.49999985480E+02 0.  0.
         12    1    1    2    0    0 -0.10337151481E+01 -0.16521869414E+02  0.27252162066E+02  0.31886063934E+02  0.00000000000E+00 0. -1.
         11    1    3    3    0    0 -0.11465970470E+02 -0.91544961104E+01 -0.28786137389E+01  0.14951912760E+02  0.51100000000E-03 0. -1.
        -11    1    3    3    0    0 -0.69340051703E+01  0.51569181951E+01 -0.40738382078E+01  0.95535538402E+01  0.51100000000E-03 0.  1.
        -12    1    3    3    0    0  0.19433690789E+02  0.20519447329E+02 -0.20299710119E+02  0.34796469466E+02  0.00000000000E+00 0.  1.
</event>
<event>
 7    1  0.5634483E-012  0.5930192E+02  0.7816164E-02  0.1266605E+00
        -11   -1    0    0    0    0  0.00000000000E+00  0.00000000000E+00  0.45593999997E+02  0.45594000000E+02  0.51100000000E-03 0.  1.
         11   -1    0    0    0    0 -0.00000000000E+00 -0.00000000000E+00 -0.45593999997E+02  0.45594000000E+02  0.51100000000E-03 0. -1.
    9900012    2    1    2    0    0  0.24009501199E+02  0.12431531801E+02  0.16903335539E+02  0.59301923366E+02  0.49999962318E+02 0.  0.
         12    1    1    2    0    0 -0.24009501199E+02 -0.12431531801E+02 -0.16903335539E+02  0.31886076634E+02  0.00000000000E+00 0. -1.
         11    1    3    3    0    0  0.71691562955E+01  0.10501086212E+02  0.16503607446E+01  0.12821595239E+02  0.51100000000E-03 0. -1.
        -11    1    3    3    0    0  0.81805304810E+01 -0.11191919719E+02  0.24565433620E+02  0.28207103275E+02  0.51100000000E-03 0.  1.
         12    1    3    3    0    0  0.86598144224E+01  0.13122365308E+02 -0.93124588255E+01  0.18273224852E+02  0.00000000000E+00 0. -1.
</event>
<event>
 7    1  0.5634483E-012  0.5930197E+02  0.7816164E-02  0.1266605E+00
        -11   -1    0    0    0    0  0.00000000000E+00  0.00000000000E+00  0.45593999997E+02  0.45594000000E+02  0.51100000000E-03 0. -1.
         11   -1    0    0    0    0 -0.00000000000E+00 -0.00000000000E+00 -0.45593999997E+02  0.45594000000E+02  0.51100000000E-03 0.  1.
    9900012    2    1    2    0    0 -0.13766896602E+02 -0.87376201512E+01 -0.27401555491E+02  0.59301973416E+02  0.50000053598E+02 0.  0.
         12    1    1    2    0    0  0.13766896602E+02  0.87376201512E+01  0.27401555491E+02  0.31886026584E+02  0.00000000000E+00 0. -1.
         11    1    3    3    0    0 -0.48952943662E+01 -0.17167539813E+01 -0.16580298105E+02  0.17372893733E+02  0.51100000000E-03 0. -1.
        -11    1    3    3    0    0 -0.13128317820E+02  0.12352906351E+02 -0.12630526329E+02  0.22010843231E+02  0.51100000000E-03 0.  1.
         12    1    3    3    0    0  0.42567155843E+01 -0.19373772521E+02  0.18092689430E+01  0.19918236452E+02  0.00000000000E+00 0. -1.
</event>
<event>
 7    1  0.5634483E-012  0.5930194E+02  0.7816164E-02  0.1266605E+00
        -11   -1    0    0    0    0  0.00000000000E+00  0.00000000000E+00  0.45593999997E+02  0.45594000000E+02  0.51100000000E-03 0. -1.
         11   -1    0    0    0    0 -0.00000000000E+00 -0.00000000000E+00 -0.45593999997E+02  0.45594000000E+02  0.51100000000E-03 0.  1.
    9900012    2    1    2    0    0  0.10196774074E+02 -0.27193911110E+02  0.13161990757E+02  0.59301937156E+02  0.49999987468E+02 0.  0.
         12    1    1    2    0    0 -0.10196774074E+02  0.27193911110E+02 -0.13161990757E+02  0.31886062844E+02  0.00000000000E+00 0. -1.
         11    1    3    3    0    0  0.12769168643E+02  0.11435819251E+01  0.13348988039E+02  0.18508239500E+02  0.51100000000E-03 0. -1.
        -11    1    3    3    0    0 -0.12737195323E+02 -0.28287574929E+01  0.21961894212E+01  0.13231071834E+02  0.51100000000E-03 0.  1.
        -12    1    3    3    0    0  0.10164800754E+02 -0.25508735542E+02 -0.23831867038E+01  0.27562625822E+02  0.00000000000E+00 0.  1.
</event>
<event>
 7    1  0.5634483E-012  0.5930183E+02  0.7816164E-02  0.1266605E+00
        -11   -1    0    0    0    0  0.00000000000E+00  0.00000000000E+00  0.45593999997E+02  0.45594000000E+02  0.51100000000E-03 0.  1.
         11   -1    0    0    0    0 -0.00000000000E+00 -0.00000000000E+00 -0.45593999997E+02  0.45594000000E+02  0.51100000000E-03 0. -1.
    9900012    2    1    2    0    0 -0.25894136483E+02 -0.75932631838E+01  0.16987164669E+02  0.59301831941E+02  0.49999795581E+02 0.  0.
         12    1    1    2    0    0  0.25894136483E+02  0.75932631838E+01 -0.16987164669E+02  0.31886168059E+02  0.00000000000E+00 0. -1.
         11    1    3    3    0    0 -0.32643282871E+01  0.71054226659E+01  0.60688434525E+01  0.98981680901E+01  0.51100000000E-03 0. -1.
        -11    1    3    3    0    0 -0.19782023559E+02 -0.83119371872E+01  0.25443124633E+02  0.33283169128E+02  0.51100000000E-03 0.  1.
         12    1    3    3    0    0 -0.28477846370E+01 -0.63867486625E+01 -0.14524803416E+02  0.16120494723E+02  0.00000000000E+00 0. -1.
</event>
<event>
 7    1  0.5634483E-012  0.5930196E+02  0.7816164E-02  0.1266605E+00
        -11   -1    0    0    0    0  0.00000000000E+00  0.00000000000E+00  0.45593999997E+02  0.45594000000E+02  0.51100000000E-03 0.  1.
         11   -1    0    0    0    0 -0.00000000000E+00 -0.00000000000E+00 -0.45593999997E+02  0.45594000000E+02  0.51100000000E-03 0. -1.
    9900012    2    1    2    0    0 -0.17106061367E+02 -0.15957139080E+02  0.21667300480E+02  0.59301960214E+02  0.50000029520E+02 0.  0.
         12    1    1    2    0    0  0.17106061367E+02  0.15957139080E+02 -0.21667300480E+02  0.31886039786E+02  0.00000000000E+00 0. -1.
         11    1    3    3    0    0  0.77617237424E-01  0.37357104104E+01 -0.33433732231E+01  0.50139506854E+01  0.51100000000E-03 0. -1.
        -11    1    3    3    0    0  0.71929783628E+01  0.49759905801E+01  0.16349249869E+02  0.18541774228E+02  0.51100000000E-03 0.  1.
         12    1    3    3    0    0 -0.24376656968E+02 -0.24668840071E+02  0.86614238342E+01  0.35746235301E+02  0.00000000000E+00 0. -1.
</event>
<event>
 7    1  0.5634483E-012  0.5930193E+02  0.7816164E-02  0.1266605E+00
        -11   -1    0    0    0    0  0.00000000000E+00  0.00000000000E+00  0.45593999997E+02  0.45594000000E+02  0.51100000000E-03 0.  1.
         11   -1    0    0    0    0 -0.00000000000E+00 -0.00000000000E+00 -0.45593999997E+02  0.45594000000E+02  0.51100000000E-03 0. -1.
    9900012    2    1    2    0    0  0.23270014849E+02 -0.86693422304E+01  0.20001765113E+02  0.59301926340E+02  0.49999967742E+02 0.  0.
         12    1    1    2    0    0 -0.23270014849E+02  0.86693422304E+01 -0.20001765113E+02  0.31886073660E+02  0.00000000000E+00 0. -1.
         11    1    3    3    0    0  0.34861126735E+01  0.40461312760E+01  0.22426793613E+01  0.57925616832E+01  0.51100000000E-03 0. -1.
        -11    1    3    3    0    0 -0.11547025568E+02  0.69574351796E+01  0.47138670096E+01  0.14281465128E+02  0.51100000000E-03 0.  1.
        -12    1    3    3    0    0  0.31330927744E+02 -0.19672908686E+02  0.13045218742E+02  0.39227899529E+02  0.00000000000E+00 0.  1.
</event>
<event>
 7    1  0.7364670E-012  0.5930187E+02  0.7816164E-02  0.1266605E+00
        -11   -1    0    0    0    0  0.00000000000E+00  0.00000000000E+00  0.45593999997E+02  0.45594000000E+02  0.51100000000E-03 0. -1.
         11   -1    0    0    0    0 -0.00000000000E+00 -0.00000000000E+00 -0.45593999997E+02  0.45594000000E+02  0.51100000000E-03 0.  1.
    9900012    2    1    2    0    0  0.11710191000E+02 -0.19233045595E+02 -0.22576247186E+02  0.59301865817E+02  0.49999857363E+02 0.  0.
         12    1    1    2    0    0 -0.11710191000E+02  0.19233045595E+02  0.22576247186E+02  0.31886134183E+02  0.00000000000E+00 0. -1.
         11    1    3    3    0    0 -0.58576671658E+01  0.14373352794E+01 -0.13102339804E+02  0.14423921309E+02  0.51100000000E-03 0. -1.
        -11    1    3    3    0    0  0.16296135651E+02 -0.26041446951E+02 -0.17334285304E+02  0.35273197243E+02  0.51100000000E-03 0.  1.
         12    1    3    3    0    0  0.12717225145E+01  0.53710660773E+01  0.78603779219E+01  0.96047472655E+01  0.00000000000E+00 0. -1.
</event>
<event>
 7    1  0.5634483E-012  0.5930195E+02  0.7816164E-02  0.1266605E+00
        -11   -1    0    0    0    0  0.00000000000E+00  0.00000000000E+00  0.45593999997E+02  0.45594000000E+02  0.51100000000E-03 0.  1.
         11   -1    0    0    0    0 -0.00000000000E+00 -0.00000000000E+00 -0.45593999997E+02  0.45594000000E+02  0.51100000000E-03 0. -1.
    9900012    2    1    2    0    0  0.10662086661E+02 -0.14230945494E+02  0.26467346893E+02  0.59301947356E+02  0.50000006070E+02 0.  0.
         12    1    1    2    0    0 -0.10662086661E+02  0.14230945494E+02 -0.26467346893E+02  0.31886052644E+02  0.00000000000E+00 0. -1.
         11    1    3    3    0    0 -0.55494831351E+01  0.83761309750E+01  0.16281882019E+02  0.19132590403E+02  0.51100000000E-03 0.  1.
        -11    1    3    3    0    0 -0.40233544273E+01 -0.89128642554E+01 -0.54173254303E+01  0.11179174619E+02  0.51100000000E-03 0. -1.
        -12    1    3    3    0    0  0.20234924224E+02 -0.13694212214E+02  0.15602790305E+02  0.28990182334E+02  0.00000000000E+00 0.  1.
</event>
<event>
 7    1  0.5634483E-012  0.5930192E+02  0.7816164E-02  0.1266605E+00
        -11   -1    0    0    0    0  0.00000000000E+00  0.00000000000E+00  0.45593999997E+02  0.45594000000E+02  0.51100000000E-03 0.  1.
         11   -1    0    0    0    0 -0.00000000000E+00 -0.00000000000E+00 -0.45593999997E+02  0.45594000000E+02  0.51100000000E-03 0. -1.
    9900012    2    1    2    0    0  0.17617048229E+02 -0.13804057503E+02  0.22711443583E+02  0.59301920569E+02  0.49999957217E+02 0.  0.
         12    1    1    2    0    0 -0.17617048229E+02  0.13804057503E+02 -0.22711443583E+02  0.31886079431E+02  0.00000000000E+00 0. -1.
         11    1    3    3    0    0 -0.78477748426E+00  0.52273165440E+01  0.11232934809E+02  0.12414489061E+02  0.51100000000E-03 0. -1.
        -11    1    3    3    0    0  0.26524119116E+02 -0.11633666364E+02  0.18010090566E+02  0.34106223045E+02  0.51100000000E-03 0.  1.
         12    1    3    3    0    0 -0.81222934028E+01 -0.73977076827E+01 -0.65315817919E+01  0.12781208463E+02  0.00000000000E+00 0. -1.
</event>
<event>
 7    1  0.5634483E-012  0.5930197E+02  0.7816164E-02  0.1266605E+00
        -11   -1    0    0    0    0  0.00000000000E+00  0.00000000000E+00  0.45593999997E+02  0.45594000000E+02  0.51100000000E-03 0.  1.
         11   -1    0    0    0    0 -0.00000000000E+00 -0.00000000000E+00 -0.45593999997E+02  0.45594000000E+02  0.51100000000E-03 0. -1.
    9900012    2    1    2    0    0  0.24059629289E+02 -0.17281957349E+02  0.11797770630E+02  0.59301965390E+02  0.50000038959E+02 0.  0.
         12    1    1    2    0    0 -0.24059629289E+02  0.17281957349E+02 -0.11797770630E+02  0.31886034610E+02  0.00000000000E+00 0. -1.
         11    1    3    3    0    0  0.24249480057E+02  0.35183096419E+01  0.59745835631E+01  0.25221249667E+02  0.51100000000E-03 0. -1.
        -11    1    3    3    0    0  0.42749531647E+01 -0.71540188813E+01  0.14915493096E+02  0.17085875607E+02  0.51100000000E-03 0.  1.
         12    1    3    3    0    0 -0.44648039321E+01 -0.13646248109E+02 -0.90923060292E+01  0.16994840115E+02  0.00000000000E+00 0. -1.
</event>
<event>
 7    1  0.5634483E-012  0.5930195E+02  0.7816164E-02  0.1266605E+00
        -11   -1    0    0    0    0  0.00000000000E+00  0.00000000000E+00  0.45593999997E+02  0.45594000000E+02  0.51100000000E-03 0.  1.
         11   -1    0    0    0    0 -0.00000000000E+00 -0.00000000000E+00 -0.45593999997E+02  0.45594000000E+02  0.51100000000E-03 0. -1.
    9900012    2    1    2    0    0 -0.30771113730E+02  0.38726347739E+01  0.74068673099E+01  0.59301946252E+02  0.50000004056E+02 0.  0.
         12    1    1    2    0    0  0.30771113730E+02 -0.38726347739E+01 -0.74068673099E+01  0.31886053748E+02  0.00000000000E+00 0. -1.
         11    1    3    3    0    0 -0.10913607479E+02  0.11817074390E+02 -0.11571150702E+02  0.19815186201E+02  0.51100000000E-03 0. -1.
        -11    1    3    3    0    0 -0.13245269575E+02  0.84616865667E+01  0.37792084755E+01  0.16165386560E+02  0.51100000000E-03 0.  1.
        -12    1    3    3    0    0 -0.66122366761E+01 -0.16406126183E+02  0.15198809537E+02  0.23321373491E+02  0.00000000000E+00 0.  1.
</event>
<event>
 7    1  0.5634483E-012  0.5930198E+02  0.7816164E-02  0.1266605E+00
        -11   -1    0    0    0    0  0.00000000000E+00  0.00000000000E+00  0.45593999997E+02  0.45594000000E+02  0.51100000000E-03 0.  1.
         11   -1    0    0    0    0 -0.00000000000E+00 -0.00000000000E+00 -0.45593999997E+02  0.45594000000E+02  0.51100000000E-03 0. -1.
    9900012    2    1    2    0    0  0.18115348174E+02 -0.99317797378E+00  0.26221483604E+02  0.59301977289E+02  0.50000060660E+02 0.  0.
         12    1    1    2    0    0 -0.18115348174E+02  0.99317797378E+00 -0.26221483604E+02  0.31886022711E+02  0.00000000000E+00 0. -1.
         11    1    3    3    0    0  0.22435925517E+02 -0.61762455412E+01 -0.36051839085E+01  0.23548123366E+02  0.51100000000E-03 0. -1.
        -11    1    3    3    0    0 -0.46608189553E+01 -0.63701699356E+01  0.93119140512E+01  0.12207130781E+02  0.51100000000E-03 0.  1.
        -12    1    3    3    0    0  0.34024161272E+00  0.11553237503E+02  0.20514753461E+02  0.23546723142E+02  0.00000000000E+00 0.  1.
</event>
<event>
 7    1  0.5634483E-012  0.5930194E+02  0.7816164E-02  0.1266605E+00
        -11   -1    0    0    0    0  0.00000000000E+00  0.00000000000E+00  0.45593999997E+02  0.45594000000E+02  0.51100000000E-03 0.  1.
         11   -1    0    0    0    0 -0.00000000000E+00 -0.00000000000E+00 -0.45593999997E+02  0.45594000000E+02  0.51100000000E-03 0. -1.
    9900012    2    1    2    0    0  0.23556792873E+02  0.19422345619E+01  0.21401545516E+02  0.59301938531E+02  0.49999989975E+02 0.  0.
         12    1    1    2    0    0 -0.23556792873E+02 -0.19422345619E+01 -0.21401545516E+02  0.31886061469E+02  0.00000000000E+00 0. -1.
         11    1    3    3    0    0  0.22710252607E+02 -0.46301868574E+01 -0.79841666197E+01  0.24514100446E+02  0.51100000000E-03 0. -1.
        -11    1    3    3    0    0  0.74552744414E+01  0.17400193778E+01  0.52016830055E+01  0.92556086122E+01  0.51100000000E-03 0.  1.
        -12    1    3    3    0    0 -0.66087341747E+01  0.48324020415E+01  0.24184029130E+02  0.25532229473E+02  0.00000000000E+00 0.  1.
</event>
<event>
 7    1  0.5634483E-012  0.5930193E+02  0.7816164E-02  0.1266605E+00
        -11   -1    0    0    0    0  0.00000000000E+00  0.00000000000E+00  0.45593999997E+02  0.45594000000E+02  0.51100000000E-03 0.  1.
         11   -1    0    0    0    0 -0.00000000000E+00 -0.00000000000E+00 -0.45593999997E+02  0.45594000000E+02  0.51100000000E-03 0. -1.
    9900012    2    1    2    0    0 -0.87787369982E+01  0.22288789777E+02  0.21044353209E+02  0.59301934470E+02  0.49999982569E+02 0.  0.
         12    1    1    2    0    0  0.87787369982E+01 -0.22288789777E+02 -0.21044353209E+02  0.31886065530E+02  0.00000000000E+00 0. -1.
         11    1    3    3    0    0 -0.24973434550E+01  0.59460515819E+01  0.35047644200E+00  0.64587218352E+01  0.51100000000E-03 0. -1.
        -11    1    3    3    0    0  0.94392377744E+01  0.25477307944E+02  0.21494174864E+02  0.34643787079E+02  0.51100000000E-03 0.  1.
        -12    1    3    3    0    0 -0.15720631318E+02 -0.91345697484E+01 -0.80029809779E+00  0.18199425556E+02  0.00000000000E+00 0.  1.
</event>
<event>
 7    1  0.5634483E-012  0.5930199E+02  0.7816164E-02  0.1266605E+00
        -11   -1    0    0    0    0  0.00000000000E+00  0.00000000000E+00  0.45593999997E+02  0.45594000000E+02  0.51100000000E-03 0.  1.
         11   -1    0    0    0    0 -0.00000000000E+00 -0.00000000000E+00 -0.45593999997E+02  0.45594000000E+02  0.51100000000E-03 0. -1.
    9900012    2    1    2    0    0 -0.23739910171E+02  0.25372285020E+01  0.21135208028E+02  0.59301986110E+02  0.50000076748E+02 0.  0.
         12    1    1    2    0    0  0.23739910171E+02 -0.25372285020E+01 -0.21135208028E+02  0.31886013890E+02  0.00000000000E+00 0. -1.
         11    1    3    3    0    0  0.10913754541E+01  0.54373183377E+01  0.38627145523E+01  0.67584092108E+01  0.51100000000E-03 0. -1.
        -11    1    3    3    0    0  0.46123173765E+01 -0.15807857837E+02  0.10960427536E+02  0.19781122643E+02  0.51100000000E-03 0.  1.
        -12    1    3    3    0    0 -0.29443603002E+02  0.12907768001E+02  0.63120659397E+01  0.32762454257E+02  0.00000000000E+00 0.  1.
</event>
<event>
 7    1  0.5634483E-012  0.5930195E+02  0.7816164E-02  0.1266605E+00
        -11   -1    0    0    0    0  0.00000000000E+00  0.00000000000E+00  0.45593999997E+02  0.45594000000E+02  0.51100000000E-03 0. -1.
         11   -1    0    0    0    0 -0.00000000000E+00 -0.00000000000E+00 -0.45593999997E+02  0.45594000000E+02  0.51100000000E-03 0.  1.
    9900012    2    1    2    0    0  0.25631515326E+02 -0.18056270112E+02 -0.58066198815E+01  0.59301948148E+02  0.50000007514E+02 0.  0.
         12    1    1    2    0    0 -0.25631515326E+02  0.18056270112E+02  0.58066198815E+01  0.31886051852E+02  0.00000000000E+00 0. -1.
         11    1    3    3    0    0  0.17261741599E+02  0.11752134469E+02  0.49854744161E+01  0.21469404813E+02  0.51100000000E-03 0. -1.
        -11    1    3    3    0    0 -0.37611130588E+01 -0.10904845946E+01  0.16723470130E+01  0.42581536944E+01  0.51100000000E-03 0.  1.
        -12    1    3    3    0    0  0.12130886785E+02 -0.28717919986E+02 -0.12464441311E+02  0.33574389641E+02  0.00000000000E+00 0.  1.
</event>
<event>
 7    1  0.5634483E-012  0.5930193E+02  0.7816164E-02  0.1266605E+00
        -11   -1    0    0    0    0  0.00000000000E+00  0.00000000000E+00  0.45593999997E+02  0.45594000000E+02  0.51100000000E-03 0. -1.
         11   -1    0    0    0    0 -0.00000000000E+00 -0.00000000000E+00 -0.45593999997E+02  0.45594000000E+02  0.51100000000E-03 0.  1.
    9900012    2    1    2    0    0  0.12533594394E+02  0.29301993521E+02 -0.10117867538E+01  0.59301928978E+02  0.49999972553E+02 0.  0.
         12    1    1    2    0    0 -0.12533594394E+02 -0.29301993521E+02  0.10117867538E+01  0.31886071022E+02  0.00000000000E+00 0. -1.
         11    1    3    3    0    0  0.96512275576E+01  0.14337019691E+02  0.78359065804E+01  0.18976241967E+02  0.51100000000E-03 0. -1.
        -11    1    3    3    0    0 -0.35849504656E+01  0.22535607940E+02  0.49116311022E+01  0.23341585538E+02  0.51100000000E-03 0.  1.
        -12    1    3    3    0    0  0.64673173022E+01 -0.75706341099E+01 -0.13759324436E+02  0.16984101473E+02  0.00000000000E+00 0.  1.
</event>
<event>
 7    1  0.5634483E-012  0.5930194E+02  0.7816164E-02  0.1266605E+00
        -11   -1    0    0    0    0  0.00000000000E+00  0.00000000000E+00  0.45593999997E+02  0.45594000000E+02  0.51100000000E-03 0.  1.
         11   -1    0    0    0    0 -0.00000000000E+00 -0.00000000000E+00 -0.45593999997E+02  0.45594000000E+02  0.51100000000E-03 0. -1.
    9900012    2    1    2    0    0  0.30426234487E+02 -0.34936621447E+01  0.88746596297E+01  0.59301937155E+02  0.49999987466E+02 0.  0.
         12    1    1    2    0    0 -0.30426234487E+02  0.34936621447E+01 -0.88746596297E+01  0.31886062845E+02  0.00000000000E+00 0. -1.
         11    1    3    3    0    0  0.87621241658E+01 -0.13544663289E+02 -0.28573202893E+01  0.16382826466E+02  0.51100000000E-03 0. -1.
        -11    1    3    3    0    0  0.24158702090E+01 -0.11192743616E+02  0.80938260236E+01  0.14022266525E+02  0.51100000000E-03 0.  1.
        -12    1    3    3    0    0  0.19248240112E+02  0.21243744761E+02  0.36381538955E+01  0.28896844164E+02  0.00000000000E+00 0.  1.
</event>
<event>
 7    1  0.5634483E-012  0.5930190E+02  0.7816164E-02  0.1266605E+00
        -11   -1    0    0    0    0  0.00000000000E+00  0.00000000000E+00  0.45593999997E+02  0.45594000000E+02  0.51100000000E-03 0. -1.
         11   -1    0    0    0    0 -0.00000000000E+00 -0.00000000000E+00 -0.45593999997E+02  0.45594000000E+02  0.51100000000E-03 0.  1.
    9900012    2    1    2    0    0 -0.27992586371E+02  0.14728473529E+02 -0.40262536112E+01  0.59301897347E+02  0.49999914866E+02 0.  0.
         12    1    1    2    0    0  0.27992586371E+02 -0.14728473529E+02  0.40262536112E+01  0.31886102653E+02  0.00000000000E+00 0. -1.
         11    1    3    3    0    0 -0.32328083538E+01  0.61514330652E+01  0.91801309707E+01  0.11513730217E+02  0.51100000000E-03 0. -1.
        -11    1    3    3    0    0  0.85800336152E+01  0.69479885291E+01  0.18075099819E+01  0.11187431074E+02  0.51100000000E-03 0.  1.
        -12    1    3    3    0    0 -0.33339811632E+02  0.16290519350E+01 -0.15013894564E+02  0.36600736056E+02  0.00000000000E+00 0.  1.
</event>
<event>
 7    1  0.5634483E-012  0.5930194E+02  0.7816164E-02  0.1266605E+00
        -11   -1    0    0    0    0  0.00000000000E+00  0.00000000000E+00  0.45593999997E+02  0.45594000000E+02  0.51100000000E-03 0.  1.
         11   -1    0    0    0    0 -0.00000000000E+00 -0.00000000000E+00 -0.45593999997E+02  0.45594000000E+02  0.51100000000E-03 0. -1.
    9900012    2    1    2    0    0 -0.24302826365E+02 -0.20302236012E+02 -0.37299465179E+01  0.59301942585E+02  0.49999997369E+02 0.  0.
         12    1    1    2    0    0  0.24302826365E+02  0.20302236012E+02  0.37299465179E+01  0.31886057415E+02  0.00000000000E+00 0. -1.
         11    1    3    3    0    0  0.48942389873E+01 -0.55953053480E+01  0.75578193520E+01  0.10601021216E+02  0.51100000000E-03 0. -1.
        -11    1    3    3    0    0 -0.20043516669E+02 -0.25897922378E+02 -0.97096996314E+01  0.34157330270E+02  0.51100000000E-03 0.  1.
         12    1    3    3    0    0 -0.91535486830E+01  0.11190991713E+02 -0.15780662385E+01  0.14543591100E+02  0.00000000000E+00 0. -1.
</event>
<event>
 7    1  0.5634483E-012  0.5930188E+02  0.7816164E-02  0.1266605E+00
        -11   -1    0    0    0    0  0.00000000000E+00  0.00000000000E+00  0.45593999997E+02  0.45594000000E+02  0.51100000000E-03 0. -1.
         11   -1    0    0    0    0 -0.00000000000E+00 -0.00000000000E+00 -0.45593999997E+02  0.45594000000E+02  0.51100000000E-03 0.  1.
    9900012    2    1    2    0    0 -0.27750143683E+02 -0.90904980233E+01 -0.12806906269E+02  0.59301882693E+02  0.49999888140E+02 0.  0.
         12    1    1    2    0    0  0.27750143683E+02  0.90904980233E+01  0.12806906269E+02  0.31886117307E+02  0.00000000000E+00 0. -1.
         11    1    3    3    0    0 -0.24221157871E+02 -0.15051363086E+01 -0.10321941164E+02  0.26371810586E+02  0.51100000000E-03 0. -1.
        -11    1    3    3    0    0 -0.16823620728E+02 -0.32299301815E+01  0.38729609160E+01  0.17563214111E+02  0.51100000000E-03 0.  1.
         12    1    3    3    0    0  0.13294634916E+02 -0.43554315332E+01 -0.63579260207E+01  0.15366857996E+02  0.00000000000E+00 0. -1.
</event>
<event>
 7    1  0.5634483E-012  0.5930191E+02  0.7816164E-02  0.1266605E+00
        -11   -1    0    0    0    0  0.00000000000E+00  0.00000000000E+00  0.45593999997E+02  0.45594000000E+02  0.51100000000E-03 0.  1.
         11   -1    0    0    0    0 -0.00000000000E+00 -0.00000000000E+00 -0.45593999997E+02  0.45594000000E+02  0.51100000000E-03 0. -1.
    9900012    2    1    2    0    0  0.16485125503E+02  0.25288754359E+02 -0.10268520151E+02  0.59301906386E+02  0.49999931350E+02 0.  0.
         12    1    1    2    0    0 -0.16485125503E+02 -0.25288754359E+02  0.10268520151E+02  0.31886093614E+02  0.00000000000E+00 0. -1.
         11    1    3    3    0    0  0.96857487235E+01  0.15169324707E+02 -0.16017547457E+01  0.18068972271E+02  0.51100000000E-03 0. -1.
        -11    1    3    3    0    0  0.44789941851E+01  0.20493263526E+02  0.71619850096E+01  0.22165948398E+02  0.51100000000E-03 0.  1.
         12    1    3    3    0    0  0.23203825941E+01 -0.10373833874E+02 -0.15828750415E+02  0.19066985717E+02  0.00000000000E+00 0. -1.
</event>
<event>
 7    1  0.5634483E-012  0.5930195E+02  0.7816164E-02  0.1266605E+00
        -11   -1    0    0    0    0  0.00000000000E+00  0.00000000000E+00  0.45593999997E+02  0.45594000000E+02  0.51100000000E-03 0. -1.
         11   -1    0    0    0    0 -0.00000000000E+00 -0.00000000000E+00 -0.45593999997E+02  0.45594000000E+02  0.51100000000E-03 0.  1.
    9900012    2    1    2    0    0  0.13514727915E+02  0.24381001622E+02 -0.15480289060E+02  0.59301945680E+02  0.50000003013E+02 0.  0.
         12    1    1    2    0    0 -0.13514727915E+02 -0.24381001622E+02  0.15480289060E+02  0.31886054320E+02  0.00000000000E+00 0. -1.
         11    1    3    3    0    0 -0.44502964078E+01 -0.97854359146E+01 -0.13317637282E+01  0.10832058394E+02  0.51100000000E-03 0. -1.
        -11    1    3    3    0    0  0.42216328421E+01  0.23662839968E+01 -0.12929485129E+02  0.13805544892E+02  0.51100000000E-03 0.  1.
        -12    1    3    3    0    0  0.13743391481E+02  0.31800153540E+02 -0.12190402022E+01  0.34664342394E+02  0.00000000000E+00 0.  1.
</event>
<event>
 7    1  0.5634483E-012  0.5930196E+02  0.7816164E-02  0.1266605E+00
        -11   -1    0    0    0    0  0.00000000000E+00  0.00000000000E+00  0.45593999997E+02  0.45594000000E+02  0.51100000000E-03 0. -1.
         11   -1    0    0    0    0 -0.00000000000E+00 -0.00000000000E+00 -0.45593999997E+02  0.45594000000E+02  0.51100000000E-03 0.  1.
    9900012    2    1    2    0    0 -0.42766188795E+01 -0.17797732869E+02 -0.26108831541E+02  0.59301955266E+02  0.50000020496E+02 0.  0.
         12    1    1    2    0    0  0.42766188795E+01  0.17797732869E+02  0.26108831541E+02  0.31886044734E+02  0.00000000000E+00 0. -1.
         11    1    3    3    0    0  0.10722624788E+02 -0.11483204205E+02  0.36192542734E+01  0.16122582390E+02  0.51100000000E-03 0. -1.
        -11    1    3    3    0    0  0.67686907076E+01  0.17280392866E+01 -0.25376993843E+01  0.74324432118E+01  0.51100000000E-03 0.  1.
        -12    1    3    3    0    0 -0.21767934375E+02 -0.80425679507E+01 -0.27190386430E+02  0.35746929664E+02  0.00000000000E+00 0.  1.
</event>
<event>
 7    1  0.5634483E-012  0.5930190E+02  0.7816164E-02  0.1266605E+00
        -11   -1    0    0    0    0  0.00000000000E+00  0.00000000000E+00  0.45593999997E+02  0.45594000000E+02  0.51100000000E-03 0.  1.
         11   -1    0    0    0    0 -0.00000000000E+00 -0.00000000000E+00 -0.45593999997E+02  0.45594000000E+02  0.51100000000E-03 0. -1.
    9900012    2    1    2    0    0 -0.14981653970E+02 -0.13702489799E+02  0.24586887427E+02  0.59301902470E+02  0.49999924208E+02 0.  0.
         12    1    1    2    0    0  0.14981653970E+02  0.13702489799E+02 -0.24586887427E+02  0.31886097530E+02  0.00000000000E+00 0. -1.
         11    1    3    3    0    0 -0.62091926657E+01 -0.19466799694E+02  0.35713723064E+02  0.41145842795E+02  0.51100000000E-03 0.  1.
        -11    1    3    3    0    0 -0.75261604509E+01 -0.63325201201E+00 -0.41882620801E+01  0.86362977459E+01  0.51100000000E-03 0. -1.
        -12    1    3    3    0    0 -0.12463008532E+01  0.63975619074E+01 -0.69385735573E+01  0.95197619290E+01  0.00000000000E+00 0.  1.
</event>
<event>
 7    1  0.5634483E-012  0.5930195E+02  0.7816164E-02  0.1266605E+00
        -11   -1    0    0    0    0  0.00000000000E+00  0.00000000000E+00  0.45593999997E+02  0.45594000000E+02  0.51100000000E-03 0.  1.
         11   -1    0    0    0    0 -0.00000000000E+00 -0.00000000000E+00 -0.45593999997E+02  0.45594000000E+02  0.51100000000E-03 0. -1.
    9900012    2    1    2    0    0  0.50132526432E+00 -0.16851444828E+01  0.31837538776E+02  0.59301954240E+02  0.50000018624E+02 0.  0.
         12    1    1    2    0    0 -0.50132526432E+00  0.16851444828E+01 -0.31837538776E+02  0.31886045760E+02  0.00000000000E+00 0. -1.
         11    1    3    3    0    0 -0.14837130958E+02 -0.85301392406E+01  0.75828055451E+01  0.18719045668E+02  0.51100000000E-03 0.  1.
        -11    1    3    3    0    0 -0.44494997642E+01  0.10023663803E+02  0.30008825983E+01  0.11370012349E+02  0.51100000000E-03 0. -1.
        -12    1    3    3    0    0  0.19787955987E+02 -0.31786690448E+01  0.21253850632E+02  0.29212896223E+02  0.00000000000E+00 0.  1.
</event>
<event>
 7    1  0.5634483E-012  0.5930229E+02  0.7816164E-02  0.1266604E+00
        -11   -1    0    0    0    0  0.00000000000E+00  0.00000000000E+00  0.45593999997E+02  0.45594000000E+02  0.51100000000E-03 0.  1.
         11   -1    0    0    0    0 -0.00000000000E+00 -0.00000000000E+00 -0.45593999997E+02  0.45594000000E+02  0.51100000000E-03 0. -1.
    9900012    2    1    2    0    0 -0.28786284875E+02  0.13375361076E+02  0.30245624751E+01  0.59302290678E+02  0.50000632203E+02 0.  0.
         12    1    1    2    0    0  0.28786284875E+02 -0.13375361076E+02 -0.30245624751E+01  0.31885709322E+02  0.00000000000E+00 0. -1.
         11    1    3    3    0    0 -0.30846546572E+02  0.98634664013E+01  0.34051742628E+01  0.32563670200E+02  0.51100000000E-03 0. -1.
        -11    1    3    3    0    0 -0.70467141866E+01 -0.77283884796E+01 -0.49453963375E+01  0.11568972060E+02  0.51100000000E-03 0.  1.
         12    1    3    3    0    0  0.91069758840E+01  0.11240283154E+02  0.45647845498E+01  0.15169648418E+02  0.00000000000E+00 0. -1.
</event>
<event>
 7    1  0.5634483E-012  0.5930190E+02  0.7816164E-02  0.1266605E+00
        -11   -1    0    0    0    0  0.00000000000E+00  0.00000000000E+00  0.45593999997E+02  0.45594000000E+02  0.51100000000E-03 0. -1.
         11   -1    0    0    0    0 -0.00000000000E+00 -0.00000000000E+00 -0.45593999997E+02  0.45594000000E+02  0.51100000000E-03 0.  1.
    9900012    2    1    2    0    0  0.70969022269E+01  0.19302064953E+02 -0.24367759673E+02  0.59301898888E+02  0.49999917676E+02 0.  0.
         12    1    1    2    0    0 -0.70969022269E+01 -0.19302064953E+02  0.24367759673E+02  0.31886101112E+02  0.00000000000E+00 0. -1.
         11    1    3    3    0    0  0.80410239296E+01 -0.15577671363E+01 -0.42153948625E+01  0.92116371181E+01  0.51100000000E-03 0. -1.
        -11    1    3    3    0    0 -0.71394260236E+01  0.64989707303E+01 -0.30062481235E+02  0.31574686107E+02  0.51100000000E-03 0.  1.
         12    1    3    3    0    0  0.61953043209E+01  0.14360861359E+02  0.99101164245E+01  0.18515575663E+02  0.00000000000E+00 0. -1.
</event>
<event>
 7    1  0.5634483E-012  0.5930195E+02  0.7816164E-02  0.1266605E+00
        -11   -1    0    0    0    0  0.00000000000E+00  0.00000000000E+00  0.45593999997E+02  0.45594000000E+02  0.51100000000E-03 0. -1.
         11   -1    0    0    0    0 -0.00000000000E+00 -0.00000000000E+00 -0.45593999997E+02  0.45594000000E+02  0.51100000000E-03 0.  1.
    9900012    2    1    2    0    0 -0.35119645184E+01 -0.57121000237E+01 -0.31173035022E+02  0.59301951422E+02  0.50000013485E+02 0.  0.
         12    1    1    2    0    0  0.35119645184E+01  0.57121000237E+01  0.31173035022E+02  0.31886048578E+02  0.00000000000E+00 0. -1.
         11    1    3    3    0    0 -0.94646902651E+01  0.93874153901E-01 -0.17408656689E+02  0.19815410723E+02  0.51100000000E-03 0. -1.
        -11    1    3    3    0    0  0.54347600689E+01 -0.47386943600E+01 -0.26108321842E+02  0.27085721532E+02  0.51100000000E-03 0.  1.
         12    1    3    3    0    0  0.51796567783E+00 -0.10672798176E+01  0.12343943509E+02  0.12400819167E+02  0.00000000000E+00 0. -1.
</event>
<event>
 7    1  0.5634483E-012  0.5930182E+02  0.7816164E-02  0.1266605E+00
        -11   -1    0    0    0    0  0.00000000000E+00  0.00000000000E+00  0.45593999997E+02  0.45594000000E+02  0.51100000000E-03 0.  1.
         11   -1    0    0    0    0 -0.00000000000E+00 -0.00000000000E+00 -0.45593999997E+02  0.45594000000E+02  0.51100000000E-03 0. -1.
    9900012    2    1    2    0    0 -0.16017481990E+01  0.28714357808E+02  0.13771287126E+02  0.59301822890E+02  0.49999779073E+02 0.  0.
         12    1    1    2    0    0  0.16017481990E+01 -0.28714357808E+02 -0.13771287126E+02  0.31886177110E+02  0.00000000000E+00 0. -1.
         11    1    3    3    0    0 -0.38836584776E+01  0.18148171843E+02 -0.40767817796E+01  0.19001555051E+02  0.51100000000E-03 0. -1.
        -11    1    3    3    0    0 -0.85249105563E+01  0.19202776472E+02  0.15860129892E+02  0.26324217836E+02  0.51100000000E-03 0.  1.
         12    1    3    3    0    0  0.10806820835E+02 -0.86365905073E+01  0.19879390133E+01  0.13976050002E+02  0.00000000000E+00 0. -1.
</event>
<event>
 7    1  0.5634483E-012  0.5930198E+02  0.7816164E-02  0.1266605E+00
        -11   -1    0    0    0    0  0.00000000000E+00  0.00000000000E+00  0.45593999997E+02  0.45594000000E+02  0.51100000000E-03 0. -1.
         11   -1    0    0    0    0 -0.00000000000E+00 -0.00000000000E+00 -0.45593999997E+02  0.45594000000E+02  0.51100000000E-03 0.  1.
    9900012    2    1    2    0    0 -0.17427477843E+01 -0.28560804658E+02 -0.14069872836E+02  0.59301983407E+02  0.50000071818E+02 0.  0.
         12    1    1    2    0    0  0.17427477843E+01  0.28560804658E+02  0.14069872836E+02  0.31886016593E+02  0.00000000000E+00 0. -1.
         11    1    3    3    0    0  0.76329374350E+01 -0.69510552382E+01 -0.79733550266E+01  0.13044282021E+02  0.51100000000E-03 0. -1.
        -11    1    3    3    0    0  0.66572052791E+01 -0.14235206514E+02 -0.18807635144E+02  0.24508909127E+02  0.51100000000E-03 0.  1.
         12    1    3    3    0    0 -0.16032890498E+02 -0.73745429055E+01  0.12711117335E+02  0.21748792258E+02  0.00000000000E+00 0. -1.
</event>
<event>
 7    1  0.5634483E-012  0.5930193E+02  0.7816164E-02  0.1266605E+00
        -11   -1    0    0    0    0  0.00000000000E+00  0.00000000000E+00  0.45593999997E+02  0.45594000000E+02  0.51100000000E-03 0.  1.
         11   -1    0    0    0    0 -0.00000000000E+00 -0.00000000000E+00 -0.45593999997E+02  0.45594000000E+02  0.51100000000E-03 0. -1.
    9900012    2    1    2    0    0  0.92971005100E+01 -0.16186099881E+02  0.25851409582E+02  0.59301932750E+02  0.49999979433E+02 0.  0.
         12    1    1    2    0    0 -0.92971005100E+01  0.16186099881E+02 -0.25851409582E+02  0.31886067250E+02  0.00000000000E+00 0. -1.
         11    1    3    3    0    0 -0.53226938646E+01 -0.20680709952E+02  0.14285727780E+02  0.25692505766E+02  0.51100000000E-03 0. -1.
        -11    1    3    3    0    0 -0.52289670003E+01  0.49488949983E+01  0.11720183168E+02  0.13754866461E+02  0.51100000000E-03 0.  1.
         12    1    3    3    0    0  0.19848761375E+02 -0.45428492756E+00 -0.15450136550E+00  0.19854560524E+02  0.00000000000E+00 0. -1.
</event>
<event>
 7    1  0.5634483E-012  0.5930224E+02  0.7816164E-02  0.1266604E+00
        -11   -1    0    0    0    0  0.00000000000E+00  0.00000000000E+00  0.45593999997E+02  0.45594000000E+02  0.51100000000E-03 0.  1.
         11   -1    0    0    0    0 -0.00000000000E+00 -0.00000000000E+00 -0.45593999997E+02  0.45594000000E+02  0.51100000000E-03 0. -1.
    9900012    2    1    2    0    0 -0.26069939743E+01 -0.29911054053E+02  0.10734722157E+02  0.59302237786E+02  0.50000535742E+02 0.  0.
         12    1    1    2    0    0  0.26069939743E+01  0.29911054053E+02 -0.10734722157E+02  0.31885762214E+02  0.00000000000E+00 0. -1.
         11    1    3    3    0    0  0.65427416317E+01 -0.11645951613E+02 -0.78576687292E+01  0.15497697092E+02  0.51100000000E-03 0. -1.
        -11    1    3    3    0    0  0.92952245177E+01  0.44800172210E+01  0.59199227043E+01  0.11896101808E+02  0.51100000000E-03 0.  1.
         12    1    3    3    0    0 -0.18444960124E+02 -0.22745119661E+02  0.12672468182E+02  0.31908438887E+02  0.00000000000E+00 0. -1.
</event>
<event>
 7    1  0.5634483E-012  0.5930193E+02  0.7816164E-02  0.1266605E+00
        -11   -1    0    0    0    0  0.00000000000E+00  0.00000000000E+00  0.45593999997E+02  0.45594000000E+02  0.51100000000E-03 0.  1.
         11   -1    0    0    0    0 -0.00000000000E+00 -0.00000000000E+00 -0.45593999997E+02  0.45594000000E+02  0.51100000000E-03 0. -1.
    9900012    2    1    2    0    0 -0.21239891524E+02  0.89850531989E+01  0.22019478229E+02  0.59301927893E+02  0.49999970574E+02 0.  0.
         12    1    1    2    0    0  0.21239891524E+02 -0.89850531989E+01 -0.22019478229E+02  0.31886072107E+02  0.00000000000E+00 0. -1.
         11    1    3    3    0    0 -0.17834269250E+02  0.15216553414E+02 -0.69336213279E+01  0.24447489901E+02  0.51100000000E-03 0. -1.
        -11    1    3    3    0    0  0.44781804297E+00 -0.43621377078E+01 -0.10811259702E+01  0.45163724388E+01  0.51100000000E-03 0.  1.
        -12    1    3    3    0    0 -0.38534403166E+01 -0.18693625069E+01  0.30034225528E+02  0.30338065553E+02  0.00000000000E+00 0.  1.
</event>
<event>
 7    1  0.5634483E-012  0.5930195E+02  0.7816164E-02  0.1266605E+00
        -11   -1    0    0    0    0  0.00000000000E+00  0.00000000000E+00  0.45593999997E+02  0.45594000000E+02  0.51100000000E-03 0. -1.
         11   -1    0    0    0    0 -0.00000000000E+00 -0.00000000000E+00 -0.45593999997E+02  0.45594000000E+02  0.51100000000E-03 0.  1.
    9900012    2    1    2    0    0  0.30118604488E+02  0.10440259386E+02  0.76881207742E+00  0.59301946241E+02  0.50000004036E+02 0.  0.
         12    1    1    2    0    0 -0.30118604488E+02 -0.10440259386E+02 -0.76881207742E+00  0.31886053759E+02  0.00000000000E+00 0. -1.
         11    1    3    3    0    0  0.12365387398E+02  0.23743315982E+02 -0.89245893322E+01  0.28218719927E+02  0.51100000000E-03 0. -1.
        -11    1    3    3    0    0 -0.32109746162E+01 -0.44334846200E+01  0.58250845558E+01  0.79936070834E+01  0.51100000000E-03 0.  1.
        -12    1    3    3    0    0  0.20964191706E+02 -0.88695719761E+01  0.38683168538E+01  0.23089619230E+02  0.00000000000E+00 0.  1.
</event>
<event>
 7    1  0.5634483E-012  0.5930210E+02  0.7816164E-02  0.1266604E+00
        -11   -1    0    0    0    0  0.00000000000E+00  0.00000000000E+00  0.45593999997E+02  0.45594000000E+02  0.51100000000E-03 0.  1.
         11   -1    0    0    0    0 -0.00000000000E+00 -0.00000000000E+00 -0.45593999997E+02  0.45594000000E+02  0.51100000000E-03 0. -1.
    9900012    2    1    2    0    0 -0.22246958067E+02  0.20583908873E+02  0.99038582327E+01  0.59302096286E+02  0.50000277682E+02 0.  0.
         12    1    1    2    0    0  0.22246958067E+02 -0.20583908873E+02 -0.99038582327E+01  0.31885903714E+02  0.00000000000E+00 0. -1.
         11    1    3    3    0    0 -0.20155531820E+02  0.44830154572E+01 -0.45704017048E+01  0.21147847705E+02  0.51100000000E-03 0. -1.
        -11    1    3    3    0    0 -0.16699403613E+02  0.10051820910E+02  0.80054424293E+01  0.21071219551E+02  0.51100000000E-03 0.  1.
         12    1    3    3    0    0  0.14607977366E+02  0.60490725061E+01  0.64688175082E+01  0.17083029030E+02  0.00000000000E+00 0. -1.
</event>
<event>
 7    1  0.5634483E-012  0.5930186E+02  0.7816164E-02  0.1266605E+00
        -11   -1    0    0    0    0  0.00000000000E+00  0.00000000000E+00  0.45593999997E+02  0.45594000000E+02  0.51100000000E-03 0. -1.
         11   -1    0    0    0    0 -0.00000000000E+00 -0.00000000000E+00 -0.45593999997E+02  0.45594000000E+02  0.51100000000E-03 0.  1.
    9900012    2    1    2    0    0  0.24003245035E+02  0.49635079867E+01 -0.20394449404E+02  0.59301862726E+02  0.49999851725E+02 0.  0.
         12    1    1    2    0    0 -0.24003245035E+02 -0.49635079867E+01  0.20394449404E+02  0.31886137274E+02  0.00000000000E+00 0. -1.
         11    1    3    3    0    0  0.95102692477E+01 -0.12688383371E+02 -0.14370898840E+02  0.21400070735E+02  0.51100000000E-03 0.  1.
        -11    1    3    3    0    0  0.79725584304E+00 -0.79770503511E+01  0.78763638831E+00  0.80553907742E+01  0.51100000000E-03 0. -1.
        -12    1    3    3    0    0  0.13695719944E+02  0.25628941708E+02 -0.68111869526E+01  0.29846401217E+02  0.00000000000E+00 0.  1.
</event>
<event>
 7    1  0.5634483E-012  0.5930218E+02  0.7816164E-02  0.1266604E+00
        -11   -1    0    0    0    0  0.00000000000E+00  0.00000000000E+00  0.45593999997E+02  0.45594000000E+02  0.51100000000E-03 0.  1.
         11   -1    0    0    0    0 -0.00000000000E+00 -0.00000000000E+00 -0.45593999997E+02  0.45594000000E+02  0.51100000000E-03 0. -1.
    9900012    2    1    2    0    0  0.14954782655E+02 -0.24758598019E+01  0.28052279854E+02  0.59302175391E+02  0.50000421949E+02 0.  0.
         12    1    1    2    0    0 -0.14954782655E+02  0.24758598019E+01 -0.28052279854E+02  0.31885824609E+02  0.00000000000E+00 0. -1.
         11    1    3    3    0    0  0.82009468698E+01 -0.20664425379E+02  0.11670898941E+02  0.25109438228E+02  0.51100000000E-03 0. -1.
        -11    1    3    3    0    0  0.52506867689E+01  0.86020142350E+01 -0.45984719937E+01  0.11077468365E+02  0.51100000000E-03 0.  1.
        -12    1    3    3    0    0  0.15031490164E+01  0.95865513417E+01  0.20979852907E+02  0.23115268798E+02  0.00000000000E+00 0.  1.
</event>
<event>
 7    1  0.5634483E-012  0.5930195E+02  0.7816164E-02  0.1266605E+00
        -11   -1    0    0    0    0  0.00000000000E+00  0.00000000000E+00  0.45593999997E+02  0.45594000000E+02  0.51100000000E-03 0.  1.
         11   -1    0    0    0    0 -0.00000000000E+00 -0.00000000000E+00 -0.45593999997E+02  0.45594000000E+02  0.51100000000E-03 0. -1.
    9900012    2    1    2    0    0 -0.11434812482E+02  0.81418029699E+01  0.28629988225E+02  0.59301951047E+02  0.50000012801E+02 0.  0.
         12    1    1    2    0    0  0.11434812482E+02 -0.81418029699E+01 -0.28629988225E+02  0.31886048953E+02  0.00000000000E+00 0. -1.
         11    1    3    3    0    0 -0.73983612954E+01  0.69152726189E+01 -0.28506757281E+01  0.10520603482E+02  0.51100000000E-03 0. -1.
        -11    1    3    3    0    0  0.12123672591E+02  0.46532350430E+01 -0.27169043943E+00  0.12988835568E+02  0.51100000000E-03 0.  1.
        -12    1    3    3    0    0 -0.16160123778E+02 -0.34267046920E+01  0.31752354392E+02  0.35792511997E+02  0.00000000000E+00 0.  1.
</event>
<event>
 7    1  0.5634483E-012  0.5930194E+02  0.7816164E-02  0.1266605E+00
        -11   -1    0    0    0    0  0.00000000000E+00  0.00000000000E+00  0.45593999997E+02  0.45594000000E+02  0.51100000000E-03 0. -1.
         11   -1    0    0    0    0 -0.00000000000E+00 -0.00000000000E+00 -0.45593999997E+02  0.45594000000E+02  0.51100000000E-03 0.  1.
    9900012    2    1    2    0    0 -0.12659974671E+02  0.23619925402E+02 -0.17278454747E+02  0.59301939831E+02  0.49999992346E+02 0.  0.
         12    1    1    2    0    0  0.12659974671E+02 -0.23619925402E+02  0.17278454747E+02  0.31886060169E+02  0.00000000000E+00 0. -1.
         11    1    3    3    0    0 -0.58774121008E+01 -0.90945161201E+01 -0.13398725138E+00  0.10829226625E+02  0.51100000000E-03 0. -1.
        -11    1    3    3    0    0  0.20621014666E+01 -0.41454781471E+01 -0.83683590695E+01  0.95638216893E+01  0.51100000000E-03 0.  1.
        -12    1    3    3    0    0 -0.88446640372E+01  0.36859919669E+02 -0.87761084262E+01  0.38908891516E+02  0.00000000000E+00 0.  1.
</event>
<event>
 7    1  0.5634483E-012  0.5930195E+02  0.7816164E-02  0.1266605E+00
        -11   -1    0    0    0    0  0.00000000000E+00  0.00000000000E+00  0.45593999997E+02  0.45594000000E+02  0.51100000000E-03 0. -1.
         11   -1    0    0    0    0 -0.00000000000E+00 -0.00000000000E+00 -0.45593999997E+02  0.45594000000E+02  0.51100000000E-03 0.  1.
    9900012    2    1    2    0    0  0.17137204976E+02  0.26387530694E+02 -0.51705607417E+01  0.59301948678E+02  0.50000008481E+02 0.  0.
         12    1    1    2    0    0 -0.17137204976E+02 -0.26387530694E+02  0.51705607417E+01  0.31886051322E+02  0.00000000000E+00 0. -1.
         11    1    3    3    0    0  0.12600120245E+02  0.20776308934E+02 -0.22952251895E+02  0.33424899557E+02  0.51100000000E-03 0.  1.
        -11    1    3    3    0    0  0.98248725856E+01 -0.41072694103E+00  0.56609722606E+01  0.11346515991E+02  0.51100000000E-03 0. -1.
        -12    1    3    3    0    0 -0.52877878546E+01  0.60219487012E+01  0.12120718892E+02  0.14530533129E+02  0.00000000000E+00 0.  1.
</event>
<event>
 7    1  0.5634483E-012  0.5930194E+02  0.7816164E-02  0.1266605E+00
        -11   -1    0    0    0    0  0.00000000000E+00  0.00000000000E+00  0.45593999997E+02  0.45594000000E+02  0.51100000000E-03 0. -1.
         11   -1    0    0    0    0 -0.00000000000E+00 -0.00000000000E+00 -0.45593999997E+02  0.45594000000E+02  0.51100000000E-03 0.  1.
    9900012    2    1    2    0    0 -0.22244939896E+01  0.29640775934E+02 -0.11541084413E+02  0.59301943472E+02  0.49999998986E+02 0.  0.
         12    1    1    2    0    0  0.22244939896E+01 -0.29640775934E+02  0.11541084413E+02  0.31886056528E+02  0.00000000000E+00 0. -1.
         11    1    3    3    0    0  0.81263957781E+01  0.11060497063E+02  0.94117001254E+01  0.16641905033E+02  0.51100000000E-03 0. -1.
        -11    1    3    3    0    0  0.38315199392E+01 -0.54856046377E+01 -0.11248900901E+02  0.13088551296E+02  0.51100000000E-03 0.  1.
        -12    1    3    3    0    0 -0.14182409707E+02  0.24065883509E+02 -0.97038836381E+01  0.29571487143E+02  0.00000000000E+00 0.  1.
</event>
<event>
 7    1  0.5634483E-012  0.5930195E+02  0.7816164E-02  0.1266605E+00
        -11   -1    0    0    0    0  0.00000000000E+00  0.00000000000E+00  0.45593999997E+02  0.45594000000E+02  0.51100000000E-03 0.  1.
         11   -1    0    0    0    0 -0.00000000000E+00 -0.00000000000E+00 -0.45593999997E+02  0.45594000000E+02  0.51100000000E-03 0. -1.
    9900012    2    1    2    0    0 -0.26278925280E+02  0.16038866442E+02  0.83001656053E+01  0.59301954467E+02  0.50000019039E+02 0.  0.
         12    1    1    2    0    0  0.26278925280E+02 -0.16038866442E+02 -0.83001656053E+01  0.31886045533E+02  0.00000000000E+00 0. -1.
         11    1    3    3    0    0 -0.17758494862E+02  0.72809252868E+01 -0.41142627073E+01  0.19629140854E+02  0.51100000000E-03 0. -1.
        -11    1    3    3    0    0 -0.13039809249E+02  0.20697195026E+02  0.51989636061E+01  0.25008793055E+02  0.51100000000E-03 0.  1.
         12    1    3    3    0    0  0.45193788306E+01 -0.11939253871E+02  0.72154647065E+01  0.14664020559E+02  0.00000000000E+00 0. -1.
</event>
<event>
 7    1  0.5634483E-012  0.5930195E+02  0.7816164E-02  0.1266605E+00
        -11   -1    0    0    0    0  0.00000000000E+00  0.00000000000E+00  0.45593999997E+02  0.45594000000E+02  0.51100000000E-03 0.  1.
         11   -1    0    0    0    0 -0.00000000000E+00 -0.00000000000E+00 -0.45593999997E+02  0.45594000000E+02  0.51100000000E-03 0. -1.
    9900012    2    1    2    0    0 -0.76864933423E+01 -0.21358262113E+02  0.22393360573E+02  0.59301950729E+02  0.50000012221E+02 0.  0.
         12    1    1    2    0    0  0.76864933423E+01  0.21358262113E+02 -0.22393360573E+02  0.31886049271E+02  0.00000000000E+00 0. -1.
         11    1    3    3    0    0 -0.56016177091E+01 -0.24352108879E+02 -0.38208449982E+01  0.25278492530E+02  0.51100000000E-03 0. -1.
        -11    1    3    3    0    0 -0.68704947270E+01 -0.72524245027E+01  0.91183632495E+01  0.13525749797E+02  0.51100000000E-03 0.  1.
         12    1    3    3    0    0  0.47856190938E+01  0.10246271269E+02  0.17095842322E+02  0.20497708402E+02  0.00000000000E+00 0. -1.
</event>
<event>
 7    1  0.5634483E-012  0.5930189E+02  0.7816164E-02  0.1266605E+00
        -11   -1    0    0    0    0  0.00000000000E+00  0.00000000000E+00  0.45593999997E+02  0.45594000000E+02  0.51100000000E-03 0.  1.
         11   -1    0    0    0    0 -0.00000000000E+00 -0.00000000000E+00 -0.45593999997E+02  0.45594000000E+02  0.51100000000E-03 0. -1.
    9900012    2    1    2    0    0 -0.14889423792E+02  0.19690935256E+02  0.20181574086E+02  0.59301893234E+02  0.49999907364E+02 0.  0.
         12    1    1    2    0    0  0.14889423792E+02 -0.19690935256E+02 -0.20181574086E+02  0.31886106766E+02  0.00000000000E+00 0. -1.
         11    1    3    3    0    0 -0.14412777794E+01  0.13231094615E+01 -0.42724619777E+01  0.46991309725E+01  0.51100000000E-03 0. -1.
        -11    1    3    3    0    0 -0.66044863269E+01  0.28702102934E+02  0.29064263240E+02  0.41378271477E+02  0.51100000000E-03 0.  1.
         12    1    3    3    0    0 -0.68436596858E+01 -0.10334277139E+02 -0.46102271767E+01  0.13224490784E+02  0.00000000000E+00 0. -1.
</event>
<event>
 7    1  0.5634483E-012  0.5930194E+02  0.7816164E-02  0.1266605E+00
        -11   -1    0    0    0    0  0.00000000000E+00  0.00000000000E+00  0.45593999997E+02  0.45594000000E+02  0.51100000000E-03 0. -1.
         11   -1    0    0    0    0 -0.00000000000E+00 -0.00000000000E+00 -0.45593999997E+02  0.45594000000E+02  0.51100000000E-03 0.  1.
    9900012    2    1    2    0    0  0.15014848289E+02  0.40378837675E+01 -0.27838292113E+02  0.59301942197E+02  0.49999996661E+02 0.  0.
         12    1    1    2    0    0 -0.15014848289E+02 -0.40378837675E+01  0.27838292113E+02  0.31886057803E+02  0.00000000000E+00 0. -1.
         11    1    3    3    0    0  0.20629868256E+02  0.34176289218E+01 -0.22388195708E+02  0.30634995659E+02  0.51100000000E-03 0. -1.
        -11    1    3    3    0    0  0.27764092330E+01  0.10724462089E+02 -0.98412633857E+01  0.14817995837E+02  0.51100000000E-03 0.  1.
        -12    1    3    3    0    0 -0.83914291999E+01 -0.10104207244E+02  0.43911669811E+01  0.13848950700E+02  0.00000000000E+00 0.  1.
</event>
<event>
 7    1  0.5634483E-012  0.5930197E+02  0.7816164E-02  0.1266605E+00
        -11   -1    0    0    0    0  0.00000000000E+00  0.00000000000E+00  0.45593999997E+02  0.45594000000E+02  0.51100000000E-03 0.  1.
         11   -1    0    0    0    0 -0.00000000000E+00 -0.00000000000E+00 -0.45593999997E+02  0.45594000000E+02  0.51100000000E-03 0. -1.
    9900012    2    1    2    0    0 -0.41932860116E+01  0.14692094985E+00  0.31608758241E+02  0.59301971227E+02  0.50000049605E+02 0.  0.
         12    1    1    2    0    0  0.41932860116E+01 -0.14692094985E+00 -0.31608758241E+02  0.31886028773E+02  0.00000000000E+00 0. -1.
         11    1    3    3    0    0  0.65308970830E+01 -0.21790641112E+01  0.36233642509E+01  0.77800839241E+01  0.51100000000E-03 0. -1.
        -11    1    3    3    0    0  0.33924361163E+01  0.71295799016E+01  0.34396142203E+02  0.35290708850E+02  0.51100000000E-03 0.  1.
         12    1    3    3    0    0 -0.14116619211E+02 -0.48035948405E+01 -0.64107482130E+01  0.16231178454E+02  0.00000000000E+00 0. -1.
</event>
<event>
 7    1  0.5634483E-012  0.5930186E+02  0.7816164E-02  0.1266605E+00
        -11   -1    0    0    0    0  0.00000000000E+00  0.00000000000E+00  0.45593999997E+02  0.45594000000E+02  0.51100000000E-03 0.  1.
         11   -1    0    0    0    0 -0.00000000000E+00 -0.00000000000E+00 -0.45593999997E+02  0.45594000000E+02  0.51100000000E-03 0. -1.
    9900012    2    1    2    0    0 -0.11606563026E+02 -0.88443677247E+01  0.28351205491E+02  0.59301858833E+02  0.49999844624E+02 0.  0.
         12    1    1    2    0    0  0.11606563026E+02  0.88443677247E+01 -0.28351205491E+02  0.31886141167E+02  0.00000000000E+00 0. -1.
         11    1    3    3    0    0 -0.31611411599E+01 -0.87826814362E+01  0.67158566557E+01  0.11499175515E+02  0.51100000000E-03 0. -1.
        -11    1    3    3    0    0  0.18208563891E+01 -0.63471799461E+01  0.31533943745E+02  0.32217880434E+02  0.51100000000E-03 0.  1.
         12    1    3    3    0    0 -0.10266278256E+02  0.62854936577E+01 -0.98985949096E+01  0.15584802884E+02  0.00000000000E+00 0. -1.
</event>
<event>
 7    1  0.5634483E-012  0.5930196E+02  0.7816164E-02  0.1266605E+00
        -11   -1    0    0    0    0  0.00000000000E+00  0.00000000000E+00  0.45593999997E+02  0.45594000000E+02  0.51100000000E-03 0.  1.
         11   -1    0    0    0    0 -0.00000000000E+00 -0.00000000000E+00 -0.45593999997E+02  0.45594000000E+02  0.51100000000E-03 0. -1.
    9900012    2    1    2    0    0  0.11311142745E+02 -0.29099662148E+02 -0.64797652202E+01  0.59301958467E+02  0.50000026334E+02 0.  0.
         12    1    1    2    0    0 -0.11311142745E+02  0.29099662148E+02  0.64797652202E+01  0.31886041533E+02  0.00000000000E+00 0. -1.
         11    1    3    3    0    0  0.13876458385E+01  0.13939460776E+01 -0.13173392750E+02  0.13319419036E+02  0.51100000000E-03 0. -1.
        -11    1    3    3    0    0 -0.11242932939E+02 -0.16440279513E+02  0.49086462330E+01  0.20512950535E+02  0.51100000000E-03 0.  1.
         12    1    3    3    0    0  0.21166429845E+02 -0.14053328713E+02  0.17849812968E+01  0.25469588896E+02  0.00000000000E+00 0. -1.
</event>
<event>
 7    1  0.5634483E-012  0.5930195E+02  0.7816164E-02  0.1266605E+00
        -11   -1    0    0    0    0  0.00000000000E+00  0.00000000000E+00  0.45593999997E+02  0.45594000000E+02  0.51100000000E-03 0. -1.
         11   -1    0    0    0    0 -0.00000000000E+00 -0.00000000000E+00 -0.45593999997E+02  0.45594000000E+02  0.51100000000E-03 0.  1.
    9900012    2    1    2    0    0 -0.12307014472E+02 -0.14015051537E+02  0.25861862362E+02  0.59301949764E+02  0.50000010461E+02 0.  0.
         12    1    1    2    0    0  0.12307014472E+02  0.14015051537E+02 -0.25861862362E+02  0.31886050236E+02  0.00000000000E+00 0. -1.
         11    1    3    3    0    0 -0.17215694918E+02 -0.16013126827E+02  0.12693680075E+02  0.26719466619E+02  0.51100000000E-03 0. -1.
        -11    1    3    3    0    0 -0.57949981373E+01 -0.76995383797E+01 -0.37473048442E+01  0.10339593248E+02  0.51100000000E-03 0.  1.
        -12    1    3    3    0    0  0.10703678583E+02  0.96976136690E+01  0.16915487132E+02  0.22242889897E+02  0.00000000000E+00 0.  1.
</event>
<event>
 7    1  0.5634483E-012  0.5930195E+02  0.7816164E-02  0.1266605E+00
        -11   -1    0    0    0    0  0.00000000000E+00  0.00000000000E+00  0.45593999997E+02  0.45594000000E+02  0.51100000000E-03 0. -1.
         11   -1    0    0    0    0 -0.00000000000E+00 -0.00000000000E+00 -0.45593999997E+02  0.45594000000E+02  0.51100000000E-03 0.  1.
    9900012    2    1    2    0    0  0.42631683871E+01  0.25521373576E+02 -0.18633434596E+02  0.59301952914E+02  0.50000016207E+02 0.  0.
         12    1    1    2    0    0 -0.42631683871E+01 -0.25521373576E+02  0.18633434596E+02  0.31886047086E+02  0.00000000000E+00 0. -1.
         11    1    3    3    0    0 -0.15147364786E+02  0.58422885297E+01 -0.14879072539E+02  0.22021848131E+02  0.51100000000E-03 0. -1.
        -11    1    3    3    0    0  0.40494222888E+01 -0.58429625877E+01 -0.22393644534E+01  0.74533741413E+01  0.51100000000E-03 0.  1.
        -12    1    3    3    0    0  0.15361110884E+02  0.25522047634E+02 -0.15149976036E+01  0.29826730642E+02  0.00000000000E+00 0.  1.
</event>
<event>
 7    1  0.5634483E-012  0.5930194E+02  0.7816164E-02  0.1266605E+00
        -11   -1    0    0    0    0  0.00000000000E+00  0.00000000000E+00  0.45593999997E+02  0.45594000000E+02  0.51100000000E-03 0.  1.
         11   -1    0    0    0    0 -0.00000000000E+00 -0.00000000000E+00 -0.45593999997E+02  0.45594000000E+02  0.51100000000E-03 0. -1.
    9900012    2    1    2    0    0  0.29938475678E+02  0.74430266973E+01  0.80628568968E+01  0.59301942958E+02  0.49999998049E+02 0.  0.
         12    1    1    2    0    0 -0.29938475678E+02 -0.74430266973E+01 -0.80628568968E+01  0.31886057042E+02  0.00000000000E+00 0. -1.
         11    1    3    3    0    0  0.42870615712E+01  0.16859268638E+02 -0.12032680705E+00  0.17396215529E+02  0.51100000000E-03 0. -1.
        -11    1    3    3    0    0  0.13532505835E+02  0.42810903445E+01  0.16542425361E+02  0.21796978823E+02  0.51100000000E-03 0.  1.
        -12    1    3    3    0    0  0.12118908272E+02 -0.13697332285E+02 -0.83592416568E+01  0.20108748606E+02  0.00000000000E+00 0.  1.
</event>
<event>
 7    1  0.5634483E-012  0.5930177E+02  0.7816164E-02  0.1266605E+00
        -11   -1    0    0    0    0  0.00000000000E+00  0.00000000000E+00  0.45593999997E+02  0.45594000000E+02  0.51100000000E-03 0. -1.
         11   -1    0    0    0    0 -0.00000000000E+00 -0.00000000000E+00 -0.45593999997E+02  0.45594000000E+02  0.51100000000E-03 0.  1.
    9900012    2    1    2    0    0 -0.24913231563E+02  0.14711285973E+01 -0.19846865532E+02  0.59301774170E+02  0.49999690220E+02 0.  0.
         12    1    1    2    0    0  0.24913231563E+02 -0.14711285973E+01  0.19846865532E+02  0.31886225830E+02  0.00000000000E+00 0. -1.
         11    1    3    3    0    0 -0.27642567454E+02 -0.22676639076E+01 -0.19090580589E+02  0.33670522754E+02  0.51100000000E-03 0. -1.
        -11    1    3    3    0    0 -0.89116386987E+01  0.78141978291E+01 -0.45980585013E+01  0.12713030097E+02  0.51100000000E-03 0.  1.
         12    1    3    3    0    0  0.11640974590E+02 -0.40754053242E+01  0.38417735591E+01  0.12918221319E+02  0.00000000000E+00 0. -1.
</event>
<event>
 7    1  0.5634483E-012  0.5930195E+02  0.7816164E-02  0.1266605E+00
        -11   -1    0    0    0    0  0.00000000000E+00  0.00000000000E+00  0.45593999997E+02  0.45594000000E+02  0.51100000000E-03 0. -1.
         11   -1    0    0    0    0 -0.00000000000E+00 -0.00000000000E+00 -0.45593999997E+02  0.45594000000E+02  0.51100000000E-03 0.  1.
    9900012    2    1    2    0    0  0.11373408970E+01  0.31803158389E+02  0.19965144732E+01  0.59301945088E+02  0.50000001933E+02 0.  0.
         12    1    1    2    0    0 -0.11373408970E+01 -0.31803158389E+02 -0.19965144732E+01  0.31886054912E+02  0.00000000000E+00 0. -1.
         11    1    3    3    0    0 -0.45082087120E+01 -0.97943163459E+01 -0.30947160546E+01  0.11217390347E+02  0.51100000000E-03 0.  1.
        -11    1    3    3    0    0 -0.48112580262E+00 -0.26171728505E+01 -0.13520412351E+01  0.29848101330E+01  0.51100000000E-03 0. -1.
        -12    1    3    3    0    0  0.61266754116E+01  0.44214647585E+02  0.64432717629E+01  0.45099744608E+02  0.00000000000E+00 0.  1.
</event>
<event>
 7    1  0.5634483E-012  0.5930198E+02  0.7816164E-02  0.1266605E+00
        -11   -1    0    0    0    0  0.00000000000E+00  0.00000000000E+00  0.45593999997E+02  0.45594000000E+02  0.51100000000E-03 0. -1.
         11   -1    0    0    0    0 -0.00000000000E+00 -0.00000000000E+00 -0.45593999997E+02  0.45594000000E+02  0.51100000000E-03 0.  1.
    9900012    2    1    2    0    0 -0.24830024352E+01 -0.27282217849E+02  0.16316674210E+02  0.59301975332E+02  0.50000057091E+02 0.  0.
         12    1    1    2    0    0  0.24830024352E+01  0.27282217849E+02 -0.16316674210E+02  0.31886024668E+02  0.00000000000E+00 0. -1.
         11    1    3    3    0    0  0.12061862145E+02 -0.20536011057E+02  0.16529959861E+02  0.28990616444E+02  0.51100000000E-03 0. -1.
        -11    1    3    3    0    0 -0.12757705653E+01 -0.12437888133E+02  0.68296964573E+01  0.14246873541E+02  0.51100000000E-03 0.  1.
         12    1    3    3    0    0 -0.13269094015E+02  0.56916813409E+01 -0.70429821079E+01  0.16064485346E+02  0.00000000000E+00 0. -1.
</event>
<event>
 7    1  0.5634483E-012  0.5930193E+02  0.7816164E-02  0.1266605E+00
        -11   -1    0    0    0    0  0.00000000000E+00  0.00000000000E+00  0.45593999997E+02  0.45594000000E+02  0.51100000000E-03 0.  1.
         11   -1    0    0    0    0 -0.00000000000E+00 -0.00000000000E+00 -0.45593999997E+02  0.45594000000E+02  0.51100000000E-03 0. -1.
    9900012    2    1    2    0    0 -0.14354733776E+02  0.14958473198E+02  0.24226166967E+02  0.59301929873E+02  0.49999974186E+02 0.  0.
         12    1    1    2    0    0  0.14354733776E+02 -0.14958473198E+02 -0.24226166967E+02  0.31886070127E+02  0.00000000000E+00 0. -1.
         11    1    3    3    0    0  0.10040998362E+02 -0.76967104209E+01  0.14871640207E+02  0.19525027070E+02  0.51100000000E-03 0. -1.
        -11    1    3    3    0    0 -0.24035450915E+01  0.52897283536E+01 -0.55525792561E+01  0.80367525604E+01  0.51100000000E-03 0.  1.
        -12    1    3    3    0    0 -0.21992187046E+02  0.17365455265E+02  0.14907106017E+02  0.31740150243E+02  0.00000000000E+00 0.  1.
</event>
<event>
 7    1  0.5634483E-012  0.5930202E+02  0.7816164E-02  0.1266605E+00
        -11   -1    0    0    0    0  0.00000000000E+00  0.00000000000E+00  0.45593999997E+02  0.45594000000E+02  0.51100000000E-03 0.  1.
         11   -1    0    0    0    0 -0.00000000000E+00 -0.00000000000E+00 -0.45593999997E+02  0.45594000000E+02  0.51100000000E-03 0. -1.
    9900012    2    1    2    0    0  0.66336131911E+01 -0.23295503374E+02  0.20737176047E+02  0.59302019196E+02  0.50000137088E+02 0.  0.
         12    1    1    2    0    0 -0.66336131911E+01  0.23295503374E+02 -0.20737176047E+02  0.31885980804E+02  0.00000000000E+00 0. -1.
         11    1    3    3    0    0 -0.19190549001E+01  0.43770014469E+01 -0.92942507779E+00  0.48687518536E+01  0.51100000000E-03 0. -1.
        -11    1    3    3    0    0  0.59937733084E+01 -0.19745564689E+02  0.33868279888E+02  0.39659463262E+02  0.51100000000E-03 0.  1.
         12    1    3    3    0    0  0.25588947829E+01 -0.79269401321E+01 -0.12201678763E+02  0.14773804080E+02  0.00000000000E+00 0. -1.
</event>
<event>
 7    1  0.5634483E-012  0.5930194E+02  0.7816164E-02  0.1266605E+00
        -11   -1    0    0    0    0  0.00000000000E+00  0.00000000000E+00  0.45593999997E+02  0.45594000000E+02  0.51100000000E-03 0.  1.
         11   -1    0    0    0    0 -0.00000000000E+00 -0.00000000000E+00 -0.45593999997E+02  0.45594000000E+02  0.51100000000E-03 0. -1.
    9900012    2    1    2    0    0  0.24648191271E+02  0.11390352801E+02  0.16716676032E+02  0.59301941488E+02  0.49999995368E+02 0.  0.
         12    1    1    2    0    0 -0.24648191271E+02 -0.11390352801E+02 -0.16716676032E+02  0.31886058512E+02  0.00000000000E+00 0. -1.
         11    1    3    3    0    0 -0.15165776347E+01  0.72045068313E+01 -0.10062760732E+02  0.12468523578E+02  0.51100000000E-03 0. -1.
        -11    1    3    3    0    0  0.21131450576E+02  0.11919978716E+02  0.73931962245E+01  0.25363033074E+02  0.51100000000E-03 0.  1.
        -12    1    3    3    0    0  0.50333183295E+01 -0.77341327463E+01  0.19386240540E+02  0.21470384836E+02  0.00000000000E+00 0.  1.
</event>
<event>
 7    1  0.5634483E-012  0.5930193E+02  0.7816164E-02  0.1266605E+00
        -11   -1    0    0    0    0  0.00000000000E+00  0.00000000000E+00  0.45593999997E+02  0.45594000000E+02  0.51100000000E-03 0.  1.
         11   -1    0    0    0    0 -0.00000000000E+00 -0.00000000000E+00 -0.45593999997E+02  0.45594000000E+02  0.51100000000E-03 0. -1.
    9900012    2    1    2    0    0 -0.47457178831E+01 -0.13118320283E+01  0.31503630482E+02  0.59301929765E+02  0.49999973989E+02 0.  0.
         12    1    1    2    0    0  0.47457178831E+01  0.13118320283E+01 -0.31503630482E+02  0.31886070235E+02  0.00000000000E+00 0. -1.
         11    1    3    3    0    0 -0.18569140119E+01 -0.23150008372E+01 -0.70661026311E+01  0.76640175612E+01  0.51100000000E-03 0. -1.
        -11    1    3    3    0    0 -0.16130316149E+02  0.89974571790E+01  0.24850642509E+02  0.30962812665E+02  0.51100000000E-03 0.  1.
         12    1    3    3    0    0  0.13241512278E+02 -0.79942883701E+01  0.13719090603E+02  0.20675099539E+02  0.00000000000E+00 0. -1.
</event>
<event>
 7    1  0.5634483E-012  0.5930189E+02  0.7816164E-02  0.1266605E+00
        -11   -1    0    0    0    0  0.00000000000E+00  0.00000000000E+00  0.45593999997E+02  0.45594000000E+02  0.51100000000E-03 0.  1.
         11   -1    0    0    0    0 -0.00000000000E+00 -0.00000000000E+00 -0.45593999997E+02  0.45594000000E+02  0.51100000000E-03 0. -1.
    9900012    2    1    2    0    0 -0.63246691443E+00 -0.42502317854E+01  0.31595245772E+02  0.59301889544E+02  0.49999900635E+02 0.  0.
         12    1    1    2    0    0  0.63246691443E+00  0.42502317854E+01 -0.31595245772E+02  0.31886110456E+02  0.00000000000E+00 0. -1.
         11    1    3    3    0    0 -0.49154120093E+01  0.77732115281E+01 -0.41976059281E+01  0.10109598828E+02  0.51100000000E-03 0. -1.
        -11    1    3    3    0    0 -0.93646147949E+01 -0.14416542873E+02  0.99331308933E+01  0.19854465701E+02  0.51100000000E-03 0.  1.
        -12    1    3    3    0    0  0.13647559890E+02  0.23930995591E+01  0.25859720806E+02  0.29337825015E+02  0.00000000000E+00 0.  1.
</event>
<event>
 7    1  0.5634483E-012  0.5930197E+02  0.7816164E-02  0.1266605E+00
        -11   -1    0    0    0    0  0.00000000000E+00  0.00000000000E+00  0.45593999997E+02  0.45594000000E+02  0.51100000000E-03 0.  1.
         11   -1    0    0    0    0 -0.00000000000E+00 -0.00000000000E+00 -0.45593999997E+02  0.45594000000E+02  0.51100000000E-03 0. -1.
    9900012    2    1    2    0    0  0.84403630090E+01  0.30746542661E+02 -0.35941289790E+00  0.59301971854E+02  0.50000050748E+02 0.  0.
         12    1    1    2    0    0 -0.84403630090E+01 -0.30746542661E+02  0.35941289790E+00  0.31886028146E+02  0.00000000000E+00 0. -1.
         11    1    3    3    0    0  0.33886307511E+01 -0.69376380460E+00 -0.42499050798E+01  0.54795821038E+01  0.51100000000E-03 0. -1.
        -11    1    3    3    0    0 -0.10399264265E+02  0.30427103369E+02 -0.93092233221E+01  0.33475587460E+02  0.51100000000E-03 0.  1.
        -12    1    3    3    0    0  0.15450996522E+02  0.10132030965E+01  0.13199715504E+02  0.20346802290E+02  0.00000000000E+00 0.  1.
</event>
<event>
 7    1  0.5634483E-012  0.5930195E+02  0.7816164E-02  0.1266605E+00
        -11   -1    0    0    0    0  0.00000000000E+00  0.00000000000E+00  0.45593999997E+02  0.45594000000E+02  0.51100000000E-03 0. -1.
         11   -1    0    0    0    0 -0.00000000000E+00 -0.00000000000E+00 -0.45593999997E+02  0.45594000000E+02  0.51100000000E-03 0.  1.
    9900012    2    1    2    0    0 -0.87956584373E+00 -0.29159203782E+02 -0.12871961477E+02  0.59301949860E+02  0.50000010636E+02 0.  0.
         12    1    1    2    0    0  0.87956584373E+00  0.29159203782E+02  0.12871961477E+02  0.31886050140E+02  0.00000000000E+00 0. -1.
         11    1    3    3    0    0  0.35478090981E+01  0.64702953980E+01 -0.14186440687E+02  0.15990833986E+02  0.51100000000E-03 0.  1.
        -11    1    3    3    0    0 -0.19983368815E+01 -0.11854515850E+02  0.12130818199E+02  0.17078631291E+02  0.51100000000E-03 0. -1.
        -12    1    3    3    0    0 -0.24290380603E+01 -0.23774983330E+02 -0.10816338989E+02  0.26232484582E+02  0.00000000000E+00 0.  1.
</event>
<event>
 7    1  0.5634483E-012  0.5930194E+02  0.7816164E-02  0.1266605E+00
        -11   -1    0    0    0    0  0.00000000000E+00  0.00000000000E+00  0.45593999997E+02  0.45594000000E+02  0.51100000000E-03 0.  1.
         11   -1    0    0    0    0 -0.00000000000E+00 -0.00000000000E+00 -0.45593999997E+02  0.45594000000E+02  0.51100000000E-03 0. -1.
    9900012    2    1    2    0    0  0.15094215882E+02 -0.21106521110E+01  0.28007689496E+02  0.59301939153E+02  0.49999991110E+02 0.  0.
         12    1    1    2    0    0 -0.15094215882E+02  0.21106521110E+01 -0.28007689496E+02  0.31886060847E+02  0.00000000000E+00 0. -1.
         11    1    3    3    0    0  0.12844736755E+02 -0.55189540110E+01 -0.25607216591E+01  0.14212790414E+02  0.51100000000E-03 0. -1.
        -11    1    3    3    0    0  0.15380324735E+02 -0.63924830718E+01  0.17194138329E+02  0.23938601086E+02  0.51100000000E-03 0.  1.
        -12    1    3    3    0    0 -0.13130845608E+02  0.98007849719E+01  0.13374272825E+02  0.21150547654E+02  0.00000000000E+00 0.  1.
</event>
<event>
 7    1  0.5634483E-012  0.5930192E+02  0.7816164E-02  0.1266605E+00
        -11   -1    0    0    0    0  0.00000000000E+00  0.00000000000E+00  0.45593999997E+02  0.45594000000E+02  0.51100000000E-03 0. -1.
         11   -1    0    0    0    0 -0.00000000000E+00 -0.00000000000E+00 -0.45593999997E+02  0.45594000000E+02  0.51100000000E-03 0.  1.
    9900012    2    1    2    0    0 -0.25721167264E+02  0.12987620028E+02  0.13655225230E+02  0.59301923172E+02  0.49999961964E+02 0.  0.
         12    1    1    2    0    0  0.25721167264E+02 -0.12987620028E+02 -0.13655225230E+02  0.31886076828E+02  0.00000000000E+00 0. -1.
         11    1    3    3    0    0 -0.14990704465E+01  0.11389696492E+02  0.23661374709E+02  0.26302719475E+02  0.51100000000E-03 0. -1.
        -11    1    3    3    0    0  0.24714052530E+01 -0.33072375023E+01 -0.25521077515E+01  0.48537529869E+01  0.51100000000E-03 0.  1.
        -12    1    3    3    0    0 -0.26693502071E+02  0.49051610383E+01 -0.74540417283E+01  0.28145450710E+02  0.00000000000E+00 0.  1.
</event>
<event>
 7    1  0.5634483E-012  0.5930197E+02  0.7816164E-02  0.1266605E+00
        -11   -1    0    0    0    0  0.00000000000E+00  0.00000000000E+00  0.45593999997E+02  0.45594000000E+02  0.51100000000E-03 0. -1.
         11   -1    0    0    0    0 -0.00000000000E+00 -0.00000000000E+00 -0.45593999997E+02  0.45594000000E+02  0.51100000000E-03 0.  1.
    9900012    2    1    2    0    0  0.11124853568E+02  0.26534577516E+02 -0.13743091448E+02  0.59301972756E+02  0.50000052394E+02 0.  0.
         12    1    1    2    0    0 -0.11124853568E+02 -0.26534577516E+02  0.13743091448E+02  0.31886027244E+02  0.00000000000E+00 0. -1.
         11    1    3    3    0    0 -0.70072677488E+01  0.23253588310E+00  0.40744503887E+01  0.81090702594E+01  0.51100000000E-03 0. -1.
        -11    1    3    3    0    0 -0.23197863785E+01 -0.38568686073E+01 -0.13820387343E+02  0.14534784170E+02  0.51100000000E-03 0.  1.
        -12    1    3    3    0    0  0.20451907695E+02  0.30158910240E+02 -0.39971544939E+01  0.36658118327E+02  0.00000000000E+00 0.  1.
</event>
<event>
 7    1  0.5634483E-012  0.5930193E+02  0.7816164E-02  0.1266605E+00
        -11   -1    0    0    0    0  0.00000000000E+00  0.00000000000E+00  0.45593999997E+02  0.45594000000E+02  0.51100000000E-03 0.  1.
         11   -1    0    0    0    0 -0.00000000000E+00 -0.00000000000E+00 -0.45593999997E+02  0.45594000000E+02  0.51100000000E-03 0. -1.
    9900012    2    1    2    0    0 -0.28887364097E+01 -0.29200021846E+02  0.12479398173E+02  0.59301930117E+02  0.49999974630E+02 0.  0.
         12    1    1    2    0    0  0.28887364097E+01  0.29200021846E+02 -0.12479398173E+02  0.31886069883E+02  0.00000000000E+00 0. -1.
         11    1    3    3    0    0 -0.11112751797E+02 -0.20738085443E+02  0.22116134681E+01  0.23631603305E+02  0.51100000000E-03 0. -1.
        -11    1    3    3    0    0 -0.59461468644E+00 -0.19333983765E+02  0.97509073322E+01  0.21661871778E+02  0.51100000000E-03 0.  1.
         12    1    3    3    0    0  0.88186300736E+01  0.10872047363E+02  0.51687737308E+00  0.14008455034E+02  0.00000000000E+00 0. -1.
</event>
<event>
 7    1  0.5634483E-012  0.5930190E+02  0.7816164E-02  0.1266605E+00
        -11   -1    0    0    0    0  0.00000000000E+00  0.00000000000E+00  0.45593999997E+02  0.45594000000E+02  0.51100000000E-03 0. -1.
         11   -1    0    0    0    0 -0.00000000000E+00 -0.00000000000E+00 -0.45593999997E+02  0.45594000000E+02  0.51100000000E-03 0.  1.
    9900012    2    1    2    0    0  0.14809087310E+02 -0.16531798858E+02 -0.22893528149E+02  0.59301904731E+02  0.49999928331E+02 0.  0.
         12    1    1    2    0    0 -0.14809087310E+02  0.16531798858E+02  0.22893528149E+02  0.31886095269E+02  0.00000000000E+00 0. -1.
         11    1    3    3    0    0 -0.93338623712E+01 -0.24670461572E+01 -0.94823602302E+01  0.13532274728E+02  0.51100000000E-03 0. -1.
        -11    1    3    3    0    0  0.10292677548E+02  0.86917535851E+01 -0.13580758679E+02  0.19129108658E+02  0.51100000000E-03 0.  1.
        -12    1    3    3    0    0  0.13850272133E+02 -0.22756506286E+02  0.16959076044E+00  0.26640521345E+02  0.00000000000E+00 0.  1.
</event>
<event>
 7    1  0.5634483E-012  0.5930198E+02  0.7816164E-02  0.1266605E+00
        -11   -1    0    0    0    0  0.00000000000E+00  0.00000000000E+00  0.45593999997E+02  0.45594000000E+02  0.51100000000E-03 0.  1.
         11   -1    0    0    0    0 -0.00000000000E+00 -0.00000000000E+00 -0.45593999997E+02  0.45594000000E+02  0.51100000000E-03 0. -1.
    9900012    2    1    2    0    0 -0.21770630719E+02 -0.58380491734E+01  0.22553825607E+02  0.59301980657E+02  0.50000066802E+02 0.  0.
         12    1    1    2    0    0  0.21770630719E+02  0.58380491734E+01 -0.22553825607E+02  0.31886019343E+02  0.00000000000E+00 0. -1.
         11    1    3    3    0    0 -0.12936850760E+02 -0.20669813507E+00  0.18398848850E+01  0.13068665133E+02  0.51100000000E-03 0. -1.
        -11    1    3    3    0    0 -0.92152003136E+01 -0.22331039477E+02  0.15628531442E+02  0.28772317186E+02  0.51100000000E-03 0.  1.
         12    1    3    3    0    0  0.38142035415E+00  0.16699688438E+02  0.50854092794E+01  0.17460998338E+02  0.00000000000E+00 0. -1.
</event>
<event>
 7    1  0.5634483E-012  0.5930193E+02  0.7816164E-02  0.1266605E+00
        -11   -1    0    0    0    0  0.00000000000E+00  0.00000000000E+00  0.45593999997E+02  0.45594000000E+02  0.51100000000E-03 0.  1.
         11   -1    0    0    0    0 -0.00000000000E+00 -0.00000000000E+00 -0.45593999997E+02  0.45594000000E+02  0.51100000000E-03 0. -1.
    9900012    2    1    2    0    0  0.10965233567E+02  0.19472300428E+02  0.22744552966E+02  0.59301929048E+02  0.49999972681E+02 0.  0.
         12    1    1    2    0    0 -0.10965233567E+02 -0.19472300428E+02 -0.22744552966E+02  0.31886070952E+02  0.00000000000E+00 0. -1.
         11    1    3    3    0    0 -0.12356650766E+02  0.88547031714E+01 -0.33178579564E+01  0.15559587658E+02  0.51100000000E-03 0. -1.
        -11    1    3    3    0    0 -0.64948921972E+00 -0.59329991937E+01  0.51500432507E+01  0.78832265871E+01  0.51100000000E-03 0.  1.
        -12    1    3    3    0    0  0.23971373552E+02  0.16550596450E+02  0.20912367672E+02  0.35859114803E+02  0.00000000000E+00 0.  1.
</event>
<event>
 7    1  0.5634483E-012  0.5930196E+02  0.7816164E-02  0.1266605E+00
        -11   -1    0    0    0    0  0.00000000000E+00  0.00000000000E+00  0.45593999997E+02  0.45594000000E+02  0.51100000000E-03 0.  1.
         11   -1    0    0    0    0 -0.00000000000E+00 -0.00000000000E+00 -0.45593999997E+02  0.45594000000E+02  0.51100000000E-03 0. -1.
    9900012    2    1    2    0    0  0.11286635748E+01 -0.15447368499E+02  0.27871573229E+02  0.59301958081E+02  0.50000025630E+02 0.  0.
         12    1    1    2    0    0 -0.11286635748E+01  0.15447368499E+02 -0.27871573229E+02  0.31886041919E+02  0.00000000000E+00 0. -1.
         11    1    3    3    0    0 -0.91565671141E+01 -0.75005290778E+01 -0.43763393722E+01  0.12619548499E+02  0.51100000000E-03 0. -1.
        -11    1    3    3    0    0 -0.54772768388E+01 -0.90892366911E+01  0.28540465123E+02  0.30449514526E+02  0.51100000000E-03 0.  1.
        -12    1    3    3    0    0  0.15762507528E+02  0.11423972703E+01  0.37074474781E+01  0.16232895056E+02  0.00000000000E+00 0.  1.
</event>
<event>
 7    1  0.5634483E-012  0.5930194E+02  0.7816164E-02  0.1266605E+00
        -11   -1    0    0    0    0  0.00000000000E+00  0.00000000000E+00  0.45593999997E+02  0.45594000000E+02  0.51100000000E-03 0.  1.
         11   -1    0    0    0    0 -0.00000000000E+00 -0.00000000000E+00 -0.45593999997E+02  0.45594000000E+02  0.51100000000E-03 0. -1.
    9900012    2    1    2    0    0 -0.30469007349E+02  0.37048412782E+01 -0.86391348577E+01  0.59301938644E+02  0.49999990181E+02 0.  0.
         12    1    1    2    0    0  0.30469007349E+02 -0.37048412782E+01  0.86391348577E+01  0.31886061356E+02  0.00000000000E+00 0. -1.
         11    1    3    3    0    0 -0.26590544264E+01  0.19501788961E+02 -0.90280876188E+01  0.21654022939E+02  0.51100000000E-03 0. -1.
        -11    1    3    3    0    0  0.10575088238E+01  0.75811180272E+00  0.39703509475E+01  0.41781270116E+01  0.51100000000E-03 0.  1.
         12    1    3    3    0    0 -0.28867461746E+02 -0.16555059485E+02 -0.35813981864E+01  0.33469788694E+02  0.00000000000E+00 0. -1.
</event>
<event>
 7    1  0.5634483E-012  0.5930194E+02  0.7816164E-02  0.1266605E+00
        -11   -1    0    0    0    0  0.00000000000E+00  0.00000000000E+00  0.45593999997E+02  0.45594000000E+02  0.51100000000E-03 0.  1.
         11   -1    0    0    0    0 -0.00000000000E+00 -0.00000000000E+00 -0.45593999997E+02  0.45594000000E+02  0.51100000000E-03 0. -1.
    9900012    2    1    2    0    0 -0.28164399982E+02 -0.74870978298E+01  0.12939512243E+02  0.59301936628E+02  0.49999986505E+02 0.  0.
         12    1    1    2    0    0  0.28164399982E+02  0.74870978298E+01 -0.12939512243E+02  0.31886063372E+02  0.00000000000E+00 0. -1.
         11    1    3    3    0    0 -0.31913337799E+01 -0.12746984922E+01 -0.47961066967E+01  0.59001785777E+01  0.51100000000E-03 0. -1.
        -11    1    3    3    0    0  0.11732922352E+02 -0.11425366580E+01  0.10200302976E+02  0.15588875457E+02  0.51100000000E-03 0.  1.
        -12    1    3    3    0    0 -0.36705988555E+02 -0.50698626796E+01  0.75353159641E+01  0.37812882594E+02  0.00000000000E+00 0.  1.
</event>
<event>
 7    1  0.5634483E-012  0.5930179E+02  0.7816164E-02  0.1266605E+00
        -11   -1    0    0    0    0  0.00000000000E+00  0.00000000000E+00  0.45593999997E+02  0.45594000000E+02  0.51100000000E-03 0.  1.
         11   -1    0    0    0    0 -0.00000000000E+00 -0.00000000000E+00 -0.45593999997E+02  0.45594000000E+02  0.51100000000E-03 0. -1.
    9900012    2    1    2    0    0 -0.84972078305E+01 -0.91153777660E+00  0.30719649563E+02  0.59301791205E+02  0.49999721287E+02 0.  0.
         12    1    1    2    0    0  0.84972078305E+01  0.91153777660E+00 -0.30719649563E+02  0.31886208795E+02  0.00000000000E+00 0. -1.
         11    1    3    3    0    0 -0.54241073920E+01  0.38910345507E+01 -0.87297793797E+01  0.10989546813E+02  0.51100000000E-03 0. -1.
        -11    1    3    3    0    0  0.11349546883E+02 -0.31578132878E+01  0.98933281296E+01  0.15383820753E+02  0.51100000000E-03 0.  1.
         12    1    3    3    0    0 -0.14422647322E+02 -0.16447590395E+01  0.29556100813E+02  0.32928423639E+02  0.00000000000E+00 0. -1.
</event>
<event>
 7    1  0.5634483E-012  0.5930190E+02  0.7816164E-02  0.1266605E+00
        -11   -1    0    0    0    0  0.00000000000E+00  0.00000000000E+00  0.45593999997E+02  0.45594000000E+02  0.51100000000E-03 0. -1.
         11   -1    0    0    0    0 -0.00000000000E+00 -0.00000000000E+00 -0.45593999997E+02  0.45594000000E+02  0.51100000000E-03 0.  1.
    9900012    2    1    2    0    0 -0.16894878958E+02 -0.17343688556E+01 -0.26986637445E+02  0.59301896899E+02  0.49999914049E+02 0.  0.
         12    1    1    2    0    0  0.16894878958E+02  0.17343688556E+01  0.26986637445E+02  0.31886103101E+02  0.00000000000E+00 0. -1.
         11    1    3    3    0    0 -0.17071581659E+02 -0.40216083081E+01 -0.21545203953E+02  0.27781433501E+02  0.51100000000E-03 0. -1.
        -11    1    3    3    0    0  0.11484535702E+02 -0.24049205488E+01 -0.12697628673E+02  0.17288955356E+02  0.51100000000E-03 0.  1.
         12    1    3    3    0    0 -0.11307833002E+02  0.46921600013E+01  0.72561951799E+01  0.14231508042E+02  0.00000000000E+00 0. -1.
</event>
<event>
 7    1  0.5634483E-012  0.5930196E+02  0.7816164E-02  0.1266605E+00
        -11   -1    0    0    0    0  0.00000000000E+00  0.00000000000E+00  0.45593999997E+02  0.45594000000E+02  0.51100000000E-03 0.  1.
         11   -1    0    0    0    0 -0.00000000000E+00 -0.00000000000E+00 -0.45593999997E+02  0.45594000000E+02  0.51100000000E-03 0. -1.
    9900012    2    1    2    0    0 -0.27200404500E+02  0.34015535345E+01  0.16287623418E+02  0.59301964686E+02  0.50000037676E+02 0.  0.
         12    1    1    2    0    0  0.27200404500E+02 -0.34015535345E+01 -0.16287623418E+02  0.31886035314E+02  0.00000000000E+00 0. -1.
         11    1    3    3    0    0 -0.15907143895E+02  0.22418613149E+02 -0.33326498324E-01  0.27488771405E+02  0.51100000000E-03 0. -1.
        -11    1    3    3    0    0  0.87501313908E+00  0.19825210693E+01  0.41050627073E+01  0.46419368669E+01  0.51100000000E-03 0.  1.
         12    1    3    3    0    0 -0.12168273744E+02 -0.20999580684E+02  0.12215887209E+02  0.27171256414E+02  0.00000000000E+00 0. -1.
</event>
<event>
 7    1  0.5634483E-012  0.5930191E+02  0.7816164E-02  0.1266605E+00
        -11   -1    0    0    0    0  0.00000000000E+00  0.00000000000E+00  0.45593999997E+02  0.45594000000E+02  0.51100000000E-03 0. -1.
         11   -1    0    0    0    0 -0.00000000000E+00 -0.00000000000E+00 -0.45593999997E+02  0.45594000000E+02  0.51100000000E-03 0.  1.
    9900012    2    1    2    0    0 -0.94468823653E+01  0.29647792755E+01 -0.30309887326E+02  0.59301909423E+02  0.49999936889E+02 0.  0.
         12    1    1    2    0    0  0.94468823653E+01 -0.29647792755E+01  0.30309887326E+02  0.31886090577E+02  0.00000000000E+00 0. -1.
         11    1    3    3    0    0  0.12645506253E+01 -0.96176453659E+00  0.59974158629E+01  0.62042788946E+01  0.51100000000E-03 0. -1.
        -11    1    3    3    0    0  0.72568982756E+01  0.15015347900E+02 -0.10312036290E+02  0.19607685683E+02  0.51100000000E-03 0.  1.
         12    1    3    3    0    0 -0.17968331266E+02 -0.11088804088E+02 -0.25995266899E+02  0.33489944845E+02  0.00000000000E+00 0. -1.
</event>
<event>
 7    1  0.5634483E-012  0.5930194E+02  0.7816164E-02  0.1266605E+00
        -11   -1    0    0    0    0  0.00000000000E+00  0.00000000000E+00  0.45593999997E+02  0.45594000000E+02  0.51100000000E-03 0. -1.
         11   -1    0    0    0    0 -0.00000000000E+00 -0.00000000000E+00 -0.45593999997E+02  0.45594000000E+02  0.51100000000E-03 0.  1.
    9900012    2    1    2    0    0 -0.27750992595E+02  0.13684147840E+02  0.77037277629E+01  0.59301938569E+02  0.49999990045E+02 0.  0.
         12    1    1    2    0    0  0.27750992595E+02 -0.13684147840E+02 -0.77037277629E+01  0.31886061431E+02  0.00000000000E+00 0. -1.
         11    1    3    3    0    0  0.13448913115E+01 -0.86042291460E+01 -0.99634513615E+01  0.13232983607E+02  0.51100000000E-03 0. -1.
        -11    1    3    3    0    0 -0.19076149693E+02  0.35236787261E+01  0.15218939153E+02  0.24656275227E+02  0.51100000000E-03 0.  1.
        -12    1    3    3    0    0 -0.10019734214E+02  0.18764698260E+02  0.24482399718E+01  0.21412679736E+02  0.00000000000E+00 0.  1.
</event>
<event>
 7    1  0.5634483E-012  0.5930196E+02  0.7816164E-02  0.1266605E+00
        -11   -1    0    0    0    0  0.00000000000E+00  0.00000000000E+00  0.45593999997E+02  0.45594000000E+02  0.51100000000E-03 0.  1.
         11   -1    0    0    0    0 -0.00000000000E+00 -0.00000000000E+00 -0.45593999997E+02  0.45594000000E+02  0.51100000000E-03 0. -1.
    9900012    2    1    2    0    0  0.16061727331E+02  0.14989676562E+02  0.23109524656E+02  0.59301958883E+02  0.50000027092E+02 0.  0.
         12    1    1    2    0    0 -0.16061727331E+02 -0.14989676562E+02 -0.23109524656E+02  0.31886041117E+02  0.00000000000E+00 0. -1.
         11    1    3    3    0    0 -0.15939005343E+02  0.10893179391E+01  0.23108964442E+01  0.16142451720E+02  0.51100000000E-03 0. -1.
        -11    1    3    3    0    0  0.92037008134E+00  0.50909897587E+01  0.50145936942E+01  0.72049571816E+01  0.51100000000E-03 0.  1.
        -12    1    3    3    0    0  0.31080362593E+02  0.88093688645E+01  0.15784034518E+02  0.35954549981E+02  0.00000000000E+00 0.  1.
</event>
<event>
 7    1  0.5634483E-012  0.5930197E+02  0.7816164E-02  0.1266605E+00
        -11   -1    0    0    0    0  0.00000000000E+00  0.00000000000E+00  0.45593999997E+02  0.45594000000E+02  0.51100000000E-03 0.  1.
         11   -1    0    0    0    0 -0.00000000000E+00 -0.00000000000E+00 -0.45593999997E+02  0.45594000000E+02  0.51100000000E-03 0. -1.
    9900012    2    1    2    0    0 -0.25289643783E+00 -0.19789252671E+02  0.25000806794E+02  0.59301971426E+02  0.50000049967E+02 0.  0.
         12    1    1    2    0    0  0.25289643783E+00  0.19789252671E+02 -0.25000806794E+02  0.31886028574E+02  0.00000000000E+00 0. -1.
         11    1    3    3    0    0 -0.10713715287E+02 -0.87810237132E+01  0.14661149468E+02  0.20170259708E+02  0.51100000000E-03 0. -1.
        -11    1    3    3    0    0  0.72492626591E+00  0.83279941164E+01  0.14828300481E+02  0.17022323564E+02  0.51100000000E-03 0.  1.
        -12    1    3    3    0    0  0.97358925829E+01 -0.19336223075E+02 -0.44886431552E+01  0.22109388154E+02  0.00000000000E+00 0.  1.
</event>
<event>
 7    1  0.5634483E-012  0.5930194E+02  0.7816164E-02  0.1266605E+00
        -11   -1    0    0    0    0  0.00000000000E+00  0.00000000000E+00  0.45593999997E+02  0.45594000000E+02  0.51100000000E-03 0.  1.
         11   -1    0    0    0    0 -0.00000000000E+00 -0.00000000000E+00 -0.45593999997E+02  0.45594000000E+02  0.51100000000E-03 0. -1.
    9900012    2    1    2    0    0 -0.26061106142E+02 -0.89029375405E+01  0.16071008268E+02  0.59301939457E+02  0.49999991664E+02 0.  0.
         12    1    1    2    0    0  0.26061106142E+02  0.89029375405E+01 -0.16071008268E+02  0.31886060543E+02  0.00000000000E+00 0. -1.
         11    1    3    3    0    0 -0.15301970262E+02  0.66144210777E+01 -0.11474304048E+02  0.20237601481E+02  0.51100000000E-03 0. -1.
        -11    1    3    3    0    0 -0.36334920836E+01 -0.14835308395E+02  0.60843310053E+01  0.16441037800E+02  0.51100000000E-03 0.  1.
        -12    1    3    3    0    0 -0.71256437969E+01 -0.68205022292E+00  0.21460981310E+02  0.22623300175E+02  0.00000000000E+00 0.  1.
</event>
<event>
 7    1  0.5634483E-012  0.5930195E+02  0.7816164E-02  0.1266605E+00
        -11   -1    0    0    0    0  0.00000000000E+00  0.00000000000E+00  0.45593999997E+02  0.45594000000E+02  0.51100000000E-03 0.  1.
         11   -1    0    0    0    0 -0.00000000000E+00 -0.00000000000E+00 -0.45593999997E+02  0.45594000000E+02  0.51100000000E-03 0. -1.
    9900012    2    1    2    0    0  0.18694801695E+02  0.13177865353E+02  0.22216406894E+02  0.59301945353E+02  0.50000002417E+02 0.  0.
         12    1    1    2    0    0 -0.18694801695E+02 -0.13177865353E+02 -0.22216406894E+02  0.31886054647E+02  0.00000000000E+00 0. -1.
         11    1    3    3    0    0  0.12708396408E+02  0.17841159647E+02 -0.55494090791E+01  0.22596598377E+02  0.51100000000E-03 0. -1.
        -11    1    3    3    0    0  0.10536762091E+02  0.60496322739E+01  0.16642087031E+02  0.20605350446E+02  0.51100000000E-03 0.  1.
        -12    1    3    3    0    0 -0.45503568031E+01 -0.10712926568E+02  0.11123728942E+02  0.16099996530E+02  0.00000000000E+00 0.  1.
</event>
<event>
 7    1  0.5634483E-012  0.5930194E+02  0.7816164E-02  0.1266605E+00
        -11   -1    0    0    0    0  0.00000000000E+00  0.00000000000E+00  0.45593999997E+02  0.45594000000E+02  0.51100000000E-03 0.  1.
         11   -1    0    0    0    0 -0.00000000000E+00 -0.00000000000E+00 -0.45593999997E+02  0.45594000000E+02  0.51100000000E-03 0. -1.
    9900012    2    1    2    0    0 -0.25375590599E+02  0.15323609359E+02  0.11746786456E+02  0.59301943579E+02  0.49999999181E+02 0.  0.
         12    1    1    2    0    0  0.25375590599E+02 -0.15323609359E+02 -0.11746786456E+02  0.31886056421E+02  0.00000000000E+00 0. -1.
         11    1    3    3    0    0 -0.66000286461E+01 -0.29811716972E+00 -0.11187254982E+02  0.12992456514E+02  0.51100000000E-03 0. -1.
        -11    1    3    3    0    0 -0.27849469037E+02  0.11838986541E+02  0.15610046520E+02  0.34050375631E+02  0.51100000000E-03 0.  1.
         12    1    3    3    0    0  0.90739070840E+01  0.37827399879E+01  0.73239949182E+01  0.12259111434E+02  0.00000000000E+00 0. -1.
</event>
<event>
 7    1  0.5634483E-012  0.5930198E+02  0.7816164E-02  0.1266605E+00
        -11   -1    0    0    0    0  0.00000000000E+00  0.00000000000E+00  0.45593999997E+02  0.45594000000E+02  0.51100000000E-03 0. -1.
         11   -1    0    0    0    0 -0.00000000000E+00 -0.00000000000E+00 -0.45593999997E+02  0.45594000000E+02  0.51100000000E-03 0.  1.
    9900012    2    1    2    0    0 -0.31627950562E+02 -0.37256456936E+01 -0.15844414777E+01  0.59301981946E+02  0.50000069153E+02 0.  0.
         12    1    1    2    0    0  0.31627950562E+02  0.37256456936E+01  0.15844414777E+01  0.31886018054E+02  0.00000000000E+00 0. -1.
         11    1    3    3    0    0 -0.11191350081E+02  0.41031614404E+01  0.27319892573E+01  0.12228900851E+02  0.51100000000E-03 0. -1.
        -11    1    3    3    0    0 -0.29947821216E+02 -0.12954677444E+01 -0.12958261341E+02  0.32656802806E+02  0.51100000000E-03 0.  1.
         12    1    3    3    0    0  0.95112207359E+01 -0.65333393896E+01  0.86418306065E+01  0.14416278289E+02  0.00000000000E+00 0. -1.
</event>
<event>
 7    1  0.5634483E-012  0.5930188E+02  0.7816164E-02  0.1266605E+00
        -11   -1    0    0    0    0  0.00000000000E+00  0.00000000000E+00  0.45593999997E+02  0.45594000000E+02  0.51100000000E-03 0.  1.
         11   -1    0    0    0    0 -0.00000000000E+00 -0.00000000000E+00 -0.45593999997E+02  0.45594000000E+02  0.51100000000E-03 0. -1.
    9900012    2    1    2    0    0 -0.10438127702E+01  0.24452499692E+02  0.20437961146E+02  0.59301881671E+02  0.49999886277E+02 0.  0.
         12    1    1    2    0    0  0.10438127702E+01 -0.24452499692E+02 -0.20437961146E+02  0.31886118329E+02  0.00000000000E+00 0. -1.
         11    1    3    3    0    0  0.50112748641E+01 -0.15574043710E+01  0.38940800771E+01  0.65346954057E+01  0.51100000000E-03 0. -1.
        -11    1    3    3    0    0 -0.79262180104E+00  0.28191542877E+02 -0.65731661742E+01  0.28958554054E+02  0.51100000000E-03 0.  1.
         12    1    3    3    0    0 -0.52624658333E+01 -0.21816388140E+01  0.23117047243E+02  0.23808632212E+02  0.00000000000E+00 0. -1.
</event>
<event>
 7    1  0.5634483E-012  0.5930194E+02  0.7816164E-02  0.1266605E+00
        -11   -1    0    0    0    0  0.00000000000E+00  0.00000000000E+00  0.45593999997E+02  0.45594000000E+02  0.51100000000E-03 0.  1.
         11   -1    0    0    0    0 -0.00000000000E+00 -0.00000000000E+00 -0.45593999997E+02  0.45594000000E+02  0.51100000000E-03 0. -1.
    9900012    2    1    2    0    0 -0.11161260724E+02 -0.22043111405E+02  0.20155609048E+02  0.59301935999E+02  0.49999985358E+02 0.  0.
         12    1    1    2    0    0  0.11161260724E+02  0.22043111405E+02 -0.20155609048E+02  0.31886064001E+02  0.00000000000E+00 0. -1.
         11    1    3    3    0    0  0.84137756915E+01 -0.24700176469E+01 -0.72868916879E+01  0.11401377079E+02  0.51100000000E-03 0. -1.
        -11    1    3    3    0    0 -0.53530354277E+01  0.65178365521E+01  0.17406080010E+01  0.86120205576E+01  0.51100000000E-03 0.  1.
         12    1    3    3    0    0 -0.14222000987E+02 -0.26090930311E+02  0.25701892734E+02  0.39288538363E+02  0.00000000000E+00 0. -1.
</event>
<event>
 7    1  0.5634483E-012  0.5930190E+02  0.7816164E-02  0.1266605E+00
        -11   -1    0    0    0    0  0.00000000000E+00  0.00000000000E+00  0.45593999997E+02  0.45594000000E+02  0.51100000000E-03 0.  1.
         11   -1    0    0    0    0 -0.00000000000E+00 -0.00000000000E+00 -0.45593999997E+02  0.45594000000E+02  0.51100000000E-03 0. -1.
    9900012    2    1    2    0    0 -0.21145776591E+01 -0.22408778678E+02  0.22585357510E+02  0.59301903118E+02  0.49999925391E+02 0.  0.
         12    1    1    2    0    0  0.21145776591E+01  0.22408778678E+02 -0.22585357510E+02  0.31886096882E+02  0.00000000000E+00 0. -1.
         11    1    3    3    0    0  0.45787410977E+01 -0.68761688779E+01  0.88715758706E+01  0.12122352378E+02  0.51100000000E-03 0. -1.
        -11    1    3    3    0    0 -0.94826463064E+01 -0.17425260389E+02  0.26981840108E+02  0.33489998156E+02  0.51100000000E-03 0.  1.
         12    1    3    3    0    0  0.27893275496E+01  0.18926505889E+01 -0.13268058469E+02  0.13689552585E+02  0.00000000000E+00 0. -1.
</event>
<event>
 7    1  0.5634483E-012  0.5930195E+02  0.7816164E-02  0.1266605E+00
        -11   -1    0    0    0    0  0.00000000000E+00  0.00000000000E+00  0.45593999997E+02  0.45594000000E+02  0.51100000000E-03 0. -1.
         11   -1    0    0    0    0 -0.00000000000E+00 -0.00000000000E+00 -0.45593999997E+02  0.45594000000E+02  0.51100000000E-03 0.  1.
    9900012    2    1    2    0    0  0.29157120811E+02  0.71714507577E+01  0.10730929279E+02  0.59301949082E+02  0.50000009217E+02 0.  0.
         12    1    1    2    0    0 -0.29157120811E+02 -0.71714507577E+01 -0.10730929279E+02  0.31886050918E+02  0.00000000000E+00 0. -1.
         11    1    3    3    0    0  0.11513603506E+01 -0.89508051115E+01 -0.14009338372E+02  0.16664456327E+02  0.51100000000E-03 0. -1.
        -11    1    3    3    0    0  0.11016421161E+01 -0.15327397285E+01  0.38042044538E+01  0.42467491349E+01  0.51100000000E-03 0.  1.
        -12    1    3    3    0    0  0.26904118344E+02  0.17654995598E+02  0.20936063198E+02  0.38390743619E+02  0.00000000000E+00 0.  1.
</event>
<event>
 7    1  0.5634483E-012  0.5930194E+02  0.7816164E-02  0.1266605E+00
        -11   -1    0    0    0    0  0.00000000000E+00  0.00000000000E+00  0.45593999997E+02  0.45594000000E+02  0.51100000000E-03 0. -1.
         11   -1    0    0    0    0 -0.00000000000E+00 -0.00000000000E+00 -0.45593999997E+02  0.45594000000E+02  0.51100000000E-03 0.  1.
    9900012    2    1    2    0    0 -0.16107965135E+02  0.27363330669E+02 -0.29159434048E+01  0.59301935144E+02  0.49999983798E+02 0.  0.
         12    1    1    2    0    0  0.16107965135E+02 -0.27363330669E+02  0.29159434048E+01  0.31886064856E+02  0.00000000000E+00 0. -1.
         11    1    3    3    0    0  0.62495171890E+01  0.22775137383E+02 -0.61305129015E+01  0.24399724109E+02  0.51100000000E-03 0. -1.
        -11    1    3    3    0    0  0.17972522216E+01 -0.56692587622E+01 -0.46025136024E+01  0.75202222163E+01  0.51100000000E-03 0.  1.
        -12    1    3    3    0    0 -0.24154734545E+02  0.10257452048E+02  0.78170830990E+01  0.27381988818E+02  0.00000000000E+00 0.  1.
</event>
<event>
 7    1  0.5634483E-012  0.5930193E+02  0.7816164E-02  0.1266605E+00
        -11   -1    0    0    0    0  0.00000000000E+00  0.00000000000E+00  0.45593999997E+02  0.45594000000E+02  0.51100000000E-03 0. -1.
         11   -1    0    0    0    0 -0.00000000000E+00 -0.00000000000E+00 -0.45593999997E+02  0.45594000000E+02  0.51100000000E-03 0.  1.
    9900012    2    1    2    0    0 -0.31612490742E+02  0.32801585368E+00  0.41550266435E+01  0.59301930758E+02  0.49999975799E+02 0.  0.
         12    1    1    2    0    0  0.31612490742E+02 -0.32801585368E+00 -0.41550266435E+01  0.31886069242E+02  0.00000000000E+00 0. -1.
         11    1    3    3    0    0 -0.24114219411E+02 -0.18755601279E+02  0.68994404258E+01  0.31318851121E+02  0.51100000000E-03 0. -1.
        -11    1    3    3    0    0 -0.34460960579E+01 -0.82109553075E+00 -0.64272853331E+01  0.73389217822E+01  0.51100000000E-03 0.  1.
        -12    1    3    3    0    0 -0.40521752734E+01  0.19904712663E+02  0.36828715508E+01  0.20644157854E+02  0.00000000000E+00 0.  1.
</event>
<event>
 7    1  0.5634483E-012  0.5930192E+02  0.7816164E-02  0.1266605E+00
        -11   -1    0    0    0    0  0.00000000000E+00  0.00000000000E+00  0.45593999997E+02  0.45594000000E+02  0.51100000000E-03 0. -1.
         11   -1    0    0    0    0 -0.00000000000E+00 -0.00000000000E+00 -0.45593999997E+02  0.45594000000E+02  0.51100000000E-03 0.  1.
    9900012    2    1    2    0    0  0.10255838067E+01 -0.12300103301E+02  0.29400301591E+02  0.59301920012E+02  0.49999956200E+02 0.  0.
         12    1    1    2    0    0 -0.10255838067E+01  0.12300103301E+02 -0.29400301591E+02  0.31886079988E+02  0.00000000000E+00 0. -1.
         11    1    3    3    0    0 -0.12380362644E+02 -0.12270199981E+02  0.77022645118E+00  0.17447763061E+02  0.51100000000E-03 0. -1.
        -11    1    3    3    0    0  0.28117434857E+01  0.81740905516E+01 -0.15968590240E+01  0.87904275652E+01  0.51100000000E-03 0.  1.
         12    1    3    3    0    0  0.10594202965E+02 -0.82039938716E+01  0.30226934164E+02  0.33063729386E+02  0.00000000000E+00 0. -1.
</event>
<event>
 7    1  0.5634483E-012  0.5930203E+02  0.7816164E-02  0.1266604E+00
        -11   -1    0    0    0    0  0.00000000000E+00  0.00000000000E+00  0.45593999997E+02  0.45594000000E+02  0.51100000000E-03 0. -1.
         11   -1    0    0    0    0 -0.00000000000E+00 -0.00000000000E+00 -0.45593999997E+02  0.45594000000E+02  0.51100000000E-03 0.  1.
    9900012    2    1    2    0    0  0.18924474663E+02  0.24077299157E+02  0.88804913183E+01  0.59302028131E+02  0.50000153383E+02 0.  0.
         12    1    1    2    0    0 -0.18924474663E+02 -0.24077299157E+02 -0.88804913183E+01  0.31885971869E+02  0.00000000000E+00 0. -1.
         11    1    3    3    0    0  0.19503096943E+02  0.36975228639E+01  0.21913620635E+02  0.29567705952E+02  0.51100000000E-03 0. -1.
        -11    1    3    3    0    0  0.57516541794E+01  0.35755608646E+01  0.11274384917E+01  0.68656594082E+01  0.51100000000E-03 0.  1.
        -12    1    3    3    0    0 -0.63302764587E+01  0.16804215429E+02 -0.14160567809E+02  0.22868662770E+02  0.00000000000E+00 0.  1.
</event>
<event>
 7    1  0.5634483E-012  0.5930195E+02  0.7816164E-02  0.1266605E+00
        -11   -1    0    0    0    0  0.00000000000E+00  0.00000000000E+00  0.45593999997E+02  0.45594000000E+02  0.51100000000E-03 0. -1.
         11   -1    0    0    0    0 -0.00000000000E+00 -0.00000000000E+00 -0.45593999997E+02  0.45594000000E+02  0.51100000000E-03 0.  1.
    9900012    2    1    2    0    0  0.75825817172E+01 -0.13928164996E+02 -0.27662801341E+02  0.59301954405E+02  0.50000018925E+02 0.  0.
         12    1    1    2    0    0 -0.75825817172E+01  0.13928164996E+02  0.27662801341E+02  0.31886045595E+02  0.00000000000E+00 0. -1.
         11    1    3    3    0    0 -0.75946407497E+01  0.22235894591E+01 -0.68596868643E+01  0.10472737099E+02  0.51100000000E-03 0. -1.
        -11    1    3    3    0    0  0.23469159437E+02 -0.49944993494E+01 -0.22498452691E+00  0.23995772268E+02  0.51100000000E-03 0.  1.
         12    1    3    3    0    0 -0.82919369705E+01 -0.11157255106E+02 -0.20578129950E+02  0.24833445038E+02  0.00000000000E+00 0. -1.
</event>
<event>
 7    1  0.5634483E-012  0.5930195E+02  0.7816164E-02  0.1266605E+00
        -11   -1    0    0    0    0  0.00000000000E+00  0.00000000000E+00  0.45593999997E+02  0.45594000000E+02  0.51100000000E-03 0. -1.
         11   -1    0    0    0    0 -0.00000000000E+00 -0.00000000000E+00 -0.45593999997E+02  0.45594000000E+02  0.51100000000E-03 0.  1.
    9900012    2    1    2    0    0  0.73798563174E+01  0.37031375073E+01 -0.30798450062E+02  0.59301952379E+02  0.50000015231E+02 0.  0.
         12    1    1    2    0    0 -0.73798563174E+01 -0.37031375073E+01  0.30798450062E+02  0.31886047621E+02  0.00000000000E+00 0. -1.
         11    1    3    3    0    0 -0.30103496124E+00 -0.13386088226E+02 -0.21149481226E+02  0.25031550820E+02  0.51100000000E-03 0. -1.
        -11    1    3    3    0    0 -0.52127252019E+01  0.44231826363E+00 -0.11992757628E+02  0.13084127225E+02  0.51100000000E-03 0.  1.
        -12    1    3    3    0    0  0.12893616481E+02  0.16646907470E+02  0.23437887916E+01  0.21186274334E+02  0.00000000000E+00 0.  1.
</event>
<event>
 7    1  0.5634483E-012  0.5930194E+02  0.7816164E-02  0.1266605E+00
        -11   -1    0    0    0    0  0.00000000000E+00  0.00000000000E+00  0.45593999997E+02  0.45594000000E+02  0.51100000000E-03 0.  1.
         11   -1    0    0    0    0 -0.00000000000E+00 -0.00000000000E+00 -0.45593999997E+02  0.45594000000E+02  0.51100000000E-03 0. -1.
    9900012    2    1    2    0    0  0.29723837529E+02 -0.33256741099E+01  0.11052324826E+02  0.59301944901E+02  0.50000001592E+02 0.  0.
         12    1    1    2    0    0 -0.29723837529E+02  0.33256741099E+01 -0.11052324826E+02  0.31886055099E+02  0.00000000000E+00 0. -1.
         11    1    3    3    0    0  0.18537360256E+02  0.12842319787E+02 -0.56152050156E+01  0.23239824234E+02  0.51100000000E-03 0. -1.
        -11    1    3    3    0    0 -0.50147376551E+01  0.34298128108E+01  0.58341663399E+01  0.84231055324E+01  0.51100000000E-03 0.  1.
         12    1    3    3    0    0  0.16201214928E+02 -0.19597806707E+02  0.10833363501E+02  0.27639015135E+02  0.00000000000E+00 0. -1.
</event>
<event>
 7    1  0.5634483E-012  0.5930181E+02  0.7816164E-02  0.1266605E+00
        -11   -1    0    0    0    0  0.00000000000E+00  0.00000000000E+00  0.45593999997E+02  0.45594000000E+02  0.51100000000E-03 0.  1.
         11   -1    0    0    0    0 -0.00000000000E+00 -0.00000000000E+00 -0.45593999997E+02  0.45594000000E+02  0.51100000000E-03 0. -1.
    9900012    2    1    2    0    0  0.88953002263E+01  0.24339483058E+02  0.18579354075E+02  0.59301808639E+02  0.49999753083E+02 0.  0.
         12    1    1    2    0    0 -0.88953002263E+01 -0.24339483058E+02 -0.18579354075E+02  0.31886191361E+02  0.00000000000E+00 0. -1.
         11    1    3    3    0    0 -0.88655755356E+01 -0.60913954956E+01  0.43268269680E+01  0.11594177872E+02  0.51100000000E-03 0. -1.
        -11    1    3    3    0    0 -0.17471140953E+01  0.50758770392E+01  0.14766817808E+02  0.15712283214E+02  0.51100000000E-03 0.  1.
         12    1    3    3    0    0  0.19507989857E+02  0.25355001515E+02 -0.51429070065E+00  0.31995347552E+02  0.00000000000E+00 0. -1.
</event>
<event>
 7    1  0.5634483E-012  0.5930195E+02  0.7816164E-02  0.1266605E+00
        -11   -1    0    0    0    0  0.00000000000E+00  0.00000000000E+00  0.45593999997E+02  0.45594000000E+02  0.51100000000E-03 0.  1.
         11   -1    0    0    0    0 -0.00000000000E+00 -0.00000000000E+00 -0.45593999997E+02  0.45594000000E+02  0.51100000000E-03 0. -1.
    9900012    2    1    2    0    0  0.16147132903E+02 -0.14103695589E+01  0.27459077485E+02  0.59301953214E+02  0.50000016754E+02 0.  0.
         12    1    1    2    0    0 -0.16147132903E+02  0.14103695589E+01 -0.27459077485E+02  0.31886046786E+02  0.00000000000E+00 0. -1.
         11    1    3    3    0    0 -0.19070497556E+01  0.95015526784E+01  0.11303901823E+01  0.97567476290E+01  0.51100000000E-03 0. -1.
        -11    1    3    3    0    0  0.20885181558E+02 -0.53558879666E+01  0.33627093109E+02  0.39945684821E+02  0.51100000000E-03 0.  1.
         12    1    3    3    0    0 -0.28309988997E+01 -0.55560342707E+01 -0.72984058062E+01  0.95995207640E+01  0.00000000000E+00 0. -1.
</event>
<event>
 7    1  0.5634483E-012  0.5930192E+02  0.7816164E-02  0.1266605E+00
        -11   -1    0    0    0    0  0.00000000000E+00  0.00000000000E+00  0.45593999997E+02  0.45594000000E+02  0.51100000000E-03 0.  1.
         11   -1    0    0    0    0 -0.00000000000E+00 -0.00000000000E+00 -0.45593999997E+02  0.45594000000E+02  0.51100000000E-03 0. -1.
    9900012    2    1    2    0    0 -0.82378232904E+01 -0.24770214181E+02  0.18311110188E+02  0.59301921541E+02  0.49999958990E+02 0.  0.
         12    1    1    2    0    0  0.82378232904E+01  0.24770214181E+02 -0.18311110188E+02  0.31886078459E+02  0.00000000000E+00 0. -1.
         11    1    3    3    0    0 -0.22937420608E+01 -0.15564589176E+02  0.24883910696E+02  0.29440222497E+02  0.51100000000E-03 0. -1.
        -11    1    3    3    0    0 -0.31403884299E+01  0.72206764225E+01  0.52199929220E+01  0.94471442170E+01  0.51100000000E-03 0.  1.
         12    1    3    3    0    0 -0.28036927996E+01 -0.16426301428E+02 -0.11792793430E+02  0.20414554827E+02  0.00000000000E+00 0. -1.
</event>
<event>
 7    1  0.5634483E-012  0.5930203E+02  0.7816164E-02  0.1266604E+00
        -11   -1    0    0    0    0  0.00000000000E+00  0.00000000000E+00  0.45593999997E+02  0.45594000000E+02  0.51100000000E-03 0.  1.
         11   -1    0    0    0    0 -0.00000000000E+00 -0.00000000000E+00 -0.45593999997E+02  0.45594000000E+02  0.51100000000E-03 0. -1.
    9900012    2    1    2    0    0  0.22959208294E+02  0.10609433926E+02  0.19417260968E+02  0.59302025697E+02  0.50000148946E+02 0.  0.
         12    1    1    2    0    0 -0.22959208294E+02 -0.10609433926E+02 -0.19417260968E+02  0.31885974303E+02  0.00000000000E+00 0. -1.
         11    1    3    3    0    0  0.10329589470E+01 -0.80641357940E+01  0.72553697715E+01  0.10896682113E+02  0.51100000000E-03 0. -1.
        -11    1    3    3    0    0  0.57305660159E+01 -0.36922261401E+00  0.21091915996E+02  0.21859657656E+02  0.51100000000E-03 0.  1.
         12    1    3    3    0    0  0.16195683332E+02  0.19042792334E+02 -0.89300247999E+01  0.26545685928E+02  0.00000000000E+00 0. -1.
</event>
<event>
 7    1  0.5634483E-012  0.5930193E+02  0.7816164E-02  0.1266605E+00
        -11   -1    0    0    0    0  0.00000000000E+00  0.00000000000E+00  0.45593999997E+02  0.45594000000E+02  0.51100000000E-03 0.  1.
         11   -1    0    0    0    0 -0.00000000000E+00 -0.00000000000E+00 -0.45593999997E+02  0.45594000000E+02  0.51100000000E-03 0. -1.
    9900012    2    1    2    0    0 -0.26011425263E+02  0.76692078909E+01  0.16772314212E+02  0.59301929092E+02  0.49999972761E+02 0.  0.
         12    1    1    2    0    0  0.26011425263E+02 -0.76692078909E+01 -0.16772314212E+02  0.31886070908E+02  0.00000000000E+00 0. -1.
         11    1    3    3    0    0 -0.14242397541E+02  0.90249046818E+00 -0.63196636557E+01  0.15607643183E+02  0.51100000000E-03 0. -1.
        -11    1    3    3    0    0 -0.98382278891E+01  0.42846351866E+01  0.32262144151E+02  0.33999923120E+02  0.51100000000E-03 0.  1.
         12    1    3    3    0    0 -0.19307998333E+01  0.24820822361E+01 -0.91701662830E+01  0.96943627888E+01  0.00000000000E+00 0. -1.
</event>
<event>
 7    1  0.5634483E-012  0.5930198E+02  0.7816164E-02  0.1266605E+00
        -11   -1    0    0    0    0  0.00000000000E+00  0.00000000000E+00  0.45593999997E+02  0.45594000000E+02  0.51100000000E-03 0.  1.
         11   -1    0    0    0    0 -0.00000000000E+00 -0.00000000000E+00 -0.45593999997E+02  0.45594000000E+02  0.51100000000E-03 0. -1.
    9900012    2    1    2    0    0  0.15926640166E+02  0.22690017693E+02  0.15755115449E+02  0.59301977472E+02  0.50000060994E+02 0.  0.
         12    1    1    2    0    0 -0.15926640166E+02 -0.22690017693E+02 -0.15755115449E+02  0.31886022528E+02  0.00000000000E+00 0. -1.
         11    1    3    3    0    0  0.11131045191E+02 -0.20207328397E+01 -0.10607548642E+02  0.15508179026E+02  0.51100000000E-03 0. -1.
        -11    1    3    3    0    0  0.12394246350E+02  0.19215537599E+02  0.10048435474E+02  0.24976494621E+02  0.51100000000E-03 0.  1.
        -12    1    3    3    0    0 -0.75986513748E+01  0.54952129333E+01  0.16314228616E+02  0.18817303825E+02  0.00000000000E+00 0.  1.
</event>
<event>
 7    1  0.5634483E-012  0.5930192E+02  0.7816164E-02  0.1266605E+00
        -11   -1    0    0    0    0  0.00000000000E+00  0.00000000000E+00  0.45593999997E+02  0.45594000000E+02  0.51100000000E-03 0.  1.
         11   -1    0    0    0    0 -0.00000000000E+00 -0.00000000000E+00 -0.45593999997E+02  0.45594000000E+02  0.51100000000E-03 0. -1.
    9900012    2    1    2    0    0  0.19618890583E+01  0.12009816031E+02  0.29472655894E+02  0.59301919412E+02  0.49999955107E+02 0.  0.
         12    1    1    2    0    0 -0.19618890583E+01 -0.12009816031E+02 -0.29472655894E+02  0.31886080588E+02  0.00000000000E+00 0. -1.
         11    1    3    3    0    0 -0.84228091582E+00  0.39532408161E+01 -0.98782129750E+01  0.10673173939E+02  0.51100000000E-03 0. -1.
        -11    1    3    3    0    0  0.33488239380E+01  0.14298615626E+02  0.81308548991E+01  0.16786179799E+02  0.51100000000E-03 0.  1.
        -12    1    3    3    0    0 -0.54465396388E+00 -0.62420404107E+01  0.31220013970E+02  0.31842565674E+02  0.00000000000E+00 0.  1.
</event>
<event>
 7    1  0.5634483E-012  0.5930193E+02  0.7816164E-02  0.1266605E+00
        -11   -1    0    0    0    0  0.00000000000E+00  0.00000000000E+00  0.45593999997E+02  0.45594000000E+02  0.51100000000E-03 0.  1.
         11   -1    0    0    0    0 -0.00000000000E+00 -0.00000000000E+00 -0.45593999997E+02  0.45594000000E+02  0.51100000000E-03 0. -1.
    9900012    2    1    2    0    0 -0.14236738542E+02  0.11914871529E+02  0.25924362496E+02  0.59301930021E+02  0.49999974455E+02 0.  0.
         12    1    1    2    0    0  0.14236738542E+02 -0.11914871529E+02 -0.25924362496E+02  0.31886069979E+02  0.00000000000E+00 0. -1.
         11    1    3    3    0    0  0.88960630191E+01 -0.99290256394E+01  0.12116439611E+02  0.18014816027E+02  0.51100000000E-03 0. -1.
        -11    1    3    3    0    0 -0.35438408284E+01  0.94474731512E+01  0.14996182800E+02  0.18074818272E+02  0.51100000000E-03 0.  1.
        -12    1    3    3    0    0 -0.19588960733E+02  0.12396424017E+02 -0.11882599144E+01  0.23212295721E+02  0.00000000000E+00 0.  1.
</event>
<event>
 7    1  0.5634483E-012  0.5930196E+02  0.7816164E-02  0.1266605E+00
        -11   -1    0    0    0    0  0.00000000000E+00  0.00000000000E+00  0.45593999997E+02  0.45594000000E+02  0.51100000000E-03 0.  1.
         11   -1    0    0    0    0 -0.00000000000E+00 -0.00000000000E+00 -0.45593999997E+02  0.45594000000E+02  0.51100000000E-03 0. -1.
    9900012    2    1    2    0    0 -0.10997997615E+02 -0.11303312070E+02  0.27712789976E+02  0.59301960052E+02  0.50000029224E+02 0.  0.
         12    1    1    2    0    0  0.10997997615E+02  0.11303312070E+02 -0.27712789976E+02  0.31886039948E+02  0.00000000000E+00 0. -1.
         11    1    3    3    0    0  0.47790019052E+01  0.68806215216E+01  0.20699190758E+01  0.86293903015E+01  0.51100000000E-03 0. -1.
        -11    1    3    3    0    0 -0.21611881861E+02  0.15896498875E+01  0.67198110876E+01  0.22688241132E+02  0.51100000000E-03 0.  1.
         12    1    3    3    0    0  0.58348823412E+01 -0.19773583479E+02  0.18923059813E+02  0.27984328619E+02  0.00000000000E+00 0. -1.
</event>
<event>
 7    1  0.5634483E-012  0.5930191E+02  0.7816164E-02  0.1266605E+00
        -11   -1    0    0    0    0  0.00000000000E+00  0.00000000000E+00  0.45593999997E+02  0.45594000000E+02  0.51100000000E-03 0.  1.
         11   -1    0    0    0    0 -0.00000000000E+00 -0.00000000000E+00 -0.45593999997E+02  0.45594000000E+02  0.51100000000E-03 0. -1.
    9900012    2    1    2    0    0  0.24482435942E+02  0.19327464934E+02 -0.66168306601E+01  0.59301905564E+02  0.49999929851E+02 0.  0.
         12    1    1    2    0    0 -0.24482435942E+02 -0.19327464934E+02  0.66168306601E+01  0.31886094436E+02  0.00000000000E+00 0. -1.
         11    1    3    3    0    0  0.47832280227E+01  0.21380524756E+01  0.81884262247E+01  0.97211554356E+01  0.51100000000E-03 0. -1.
        -11    1    3    3    0    0 -0.97074417868E+01  0.14634803073E+02 -0.31310151131E+01  0.17838585788E+02  0.51100000000E-03 0.  1.
         12    1    3    3    0    0  0.29406649706E+02  0.25546093850E+01 -0.11674241772E+02  0.31742164340E+02  0.00000000000E+00 0. -1.
</event>
<event>
 7    1  0.5634483E-012  0.5930193E+02  0.7816164E-02  0.1266605E+00
        -11   -1    0    0    0    0  0.00000000000E+00  0.00000000000E+00  0.45593999997E+02  0.45594000000E+02  0.51100000000E-03 0. -1.
         11   -1    0    0    0    0 -0.00000000000E+00 -0.00000000000E+00 -0.45593999997E+02  0.45594000000E+02  0.51100000000E-03 0.  1.
    9900012    2    1    2    0    0 -0.70529683457E+01  0.89061006963E+01 -0.29793597935E+02  0.59301929843E+02  0.49999974131E+02 0.  0.
         12    1    1    2    0    0  0.70529683457E+01 -0.89061006963E+01  0.29793597935E+02  0.31886070157E+02  0.00000000000E+00 0. -1.
         11    1    3    3    0    0  0.13630577533E+02  0.39059337953E+01 -0.11192504216E+02  0.18064360315E+02  0.51100000000E-03 0.  1.
        -11    1    3    3    0    0 -0.89496204645E+01  0.17453117670E+02 -0.85778065543E+01  0.21407610526E+02  0.51100000000E-03 0. -1.
         12    1    3    3    0    0 -0.11733925414E+02 -0.12452950769E+02 -0.10023287165E+02  0.19829959003E+02  0.00000000000E+00 0. -1.
</event>
<event>
 7    1  0.5634483E-012  0.5930192E+02  0.7816164E-02  0.1266605E+00
        -11   -1    0    0    0    0  0.00000000000E+00  0.00000000000E+00  0.45593999997E+02  0.45594000000E+02  0.51100000000E-03 0. -1.
         11   -1    0    0    0    0 -0.00000000000E+00 -0.00000000000E+00 -0.45593999997E+02  0.45594000000E+02  0.51100000000E-03 0.  1.
    9900012    2    1    2    0    0 -0.15903897580E+02 -0.93168186467E+00 -0.27621003109E+02  0.59301924637E+02  0.49999964635E+02 0.  0.
         12    1    1    2    0    0  0.15903897580E+02  0.93168186467E+00  0.27621003109E+02  0.31886075363E+02  0.00000000000E+00 0. -1.
         11    1    3    3    0    0  0.64543878686E+01 -0.13554249738E+02 -0.15866839980E+02  0.21843383894E+02  0.51100000000E-03 0. -1.
        -11    1    3    3    0    0 -0.12824936908E+02 -0.61933193988E+01 -0.68451450558E+01  0.15801652539E+02  0.51100000000E-03 0.  1.
        -12    1    3    3    0    0 -0.95333485402E+01  0.18815887272E+02 -0.49090180728E+01  0.21656888204E+02  0.00000000000E+00 0.  1.
</event>
<event>
 7    1  0.5634483E-012  0.5930191E+02  0.7816164E-02  0.1266605E+00
        -11   -1    0    0    0    0  0.00000000000E+00  0.00000000000E+00  0.45593999997E+02  0.45594000000E+02  0.51100000000E-03 0.  1.
         11   -1    0    0    0    0 -0.00000000000E+00 -0.00000000000E+00 -0.45593999997E+02  0.45594000000E+02  0.51100000000E-03 0. -1.
    9900012    2    1    2    0    0  0.46386785554E-01  0.19008830901E+02  0.25600486638E+02  0.59301910242E+02  0.49999938383E+02 0.  0.
         12    1    1    2    0    0 -0.46386785554E-01 -0.19008830901E+02 -0.25600486638E+02  0.31886089758E+02  0.00000000000E+00 0. -1.
         11    1    3    3    0    0 -0.32020700249E+01  0.15496084762E+02  0.87295070110E+01  0.18071695779E+02  0.51100000000E-03 0. -1.
        -11    1    3    3    0    0 -0.67660477903E+01  0.18316466159E+02  0.65729843942E+01  0.20602826489E+02  0.51100000000E-03 0.  1.
        -12    1    3    3    0    0  0.10014504601E+02 -0.14803720020E+02  0.10297995232E+02  0.20627387974E+02  0.00000000000E+00 0.  1.
</event>
<event>
 7    1  0.5634483E-012  0.5930193E+02  0.7816164E-02  0.1266605E+00
        -11   -1    0    0    0    0  0.00000000000E+00  0.00000000000E+00  0.45593999997E+02  0.45594000000E+02  0.51100000000E-03 0. -1.
         11   -1    0    0    0    0 -0.00000000000E+00 -0.00000000000E+00 -0.45593999997E+02  0.45594000000E+02  0.51100000000E-03 0.  1.
    9900012    2    1    2    0    0  0.13446167560E+02  0.20169246052E+02  0.20715297188E+02  0.59301930221E+02  0.49999974820E+02 0.  0.
         12    1    1    2    0    0 -0.13446167560E+02 -0.20169246052E+02 -0.20715297188E+02  0.31886069779E+02  0.00000000000E+00 0. -1.
         11    1    3    3    0    0 -0.84827120806E+01 -0.87906399905E+01  0.96507706062E+01  0.15568208928E+02  0.51100000000E-03 0. -1.
        -11    1    3    3    0    0 -0.83780082369E+00  0.14841503589E+02  0.76797779277E+01  0.16731740145E+02  0.51100000000E-03 0.  1.
        -12    1    3    3    0    0  0.22766680464E+02  0.14118382454E+02  0.33847486537E+01  0.27001981148E+02  0.00000000000E+00 0.  1.
</event>
<event>
 7    1  0.5634483E-012  0.5930194E+02  0.7816164E-02  0.1266605E+00
        -11   -1    0    0    0    0  0.00000000000E+00  0.00000000000E+00  0.45593999997E+02  0.45594000000E+02  0.51100000000E-03 0. -1.
         11   -1    0    0    0    0 -0.00000000000E+00 -0.00000000000E+00 -0.45593999997E+02  0.45594000000E+02  0.51100000000E-03 0.  1.
    9900012    2    1    2    0    0 -0.15595826043E+02  0.95751335461E+01 -0.26111449630E+02  0.59301940755E+02  0.49999994032E+02 0.  0.
         12    1    1    2    0    0  0.15595826043E+02 -0.95751335461E+01  0.26111449630E+02  0.31886059245E+02  0.00000000000E+00 0. -1.
         11    1    3    3    0    0  0.39520917756E+01  0.53855819758E+01  0.37836573096E+00  0.66907909479E+01  0.51100000000E-03 0. -1.
        -11    1    3    3    0    0 -0.46454658228E+00  0.13896296384E+02 -0.27881198231E+02  0.31155803180E+02  0.51100000000E-03 0.  1.
         12    1    3    3    0    0 -0.19083371237E+02 -0.97067448133E+01  0.13913828706E+01  0.21455346628E+02  0.00000000000E+00 0. -1.
</event>
<event>
 7    1  0.5634483E-012  0.5930195E+02  0.7816164E-02  0.1266605E+00
        -11   -1    0    0    0    0  0.00000000000E+00  0.00000000000E+00  0.45593999997E+02  0.45594000000E+02  0.51100000000E-03 0. -1.
         11   -1    0    0    0    0 -0.00000000000E+00 -0.00000000000E+00 -0.45593999997E+02  0.45594000000E+02  0.51100000000E-03 0.  1.
    9900012    2    1    2    0    0  0.11688180194E+02 -0.90273838108E+01 -0.28259737119E+02  0.59301953573E+02  0.50000017408E+02 0.  0.
         12    1    1    2    0    0 -0.11688180194E+02  0.90273838108E+01  0.28259737119E+02  0.31886046427E+02  0.00000000000E+00 0. -1.
         11    1    3    3    0    0  0.47793925478E+01 -0.24908904935E+01 -0.48688337285E+01  0.72631033803E+01  0.51100000000E-03 0. -1.
        -11    1    3    3    0    0 -0.21015531404E+00  0.15889209124E+02 -0.23669255237E+02  0.28508678952E+02  0.51100000000E-03 0.  1.
         12    1    3    3    0    0  0.71189429599E+01 -0.22425702442E+02  0.27835184634E+00  0.23530171241E+02  0.00000000000E+00 0. -1.
</event>
<event>
 7    1  0.5634483E-012  0.5930201E+02  0.7816164E-02  0.1266605E+00
        -11   -1    0    0    0    0  0.00000000000E+00  0.00000000000E+00  0.45593999997E+02  0.45594000000E+02  0.51100000000E-03 0. -1.
         11   -1    0    0    0    0 -0.00000000000E+00 -0.00000000000E+00 -0.45593999997E+02  0.45594000000E+02  0.51100000000E-03 0.  1.
    9900012    2    1    2    0    0 -0.27892648746E+02  0.15143825029E+02 -0.30628178219E+01  0.59302013367E+02  0.50000126458E+02 0.  0.
         12    1    1    2    0    0  0.27892648746E+02 -0.15143825029E+02  0.30628178219E+01  0.31885986633E+02  0.00000000000E+00 0. -1.
         11    1    3    3    0    0  0.21487945441E+01 -0.34638724668E+01  0.10256145102E+02  0.11036495960E+02  0.51100000000E-03 0. -1.
        -11    1    3    3    0    0  0.45131767496E+01  0.81968370534E+01  0.10611308783E+01  0.94171599251E+01  0.51100000000E-03 0.  1.
        -12    1    3    3    0    0 -0.34554620040E+02  0.10410860442E+02 -0.14380093803E+02  0.38848357481E+02  0.00000000000E+00 0.  1.
</event>
<event>
 7    1  0.5634483E-012  0.5930197E+02  0.7816164E-02  0.1266605E+00
        -11   -1    0    0    0    0  0.00000000000E+00  0.00000000000E+00  0.45593999997E+02  0.45594000000E+02  0.51100000000E-03 0. -1.
         11   -1    0    0    0    0 -0.00000000000E+00 -0.00000000000E+00 -0.45593999997E+02  0.45594000000E+02  0.51100000000E-03 0.  1.
    9900012    2    1    2    0    0  0.30920785546E+01  0.12498276538E+01 -0.31711132672E+02  0.59301969293E+02  0.50000046077E+02 0.  0.
         12    1    1    2    0    0 -0.30920785546E+01 -0.12498276538E+01  0.31711132672E+02  0.31886030707E+02  0.00000000000E+00 0. -1.
         11    1    3    3    0    0  0.99217488048E+01  0.37901893643E+01 -0.48787001927E+01  0.11687957503E+02  0.51100000000E-03 0. -1.
        -11    1    3    3    0    0  0.97426854696E+01  0.78742569614E+01 -0.24990501430E+02  0.27954409398E+02  0.51100000000E-03 0.  1.
        -12    1    3    3    0    0 -0.16572355720E+02 -0.10414618672E+02 -0.18419310495E+01  0.19659602391E+02  0.00000000000E+00 0.  1.
</event>
<event>
 7    1  0.5634483E-012  0.5930195E+02  0.7816164E-02  0.1266605E+00
        -11   -1    0    0    0    0  0.00000000000E+00  0.00000000000E+00  0.45593999997E+02  0.45594000000E+02  0.51100000000E-03 0. -1.
         11   -1    0    0    0    0 -0.00000000000E+00 -0.00000000000E+00 -0.45593999997E+02  0.45594000000E+02  0.51100000000E-03 0.  1.
    9900012    2    1    2    0    0  0.30770671578E+02 -0.82171817845E+01  0.15375266491E+01  0.59301948284E+02  0.50000007762E+02 0.  0.
         12    1    1    2    0    0 -0.30770671578E+02  0.82171817845E+01 -0.15375266491E+01  0.31886051716E+02  0.00000000000E+00 0. -1.
         11    1    3    3    0    0 -0.38959802029E+00  0.60039600819E+01 -0.31098264910E+01  0.67727648968E+01  0.51100000000E-03 0. -1.
        -11    1    3    3    0    0  0.23778630792E+02  0.77204014820E+01 -0.78723181608E+01  0.26210709164E+02  0.51100000000E-03 0.  1.
         12    1    3    3    0    0  0.73816388066E+01 -0.21941543348E+02  0.12519671301E+02  0.26318474224E+02  0.00000000000E+00 0. -1.
</event>
<event>
 7    1  0.5634483E-012  0.5930193E+02  0.7816164E-02  0.1266605E+00
        -11   -1    0    0    0    0  0.00000000000E+00  0.00000000000E+00  0.45593999997E+02  0.45594000000E+02  0.51100000000E-03 0. -1.
         11   -1    0    0    0    0 -0.00000000000E+00 -0.00000000000E+00 -0.45593999997E+02  0.45594000000E+02  0.51100000000E-03 0.  1.
    9900012    2    1    2    0    0 -0.19518399894E+02 -0.75367228032E+00 -0.25202883350E+02  0.59301932738E+02  0.49999979410E+02 0.  0.
         12    1    1    2    0    0  0.19518399894E+02  0.75367228032E+00  0.25202883350E+02  0.31886067262E+02  0.00000000000E+00 0. -1.
         11    1    3    3    0    0  0.11923189857E+01 -0.96926017665E+01  0.22412907913E+01  0.10019557787E+02  0.51100000000E-03 0. -1.
        -11    1    3    3    0    0 -0.23357072667E+02 -0.69108550539E+01 -0.12681948585E+02  0.27461692980E+02  0.51100000000E-03 0.  1.
        -12    1    3    3    0    0  0.26463537871E+01  0.15849784540E+02 -0.14762225556E+02  0.21820681971E+02  0.00000000000E+00 0.  1.
</event>
<event>
 7    1  0.5634483E-012  0.5930193E+02  0.7816164E-02  0.1266605E+00
        -11   -1    0    0    0    0  0.00000000000E+00  0.00000000000E+00  0.45593999997E+02  0.45594000000E+02  0.51100000000E-03 0.  1.
         11   -1    0    0    0    0 -0.00000000000E+00 -0.00000000000E+00 -0.45593999997E+02  0.45594000000E+02  0.51100000000E-03 0. -1.
    9900012    2    1    2    0    0  0.14732175615E+02  0.14611272275E+02  0.24211466063E+02  0.59301931494E+02  0.49999977141E+02 0.  0.
         12    1    1    2    0    0 -0.14732175615E+02 -0.14611272275E+02 -0.24211466063E+02  0.31886068506E+02  0.00000000000E+00 0. -1.
         11    1    3    3    0    0  0.31714286908E+01  0.34761645845E+01 -0.62472593455E+01  0.78211207477E+01  0.51100000000E-03 0. -1.
        -11    1    3    3    0    0  0.18086095325E+02  0.19690467335E+02  0.30710511147E+02  0.40718016199E+02  0.51100000000E-03 0.  1.
         12    1    3    3    0    0 -0.65253484014E+01 -0.85553596448E+01 -0.25178573800E+00  0.10762794547E+02  0.00000000000E+00 0. -1.
</event>
<event>
 7    1  0.5634483E-012  0.5930193E+02  0.7816164E-02  0.1266605E+00
        -11   -1    0    0    0    0  0.00000000000E+00  0.00000000000E+00  0.45593999997E+02  0.45594000000E+02  0.51100000000E-03 0.  1.
         11   -1    0    0    0    0 -0.00000000000E+00 -0.00000000000E+00 -0.45593999997E+02  0.45594000000E+02  0.51100000000E-03 0. -1.
    9900012    2    1    2    0    0 -0.15157464680E+02 -0.19110309990E+02  0.20537006976E+02  0.59301931898E+02  0.49999977879E+02 0.  0.
         12    1    1    2    0    0  0.15157464680E+02  0.19110309990E+02 -0.20537006976E+02  0.31886068102E+02  0.00000000000E+00 0. -1.
         11    1    3    3    0    0  0.12994557526E+01 -0.86356072620E+01  0.63595963022E+00  0.87559547137E+01  0.51100000000E-03 0. -1.
        -11    1    3    3    0    0  0.30004154929E+01 -0.17859713205E+02  0.23245414152E+02  0.29467289123E+02  0.51100000000E-03 0.  1.
         12    1    3    3    0    0 -0.19457335926E+02  0.73850104767E+01 -0.33443668065E+01  0.21078688062E+02  0.00000000000E+00 0. -1.
</event>
<event>
 7    1  0.5634483E-012  0.5930195E+02  0.7816164E-02  0.1266605E+00
        -11   -1    0    0    0    0  0.00000000000E+00  0.00000000000E+00  0.45593999997E+02  0.45594000000E+02  0.51100000000E-03 0.  1.
         11   -1    0    0    0    0 -0.00000000000E+00 -0.00000000000E+00 -0.45593999997E+02  0.45594000000E+02  0.51100000000E-03 0. -1.
    9900012    2    1    2    0    0  0.77693271152E-01 -0.30862131146E+02  0.80151611806E+01  0.59301953147E+02  0.50000016632E+02 0.  0.
         12    1    1    2    0    0 -0.77693271152E-01  0.30862131146E+02 -0.80151611806E+01  0.31886046853E+02  0.00000000000E+00 0. -1.
         11    1    3    3    0    0 -0.50976904365E+01  0.31421452594E+01  0.11259022229E+02  0.12752454918E+02  0.51100000000E-03 0. -1.
        -11    1    3    3    0    0  0.14828671905E+02 -0.46717672320E+01 -0.65332967111E+00  0.15560904840E+02  0.51100000000E-03 0.  1.
        -12    1    3    3    0    0 -0.96532881969E+01 -0.29332509174E+02 -0.25905313772E+01  0.30988593389E+02  0.00000000000E+00 0.  1.
</event>
<event>
 7    1  0.5634483E-012  0.5930186E+02  0.7816164E-02  0.1266605E+00
        -11   -1    0    0    0    0  0.00000000000E+00  0.00000000000E+00  0.45593999997E+02  0.45594000000E+02  0.51100000000E-03 0.  1.
         11   -1    0    0    0    0 -0.00000000000E+00 -0.00000000000E+00 -0.45593999997E+02  0.45594000000E+02  0.51100000000E-03 0. -1.
    9900012    2    1    2    0    0 -0.93312911007E+01  0.17248510704E+02  0.25142424962E+02  0.59301864328E+02  0.49999854647E+02 0.  0.
         12    1    1    2    0    0  0.93312911007E+01 -0.17248510704E+02 -0.25142424962E+02  0.31886135672E+02  0.00000000000E+00 0. -1.
         11    1    3    3    0    0 -0.74603037198E+01 -0.19086165742E+00  0.20638665437E+02  0.21946459191E+02  0.51100000000E-03 0. -1.
        -11    1    3    3    0    0  0.43860737335E+01  0.13426379396E+02  0.17435883200E+02  0.22439147259E+02  0.51100000000E-03 0.  1.
         12    1    3    3    0    0 -0.62570611144E+01  0.40129929648E+01 -0.12932123675E+02  0.14916257877E+02  0.00000000000E+00 0. -1.
</event>
<event>
 7    1  0.5634483E-012  0.5930195E+02  0.7816164E-02  0.1266605E+00
        -11   -1    0    0    0    0  0.00000000000E+00  0.00000000000E+00  0.45593999997E+02  0.45594000000E+02  0.51100000000E-03 0. -1.
         11   -1    0    0    0    0 -0.00000000000E+00 -0.00000000000E+00 -0.45593999997E+02  0.45594000000E+02  0.51100000000E-03 0.  1.
    9900012    2    1    2    0    0 -0.30684312914E+02  0.93054751380E+00  0.86213374240E+01  0.59301946047E+02  0.50000003684E+02 0.  0.
         12    1    1    2    0    0  0.30684312914E+02 -0.93054751380E+00 -0.86213374240E+01  0.31886053953E+02  0.00000000000E+00 0. -1.
         11    1    3    3    0    0  0.48242395388E+01 -0.92684412016E+01  0.15322583321E+02  0.18546127610E+02  0.51100000000E-03 0. -1.
        -11    1    3    3    0    0  0.12227911681E+01  0.22009835567E+01  0.23664767720E+00  0.25289423168E+01  0.51100000000E-03 0.  1.
        -12    1    3    3    0    0 -0.36731343621E+02  0.79980051587E+01 -0.69378935738E+01  0.38226876121E+02  0.00000000000E+00 0.  1.
</event>
<event>
 7    1  0.5634483E-012  0.5930186E+02  0.7816164E-02  0.1266605E+00
        -11   -1    0    0    0    0  0.00000000000E+00  0.00000000000E+00  0.45593999997E+02  0.45594000000E+02  0.51100000000E-03 0. -1.
         11   -1    0    0    0    0 -0.00000000000E+00 -0.00000000000E+00 -0.45593999997E+02  0.45594000000E+02  0.51100000000E-03 0.  1.
    9900012    2    1    2    0    0  0.22728828184E+02  0.12110636610E+02 -0.18800502022E+02  0.59301858402E+02  0.49999843839E+02 0.  0.
         12    1    1    2    0    0 -0.22728828184E+02 -0.12110636610E+02  0.18800502022E+02  0.31886141598E+02  0.00000000000E+00 0. -1.
         11    1    3    3    0    0  0.44854245872E+01  0.75203965067E+01  0.76192006053E+01  0.11607222556E+02  0.51100000000E-03 0. -1.
        -11    1    3    3    0    0  0.28130007439E+02  0.77206442164E+01 -0.21367782982E+02  0.36159200979E+02  0.51100000000E-03 0.  1.
         12    1    3    3    0    0 -0.98866038423E+01 -0.31304041133E+01 -0.50519196462E+01  0.11535434866E+02  0.00000000000E+00 0. -1.
</event>
<event>
 7    1  0.5634483E-012  0.5930190E+02  0.7816164E-02  0.1266605E+00
        -11   -1    0    0    0    0  0.00000000000E+00  0.00000000000E+00  0.45593999997E+02  0.45594000000E+02  0.51100000000E-03 0.  1.
         11   -1    0    0    0    0 -0.00000000000E+00 -0.00000000000E+00 -0.45593999997E+02  0.45594000000E+02  0.51100000000E-03 0. -1.
    9900012    2    1    2    0    0 -0.23101030562E+02  0.16766816000E+02  0.14210547670E+02  0.59301899629E+02  0.49999919027E+02 0.  0.
         12    1    1    2    0    0  0.23101030562E+02 -0.16766816000E+02 -0.14210547670E+02  0.31886100371E+02  0.00000000000E+00 0. -1.
         11    1    3    3    0    0 -0.72669027481E+01 -0.43980464683E+01 -0.14064378545E+01  0.86098058043E+01  0.51100000000E-03 0. -1.
        -11    1    3    3    0    0 -0.27670508235E+02  0.15318281458E+02  0.19460516026E+01  0.31687440571E+02  0.51100000000E-03 0.  1.
        -12    1    3    3    0    0  0.11836380421E+02  0.58465810102E+01  0.13670933922E+02  0.19004653253E+02  0.00000000000E+00 0.  1.
</event>
<event>
 7    1  0.5634483E-012  0.5930193E+02  0.7816164E-02  0.1266605E+00
        -11   -1    0    0    0    0  0.00000000000E+00  0.00000000000E+00  0.45593999997E+02  0.45594000000E+02  0.51100000000E-03 0.  1.
         11   -1    0    0    0    0 -0.00000000000E+00 -0.00000000000E+00 -0.45593999997E+02  0.45594000000E+02  0.51100000000E-03 0. -1.
    9900012    2    1    2    0    0  0.11913170901E+02 -0.19530271988E+02  0.22211854800E+02  0.59301926888E+02  0.49999968741E+02 0.  0.
         12    1    1    2    0    0 -0.11913170901E+02  0.19530271988E+02 -0.22211854800E+02  0.31886073112E+02  0.00000000000E+00 0. -1.
         11    1    3    3    0    0 -0.90793495615E+01 -0.39786153650E+00  0.25419460673E+01  0.94368624199E+01  0.51100000000E-03 0. -1.
        -11    1    3    3    0    0  0.13550734846E+02 -0.44027622538E+01  0.27971946748E+02  0.31391663471E+02  0.51100000000E-03 0.  1.
         12    1    3    3    0    0  0.74417856158E+01 -0.14729648198E+02 -0.83020380156E+01  0.18473400997E+02  0.00000000000E+00 0. -1.
</event>
<event>
 7    1  0.5634483E-012  0.5930191E+02  0.7816164E-02  0.1266605E+00
        -11   -1    0    0    0    0  0.00000000000E+00  0.00000000000E+00  0.45593999997E+02  0.45594000000E+02  0.51100000000E-03 0.  1.
         11   -1    0    0    0    0 -0.00000000000E+00 -0.00000000000E+00 -0.45593999997E+02  0.45594000000E+02  0.51100000000E-03 0. -1.
    9900012    2    1    2    0    0  0.89886534389E+01  0.27203100828E+02  0.13997083986E+02  0.59301906708E+02  0.49999931937E+02 0.  0.
         12    1    1    2    0    0 -0.89886534389E+01 -0.27203100828E+02 -0.13997083986E+02  0.31886093292E+02  0.00000000000E+00 0. -1.
         11    1    3    3    0    0  0.73344391505E+00 -0.59564553468E-01 -0.25392023860E+01  0.26436786738E+01  0.51100000000E-03 0. -1.
        -11    1    3    3    0    0 -0.17771535863E+02  0.34752250490E+01  0.10358722323E+02  0.20861634751E+02  0.51100000000E-03 0.  1.
         12    1    3    3    0    0  0.26026745387E+02  0.23787440333E+02  0.61775640495E+01  0.35796593282E+02  0.00000000000E+00 0. -1.
</event>
<event>
 7    1  0.5634483E-012  0.5930194E+02  0.7816164E-02  0.1266605E+00
        -11   -1    0    0    0    0  0.00000000000E+00  0.00000000000E+00  0.45593999997E+02  0.45594000000E+02  0.51100000000E-03 0. -1.
         11   -1    0    0    0    0 -0.00000000000E+00 -0.00000000000E+00 -0.45593999997E+02  0.45594000000E+02  0.51100000000E-03 0.  1.
    9900012    2    1    2    0    0 -0.88836587419E+01 -0.26691389581E+02 -0.15012360156E+02  0.59301943049E+02  0.49999998215E+02 0.  0.
         12    1    1    2    0    0  0.88836587419E+01  0.26691389581E+02  0.15012360156E+02  0.31886056951E+02  0.00000000000E+00 0. -1.
         11    1    3    3    0    0 -0.13201074828E+01 -0.14532809328E+02 -0.60392304424E+00  0.14605134509E+02  0.51100000000E-03 0. -1.
        -11    1    3    3    0    0  0.38765818169E+01 -0.13142250718E+02 -0.25362723916E+02  0.28827320465E+02  0.51100000000E-03 0.  1.
        -12    1    3    3    0    0 -0.11440133076E+02  0.98367046422E+00  0.10954286804E+02  0.15869488075E+02  0.00000000000E+00 0.  1.
</event>
<event>
 7    1  0.5634483E-012  0.5930188E+02  0.7816164E-02  0.1266605E+00
        -11   -1    0    0    0    0  0.00000000000E+00  0.00000000000E+00  0.45593999997E+02  0.45594000000E+02  0.51100000000E-03 0.  1.
         11   -1    0    0    0    0 -0.00000000000E+00 -0.00000000000E+00 -0.45593999997E+02  0.45594000000E+02  0.51100000000E-03 0. -1.
    9900012    2    1    2    0    0  0.18295060565E+02 -0.26021745149E+02  0.22099997463E+01  0.59301881382E+02  0.49999885748E+02 0.  0.
         12    1    1    2    0    0 -0.18295060565E+02  0.26021745149E+02 -0.22099997463E+01  0.31886118618E+02  0.00000000000E+00 0. -1.
         11    1    3    3    0    0 -0.83365895466E+01 -0.53877997059E+01 -0.79671873503E+01  0.12728047198E+02  0.51100000000E-03 0. -1.
        -11    1    3    3    0    0 -0.40287118800E+01 -0.12898963473E+02  0.55808564437E+01  0.14620524512E+02  0.51100000000E-03 0.  1.
         12    1    3    3    0    0  0.30660361991E+02 -0.77349819700E+01  0.45963306528E+01  0.31953309672E+02  0.00000000000E+00 0. -1.
</event>
<event>
 7    1  0.5634483E-012  0.5930187E+02  0.7816164E-02  0.1266605E+00
        -11   -1    0    0    0    0  0.00000000000E+00  0.00000000000E+00  0.45593999997E+02  0.45594000000E+02  0.51100000000E-03 0.  1.
         11   -1    0    0    0    0 -0.00000000000E+00 -0.00000000000E+00 -0.45593999997E+02  0.45594000000E+02  0.51100000000E-03 0. -1.
    9900012    2    1    2    0    0 -0.34535967722E+01  0.23783065004E+02  0.20956236550E+02  0.59301868814E+02  0.49999862828E+02 0.  0.
         12    1    1    2    0    0  0.34535967722E+01 -0.23783065004E+02 -0.20956236550E+02  0.31886131186E+02  0.00000000000E+00 0. -1.
         11    1    3    3    0    0  0.12071529714E+01 -0.65491981596E+01  0.71996765006E+01  0.98073725740E+01  0.51100000000E-03 0. -1.
        -11    1    3    3    0    0  0.44720753557E+01  0.13963673011E+02  0.24007239587E+02  0.28130609215E+02  0.51100000000E-03 0.  1.
        -12    1    3    3    0    0 -0.91328250993E+01  0.16368590152E+02 -0.10250679537E+02  0.21363887026E+02  0.00000000000E+00 0.  1.
</event>
<event>
 7    1  0.5634483E-012  0.5930195E+02  0.7816164E-02  0.1266605E+00
        -11   -1    0    0    0    0  0.00000000000E+00  0.00000000000E+00  0.45593999997E+02  0.45594000000E+02  0.51100000000E-03 0.  1.
         11   -1    0    0    0    0 -0.00000000000E+00 -0.00000000000E+00 -0.45593999997E+02  0.45594000000E+02  0.51100000000E-03 0. -1.
    9900012    2    1    2    0    0 -0.26198934689E+02 -0.50339971751E+01  0.17464101327E+02  0.59301950674E+02  0.50000012122E+02 0.  0.
         12    1    1    2    0    0  0.26198934689E+02  0.50339971751E+01 -0.17464101327E+02  0.31886049326E+02  0.00000000000E+00 0. -1.
         11    1    3    3    0    0 -0.77242592675E+01 -0.14412486953E+01  0.18634776988E+02  0.20223656758E+02  0.51100000000E-03 0.  1.
        -11    1    3    3    0    0  0.55108092831E+01 -0.10193440385E+02  0.61868765615E+01  0.13135931170E+02  0.51100000000E-03 0. -1.
         12    1    3    3    0    0 -0.23985484705E+02  0.66006919057E+01 -0.73575522219E+01  0.25942362746E+02  0.00000000000E+00 0. -1.
</event>
<event>
 7    1  0.5634483E-012  0.5930188E+02  0.7816164E-02  0.1266605E+00
        -11   -1    0    0    0    0  0.00000000000E+00  0.00000000000E+00  0.45593999997E+02  0.45594000000E+02  0.51100000000E-03 0. -1.
         11   -1    0    0    0    0 -0.00000000000E+00 -0.00000000000E+00 -0.45593999997E+02  0.45594000000E+02  0.51100000000E-03 0.  1.
    9900012    2    1    2    0    0  0.27485508594E+02 -0.11953119207E+02 -0.10880932842E+02  0.59301875416E+02  0.49999874869E+02 0.  0.
         12    1    1    2    0    0 -0.27485508594E+02  0.11953119207E+02  0.10880932842E+02  0.31886124584E+02  0.00000000000E+00 0. -1.
         11    1    3    3    0    0  0.22239430671E+02  0.70107763970E+01  0.85029421124E+01  0.24820219320E+02  0.51100000000E-03 0. -1.
        -11    1    3    3    0    0  0.12253089320E+02 -0.99468307524E+01 -0.16221899205E+02  0.22632446929E+02  0.51100000000E-03 0.  1.
        -12    1    3    3    0    0 -0.70070113973E+01 -0.90170648519E+01 -0.31619757496E+01  0.11849209168E+02  0.00000000000E+00 0.  1.
</event>
<event>
 7    1  0.5634483E-012  0.5930192E+02  0.7816164E-02  0.1266605E+00
        -11   -1    0    0    0    0  0.00000000000E+00  0.00000000000E+00  0.45593999997E+02  0.45594000000E+02  0.51100000000E-03 0.  1.
         11   -1    0    0    0    0 -0.00000000000E+00 -0.00000000000E+00 -0.45593999997E+02  0.45594000000E+02  0.51100000000E-03 0. -1.
    9900012    2    1    2    0    0  0.12180992894E+02 -0.27334564167E+01  0.29340649207E+02  0.59301920471E+02  0.49999957038E+02 0.  0.
         12    1    1    2    0    0 -0.12180992894E+02  0.27334564167E+01 -0.29340649207E+02  0.31886079529E+02  0.00000000000E+00 0. -1.
         11    1    3    3    0    0 -0.40591017319E+01 -0.17379902410E+01  0.67610135258E+01  0.80751607479E+01  0.51100000000E-03 0. -1.
        -11    1    3    3    0    0 -0.10624273424E+02  0.62769164702E+01  0.19701507538E+02  0.23247027029E+02  0.51100000000E-03 0.  1.
         12    1    3    3    0    0  0.26864368049E+02 -0.72723826459E+01  0.28781281430E+01  0.27979732694E+02  0.00000000000E+00 0. -1.
</event>
<event>
 7    1  0.5634483E-012  0.5930195E+02  0.7816164E-02  0.1266605E+00
        -11   -1    0    0    0    0  0.00000000000E+00  0.00000000000E+00  0.45593999997E+02  0.45594000000E+02  0.51100000000E-03 0.  1.
         11   -1    0    0    0    0 -0.00000000000E+00 -0.00000000000E+00 -0.45593999997E+02  0.45594000000E+02  0.51100000000E-03 0. -1.
    9900012    2    1    2    0    0  0.23464810122E+02  0.11973695873E+02 -0.17965341181E+02  0.59301949905E+02  0.50000010718E+02 0.  0.
         12    1    1    2    0    0 -0.23464810122E+02 -0.11973695873E+02  0.17965341181E+02  0.31886050095E+02  0.00000000000E+00 0. -1.
         11    1    3    3    0    0  0.25163477846E+02  0.26957639491E+02 -0.15906381035E+02  0.40161273662E+02  0.51100000000E-03 0. -1.
        -11    1    3    3    0    0 -0.13003845804E+01  0.17830301553E+01  0.20723413041E+00  0.22165610386E+01  0.51100000000E-03 0.  1.
        -12    1    3    3    0    0 -0.39828314383E+00 -0.16766973773E+02 -0.22661942763E+01  0.16924115204E+02  0.00000000000E+00 0.  1.
</event>
<event>
 7    1  0.5634483E-012  0.5930195E+02  0.7816164E-02  0.1266605E+00
        -11   -1    0    0    0    0  0.00000000000E+00  0.00000000000E+00  0.45593999997E+02  0.45594000000E+02  0.51100000000E-03 0. -1.
         11   -1    0    0    0    0 -0.00000000000E+00 -0.00000000000E+00 -0.45593999997E+02  0.45594000000E+02  0.51100000000E-03 0.  1.
    9900012    2    1    2    0    0  0.19390448673E+02 -0.18850538483E+02 -0.16893421358E+02  0.59301953114E+02  0.50000016572E+02 0.  0.
         12    1    1    2    0    0 -0.19390448673E+02  0.18850538483E+02  0.16893421358E+02  0.31886046886E+02  0.00000000000E+00 0. -1.
         11    1    3    3    0    0  0.12128543957E+02 -0.11606860692E+02 -0.98147006595E+01  0.19446057260E+02  0.51100000000E-03 0. -1.
        -11    1    3    3    0    0  0.87358832379E+01 -0.10099775411E+02 -0.21374661522E+02  0.25203120338E+02  0.51100000000E-03 0.  1.
         12    1    3    3    0    0 -0.14739785221E+01  0.28560976197E+01  0.14295940824E+02  0.14652775517E+02  0.00000000000E+00 0. -1.
</event>
<event>
 7    1  0.5634483E-012  0.5930198E+02  0.7816164E-02  0.1266605E+00
        -11   -1    0    0    0    0  0.00000000000E+00  0.00000000000E+00  0.45593999997E+02  0.45594000000E+02  0.51100000000E-03 0. -1.
         11   -1    0    0    0    0 -0.00000000000E+00 -0.00000000000E+00 -0.45593999997E+02  0.45594000000E+02  0.51100000000E-03 0.  1.
    9900012    2    1    2    0    0  0.20722728135E+02 -0.10852890947E+02 -0.21667987962E+02  0.59301977897E+02  0.50000061769E+02 0.  0.
         12    1    1    2    0    0 -0.20722728135E+02  0.10852890947E+02  0.21667987962E+02  0.31886022103E+02  0.00000000000E+00 0. -1.
         11    1    3    3    0    0  0.15026857511E+02 -0.14757769642E+00  0.38622597860E+01  0.15515968444E+02  0.51100000000E-03 0. -1.
        -11    1    3    3    0    0  0.18821741092E+02 -0.20505657997E+01 -0.89681332529E+01  0.20949705777E+02  0.51100000000E-03 0.  1.
        -12    1    3    3    0    0 -0.13125870469E+02 -0.86547474512E+01 -0.16562114495E+02  0.22836303675E+02  0.00000000000E+00 0.  1.
</event>
<event>
 7    1  0.5634483E-012  0.5930193E+02  0.7816164E-02  0.1266605E+00
        -11   -1    0    0    0    0  0.00000000000E+00  0.00000000000E+00  0.45593999997E+02  0.45594000000E+02  0.51100000000E-03 0.  1.
         11   -1    0    0    0    0 -0.00000000000E+00 -0.00000000000E+00 -0.45593999997E+02  0.45594000000E+02  0.51100000000E-03 0. -1.
    9900012    2    1    2    0    0 -0.68715609759E+01  0.30258608701E+02  0.73430147640E+01  0.59301927546E+02  0.49999969941E+02 0.  0.
         12    1    1    2    0    0  0.68715609759E+01 -0.30258608701E+02 -0.73430147640E+01  0.31886072454E+02  0.00000000000E+00 0. -1.
         11    1    3    3    0    0  0.11439438655E+02  0.12057415963E+02 -0.72208188805E+01  0.18121320648E+02  0.51100000000E-03 0. -1.
        -11    1    3    3    0    0 -0.94685336157E+00  0.19963094137E+02  0.29150879936E+01  0.20197014559E+02  0.51100000000E-03 0.  1.
        -12    1    3    3    0    0 -0.17364146270E+02 -0.17619013999E+01  0.11648745651E+02  0.20983592339E+02  0.00000000000E+00 0.  1.
</event>
<event>
 7    1  0.5634483E-012  0.5930194E+02  0.7816164E-02  0.1266605E+00
        -11   -1    0    0    0    0  0.00000000000E+00  0.00000000000E+00  0.45593999997E+02  0.45594000000E+02  0.51100000000E-03 0.  1.
         11   -1    0    0    0    0 -0.00000000000E+00 -0.00000000000E+00 -0.45593999997E+02  0.45594000000E+02  0.51100000000E-03 0. -1.
    9900012    2    1    2    0    0  0.14604226758E+02  0.23276933458E+02 -0.16174725348E+02  0.59301940185E+02  0.49999992992E+02 0.  0.
         12    1    1    2    0    0 -0.14604226758E+02 -0.23276933458E+02  0.16174725348E+02  0.31886059815E+02  0.00000000000E+00 0. -1.
         11    1    3    3    0    0 -0.62823041679E+01  0.27267836426E+01 -0.66349728452E+01  0.95354894793E+01  0.51100000000E-03 0. -1.
        -11    1    3    3    0    0 -0.10070861444E+02  0.50225454483E+01  0.48606159783E+01  0.12258621495E+02  0.51100000000E-03 0.  1.
         12    1    3    3    0    0  0.30957392370E+02  0.15527604367E+02 -0.14400368481E+02  0.37507829211E+02  0.00000000000E+00 0. -1.
</event>
<event>
 7    1  0.5634483E-012  0.5930195E+02  0.7816164E-02  0.1266605E+00
        -11   -1    0    0    0    0  0.00000000000E+00  0.00000000000E+00  0.45593999997E+02  0.45594000000E+02  0.51100000000E-03 0. -1.
         11   -1    0    0    0    0 -0.00000000000E+00 -0.00000000000E+00 -0.45593999997E+02  0.45594000000E+02  0.51100000000E-03 0.  1.
    9900012    2    1    2    0    0 -0.82744837652E+01  0.20166886335E+02 -0.23271223533E+02  0.59301949276E+02  0.50000009572E+02 0.  0.
         12    1    1    2    0    0  0.82744837652E+01 -0.20166886335E+02  0.23271223533E+02  0.31886050724E+02  0.00000000000E+00 0. -1.
         11    1    3    3    0    0  0.71427130521E+01 -0.76807030745E+01  0.22664232251E+01  0.10730714047E+02  0.51100000000E-03 0. -1.
        -11    1    3    3    0    0  0.71010394258E+01  0.10827366475E+02 -0.62028216124E+01  0.14357284629E+02  0.51100000000E-03 0.  1.
        -12    1    3    3    0    0 -0.22518236243E+02  0.17020222935E+02 -0.19334825146E+02  0.34213950600E+02  0.00000000000E+00 0.  1.
</event>
<event>
 7    1  0.5634483E-012  0.5930195E+02  0.7816164E-02  0.1266605E+00
        -11   -1    0    0    0    0  0.00000000000E+00  0.00000000000E+00  0.45593999997E+02  0.45594000000E+02  0.51100000000E-03 0. -1.
         11   -1    0    0    0    0 -0.00000000000E+00 -0.00000000000E+00 -0.45593999997E+02  0.45594000000E+02  0.51100000000E-03 0.  1.
    9900012    2    1    2    0    0  0.13416252191E+02  0.74455306947E+01 -0.27951536784E+02  0.59301950405E+02  0.50000011631E+02 0.  0.
         12    1    1    2    0    0 -0.13416252191E+02 -0.74455306947E+01  0.27951536784E+02  0.31886049595E+02  0.00000000000E+00 0. -1.
         11    1    3    3    0    0  0.43161977598E+01  0.13522417431E+02 -0.91146367944E+01  0.16868963822E+02  0.51100000000E-03 0. -1.
        -11    1    3    3    0    0 -0.40734517261E+01  0.11708861200E+02  0.13578189834E+01  0.12471331613E+02  0.51100000000E-03 0.  1.
        -12    1    3    3    0    0  0.13173506158E+02 -0.17785747936E+02 -0.20194718973E+02  0.29961654970E+02  0.00000000000E+00 0.  1.
</event>
<event>
 7    1  0.5634483E-012  0.5930196E+02  0.7816164E-02  0.1266605E+00
        -11   -1    0    0    0    0  0.00000000000E+00  0.00000000000E+00  0.45593999997E+02  0.45594000000E+02  0.51100000000E-03 0. -1.
         11   -1    0    0    0    0 -0.00000000000E+00 -0.00000000000E+00 -0.45593999997E+02  0.45594000000E+02  0.51100000000E-03 0.  1.
    9900012    2    1    2    0    0 -0.24178174652E+02 -0.20769373685E+02 -0.87682817418E+00  0.59301955397E+02  0.50000020735E+02 0.  0.
         12    1    1    2    0    0  0.24178174652E+02  0.20769373685E+02  0.87682817418E+00  0.31886044603E+02  0.00000000000E+00 0. -1.
         11    1    3    3    0    0  0.32658631781E+01 -0.68945180780E+01 -0.76590344413E+00  0.76672583218E+01  0.51100000000E-03 0. -1.
        -11    1    3    3    0    0 -0.75403889103E+01 -0.12399017917E+02 -0.19166364932E+02  0.24040437916E+02  0.51100000000E-03 0.  1.
         12    1    3    3    0    0 -0.19903648920E+02 -0.14758376896E+01  0.19055440202E+02  0.27594259159E+02  0.00000000000E+00 0. -1.
</event>
<event>
 7    1  0.5634483E-012  0.5930198E+02  0.7816164E-02  0.1266605E+00
        -11   -1    0    0    0    0  0.00000000000E+00  0.00000000000E+00  0.45593999997E+02  0.45594000000E+02  0.51100000000E-03 0. -1.
         11   -1    0    0    0    0 -0.00000000000E+00 -0.00000000000E+00 -0.45593999997E+02  0.45594000000E+02  0.51100000000E-03 0.  1.
    9900012    2    1    2    0    0 -0.19282543284E+02 -0.24449626943E+02  0.68642157539E+01  0.59301981260E+02  0.50000067903E+02 0.  0.
         12    1    1    2    0    0  0.19282543284E+02  0.24449626943E+02 -0.68642157539E+01  0.31886018740E+02  0.00000000000E+00 0. -1.
         11    1    3    3    0    0 -0.42335824418E+01  0.39032411320E+01  0.17017679736E+02  0.17965520741E+02  0.51100000000E-03 0. -1.
        -11    1    3    3    0    0  0.80236151701E+00 -0.21007002839E+02  0.20972253728E+00  0.21023366430E+02  0.51100000000E-03 0.  1.
        -12    1    3    3    0    0 -0.15851322359E+02 -0.73458652365E+01 -0.10363186520E+02  0.20313094089E+02  0.00000000000E+00 0.  1.
</event>
<event>
 7    1  0.5634483E-012  0.5930192E+02  0.7816164E-02  0.1266605E+00
        -11   -1    0    0    0    0  0.00000000000E+00  0.00000000000E+00  0.45593999997E+02  0.45594000000E+02  0.51100000000E-03 0.  1.
         11   -1    0    0    0    0 -0.00000000000E+00 -0.00000000000E+00 -0.45593999997E+02  0.45594000000E+02  0.51100000000E-03 0. -1.
    9900012    2    1    2    0    0  0.50265060371E+01 -0.16978946381E+02  0.26517386683E+02  0.59301918716E+02  0.49999953837E+02 0.  0.
         12    1    1    2    0    0 -0.50265060371E+01  0.16978946381E+02 -0.26517386683E+02  0.31886081284E+02  0.00000000000E+00 0. -1.
         11    1    3    3    0    0 -0.10825461619E+02  0.42305109212E+01  0.27321339481E+01  0.11939530899E+02  0.51100000000E-03 0. -1.
        -11    1    3    3    0    0 -0.73724629028E+01 -0.83204076583E+01  0.16365680025E+02  0.19784283555E+02  0.51100000000E-03 0.  1.
         12    1    3    3    0    0  0.23224430558E+02 -0.12889049644E+02  0.74195727100E+01  0.27578104262E+02  0.00000000000E+00 0. -1.
</event>
<event>
 7    1  0.5634483E-012  0.5930194E+02  0.7816164E-02  0.1266605E+00
        -11   -1    0    0    0    0  0.00000000000E+00  0.00000000000E+00  0.45593999997E+02  0.45594000000E+02  0.51100000000E-03 0. -1.
         11   -1    0    0    0    0 -0.00000000000E+00 -0.00000000000E+00 -0.45593999997E+02  0.45594000000E+02  0.51100000000E-03 0.  1.
    9900012    2    1    2    0    0  0.16730276555E+02 -0.25299965173E+02 -0.98351669223E+01  0.59301938786E+02  0.49999990441E+02 0.  0.
         12    1    1    2    0    0 -0.16730276555E+02  0.25299965173E+02  0.98351669223E+01  0.31886061214E+02  0.00000000000E+00 0. -1.
         11    1    3    3    0    0 -0.34502749491E+01 -0.98293998967E+01 -0.41481849294E+01  0.11212891600E+02  0.51100000000E-03 0. -1.
        -11    1    3    3    0    0 -0.11790853628E+02  0.90151624096E+00 -0.10598576418E+01  0.11872668584E+02  0.51100000000E-03 0.  1.
         12    1    3    3    0    0  0.31971405132E+02 -0.16372081517E+02 -0.46271243510E+01  0.36216378603E+02  0.00000000000E+00 0. -1.
</event>
<event>
 7    1  0.5634483E-012  0.5930190E+02  0.7816164E-02  0.1266605E+00
        -11   -1    0    0    0    0  0.00000000000E+00  0.00000000000E+00  0.45593999997E+02  0.45594000000E+02  0.51100000000E-03 0.  1.
         11   -1    0    0    0    0 -0.00000000000E+00 -0.00000000000E+00 -0.45593999997E+02  0.45594000000E+02  0.51100000000E-03 0. -1.
    9900012    2    1    2    0    0 -0.22004201720E+02 -0.21328431426E+02  0.88111433735E+01  0.59301903845E+02  0.49999926716E+02 0.  0.
         12    1    1    2    0    0  0.22004201720E+02  0.21328431426E+02 -0.88111433735E+01  0.31886096155E+02  0.00000000000E+00 0. -1.
         11    1    3    3    0    0  0.43129121547E+01 -0.25723632119E+00  0.23123033890E+01  0.49004213087E+01  0.51100000000E-03 0. -1.
        -11    1    3    3    0    0 -0.30556170035E+02 -0.21491537192E+02  0.18485284878E+02  0.41680588472E+02  0.51100000000E-03 0.  1.
         12    1    3    3    0    0  0.42390561597E+01  0.42034208710E+00 -0.11986444894E+02  0.12720894064E+02  0.00000000000E+00 0. -1.
</event>
<event>
 7    1  0.5634483E-012  0.5930198E+02  0.7816164E-02  0.1266605E+00
        -11   -1    0    0    0    0  0.00000000000E+00  0.00000000000E+00  0.45593999997E+02  0.45594000000E+02  0.51100000000E-03 0.  1.
         11   -1    0    0    0    0 -0.00000000000E+00 -0.00000000000E+00 -0.45593999997E+02  0.45594000000E+02  0.51100000000E-03 0. -1.
    9900012    2    1    2    0    0  0.26301169691E+02  0.17166138644E+02  0.55036649725E+01  0.59301981572E+02  0.50000068472E+02 0.  0.
         12    1    1    2    0    0 -0.26301169691E+02 -0.17166138644E+02 -0.55036649725E+01  0.31886018428E+02  0.00000000000E+00 0. -1.
         11    1    3    3    0    0 -0.56871064464E+01  0.15026651417E+02  0.14518947820E+02  0.21655098213E+02  0.51100000000E-03 0. -1.
        -11    1    3    3    0    0  0.62076369594E+01 -0.16821356213E+01 -0.96265788162E+01  0.11577363985E+02  0.51100000000E-03 0.  1.
        -12    1    3    3    0    0  0.25780639178E+02  0.38216228475E+01  0.61129596861E+00  0.26069519374E+02  0.00000000000E+00 0.  1.
</event>
<event>
 7    1  0.5634483E-012  0.5930192E+02  0.7816164E-02  0.1266605E+00
        -11   -1    0    0    0    0  0.00000000000E+00  0.00000000000E+00  0.45593999997E+02  0.45594000000E+02  0.51100000000E-03 0. -1.
         11   -1    0    0    0    0 -0.00000000000E+00 -0.00000000000E+00 -0.45593999997E+02  0.45594000000E+02  0.51100000000E-03 0.  1.
    9900012    2    1    2    0    0 -0.24943304343E+02 -0.25543449126E+00 -0.19861729168E+02  0.59301922099E+02  0.49999960007E+02 0.  0.
         12    1    1    2    0    0  0.24943304343E+02  0.25543449126E+00  0.19861729168E+02  0.31886077901E+02  0.00000000000E+00 0. -1.
         11    1    3    3    0    0  0.24570043682E+01  0.37144657189E+01  0.59170056963E+01  0.74057466007E+01  0.51100000000E-03 0. -1.
        -11    1    3    3    0    0 -0.17550362048E+02  0.15340751870E+02 -0.12097085971E+02  0.26262013731E+02  0.51100000000E-03 0.  1.
        -12    1    3    3    0    0 -0.98499466642E+01 -0.19310652081E+02 -0.13681648894E+02  0.25634161768E+02  0.00000000000E+00 0.  1.
</event>
<event>
 7    1  0.5634483E-012  0.5930193E+02  0.7816164E-02  0.1266605E+00
        -11   -1    0    0    0    0  0.00000000000E+00  0.00000000000E+00  0.45593999997E+02  0.45594000000E+02  0.51100000000E-03 0.  1.
         11   -1    0    0    0    0 -0.00000000000E+00 -0.00000000000E+00 -0.45593999997E+02  0.45594000000E+02  0.51100000000E-03 0. -1.
    9900012    2    1    2    0    0  0.28123674419E+02  0.81282654708E+01  0.12637716036E+02  0.59301927351E+02  0.49999969586E+02 0.  0.
         12    1    1    2    0    0 -0.28123674419E+02 -0.81282654708E+01 -0.12637716036E+02  0.31886072649E+02  0.00000000000E+00 0. -1.
         11    1    3    3    0    0  0.26399758035E+02  0.40111184211E+01 -0.27308616810E+00  0.26704135852E+02  0.51100000000E-03 0. -1.
        -11    1    3    3    0    0  0.56560785861E+01  0.10289106277E+02 -0.53667350813E+01  0.12909638982E+02  0.51100000000E-03 0.  1.
        -12    1    3    3    0    0 -0.39321622024E+01 -0.61719592276E+01  0.18277537285E+02  0.19688152517E+02  0.00000000000E+00 0.  1.
</event>
<event>
 7    1  0.5634483E-012  0.5930194E+02  0.7816164E-02  0.1266605E+00
        -11   -1    0    0    0    0  0.00000000000E+00  0.00000000000E+00  0.45593999997E+02  0.45594000000E+02  0.51100000000E-03 0. -1.
         11   -1    0    0    0    0 -0.00000000000E+00 -0.00000000000E+00 -0.45593999997E+02  0.45594000000E+02  0.51100000000E-03 0.  1.
    9900012    2    1    2    0    0 -0.11675965925E+02  0.39473304750E+01 -0.29407677573E+02  0.59301935671E+02  0.49999984759E+02 0.  0.
         12    1    1    2    0    0  0.11675965925E+02 -0.39473304750E+01  0.29407677573E+02  0.31886064329E+02  0.00000000000E+00 0. -1.
         11    1    3    3    0    0  0.42438282084E+01 -0.80499744826E-01 -0.38931086407E+01  0.57595879385E+01  0.51100000000E-03 0. -1.
        -11    1    3    3    0    0 -0.14788512752E+02  0.50035343436E+01 -0.37940451568E+02  0.41026982960E+02  0.51100000000E-03 0.  1.
         12    1    3    3    0    0 -0.11312813817E+01 -0.97570412375E+00  0.12425882636E+02  0.12515364772E+02  0.00000000000E+00 0. -1.
</event>
<event>
 7    1  0.5634483E-012  0.5930199E+02  0.7816164E-02  0.1266605E+00
        -11   -1    0    0    0    0  0.00000000000E+00  0.00000000000E+00  0.45593999997E+02  0.45594000000E+02  0.51100000000E-03 0.  1.
         11   -1    0    0    0    0 -0.00000000000E+00 -0.00000000000E+00 -0.45593999997E+02  0.45594000000E+02  0.51100000000E-03 0. -1.
    9900012    2    1    2    0    0  0.26877591141E+02 -0.97170104741E+01  0.14138326864E+02  0.59301992338E+02  0.50000088106E+02 0.  0.
         12    1    1    2    0    0 -0.26877591141E+02  0.97170104741E+01 -0.14138326864E+02  0.31886007662E+02  0.00000000000E+00 0. -1.
         11    1    3    3    0    0 -0.26653842250E+01  0.29812942577E+01 -0.49938516179E+01  0.63977295004E+01  0.51100000000E-03 0. -1.
        -11    1    3    3    0    0 -0.37115377652E+01 -0.90931143159E+01 -0.55988378462E+01  0.11305185803E+02  0.51100000000E-03 0.  1.
        -12    1    3    3    0    0  0.33254513131E+02 -0.36051904159E+01  0.24731016328E+02  0.41599077035E+02  0.00000000000E+00 0.  1.
</event>
<event>
 7    1  0.5797179E-012  0.5930196E+02  0.7816164E-02  0.1266605E+00
        -11   -1    0    0    0    0  0.00000000000E+00  0.00000000000E+00  0.45593999997E+02  0.45594000000E+02  0.51100000000E-03 0. -1.
         11   -1    0    0    0    0 -0.00000000000E+00 -0.00000000000E+00 -0.45593999997E+02  0.45594000000E+02  0.51100000000E-03 0.  1.
    9900012    2    1    2    0    0  0.57677169816E+01 -0.88918208371E+01 -0.30073050198E+02  0.59301962535E+02  0.50000033754E+02 0.  0.
         12    1    1    2    0    0 -0.57677169816E+01  0.88918208371E+01  0.30073050198E+02  0.31886037465E+02  0.00000000000E+00 0. -1.
         11    1    3    3    0    0  0.77272825629E+01  0.98922808589E+00  0.78429427439E+01  0.11054466028E+02  0.51100000000E-03 0. -1.
        -11    1    3    3    0    0 -0.60830241585E+01  0.79157650740E+01 -0.65206284218E+01  0.11923972278E+02  0.51100000000E-03 0.  1.
        -12    1    3    3    0    0  0.41234585772E+01 -0.17796813997E+02 -0.31395364520E+02  0.36323524229E+02  0.00000000000E+00 0.  1.
</event>
<event>
 7    1  0.5634483E-012  0.5930194E+02  0.7816164E-02  0.1266605E+00
        -11   -1    0    0    0    0  0.00000000000E+00  0.00000000000E+00  0.45593999997E+02  0.45594000000E+02  0.51100000000E-03 0.  1.
         11   -1    0    0    0    0 -0.00000000000E+00 -0.00000000000E+00 -0.45593999997E+02  0.45594000000E+02  0.51100000000E-03 0. -1.
    9900012    2    1    2    0    0 -0.28525737304E+02  0.14242060479E+02  0.40867181534E+00  0.59301937401E+02  0.49999987915E+02 0.  0.
         12    1    1    2    0    0  0.28525737304E+02 -0.14242060479E+02 -0.40867181534E+00  0.31886062599E+02  0.00000000000E+00 0. -1.
         11    1    3    3    0    0  0.33156414603E+00 -0.11849909128E+02  0.46514439361E+01  0.12734449814E+02  0.51100000000E-03 0. -1.
        -11    1    3    3    0    0 -0.87558200733E+01 -0.18248302093E+01  0.58854442035E+01  0.10706672881E+02  0.51100000000E-03 0.  1.
        -12    1    3    3    0    0 -0.20101481376E+02  0.27916799816E+02 -0.10128216324E+02  0.35860814706E+02  0.00000000000E+00 0.  1.
</event>
<event>
 7    1  0.5634483E-012  0.5930193E+02  0.7816164E-02  0.1266605E+00
        -11   -1    0    0    0    0  0.00000000000E+00  0.00000000000E+00  0.45593999997E+02  0.45594000000E+02  0.51100000000E-03 0.  1.
         11   -1    0    0    0    0 -0.00000000000E+00 -0.00000000000E+00 -0.45593999997E+02  0.45594000000E+02  0.51100000000E-03 0. -1.
    9900012    2    1    2    0    0 -0.27370384827E+02  0.20059834259E+01  0.16234509621E+02  0.59301933486E+02  0.49999980775E+02 0.  0.
         12    1    1    2    0    0  0.27370384827E+02 -0.20059834259E+01 -0.16234509621E+02  0.31886066514E+02  0.00000000000E+00 0. -1.
         11    1    3    3    0    0 -0.16359655109E+02  0.69139404805E+01  0.69486133277E+01  0.19071552524E+02  0.51100000000E-03 0. -1.
        -11    1    3    3    0    0 -0.16408013856E+02  0.14597694723E+01  0.20469780829E+02  0.26274812522E+02  0.51100000000E-03 0.  1.
        -12    1    3    3    0    0  0.53972841375E+01 -0.63677265269E+01 -0.11183884536E+02  0.13955568440E+02  0.00000000000E+00 0.  1.
</event>
<event>
 7    1  0.5634483E-012  0.5930197E+02  0.7816164E-02  0.1266605E+00
        -11   -1    0    0    0    0  0.00000000000E+00  0.00000000000E+00  0.45593999997E+02  0.45594000000E+02  0.51100000000E-03 0.  1.
         11   -1    0    0    0    0 -0.00000000000E+00 -0.00000000000E+00 -0.45593999997E+02  0.45594000000E+02  0.51100000000E-03 0. -1.
    9900012    2    1    2    0    0  0.21615817993E+02 -0.76515577720E+01  0.22156915956E+02  0.59301970950E+02  0.50000049101E+02 0.  0.
         12    1    1    2    0    0 -0.21615817993E+02  0.76515577720E+01 -0.22156915956E+02  0.31886029050E+02  0.00000000000E+00 0. -1.
         11    1    3    3    0    0 -0.94419792199E+00  0.66279811391E+01  0.12338862263E+02  0.14038132564E+02  0.51100000000E-03 0. -1.
        -11    1    3    3    0    0 -0.85367888556E+01  0.18685069841E+01 -0.45095019008E+00  0.87505107651E+01  0.51100000000E-03 0.  1.
        -12    1    3    3    0    0  0.31096804771E+02 -0.16148045895E+02  0.10269003883E+02  0.36513327621E+02  0.00000000000E+00 0.  1.
</event>
<event>
 7    1  0.5634483E-012  0.5930194E+02  0.7816164E-02  0.1266605E+00
        -11   -1    0    0    0    0  0.00000000000E+00  0.00000000000E+00  0.45593999997E+02  0.45594000000E+02  0.51100000000E-03 0.  1.
         11   -1    0    0    0    0 -0.00000000000E+00 -0.00000000000E+00 -0.45593999997E+02  0.45594000000E+02  0.51100000000E-03 0. -1.
    9900012    2    1    2    0    0  0.27905206557E+01 -0.63497551703E+01  0.31122570813E+02  0.59301940189E+02  0.49999992999E+02 0.  0.
         12    1    1    2    0    0 -0.27905206557E+01  0.63497551703E+01 -0.31122570813E+02  0.31886059811E+02  0.00000000000E+00 0. -1.
         11    1    3    3    0    0 -0.49050645252E+01  0.24862738892E+01  0.14999090970E+02  0.15975416929E+02  0.51100000000E-03 0. -1.
        -11    1    3    3    0    0  0.62072850614E+01  0.45174943766E+01  0.25703007392E+02  0.26825039283E+02  0.51100000000E-03 0.  1.
         12    1    3    3    0    0  0.14883001195E+01 -0.13353523436E+02 -0.95795275490E+01  0.16501483978E+02  0.00000000000E+00 0. -1.
</event>
<event>
 7    1  0.5634483E-012  0.5930195E+02  0.7816164E-02  0.1266605E+00
        -11   -1    0    0    0    0  0.00000000000E+00  0.00000000000E+00  0.45593999997E+02  0.45594000000E+02  0.51100000000E-03 0.  1.
         11   -1    0    0    0    0 -0.00000000000E+00 -0.00000000000E+00 -0.45593999997E+02  0.45594000000E+02  0.51100000000E-03 0. -1.
    9900012    2    1    2    0    0 -0.44166324020E+01 -0.13054837794E+02  0.28753859529E+02  0.59301954942E+02  0.50000019906E+02 0.  0.
         12    1    1    2    0    0  0.44166324020E+01  0.13054837794E+02 -0.28753859529E+02  0.31886045058E+02  0.00000000000E+00 0. -1.
         11    1    3    3    0    0  0.11340658576E+02 -0.51550505661E+01  0.44027157864E+01  0.13212455860E+02  0.51100000000E-03 0. -1.
        -11    1    3    3    0    0 -0.21605485828E+01  0.12793658451E+02  0.28223334200E+01  0.13278224012E+02  0.51100000000E-03 0.  1.
        -12    1    3    3    0    0 -0.13596742396E+02 -0.20693445679E+02  0.21528810323E+02  0.32811275070E+02  0.00000000000E+00 0.  1.
</event>
<event>
 7    1  0.5634483E-012  0.5930188E+02  0.7816164E-02  0.1266605E+00
        -11   -1    0    0    0    0  0.00000000000E+00  0.00000000000E+00  0.45593999997E+02  0.45594000000E+02  0.51100000000E-03 0.  1.
         11   -1    0    0    0    0 -0.00000000000E+00 -0.00000000000E+00 -0.45593999997E+02  0.45594000000E+02  0.51100000000E-03 0. -1.
    9900012    2    1    2    0    0 -0.18570025729E+02 -0.21477061323E+02  0.14512558040E+02  0.59301884534E+02  0.49999891497E+02 0.  0.
         12    1    1    2    0    0  0.18570025729E+02  0.21477061323E+02 -0.14512558040E+02  0.31886115466E+02  0.00000000000E+00 0. -1.
         11    1    3    3    0    0 -0.73523194257E+01 -0.50766575472E+01 -0.79375360550E+01  0.11951298326E+02  0.51100000000E-03 0. -1.
        -11    1    3    3    0    0 -0.92284514202E+01  0.51181993964E+01 -0.55958547852E+01  0.11944616851E+02  0.51100000000E-03 0.  1.
        -12    1    3    3    0    0 -0.19892548831E+01 -0.21518603173E+02  0.28045948880E+02  0.35405969357E+02  0.00000000000E+00 0.  1.
</event>
<event>
 7    1  0.5634483E-012  0.5930195E+02  0.7816164E-02  0.1266605E+00
        -11   -1    0    0    0    0  0.00000000000E+00  0.00000000000E+00  0.45593999997E+02  0.45594000000E+02  0.51100000000E-03 0. -1.
         11   -1    0    0    0    0 -0.00000000000E+00 -0.00000000000E+00 -0.45593999997E+02  0.45594000000E+02  0.51100000000E-03 0.  1.
    9900012    2    1    2    0    0  0.49274626528E+01 -0.27034578132E+02 -0.16173176885E+02  0.59301953623E+02  0.50000017499E+02 0.  0.
         12    1    1    2    0    0 -0.49274626528E+01  0.27034578132E+02  0.16173176885E+02  0.31886046377E+02  0.00000000000E+00 0. -1.
         11    1    3    3    0    0 -0.12053575321E+02 -0.31467070421E+01  0.59758365655E+01  0.13816695196E+02  0.51100000000E-03 0. -1.
        -11    1    3    3    0    0  0.10180918499E+02 -0.11899917534E+02  0.37893084823E+01  0.16112665758E+02  0.51100000000E-03 0.  1.
        -12    1    3    3    0    0  0.68001194752E+01 -0.11987953556E+02 -0.25938321933E+02  0.29372592668E+02  0.00000000000E+00 0.  1.
</event>
<event>
 7    1  0.5634483E-012  0.5930195E+02  0.7816164E-02  0.1266605E+00
        -11   -1    0    0    0    0  0.00000000000E+00  0.00000000000E+00  0.45593999997E+02  0.45594000000E+02  0.51100000000E-03 0.  1.
         11   -1    0    0    0    0 -0.00000000000E+00 -0.00000000000E+00 -0.45593999997E+02  0.45594000000E+02  0.51100000000E-03 0. -1.
    9900012    2    1    2    0    0 -0.22600483400E+02 -0.12648883825E+02  0.18599573273E+02  0.59301949164E+02  0.50000009367E+02 0.  0.
         12    1    1    2    0    0  0.22600483400E+02  0.12648883825E+02 -0.18599573273E+02  0.31886050836E+02  0.00000000000E+00 0. -1.
         11    1    3    3    0    0 -0.12868021398E+02  0.86585693533E+01 -0.49329015318E+01  0.16275451322E+02  0.51100000000E-03 0. -1.
        -11    1    3    3    0    0 -0.14384415441E+02 -0.85251657964E+00  0.57076536691E+01  0.15498887146E+02  0.51100000000E-03 0.  1.
         12    1    3    3    0    0  0.46519534393E+01 -0.20454936599E+02  0.17824821136E+02  0.27527610696E+02  0.00000000000E+00 0. -1.
</event>
<event>
 7    1  0.5634483E-012  0.5930194E+02  0.7816164E-02  0.1266605E+00
        -11   -1    0    0    0    0  0.00000000000E+00  0.00000000000E+00  0.45593999997E+02  0.45594000000E+02  0.51100000000E-03 0. -1.
         11   -1    0    0    0    0 -0.00000000000E+00 -0.00000000000E+00 -0.45593999997E+02  0.45594000000E+02  0.51100000000E-03 0.  1.
    9900012    2    1    2    0    0  0.28506293063E+01 -0.25164433640E+02  0.19373855103E+02  0.59301936125E+02  0.49999985587E+02 0.  0.
         12    1    1    2    0    0 -0.28506293063E+01  0.25164433640E+02 -0.19373855103E+02  0.31886063875E+02  0.00000000000E+00 0. -1.
         11    1    3    3    0    0 -0.11999436356E+02 -0.47108384591E+01  0.22503683271E+02  0.25934421777E+02  0.51100000000E-03 0. -1.
        -11    1    3    3    0    0 -0.42960546793E+01 -0.11118166203E+02 -0.10547776074E+01  0.11965879056E+02  0.51100000000E-03 0.  1.
         12    1    3    3    0    0  0.19146120342E+02 -0.93354289781E+01 -0.20750505608E+01  0.21401635292E+02  0.00000000000E+00 0. -1.
</event>
<event>
 7    1  0.5634483E-012  0.5930196E+02  0.7816164E-02  0.1266605E+00
        -11   -1    0    0    0    0  0.00000000000E+00  0.00000000000E+00  0.45593999997E+02  0.45594000000E+02  0.51100000000E-03 0.  1.
         11   -1    0    0    0    0 -0.00000000000E+00 -0.00000000000E+00 -0.45593999997E+02  0.45594000000E+02  0.51100000000E-03 0. -1.
    9900012    2    1    2    0    0  0.13789649374E+02  0.25182509492E+00  0.28748937201E+02  0.59301964876E+02  0.50000038021E+02 0.  0.
         12    1    1    2    0    0 -0.13789649374E+02 -0.25182509492E+00 -0.28748937201E+02  0.31886035124E+02  0.00000000000E+00 0. -1.
         11    1    3    3    0    0  0.95603454133E+01  0.14674998076E+02  0.22149246763E+02  0.28237296354E+02  0.51100000000E-03 0. -1.
        -11    1    3    3    0    0 -0.38796404843E+01  0.62250497212E+01  0.48896964794E+01  0.88154402182E+01  0.51100000000E-03 0.  1.
        -12    1    3    3    0    0  0.81089444454E+01 -0.20648222702E+02  0.17099939589E+01  0.22249228303E+02  0.00000000000E+00 0.  1.
</event>
<event>
 7    1  0.5634483E-012  0.5930185E+02  0.7816164E-02  0.1266605E+00
        -11   -1    0    0    0    0  0.00000000000E+00  0.00000000000E+00  0.45593999997E+02  0.45594000000E+02  0.51100000000E-03 0.  1.
         11   -1    0    0    0    0 -0.00000000000E+00 -0.00000000000E+00 -0.45593999997E+02  0.45594000000E+02  0.51100000000E-03 0. -1.
    9900012    2    1    2    0    0  0.20199066509E+02  0.24191902096E+02  0.48452315817E+01  0.59301848085E+02  0.49999825023E+02 0.  0.
         12    1    1    2    0    0 -0.20199066509E+02 -0.24191902096E+02 -0.48452315817E+01  0.31886151915E+02  0.00000000000E+00 0. -1.
         11    1    3    3    0    0  0.58756197272E+01  0.39884073545E+01 -0.19624733491E+01  0.73676049237E+01  0.51100000000E-03 0. -1.
        -11    1    3    3    0    0  0.25481271455E+02  0.81957080740E+01  0.17847714800E+02  0.32171505244E+02  0.51100000000E-03 0.  1.
        -12    1    3    3    0    0 -0.11157824673E+02  0.12007786667E+02 -0.11040009869E+02  0.19762737917E+02  0.00000000000E+00 0.  1.
</event>
<event>
 7    1  0.5634483E-012  0.5930179E+02  0.7816164E-02  0.1266605E+00
        -11   -1    0    0    0    0  0.00000000000E+00  0.00000000000E+00  0.45593999997E+02  0.45594000000E+02  0.51100000000E-03 0.  1.
         11   -1    0    0    0    0 -0.00000000000E+00 -0.00000000000E+00 -0.45593999997E+02  0.45594000000E+02  0.51100000000E-03 0. -1.
    9900012    2    1    2    0    0  0.55787129319E+00  0.31639809253E+02 -0.39168176389E+01  0.59301792788E+02  0.49999724175E+02 0.  0.
         12    1    1    2    0    0 -0.55787129319E+00 -0.31639809253E+02  0.39168176389E+01  0.31886207212E+02  0.00000000000E+00 0. -1.
         11    1    3    3    0    0  0.20653110001E+01  0.94159551091E+01 -0.79495786182E+01  0.12494859768E+02  0.51100000000E-03 0. -1.
        -11    1    3    3    0    0  0.19561224721E+02  0.82108398593E+01  0.20336859223E+00  0.21215578305E+02  0.51100000000E-03 0.  1.
         12    1    3    3    0    0 -0.21068664428E+02  0.14013014284E+02  0.38293923871E+01  0.25591354715E+02  0.00000000000E+00 0. -1.
</event>
<event>
 7    1  0.5634483E-012  0.5930198E+02  0.7816164E-02  0.1266605E+00
        -11   -1    0    0    0    0  0.00000000000E+00  0.00000000000E+00  0.45593999997E+02  0.45594000000E+02  0.51100000000E-03 0.  1.
         11   -1    0    0    0    0 -0.00000000000E+00 -0.00000000000E+00 -0.45593999997E+02  0.45594000000E+02  0.51100000000E-03 0. -1.
    9900012    2    1    2    0    0  0.18575171002E+02  0.99865449395E+01  0.23915484290E+02  0.59301977256E+02  0.50000060601E+02 0.  0.
         12    1    1    2    0    0 -0.18575171002E+02 -0.99865449395E+01 -0.23915484290E+02  0.31886022744E+02  0.00000000000E+00 0. -1.
         11    1    3    3    0    0 -0.68760627832E+01  0.38403026632E+00  0.10372680084E+02  0.12450711266E+02  0.51100000000E-03 0. -1.
        -11    1    3    3    0    0 -0.13624027897E+01  0.11359210121E+02  0.16218118421E+02  0.19847296071E+02  0.51100000000E-03 0.  1.
        -12    1    3    3    0    0  0.26813636575E+02 -0.17566954482E+01 -0.26753142145E+01  0.27003969920E+02  0.00000000000E+00 0.  1.
</event>
<event>
 7    1  0.5634483E-012  0.5930203E+02  0.7816164E-02  0.1266604E+00
        -11   -1    0    0    0    0  0.00000000000E+00  0.00000000000E+00  0.45593999997E+02  0.45594000000E+02  0.51100000000E-03 0. -1.
         11   -1    0    0    0    0 -0.00000000000E+00 -0.00000000000E+00 -0.45593999997E+02  0.45594000000E+02  0.51100000000E-03 0.  1.
    9900012    2    1    2    0    0  0.24868896617E+02 -0.19812780648E+02 -0.23888500228E+01  0.59302032862E+02  0.50000162011E+02 0.  0.
         12    1    1    2    0    0 -0.24868896617E+02  0.19812780648E+02  0.23888500228E+01  0.31885967138E+02  0.00000000000E+00 0. -1.
         11    1    3    3    0    0  0.85310973412E+01 -0.12161839588E+02  0.16250046332E+02  0.22017129015E+02  0.51100000000E-03 0. -1.
        -11    1    3    3    0    0  0.46819613470E+01  0.71952584567E+01  0.25043425511E+01  0.89422725405E+01  0.51100000000E-03 0.  1.
        -12    1    3    3    0    0  0.11655837928E+02 -0.14846199517E+02 -0.21143238906E+02  0.28342631306E+02  0.00000000000E+00 0.  1.
</event>
<event>
 7    1  0.5634483E-012  0.5930193E+02  0.7816164E-02  0.1266605E+00
        -11   -1    0    0    0    0  0.00000000000E+00  0.00000000000E+00  0.45593999997E+02  0.45594000000E+02  0.51100000000E-03 0.  1.
         11   -1    0    0    0    0 -0.00000000000E+00 -0.00000000000E+00 -0.45593999997E+02  0.45594000000E+02  0.51100000000E-03 0. -1.
    9900012    2    1    2    0    0 -0.26094417352E+02  0.16169330027E+02  0.86229637082E+01  0.59301931669E+02  0.49999977461E+02 0.  0.
         12    1    1    2    0    0  0.26094417352E+02 -0.16169330027E+02 -0.86229637082E+01  0.31886068331E+02  0.00000000000E+00 0. -1.
         11    1    3    3    0    0 -0.22380816829E+01 -0.59396558963E+01 -0.79763402405E+01  0.10193651244E+02  0.51100000000E-03 0. -1.
        -11    1    3    3    0    0 -0.87487232659E+01 -0.70797463923E+01  0.11057599649E+02  0.15777625867E+02  0.51100000000E-03 0.  1.
        -12    1    3    3    0    0 -0.15107612403E+02  0.29188732316E+02  0.55417043000E+01  0.33330654558E+02  0.00000000000E+00 0.  1.
</event>
<event>
 7    1  0.5634483E-012  0.5930194E+02  0.7816164E-02  0.1266605E+00
        -11   -1    0    0    0    0  0.00000000000E+00  0.00000000000E+00  0.45593999997E+02  0.45594000000E+02  0.51100000000E-03 0. -1.
         11   -1    0    0    0    0 -0.00000000000E+00 -0.00000000000E+00 -0.45593999997E+02  0.45594000000E+02  0.51100000000E-03 0.  1.
    9900012    2    1    2    0    0 -0.72414756432E+01  0.25018413909E+02 -0.18394583294E+02  0.59301941940E+02  0.49999996193E+02 0.  0.
         12    1    1    2    0    0  0.72414756432E+01 -0.25018413909E+02  0.18394583294E+02  0.31886058060E+02  0.00000000000E+00 0. -1.
         11    1    3    3    0    0 -0.19024252301E+02  0.10521706986E+02  0.59755612050E+01  0.22546304032E+02  0.51100000000E-03 0.  1.
        -11    1    3    3    0    0  0.45588129248E+01  0.12725309893E+02 -0.26199700869E+01  0.13768824593E+02  0.51100000000E-03 0. -1.
        -12    1    3    3    0    0  0.72239637333E+01  0.17713970304E+01 -0.21750174412E+02  0.22986813316E+02  0.00000000000E+00 0.  1.
</event>
<event>
 7    1  0.5634483E-012  0.5930233E+02  0.7816164E-02  0.1266603E+00
        -11   -1    0    0    0    0  0.00000000000E+00  0.00000000000E+00  0.45593999997E+02  0.45594000000E+02  0.51100000000E-03 0. -1.
         11   -1    0    0    0    0 -0.00000000000E+00 -0.00000000000E+00 -0.45593999997E+02  0.45594000000E+02  0.51100000000E-03 0.  1.
    9900012    2    1    2    0    0 -0.27158529557E+02 -0.77103918351E+01 -0.14820930206E+02  0.59302331713E+02  0.50000707040E+02 0.  0.
         12    1    1    2    0    0  0.27158529557E+02  0.77103918351E+01  0.14820930206E+02  0.31885668287E+02  0.00000000000E+00 0. -1.
         11    1    3    3    0    0 -0.18946385345E+02  0.13344733503E+02  0.71953082277E+00  0.23185451360E+02  0.51100000000E-03 0. -1.
        -11    1    3    3    0    0 -0.11339393911E+02 -0.13867274565E+02  0.86586868485E+00  0.17934126323E+02  0.51100000000E-03 0.  1.
         12    1    3    3    0    0  0.31272496999E+01 -0.71878507732E+01 -0.16406329714E+02  0.18182754030E+02  0.00000000000E+00 0. -1.
</event>
<event>
 7    1  0.5634483E-012  0.5930195E+02  0.7816164E-02  0.1266605E+00
        -11   -1    0    0    0    0  0.00000000000E+00  0.00000000000E+00  0.45593999997E+02  0.45594000000E+02  0.51100000000E-03 0. -1.
         11   -1    0    0    0    0 -0.00000000000E+00 -0.00000000000E+00 -0.45593999997E+02  0.45594000000E+02  0.51100000000E-03 0.  1.
    9900012    2    1    2    0    0 -0.26755545653E+01 -0.11310547442E+02 -0.29692309987E+02  0.59301947438E+02  0.50000006219E+02 0.  0.
         12    1    1    2    0    0  0.26755545653E+01  0.11310547442E+02  0.29692309987E+02  0.31886052562E+02  0.00000000000E+00 0. -1.
         11    1    3    3    0    0  0.23429918705E+01 -0.28827082912E+01  0.93239955030E+01  0.10036757963E+02  0.51100000000E-03 0. -1.
        -11    1    3    3    0    0 -0.12422819869E+02  0.60155315788E+01 -0.19298658291E+02  0.23726594483E+02  0.51100000000E-03 0.  1.
         12    1    3    3    0    0  0.74042734332E+01 -0.14443370729E+02 -0.19717647199E+02  0.25538594992E+02  0.00000000000E+00 0. -1.
</event>
<event>
 7    1  0.5634483E-012  0.5930196E+02  0.7816164E-02  0.1266605E+00
        -11   -1    0    0    0    0  0.00000000000E+00  0.00000000000E+00  0.45593999997E+02  0.45594000000E+02  0.51100000000E-03 0.  1.
         11   -1    0    0    0    0 -0.00000000000E+00 -0.00000000000E+00 -0.45593999997E+02  0.45594000000E+02  0.51100000000E-03 0. -1.
    9900012    2    1    2    0    0 -0.11525031438E+02  0.24847007627E+02  0.16325416754E+02  0.59301962776E+02  0.50000034192E+02 0.  0.
         12    1    1    2    0    0  0.11525031438E+02 -0.24847007627E+02 -0.16325416754E+02  0.31886037224E+02  0.00000000000E+00 0. -1.
         11    1    3    3    0    0 -0.23966168159E+02  0.19332425324E+01  0.67537960637E+01  0.24974555140E+02  0.51100000000E-03 0. -1.
        -11    1    3    3    0    0  0.45257262111E+01  0.15775972826E+01  0.10509712477E+02  0.11550976908E+02  0.51100000000E-03 0.  1.
        -12    1    3    3    0    0  0.79154105102E+01  0.21336167812E+02 -0.93809178705E+00  0.22776430727E+02  0.00000000000E+00 0.  1.
</event>
<event>
 7    1  0.5634483E-012  0.5930196E+02  0.7816164E-02  0.1266605E+00
        -11   -1    0    0    0    0  0.00000000000E+00  0.00000000000E+00  0.45593999997E+02  0.45594000000E+02  0.51100000000E-03 0.  1.
         11   -1    0    0    0    0 -0.00000000000E+00 -0.00000000000E+00 -0.45593999997E+02  0.45594000000E+02  0.51100000000E-03 0. -1.
    9900012    2    1    2    0    0  0.28162044924E+02  0.61411769112E+01  0.13634691410E+02  0.59301958571E+02  0.50000026523E+02 0.  0.
         12    1    1    2    0    0 -0.28162044924E+02 -0.61411769112E+01 -0.13634691410E+02  0.31886041429E+02  0.00000000000E+00 0. -1.
         11    1    3    3    0    0 -0.67239014313E+01  0.14518035033E+01  0.10558251511E+02  0.12601399093E+02  0.51100000000E-03 0. -1.
        -11    1    3    3    0    0  0.10080701709E+02  0.38753649473E+00  0.15603458985E+02  0.18580599130E+02  0.51100000000E-03 0.  1.
         12    1    3    3    0    0  0.24805244647E+02  0.43018369132E+01 -0.12527019085E+02  0.28119960348E+02  0.00000000000E+00 0. -1.
</event>
<event>
 7    1  0.5634483E-012  0.5930196E+02  0.7816164E-02  0.1266605E+00
        -11   -1    0    0    0    0  0.00000000000E+00  0.00000000000E+00  0.45593999997E+02  0.45594000000E+02  0.51100000000E-03 0. -1.
         11   -1    0    0    0    0 -0.00000000000E+00 -0.00000000000E+00 -0.45593999997E+02  0.45594000000E+02  0.51100000000E-03 0.  1.
    9900012    2    1    2    0    0 -0.24434987530E+02  0.96683631325E+01 -0.18060280105E+02  0.59301959500E+02  0.50000028218E+02 0.  0.
         12    1    1    2    0    0  0.24434987530E+02 -0.96683631325E+01  0.18060280105E+02  0.31886040500E+02  0.00000000000E+00 0. -1.
         11    1    3    3    0    0 -0.13344263839E+02  0.97267534121E+01  0.36203330120E+00  0.16516966359E+02  0.51100000000E-03 0. -1.
        -11    1    3    3    0    0 -0.59649169867E+01  0.98205264465E+01  0.80759424952E+01  0.14044351953E+02  0.51100000000E-03 0.  1.
        -12    1    3    3    0    0 -0.51258067046E+01 -0.98789167260E+01 -0.26498255902E+02  0.28740641188E+02  0.00000000000E+00 0.  1.
</event>
<event>
 7    1  0.5634483E-012  0.5930189E+02  0.7816164E-02  0.1266605E+00
        -11   -1    0    0    0    0  0.00000000000E+00  0.00000000000E+00  0.45593999997E+02  0.45594000000E+02  0.51100000000E-03 0. -1.
         11   -1    0    0    0    0 -0.00000000000E+00 -0.00000000000E+00 -0.45593999997E+02  0.45594000000E+02  0.51100000000E-03 0.  1.
    9900012    2    1    2    0    0 -0.31519081204E+01 -0.25206947002E+02 -0.19271715570E+02  0.59301894516E+02  0.49999909703E+02 0.  0.
         12    1    1    2    0    0  0.31519081204E+01  0.25206947002E+02  0.19271715570E+02  0.31886105484E+02  0.00000000000E+00 0. -1.
         11    1    3    3    0    0  0.95429271161E+00  0.86979362231E+01  0.33502270539E+00  0.87565409606E+01  0.51100000000E-03 0. -1.
        -11    1    3    3    0    0  0.98206502774E+01 -0.17818385600E+02  0.17218770690E+01  0.20418249145E+02  0.51100000000E-03 0.  1.
         12    1    3    3    0    0 -0.13926851109E+02 -0.16086497625E+02 -0.21328615344E+02  0.30127104410E+02  0.00000000000E+00 0. -1.
</event>
<event>
 7    1  0.5634483E-012  0.5930194E+02  0.7816164E-02  0.1266605E+00
        -11   -1    0    0    0    0  0.00000000000E+00  0.00000000000E+00  0.45593999997E+02  0.45594000000E+02  0.51100000000E-03 0. -1.
         11   -1    0    0    0    0 -0.00000000000E+00 -0.00000000000E+00 -0.45593999997E+02  0.45594000000E+02  0.51100000000E-03 0.  1.
    9900012    2    1    2    0    0  0.28681963663E+02 -0.10627637047E+02 -0.90066057478E+01  0.59301942610E+02  0.49999997415E+02 0.  0.
         12    1    1    2    0    0 -0.28681963663E+02  0.10627637047E+02  0.90066057478E+01  0.31886057390E+02  0.00000000000E+00 0. -1.
         11    1    3    3    0    0  0.74372681131E+01 -0.86951574859E+01 -0.92856399730E+01  0.14735733123E+02  0.51100000000E-03 0.  1.
        -11    1    3    3    0    0  0.15117362398E+02  0.87201409336E+01  0.16633535087E+02  0.24109126768E+02  0.51100000000E-03 0. -1.
         12    1    3    3    0    0  0.61273331521E+01 -0.10652620495E+02 -0.16354500861E+02  0.20457082720E+02  0.00000000000E+00 0. -1.
</event>
<event>
 7    1  0.5634483E-012  0.5930194E+02  0.7816164E-02  0.1266605E+00
        -11   -1    0    0    0    0  0.00000000000E+00  0.00000000000E+00  0.45593999997E+02  0.45594000000E+02  0.51100000000E-03 0. -1.
         11   -1    0    0    0    0 -0.00000000000E+00 -0.00000000000E+00 -0.45593999997E+02  0.45594000000E+02  0.51100000000E-03 0.  1.
    9900012    2    1    2    0    0 -0.41119754865E+01 -0.14653073041E+01 -0.31585839088E+02  0.59301941937E+02  0.49999996187E+02 0.  0.
         12    1    1    2    0    0  0.41119754865E+01  0.14653073041E+01  0.31585839088E+02  0.31886058063E+02  0.00000000000E+00 0. -1.
         11    1    3    3    0    0  0.93483205456E+01  0.11856325496E+02 -0.58342799437E+01  0.16186487389E+02  0.51100000000E-03 0. -1.
        -11    1    3    3    0    0  0.70091940597E+01  0.32839460077E+01 -0.30177557356E+01  0.83078247869E+01  0.51100000000E-03 0.  1.
         12    1    3    3    0    0 -0.20469490092E+02 -0.16605578808E+02 -0.22733803409E+02  0.34807629761E+02  0.00000000000E+00 0. -1.
</event>
<event>
 7    1  0.5634483E-012  0.5930194E+02  0.7816164E-02  0.1266605E+00
        -11   -1    0    0    0    0  0.00000000000E+00  0.00000000000E+00  0.45593999997E+02  0.45594000000E+02  0.51100000000E-03 0. -1.
         11   -1    0    0    0    0 -0.00000000000E+00 -0.00000000000E+00 -0.45593999997E+02  0.45594000000E+02  0.51100000000E-03 0.  1.
    9900012    2    1    2    0    0  0.30364503125E+02  0.22907416550E+01  0.94588752383E+01  0.59301939281E+02  0.49999991344E+02 0.  0.
         12    1    1    2    0    0 -0.30364503125E+02 -0.22907416550E+01 -0.94588752383E+01  0.31886060719E+02  0.00000000000E+00 0. -1.
         11    1    3    3    0    0  0.22104390112E+02 -0.18023427245E+01  0.24603427358E+02  0.33123724723E+02  0.51100000000E-03 0. -1.
        -11    1    3    3    0    0 -0.89974826002E+00 -0.29741893715E+01  0.32190057050E+01  0.44740750261E+01  0.51100000000E-03 0.  1.
        -12    1    3    3    0    0  0.91598612735E+01  0.70672737510E+01 -0.18363557825E+02  0.21704139532E+02  0.00000000000E+00 0.  1.
</event>
<event>
 7    1  0.5634483E-012  0.5930193E+02  0.7816164E-02  0.1266605E+00
        -11   -1    0    0    0    0  0.00000000000E+00  0.00000000000E+00  0.45593999997E+02  0.45594000000E+02  0.51100000000E-03 0. -1.
         11   -1    0    0    0    0 -0.00000000000E+00 -0.00000000000E+00 -0.45593999997E+02  0.45594000000E+02  0.51100000000E-03 0.  1.
    9900012    2    1    2    0    0 -0.25133305991E+02  0.14065593722E+02  0.13682005601E+02  0.59301932917E+02  0.49999979737E+02 0.  0.
         12    1    1    2    0    0  0.25133305991E+02 -0.14065593722E+02 -0.13682005601E+02  0.31886067083E+02  0.00000000000E+00 0. -1.
         11    1    3    3    0    0  0.22164230070E+01 -0.43218428375E+01  0.72301859742E+00  0.49105613336E+01  0.51100000000E-03 0. -1.
        -11    1    3    3    0    0 -0.90979477686E+01  0.71897596788E+01 -0.15135490503E+02  0.19066944456E+02  0.51100000000E-03 0.  1.
        -12    1    3    3    0    0 -0.18251781229E+02  0.11197676880E+02  0.28094477507E+02  0.35324427128E+02  0.00000000000E+00 0.  1.
</event>
<event>
 7    1  0.5634483E-012  0.5930187E+02  0.7816164E-02  0.1266605E+00
        -11   -1    0    0    0    0  0.00000000000E+00  0.00000000000E+00  0.45593999997E+02  0.45594000000E+02  0.51100000000E-03 0. -1.
         11   -1    0    0    0    0 -0.00000000000E+00 -0.00000000000E+00 -0.45593999997E+02  0.45594000000E+02  0.51100000000E-03 0.  1.
    9900012    2    1    2    0    0  0.21911211657E+02  0.22513763629E+02 -0.54547847979E+01  0.59301867807E+02  0.49999860991E+02 0.  0.
         12    1    1    2    0    0 -0.21911211657E+02 -0.22513763629E+02  0.54547847979E+01  0.31886132193E+02  0.00000000000E+00 0. -1.
         11    1    3    3    0    0 -0.39370592746E+01  0.28625975558E+01  0.14063587338E+02  0.14882183629E+02  0.51100000000E-03 0. -1.
        -11    1    3    3    0    0  0.23601999990E+01  0.27319112430E+01  0.52164701075E+01  0.63439296747E+01  0.51100000000E-03 0.  1.
        -12    1    3    3    0    0  0.23488070933E+02  0.16919254831E+02 -0.24734842243E+02  0.38075754503E+02  0.00000000000E+00 0.  1.
</event>
<event>
 7    1  0.5634483E-012  0.5930196E+02  0.7816164E-02  0.1266605E+00
        -11   -1    0    0    0    0  0.00000000000E+00  0.00000000000E+00  0.45593999997E+02  0.45594000000E+02  0.51100000000E-03 0. -1.
         11   -1    0    0    0    0 -0.00000000000E+00 -0.00000000000E+00 -0.45593999997E+02  0.45594000000E+02  0.51100000000E-03 0.  1.
    9900012    2    1    2    0    0  0.54244477330E+01  0.22776759161E+02 -0.21645186412E+02  0.59301960956E+02  0.50000030873E+02 0.  0.
         12    1    1    2    0    0 -0.54244477330E+01 -0.22776759161E+02  0.21645186412E+02  0.31886039044E+02  0.00000000000E+00 0. -1.
         11    1    3    3    0    0  0.14529483697E+01  0.17606943603E+02 -0.30634643083E+02  0.35363779197E+02  0.51100000000E-03 0.  1.
        -11    1    3    3    0    0  0.71502337255E+01  0.86544245181E+01 -0.25150256534E+01  0.11504358320E+02  0.51100000000E-03 0. -1.
         12    1    3    3    0    0 -0.31787343621E+01 -0.34846089606E+01  0.11504482324E+02  0.12433823438E+02  0.00000000000E+00 0. -1.
</event>
<event>
 7    1  0.5634483E-012  0.5930196E+02  0.7816164E-02  0.1266605E+00
        -11   -1    0    0    0    0  0.00000000000E+00  0.00000000000E+00  0.45593999997E+02  0.45594000000E+02  0.51100000000E-03 0.  1.
         11   -1    0    0    0    0 -0.00000000000E+00 -0.00000000000E+00 -0.45593999997E+02  0.45594000000E+02  0.51100000000E-03 0. -1.
    9900012    2    1    2    0    0 -0.79087125939E+01 -0.11664731874E+02  0.28602553539E+02  0.59301956446E+02  0.50000022648E+02 0.  0.
         12    1    1    2    0    0  0.79087125939E+01  0.11664731874E+02 -0.28602553539E+02  0.31886043554E+02  0.00000000000E+00 0. -1.
         11    1    3    3    0    0 -0.43098461304E+01 -0.82715705517E+01 -0.28833317367E+01  0.97625434813E+01  0.51100000000E-03 0. -1.
        -11    1    3    3    0    0  0.10468843952E+02 -0.11351426198E+02  0.29444827351E+02  0.33248299632E+02  0.51100000000E-03 0.  1.
         12    1    3    3    0    0 -0.14067710415E+02  0.79582648756E+01  0.20410579245E+01  0.16291113332E+02  0.00000000000E+00 0. -1.
</event>
<event>
 7    1  0.5634483E-012  0.5930194E+02  0.7816164E-02  0.1266605E+00
        -11   -1    0    0    0    0  0.00000000000E+00  0.00000000000E+00  0.45593999997E+02  0.45594000000E+02  0.51100000000E-03 0.  1.
         11   -1    0    0    0    0 -0.00000000000E+00 -0.00000000000E+00 -0.45593999997E+02  0.45594000000E+02  0.51100000000E-03 0. -1.
    9900012    2    1    2    0    0  0.31652230917E+02  0.19625708095E+01  0.33174877067E+01  0.59301935161E+02  0.49999983830E+02 0.  0.
         12    1    1    2    0    0 -0.31652230917E+02 -0.19625708095E+01 -0.33174877067E+01  0.31886064839E+02  0.00000000000E+00 0. -1.
         11    1    3    3    0    0  0.30428630015E+02  0.21873703510E+01 -0.19944948434E+01  0.30572277043E+02  0.51100000000E-03 0.  1.
        -11    1    3    3    0    0  0.10273129057E+02 -0.72432170631E+01  0.10287868501E+02  0.16243202043E+02  0.51100000000E-03 0. -1.
         12    1    3    3    0    0 -0.90495281549E+01  0.70184175215E+01 -0.49758859512E+01  0.12486456076E+02  0.00000000000E+00 0. -1.
</event>
<event>
 7    1  0.5634483E-012  0.5930194E+02  0.7816164E-02  0.1266605E+00
        -11   -1    0    0    0    0  0.00000000000E+00  0.00000000000E+00  0.45593999997E+02  0.45594000000E+02  0.51100000000E-03 0.  1.
         11   -1    0    0    0    0 -0.00000000000E+00 -0.00000000000E+00 -0.45593999997E+02  0.45594000000E+02  0.51100000000E-03 0. -1.
    9900012    2    1    2    0    0  0.43637590903E+01 -0.28796258726E+02 -0.12978978328E+02  0.59301940531E+02  0.49999993623E+02 0.  0.
         12    1    1    2    0    0 -0.43637590903E+01  0.28796258726E+02  0.12978978328E+02  0.31886059469E+02  0.00000000000E+00 0. -1.
         11    1    3    3    0    0 -0.56201153470E+01  0.73947294095E+01 -0.29396422685E+01  0.97421361354E+01  0.51100000000E-03 0. -1.
        -11    1    3    3    0    0  0.14180125442E+02 -0.12510436095E+02 -0.16013505748E+02  0.24779413541E+02  0.51100000000E-03 0.  1.
         12    1    3    3    0    0 -0.41962510050E+01 -0.23680552041E+02  0.59741696887E+01  0.24780390855E+02  0.00000000000E+00 0. -1.
</event>
<event>
 7    1  0.5634483E-012  0.5930198E+02  0.7816164E-02  0.1266605E+00
        -11   -1    0    0    0    0  0.00000000000E+00  0.00000000000E+00  0.45593999997E+02  0.45594000000E+02  0.51100000000E-03 0. -1.
         11   -1    0    0    0    0 -0.00000000000E+00 -0.00000000000E+00 -0.45593999997E+02  0.45594000000E+02  0.51100000000E-03 0.  1.
    9900012    2    1    2    0    0  0.31834496427E+02  0.80781593579E-01 -0.18100983612E+01  0.59301981991E+02  0.50000069235E+02 0.  0.
         12    1    1    2    0    0 -0.31834496427E+02 -0.80781593579E-01  0.18100983612E+01  0.31886018009E+02  0.00000000000E+00 0. -1.
         11    1    3    3    0    0  0.33374420110E+02  0.14527648321E+02 -0.33469479523E-01  0.36399252793E+02  0.51100000000E-03 0.  1.
        -11    1    3    3    0    0 -0.87755511869E+01 -0.32028468781E+01 -0.18912771957E+01  0.95312882891E+01  0.51100000000E-03 0. -1.
        -12    1    3    3    0    0  0.72356275035E+01 -0.11244019849E+02  0.11464831403E+00  0.13371440908E+02  0.00000000000E+00 0.  1.
</event>
<event>
 7    1  0.5634483E-012  0.5930189E+02  0.7816164E-02  0.1266605E+00
        -11   -1    0    0    0    0  0.00000000000E+00  0.00000000000E+00  0.45593999997E+02  0.45594000000E+02  0.51100000000E-03 0.  1.
         11   -1    0    0    0    0 -0.00000000000E+00 -0.00000000000E+00 -0.45593999997E+02  0.45594000000E+02  0.51100000000E-03 0. -1.
    9900012    2    1    2    0    0 -0.16777961523E+02 -0.37074870267E+01  0.26860354092E+02  0.59301888997E+02  0.49999899638E+02 0.  0.
         12    1    1    2    0    0  0.16777961523E+02  0.37074870267E+01 -0.26860354092E+02  0.31886111003E+02  0.00000000000E+00 0. -1.
         11    1    3    3    0    0 -0.68786735730E+01  0.12996498690E+02 -0.58851210663E+01  0.15838553550E+02  0.51100000000E-03 0. -1.
        -11    1    3    3    0    0  0.37316930412E+01 -0.65290721891E+01  0.11879490974E+01  0.76135103548E+01  0.51100000000E-03 0.  1.
        -12    1    3    3    0    0 -0.13630980991E+02 -0.10174913528E+02  0.31557526061E+02  0.35849825093E+02  0.00000000000E+00 0.  1.
</event>
<event>
 7    1  0.5634483E-012  0.5930195E+02  0.7816164E-02  0.1266605E+00
        -11   -1    0    0    0    0  0.00000000000E+00  0.00000000000E+00  0.45593999997E+02  0.45594000000E+02  0.51100000000E-03 0.  1.
         11   -1    0    0    0    0 -0.00000000000E+00 -0.00000000000E+00 -0.45593999997E+02  0.45594000000E+02  0.51100000000E-03 0. -1.
    9900012    2    1    2    0    0 -0.15374237569E+01  0.13052914163E+02  0.29051297812E+02  0.59301950628E+02  0.50000012038E+02 0.  0.
         12    1    1    2    0    0  0.15374237569E+01 -0.13052914163E+02 -0.29051297812E+02  0.31886049372E+02  0.00000000000E+00 0. -1.
         11    1    3    3    0    0 -0.58229680993E+01  0.18289063615E+01 -0.12634649775E+01  0.62328324200E+01  0.51100000000E-03 0. -1.
        -11    1    3    3    0    0 -0.13997224583E+02 -0.78973595497E+01  0.17205125475E+02  0.23543723724E+02  0.51100000000E-03 0.  1.
        -12    1    3    3    0    0  0.18282768926E+02  0.19121367351E+02  0.13109637314E+02  0.29525394485E+02  0.00000000000E+00 0.  1.
</event>
<event>
 7    1  0.5634483E-012  0.5930194E+02  0.7816164E-02  0.1266605E+00
        -11   -1    0    0    0    0  0.00000000000E+00  0.00000000000E+00  0.45593999997E+02  0.45594000000E+02  0.51100000000E-03 0.  1.
         11   -1    0    0    0    0 -0.00000000000E+00 -0.00000000000E+00 -0.45593999997E+02  0.45594000000E+02  0.51100000000E-03 0. -1.
    9900012    2    1    2    0    0 -0.10619864007E+02  0.45054982902E+01  0.29726082176E+02  0.59301937404E+02  0.49999987919E+02 0.  0.
         12    1    1    2    0    0  0.10619864007E+02 -0.45054982902E+01 -0.29726082176E+02  0.31886062596E+02  0.00000000000E+00 0. -1.
         11    1    3    3    0    0 -0.15352258536E+02  0.12029112425E+01 -0.36379125617E+01  0.15823186963E+02  0.51100000000E-03 0. -1.
        -11    1    3    3    0    0 -0.99605553073E+01 -0.19487602487E+01  0.21834162319E+02  0.24077810801E+02  0.51100000000E-03 0.  1.
        -12    1    3    3    0    0  0.14692949836E+02  0.52513472965E+01  0.11529832419E+02  0.19400939640E+02  0.00000000000E+00 0.  1.
</event>
<event>
 7    1  0.5634483E-012  0.5930195E+02  0.7816164E-02  0.1266605E+00
        -11   -1    0    0    0    0  0.00000000000E+00  0.00000000000E+00  0.45593999997E+02  0.45594000000E+02  0.51100000000E-03 0.  1.
         11   -1    0    0    0    0 -0.00000000000E+00 -0.00000000000E+00 -0.45593999997E+02  0.45594000000E+02  0.51100000000E-03 0. -1.
    9900012    2    1    2    0    0 -0.11234856260E+01 -0.25101762199E+02  0.19630573723E+02  0.59301951168E+02  0.50000013022E+02 0.  0.
         12    1    1    2    0    0  0.11234856260E+01  0.25101762199E+02 -0.19630573723E+02  0.31886048832E+02  0.00000000000E+00 0. -1.
         11    1    3    3    0    0  0.19246993787E+02 -0.18914731691E+01  0.71740740752E+01  0.20627452089E+02  0.51100000000E-03 0. -1.
        -11    1    3    3    0    0 -0.28469781393E+01 -0.18076711778E+02  0.72853048324E+01  0.19696407286E+02  0.51100000000E-03 0.  1.
        -12    1    3    3    0    0 -0.17523501274E+02 -0.51335772517E+01  0.51711948151E+01  0.18978091793E+02  0.00000000000E+00 0.  1.
</event>
<event>
 7    1  0.5634483E-012  0.5930206E+02  0.7816164E-02  0.1266604E+00
        -11   -1    0    0    0    0  0.00000000000E+00  0.00000000000E+00  0.45593999997E+02  0.45594000000E+02  0.51100000000E-03 0.  1.
         11   -1    0    0    0    0 -0.00000000000E+00 -0.00000000000E+00 -0.45593999997E+02  0.45594000000E+02  0.51100000000E-03 0. -1.
    9900012    2    1    2    0    0  0.17925400772E+02  0.26309514498E+02  0.17895865211E+01  0.59302060060E+02  0.50000211615E+02 0.  0.
         12    1    1    2    0    0 -0.17925400772E+02 -0.26309514498E+02 -0.17895865211E+01  0.31885939940E+02  0.00000000000E+00 0. -1.
         11    1    3    3    0    0 -0.71554231789E+01  0.53953976326E+01 -0.67483775551E+01  0.11218333048E+02  0.51100000000E-03 0. -1.
        -11    1    3    3    0    0  0.97742813611E+01  0.22275042442E+02 -0.79054607905E+01  0.25577537068E+02  0.51100000000E-03 0.  1.
        -12    1    3    3    0    0  0.15306542589E+02 -0.13609255767E+01  0.16443424867E+02  0.22506189944E+02  0.00000000000E+00 0.  1.
</event>
<event>
 7    1  0.5634483E-012  0.5930202E+02  0.7816164E-02  0.1266604E+00
        -11   -1    0    0    0    0  0.00000000000E+00  0.00000000000E+00  0.45593999997E+02  0.45594000000E+02  0.51100000000E-03 0.  1.
         11   -1    0    0    0    0 -0.00000000000E+00 -0.00000000000E+00 -0.45593999997E+02  0.45594000000E+02  0.51100000000E-03 0. -1.
    9900012    2    1    2    0    0  0.21046881812E+02  0.23544494000E+02  0.44046742927E+01  0.59302022089E+02  0.50000142364E+02 0.  0.
         12    1    1    2    0    0 -0.21046881812E+02 -0.23544494000E+02 -0.44046742927E+01  0.31885977911E+02  0.00000000000E+00 0. -1.
         11    1    3    3    0    0  0.65145399528E+01  0.99991737745E+01 -0.93742969130E+01  0.15175643309E+02  0.51100000000E-03 0.  1.
        -11    1    3    3    0    0 -0.39660196199E+01  0.14299156690E+01 -0.10483196974E+02  0.11299176496E+02  0.51100000000E-03 0. -1.
        -12    1    3    3    0    0  0.18498361479E+02  0.12115404556E+02  0.24262168179E+02  0.32827202283E+02  0.00000000000E+00 0.  1.
</event>
<event>
 7    1  0.5634483E-012  0.5930193E+02  0.7816164E-02  0.1266605E+00
        -11   -1    0    0    0    0  0.00000000000E+00  0.00000000000E+00  0.45593999997E+02  0.45594000000E+02  0.51100000000E-03 0.  1.
         11   -1    0    0    0    0 -0.00000000000E+00 -0.00000000000E+00 -0.45593999997E+02  0.45594000000E+02  0.51100000000E-03 0. -1.
    9900012    2    1    2    0    0  0.23227577571E+02  0.19630319632E+02  0.95839241076E+01  0.59301930785E+02  0.49999975848E+02 0.  0.
         12    1    1    2    0    0 -0.23227577571E+02 -0.19630319632E+02 -0.95839241076E+01  0.31886069215E+02  0.00000000000E+00 0. -1.
         11    1    3    3    0    0  0.12425967840E+02 -0.12959770203E+01  0.14972108801E+02  0.19499955779E+02  0.51100000000E-03 0. -1.
        -11    1    3    3    0    0  0.41213710232E+01 -0.16139155958E+01  0.10521975280E+02  0.11415007084E+02  0.51100000000E-03 0.  1.
         12    1    3    3    0    0  0.66802387080E+01  0.22540212248E+02 -0.15910159973E+02  0.28386967922E+02  0.00000000000E+00 0. -1.
</event>
<event>
 7    1  0.5634483E-012  0.5930194E+02  0.7816164E-02  0.1266605E+00
        -11   -1    0    0    0    0  0.00000000000E+00  0.00000000000E+00  0.45593999997E+02  0.45594000000E+02  0.51100000000E-03 0. -1.
         11   -1    0    0    0    0 -0.00000000000E+00 -0.00000000000E+00 -0.45593999997E+02  0.45594000000E+02  0.51100000000E-03 0.  1.
    9900012    2    1    2    0    0  0.28183671616E+02 -0.11839282839E+02 -0.90682435348E+01  0.59301937140E+02  0.49999987438E+02 0.  0.
         12    1    1    2    0    0 -0.28183671616E+02  0.11839282839E+02  0.90682435348E+01  0.31886062860E+02  0.00000000000E+00 0. -1.
         11    1    3    3    0    0 -0.21933822544E+01  0.83914418495E+01 -0.56003742121E+01  0.10324311774E+02  0.51100000000E-03 0. -1.
        -11    1    3    3    0    0  0.25498946386E+02  0.11082043389E+01 -0.77491686790E+01  0.26673469950E+02  0.51100000000E-03 0.  1.
        -12    1    3    3    0    0  0.48781074842E+01 -0.21338929027E+02  0.42812993563E+01  0.22304155416E+02  0.00000000000E+00 0.  1.
</event>
<event>
 7    1  0.5634483E-012  0.5930194E+02  0.7816164E-02  0.1266605E+00
        -11   -1    0    0    0    0  0.00000000000E+00  0.00000000000E+00  0.45593999997E+02  0.45594000000E+02  0.51100000000E-03 0.  1.
         11   -1    0    0    0    0 -0.00000000000E+00 -0.00000000000E+00 -0.45593999997E+02  0.45594000000E+02  0.51100000000E-03 0. -1.
    9900012    2    1    2    0    0  0.65077586821E+01  0.14825352837E+01  0.31179674565E+02  0.59301938156E+02  0.49999989291E+02 0.  0.
         12    1    1    2    0    0 -0.65077586821E+01 -0.14825352837E+01 -0.31179674565E+02  0.31886061844E+02  0.00000000000E+00 0. -1.
         11    1    3    3    0    0 -0.19636245960E+01 -0.12583988548E+02  0.16648774150E+02  0.20961733476E+02  0.51100000000E-03 0. -1.
        -11    1    3    3    0    0  0.14347464999E+02 -0.35983229134E+01  0.12944884325E+02  0.19656238453E+02  0.51100000000E-03 0.  1.
        -12    1    3    3    0    0 -0.58760817208E+01  0.17664846745E+02  0.15860160895E+01  0.18683966227E+02  0.00000000000E+00 0.  1.
</event>
<event>
 7    1  0.5634483E-012  0.5930193E+02  0.7816164E-02  0.1266605E+00
        -11   -1    0    0    0    0  0.00000000000E+00  0.00000000000E+00  0.45593999997E+02  0.45594000000E+02  0.51100000000E-03 0. -1.
         11   -1    0    0    0    0 -0.00000000000E+00 -0.00000000000E+00 -0.45593999997E+02  0.45594000000E+02  0.51100000000E-03 0.  1.
    9900012    2    1    2    0    0 -0.86147984412E+01  0.28991391241E+02  0.10099796314E+02  0.59301930881E+02  0.49999976023E+02 0.  0.
         12    1    1    2    0    0  0.86147984412E+01 -0.28991391241E+02 -0.10099796314E+02  0.31886069119E+02  0.00000000000E+00 0. -1.
         11    1    3    3    0    0  0.61432575577E+01  0.64813148038E+01  0.22421603905E+01  0.92072981099E+01  0.51100000000E-03 0. -1.
        -11    1    3    3    0    0 -0.22805098604E+02  0.24950964544E+02  0.16861382516E+02  0.37774718723E+02  0.51100000000E-03 0.  1.
         12    1    3    3    0    0  0.80470426050E+01 -0.24408881062E+01 -0.90037465929E+01  0.12319914048E+02  0.00000000000E+00 0. -1.
</event>
<event>
 7    1  0.5634483E-012  0.5930193E+02  0.7816164E-02  0.1266605E+00
        -11   -1    0    0    0    0  0.00000000000E+00  0.00000000000E+00  0.45593999997E+02  0.45594000000E+02  0.51100000000E-03 0. -1.
         11   -1    0    0    0    0 -0.00000000000E+00 -0.00000000000E+00 -0.45593999997E+02  0.45594000000E+02  0.51100000000E-03 0.  1.
    9900012    2    1    2    0    0 -0.17860326233E+02  0.19747724806E+02 -0.17543026994E+02  0.59301926484E+02  0.49999968004E+02 0.  0.
         12    1    1    2    0    0  0.17860326233E+02 -0.19747724806E+02  0.17543026994E+02  0.31886073516E+02  0.00000000000E+00 0. -1.
         11    1    3    3    0    0  0.12940423129E+01 -0.22341065442E+01  0.52744362973E+01  0.58724318705E+01  0.51100000000E-03 0. -1.
        -11    1    3    3    0    0 -0.72387125136E+01  0.20901348674E+02  0.54097623055E+01  0.22771272773E+02  0.51100000000E-03 0.  1.
         12    1    3    3    0    0 -0.11915656032E+02  0.10804826760E+01 -0.28227225597E+02  0.30658221840E+02  0.00000000000E+00 0. -1.
</event>
<event>
 7    1  0.5634483E-012  0.5930195E+02  0.7816164E-02  0.1266605E+00
        -11   -1    0    0    0    0  0.00000000000E+00  0.00000000000E+00  0.45593999997E+02  0.45594000000E+02  0.51100000000E-03 0.  1.
         11   -1    0    0    0    0 -0.00000000000E+00 -0.00000000000E+00 -0.45593999997E+02  0.45594000000E+02  0.51100000000E-03 0. -1.
    9900012    2    1    2    0    0 -0.13183207756E+02 -0.18935143822E+01  0.28971329357E+02  0.59301948376E+02  0.50000007931E+02 0.  0.
         12    1    1    2    0    0  0.13183207756E+02  0.18935143822E+01 -0.28971329357E+02  0.31886051624E+02  0.00000000000E+00 0. -1.
         11    1    3    3    0    0  0.99888632531E+01 -0.64903149724E+01  0.20963095004E+02  0.24111261476E+02  0.51100000000E-03 0. -1.
        -11    1    3    3    0    0 -0.40606430510E+01 -0.27525288458E+01  0.13187170643E+02  0.14070064210E+02  0.51100000000E-03 0.  1.
        -12    1    3    3    0    0 -0.19111427958E+02  0.73493294360E+01 -0.51789362907E+01  0.21120622691E+02  0.00000000000E+00 0.  1.
</event>
<event>
 7    1  0.5634483E-012  0.5930195E+02  0.7816164E-02  0.1266605E+00
        -11   -1    0    0    0    0  0.00000000000E+00  0.00000000000E+00  0.45593999997E+02  0.45594000000E+02  0.51100000000E-03 0.  1.
         11   -1    0    0    0    0 -0.00000000000E+00 -0.00000000000E+00 -0.45593999997E+02  0.45594000000E+02  0.51100000000E-03 0. -1.
    9900012    2    1    2    0    0 -0.78575723090E+01  0.23787533382E+02  0.19726436676E+02  0.59301945196E+02  0.50000002131E+02 0.  0.
         12    1    1    2    0    0  0.78575723090E+01 -0.23787533382E+02 -0.19726436676E+02  0.31886054804E+02  0.00000000000E+00 0. -1.
         11    1    3    3    0    0  0.12543963261E+02  0.36842729116E+01 -0.32810855191E+01  0.13479258274E+02  0.51100000000E-03 0. -1.
        -11    1    3    3    0    0 -0.17771325094E+01  0.20774656758E+02  0.10216893229E+02  0.23219161718E+02  0.51100000000E-03 0.  1.
         12    1    3    3    0    0 -0.18624403060E+02 -0.67139628760E+00  0.12790628966E+02  0.22603525205E+02  0.00000000000E+00 0. -1.
</event>
<event>
 7    1  0.5634483E-012  0.5930195E+02  0.7816164E-02  0.1266605E+00
        -11   -1    0    0    0    0  0.00000000000E+00  0.00000000000E+00  0.45593999997E+02  0.45594000000E+02  0.51100000000E-03 0.  1.
         11   -1    0    0    0    0 -0.00000000000E+00 -0.00000000000E+00 -0.45593999997E+02  0.45594000000E+02  0.51100000000E-03 0. -1.
    9900012    2    1    2    0    0  0.18223163671E+02  0.21279584769E+02  0.15225486770E+02  0.59301954941E+02  0.50000019904E+02 0.  0.
         12    1    1    2    0    0 -0.18223163671E+02 -0.21279584769E+02 -0.15225486770E+02  0.31886045059E+02  0.00000000000E+00 0. -1.
         11    1    3    3    0    0  0.23854849080E+02  0.82384061570E+01 -0.96915796187E+01  0.27034272256E+02  0.51100000000E-03 0. -1.
        -11    1    3    3    0    0 -0.75148691252E+00  0.36557278175E+01 -0.13355402223E+01  0.39639306757E+01  0.51100000000E-03 0.  1.
        -12    1    3    3    0    0 -0.48801984963E+01  0.93854507942E+01  0.26252606611E+02  0.28303752010E+02  0.00000000000E+00 0.  1.
</event>
<event>
 7    1  0.5634483E-012  0.5930190E+02  0.7816164E-02  0.1266605E+00
        -11   -1    0    0    0    0  0.00000000000E+00  0.00000000000E+00  0.45593999997E+02  0.45594000000E+02  0.51100000000E-03 0. -1.
         11   -1    0    0    0    0 -0.00000000000E+00 -0.00000000000E+00 -0.45593999997E+02  0.45594000000E+02  0.51100000000E-03 0.  1.
    9900012    2    1    2    0    0 -0.20425459668E+01  0.29080274723E+02 -0.12918544951E+02  0.59301903099E+02  0.49999925355E+02 0.  0.
         12    1    1    2    0    0  0.20425459668E+01 -0.29080274723E+02  0.12918544951E+02  0.31886096901E+02  0.00000000000E+00 0. -1.
         11    1    3    3    0    0 -0.13360136374E+02  0.15841712471E+02  0.41595963175E+01  0.21136587704E+02  0.51100000000E-03 0. -1.
        -11    1    3    3    0    0  0.15278401497E+01  0.29126921594E+01 -0.22647614526E+02  0.22885202973E+02  0.51100000000E-03 0.  1.
        -12    1    3    3    0    0  0.97897502576E+01  0.10325870092E+02  0.55694732577E+01  0.15280112422E+02  0.00000000000E+00 0.  1.
</event>
<event>
 7    1  0.5634483E-012  0.5930194E+02  0.7816164E-02  0.1266605E+00
        -11   -1    0    0    0    0  0.00000000000E+00  0.00000000000E+00  0.45593999997E+02  0.45594000000E+02  0.51100000000E-03 0.  1.
         11   -1    0    0    0    0 -0.00000000000E+00 -0.00000000000E+00 -0.45593999997E+02  0.45594000000E+02  0.51100000000E-03 0. -1.
    9900012    2    1    2    0    0 -0.13376500575E+02  0.60183471667E+01  0.28312004248E+02  0.59301939491E+02  0.49999991726E+02 0.  0.
         12    1    1    2    0    0  0.13376500575E+02 -0.60183471667E+01 -0.28312004248E+02  0.31886060509E+02  0.00000000000E+00 0. -1.
         11    1    3    3    0    0 -0.20510908164E+01  0.30419922694E+01  0.98298448648E+00  0.37982824100E+01  0.51100000000E-03 0. -1.
        -11    1    3    3    0    0 -0.19946321496E+02 -0.17022153657E+02  0.18036179722E+02  0.31826297862E+02  0.51100000000E-03 0.  1.
         12    1    3    3    0    0  0.86209117379E+01  0.19998508554E+02  0.92928400393E+01  0.23677359219E+02  0.00000000000E+00 0. -1.
</event>
<event>
 7    1  0.5634483E-012  0.5930195E+02  0.7816164E-02  0.1266605E+00
        -11   -1    0    0    0    0  0.00000000000E+00  0.00000000000E+00  0.45593999997E+02  0.45594000000E+02  0.51100000000E-03 0. -1.
         11   -1    0    0    0    0 -0.00000000000E+00 -0.00000000000E+00 -0.45593999997E+02  0.45594000000E+02  0.51100000000E-03 0.  1.
    9900012    2    1    2    0    0  0.21142905044E+02 -0.20868291466E+02 -0.11585006934E+02  0.59301946496E+02  0.50000004502E+02 0.  0.
         12    1    1    2    0    0 -0.21142905044E+02  0.20868291466E+02  0.11585006934E+02  0.31886053504E+02  0.00000000000E+00 0. -1.
         11    1    3    3    0    0 -0.11055270478E+01 -0.60073746764E+01 -0.10973259978E+01  0.62060345764E+01  0.51100000000E-03 0. -1.
        -11    1    3    3    0    0  0.76561072870E+01 -0.17984766077E+02  0.14261195243E+02  0.24196063309E+02  0.51100000000E-03 0.  1.
         12    1    3    3    0    0  0.14592324804E+02  0.31238492873E+01 -0.24748876180E+02  0.28899848611E+02  0.00000000000E+00 0. -1.
</event>
<event>
 7    1  0.5634483E-012  0.5930194E+02  0.7816164E-02  0.1266605E+00
        -11   -1    0    0    0    0  0.00000000000E+00  0.00000000000E+00  0.45593999997E+02  0.45594000000E+02  0.51100000000E-03 0.  1.
         11   -1    0    0    0    0 -0.00000000000E+00 -0.00000000000E+00 -0.45593999997E+02  0.45594000000E+02  0.51100000000E-03 0. -1.
    9900012    2    1    2    0    0  0.67575769968E+01  0.22266417944E+02  0.21800518244E+02  0.59301940184E+02  0.49999992989E+02 0.  0.
         12    1    1    2    0    0 -0.67575769968E+01 -0.22266417944E+02 -0.21800518244E+02  0.31886059816E+02  0.00000000000E+00 0. -1.
         11    1    3    3    0    0  0.14201778764E+02  0.42057214966E+01  0.23063609966E+01  0.14989927107E+02  0.51100000000E-03 0. -1.
        -11    1    3    3    0    0  0.11165346794E+02  0.17995013860E+02  0.10774967603E+02  0.23761006291E+02  0.51100000000E-03 0.  1.
         12    1    3    3    0    0 -0.18609548561E+02  0.65682587452E-01  0.87191896448E+01  0.20551006786E+02  0.00000000000E+00 0. -1.
</event>
<event>
 7    1  0.5634483E-012  0.5930194E+02  0.7816164E-02  0.1266605E+00
        -11   -1    0    0    0    0  0.00000000000E+00  0.00000000000E+00  0.45593999997E+02  0.45594000000E+02  0.51100000000E-03 0.  1.
         11   -1    0    0    0    0 -0.00000000000E+00 -0.00000000000E+00 -0.45593999997E+02  0.45594000000E+02  0.51100000000E-03 0. -1.
    9900012    2    1    2    0    0 -0.88091127948E+01  0.20572262182E+02  0.22713489823E+02  0.59301936282E+02  0.49999985873E+02 0.  0.
         12    1    1    2    0    0  0.88091127948E+01 -0.20572262182E+02 -0.22713489823E+02  0.31886063718E+02  0.00000000000E+00 0. -1.
         11    1    3    3    0    0  0.18830513737E+01 -0.43708580477E+01  0.52568799924E+01  0.70911966596E+01  0.51100000000E-03 0. -1.
        -11    1    3    3    0    0 -0.33350948483E+01  0.73206032876E+01  0.28865627076E+02  0.29965622251E+02  0.51100000000E-03 0.  1.
        -12    1    3    3    0    0 -0.73570693202E+01  0.17622516942E+02 -0.11409017245E+02  0.22245117371E+02  0.00000000000E+00 0.  1.
</event>
<event>
 7    1  0.5634483E-012  0.5930193E+02  0.7816164E-02  0.1266605E+00
        -11   -1    0    0    0    0  0.00000000000E+00  0.00000000000E+00  0.45593999997E+02  0.45594000000E+02  0.51100000000E-03 0. -1.
         11   -1    0    0    0    0 -0.00000000000E+00 -0.00000000000E+00 -0.45593999997E+02  0.45594000000E+02  0.51100000000E-03 0.  1.
    9900012    2    1    2    0    0 -0.88851001910E+01 -0.51622233733E+01 -0.30184897619E+02  0.59301927808E+02  0.49999970419E+02 0.  0.
         12    1    1    2    0    0  0.88851001910E+01  0.51622233733E+01  0.30184897619E+02  0.31886072192E+02  0.00000000000E+00 0. -1.
         11    1    3    3    0    0 -0.32222620361E+01 -0.14568916870E+02  0.33982441486E+01  0.15303083838E+02  0.51100000000E-03 0. -1.
        -11    1    3    3    0    0 -0.41083817202E+01 -0.79481989771E+01 -0.43072817551E+01  0.99300223422E+01  0.51100000000E-03 0.  1.
        -12    1    3    3    0    0 -0.15544564348E+01  0.17354892474E+02 -0.29275860013E+02  0.34068821627E+02  0.00000000000E+00 0.  1.
</event>
<event>
 7    1  0.5634483E-012  0.5930199E+02  0.7816164E-02  0.1266605E+00
        -11   -1    0    0    0    0  0.00000000000E+00  0.00000000000E+00  0.45593999997E+02  0.45594000000E+02  0.51100000000E-03 0.  1.
         11   -1    0    0    0    0 -0.00000000000E+00 -0.00000000000E+00 -0.45593999997E+02  0.45594000000E+02  0.51100000000E-03 0. -1.
    9900012    2    1    2    0    0 -0.49215382426E+01 -0.75797157761E+01  0.30578492597E+02  0.59301986774E+02  0.50000077959E+02 0.  0.
         12    1    1    2    0    0  0.49215382426E+01  0.75797157761E+01 -0.30578492597E+02  0.31886013226E+02  0.00000000000E+00 0. -1.
         11    1    3    3    0    0  0.17382368094E+02 -0.72055185305E+01  0.22682638387E+02  0.29471482865E+02  0.51100000000E-03 0. -1.
        -11    1    3    3    0    0  0.21823265934E+01 -0.23809465096E+01 -0.14555993422E+01  0.35426297221E+01  0.51100000000E-03 0.  1.
        -12    1    3    3    0    0 -0.24486232930E+02  0.20067492639E+01  0.93514535527E+01  0.26287874186E+02  0.00000000000E+00 0.  1.
</event>
<event>
 7    1  0.5634483E-012  0.5930192E+02  0.7816164E-02  0.1266605E+00
        -11   -1    0    0    0    0  0.00000000000E+00  0.00000000000E+00  0.45593999997E+02  0.45594000000E+02  0.51100000000E-03 0. -1.
         11   -1    0    0    0    0 -0.00000000000E+00 -0.00000000000E+00 -0.45593999997E+02  0.45594000000E+02  0.51100000000E-03 0.  1.
    9900012    2    1    2    0    0 -0.26681497089E+02  0.17113018470E+02  0.34589242477E+01  0.59301923964E+02  0.49999963408E+02 0.  0.
         12    1    1    2    0    0  0.26681497089E+02 -0.17113018470E+02 -0.34589242477E+01  0.31886076036E+02  0.00000000000E+00 0. -1.
         11    1    3    3    0    0  0.63756250168E+01  0.11849136441E+02  0.18609912800E+01  0.13583590010E+02  0.51100000000E-03 0. -1.
        -11    1    3    3    0    0 -0.74985103494E+01  0.16043787240E+02  0.29160283389E+01  0.17948091486E+02  0.51100000000E-03 0.  1.
         12    1    3    3    0    0 -0.25558611756E+02 -0.10779905212E+02 -0.13180953713E+01  0.27770242467E+02  0.00000000000E+00 0. -1.
</event>
<event>
 7    1  0.5634483E-012  0.5930187E+02  0.7816164E-02  0.1266605E+00
        -11   -1    0    0    0    0  0.00000000000E+00  0.00000000000E+00  0.45593999997E+02  0.45594000000E+02  0.51100000000E-03 0.  1.
         11   -1    0    0    0    0 -0.00000000000E+00 -0.00000000000E+00 -0.45593999997E+02  0.45594000000E+02  0.51100000000E-03 0. -1.
    9900012    2    1    2    0    0  0.26209832105E+02 -0.14955253359E+02  0.10300998404E+02  0.59301867118E+02  0.49999859735E+02 0.  0.
         12    1    1    2    0    0 -0.26209832105E+02  0.14955253359E+02 -0.10300998404E+02  0.31886132882E+02  0.00000000000E+00 0. -1.
         11    1    3    3    0    0  0.16422799120E+02 -0.21133025394E+02  0.12723973845E+02  0.29634652080E+02  0.51100000000E-03 0. -1.
        -11    1    3    3    0    0  0.13728203016E+02 -0.47015556052E+01 -0.82705376919E+01  0.16702394353E+02  0.51100000000E-03 0.  1.
         12    1    3    3    0    0 -0.39411700299E+01  0.10879327640E+02  0.58475622507E+01  0.12964820685E+02  0.00000000000E+00 0. -1.
</event>
<event>
 7    1  0.5634483E-012  0.5930195E+02  0.7816164E-02  0.1266605E+00
        -11   -1    0    0    0    0  0.00000000000E+00  0.00000000000E+00  0.45593999997E+02  0.45594000000E+02  0.51100000000E-03 0. -1.
         11   -1    0    0    0    0 -0.00000000000E+00 -0.00000000000E+00 -0.45593999997E+02  0.45594000000E+02  0.51100000000E-03 0.  1.
    9900012    2    1    2    0    0 -0.81960067131E+01  0.43558581494E+01 -0.30505283452E+02  0.59301947489E+02  0.50000006313E+02 0.  0.
         12    1    1    2    0    0  0.81960067131E+01 -0.43558581494E+01  0.30505283452E+02  0.31886052511E+02  0.00000000000E+00 0. -1.
         11    1    3    3    0    0  0.29495548871E+01  0.74700619583E+01  0.51942453863E+01  0.95646163063E+01  0.51100000000E-03 0. -1.
        -11    1    3    3    0    0  0.75999499629E+00  0.12053270206E+02 -0.41655924604E+01  0.12775409029E+02  0.51100000000E-03 0.  1.
        -12    1    3    3    0    0 -0.11905556596E+02 -0.15167474015E+02 -0.31533936378E+02  0.36961922154E+02  0.00000000000E+00 0.  1.
</event>
<event>
 7    1  0.5634483E-012  0.5930195E+02  0.7816164E-02  0.1266605E+00
        -11   -1    0    0    0    0  0.00000000000E+00  0.00000000000E+00  0.45593999997E+02  0.45594000000E+02  0.51100000000E-03 0.  1.
         11   -1    0    0    0    0 -0.00000000000E+00 -0.00000000000E+00 -0.45593999997E+02  0.45594000000E+02  0.51100000000E-03 0. -1.
    9900012    2    1    2    0    0  0.26488002892E+02  0.87141852233E+01  0.15465089018E+02  0.59301948197E+02  0.50000007603E+02 0.  0.
         12    1    1    2    0    0 -0.26488002892E+02 -0.87141852233E+01 -0.15465089018E+02  0.31886051803E+02  0.00000000000E+00 0. -1.
         11    1    3    3    0    0 -0.42275170863E+01  0.19775611651E+01 -0.23220502063E+00  0.46729614068E+01  0.51100000000E-03 0. -1.
        -11    1    3    3    0    0  0.53764765323E+01  0.21906223337E+02  0.93752834343E+01  0.24427137788E+02  0.51100000000E-03 0.  1.
        -12    1    3    3    0    0  0.25339043445E+02 -0.15169599279E+02  0.63220106041E+01  0.30201849001E+02  0.00000000000E+00 0.  1.
</event>
<event>
 7    1  0.5634483E-012  0.5930195E+02  0.7816164E-02  0.1266605E+00
        -11   -1    0    0    0    0  0.00000000000E+00  0.00000000000E+00  0.45593999997E+02  0.45594000000E+02  0.51100000000E-03 0.  1.
         11   -1    0    0    0    0 -0.00000000000E+00 -0.00000000000E+00 -0.45593999997E+02  0.45594000000E+02  0.51100000000E-03 0. -1.
    9900012    2    1    2    0    0 -0.31031499401E+02 -0.44849352663E+01 -0.58010036821E+01  0.59301949082E+02  0.50000009218E+02 0.  0.
         12    1    1    2    0    0  0.31031499401E+02  0.44849352663E+01  0.58010036821E+01  0.31886050918E+02  0.00000000000E+00 0. -1.
         11    1    3    3    0    0  0.98145022173E+01  0.11052783888E+01  0.85017897376E+01  0.13031750577E+02  0.51100000000E-03 0.  1.
        -11    1    3    3    0    0  0.12273730062E+01  0.25024244972E+00  0.40917454360E+00  0.13177594045E+01  0.51100000000E-03 0. -1.
        -12    1    3    3    0    0 -0.42073374624E+02 -0.58404561048E+01 -0.14711967963E+02  0.44952439101E+02  0.00000000000E+00 0.  1.
</event>
<event>
 7    1  0.5634483E-012  0.5930194E+02  0.7816164E-02  0.1266605E+00
        -11   -1    0    0    0    0  0.00000000000E+00  0.00000000000E+00  0.45593999997E+02  0.45594000000E+02  0.51100000000E-03 0. -1.
         11   -1    0    0    0    0 -0.00000000000E+00 -0.00000000000E+00 -0.45593999997E+02  0.45594000000E+02  0.51100000000E-03 0.  1.
    9900012    2    1    2    0    0 -0.28735743815E+02 -0.47171337841E+01 -0.12989467639E+02  0.59301943591E+02  0.49999999204E+02 0.  0.
         12    1    1    2    0    0  0.28735743815E+02  0.47171337841E+01  0.12989467639E+02  0.31886056409E+02  0.00000000000E+00 0. -1.
         11    1    3    3    0    0 -0.24466867234E+01  0.64167400783E+01  0.10729846676E+01  0.69506924485E+01  0.51100000000E-03 0. -1.
        -11    1    3    3    0    0 -0.23844346046E+02  0.12289200393E+02 -0.63021399172E+01  0.27555294455E+02  0.51100000000E-03 0.  1.
         12    1    3    3    0    0 -0.24447110457E+01 -0.23423074256E+02 -0.77603123896E+01  0.24795956688E+02  0.00000000000E+00 0. -1.
</event>
<event>
 7    1  0.5634483E-012  0.5930194E+02  0.7816164E-02  0.1266605E+00
        -11   -1    0    0    0    0  0.00000000000E+00  0.00000000000E+00  0.45593999997E+02  0.45594000000E+02  0.51100000000E-03 0.  1.
         11   -1    0    0    0    0 -0.00000000000E+00 -0.00000000000E+00 -0.45593999997E+02  0.45594000000E+02  0.51100000000E-03 0. -1.
    9900012    2    1    2    0    0  0.39821375326E+01 -0.12007757039E+02  0.29269052256E+02  0.59301936141E+02  0.49999985617E+02 0.  0.
         12    1    1    2    0    0 -0.39821375326E+01  0.12007757039E+02 -0.29269052256E+02  0.31886063859E+02  0.00000000000E+00 0. -1.
         11    1    3    3    0    0  0.33552992522E+01 -0.72596868873E+01 -0.35253638988E+00  0.80053337807E+01  0.51100000000E-03 0. -1.
        -11    1    3    3    0    0 -0.11649745775E+02 -0.18894185295E+02  0.10589250835E+02  0.24593475722E+02  0.51100000000E-03 0.  1.
        -12    1    3    3    0    0  0.12276584055E+02  0.14146115143E+02  0.19032337811E+02  0.26703126638E+02  0.00000000000E+00 0.  1.
</event>
<event>
 7    1  0.5634483E-012  0.5930191E+02  0.7816164E-02  0.1266605E+00
        -11   -1    0    0    0    0  0.00000000000E+00  0.00000000000E+00  0.45593999997E+02  0.45594000000E+02  0.51100000000E-03 0.  1.
         11   -1    0    0    0    0 -0.00000000000E+00 -0.00000000000E+00 -0.45593999997E+02  0.45594000000E+02  0.51100000000E-03 0. -1.
    9900012    2    1    2    0    0 -0.21476824255E+02 -0.16580119108E+01  0.23509993581E+02  0.59301909275E+02  0.49999936619E+02 0.  0.
         12    1    1    2    0    0  0.21476824255E+02  0.16580119108E+01 -0.23509993581E+02  0.31886090725E+02  0.00000000000E+00 0. -1.
         11    1    3    3    0    0 -0.53099155523E+01  0.18734456788E+02  0.12979389119E+02  0.23401701146E+02  0.51100000000E-03 0. -1.
        -11    1    3    3    0    0 -0.10591788118E+02 -0.71925484672E+01  0.16062245019E+02  0.20540556086E+02  0.51100000000E-03 0.  1.
        -12    1    3    3    0    0 -0.55751205838E+01 -0.13199920232E+02 -0.55316405574E+01  0.15359652044E+02  0.00000000000E+00 0.  1.
</event>
<event>
 7    1  0.5634483E-012  0.5930190E+02  0.7816164E-02  0.1266605E+00
        -11   -1    0    0    0    0  0.00000000000E+00  0.00000000000E+00  0.45593999997E+02  0.45594000000E+02  0.51100000000E-03 0.  1.
         11   -1    0    0    0    0 -0.00000000000E+00 -0.00000000000E+00 -0.45593999997E+02  0.45594000000E+02  0.51100000000E-03 0. -1.
    9900012    2    1    2    0    0 -0.22494206943E+02  0.11065925550E+02  0.19704806675E+02  0.59301898633E+02  0.49999917211E+02 0.  0.
         12    1    1    2    0    0  0.22494206943E+02 -0.11065925550E+02 -0.19704806675E+02  0.31886101367E+02  0.00000000000E+00 0. -1.
         11    1    3    3    0    0 -0.53008897763E+01  0.14074192691E+02 -0.90848595414E+01  0.17570344489E+02  0.51100000000E-03 0. -1.
        -11    1    3    3    0    0  0.30174064384E+01  0.40438136400E+01  0.16043792082E+02  0.16818455191E+02  0.51100000000E-03 0.  1.
        -12    1    3    3    0    0 -0.20210723606E+02 -0.70520807807E+01  0.12745874134E+02  0.24913098953E+02  0.00000000000E+00 0.  1.
</event>
<event>
 7    1  0.5634483E-012  0.5930193E+02  0.7816164E-02  0.1266605E+00
        -11   -1    0    0    0    0  0.00000000000E+00  0.00000000000E+00  0.45593999997E+02  0.45594000000E+02  0.51100000000E-03 0.  1.
         11   -1    0    0    0    0 -0.00000000000E+00 -0.00000000000E+00 -0.45593999997E+02  0.45594000000E+02  0.51100000000E-03 0. -1.
    9900012    2    1    2    0    0 -0.17148932882E+02 -0.91514764850E+01  0.25276189358E+02  0.59301934559E+02  0.49999982731E+02 0.  0.
         12    1    1    2    0    0  0.17148932882E+02  0.91514764850E+01 -0.25276189358E+02  0.31886065441E+02  0.00000000000E+00 0. -1.
         11    1    3    3    0    0  0.60273903425E+01 -0.55844968579E+00  0.37471206136E+01  0.71191441583E+01  0.51100000000E-03 0. -1.
        -11    1    3    3    0    0 -0.13028143216E+02  0.57039518608E+01  0.29632081217E+02  0.32868340695E+02  0.51100000000E-03 0.  1.
         12    1    3    3    0    0 -0.10148180009E+02 -0.14296978660E+02 -0.81030124730E+01  0.19314449706E+02  0.00000000000E+00 0. -1.
</event>
<event>
 7    1  0.5634483E-012  0.5930196E+02  0.7816164E-02  0.1266605E+00
        -11   -1    0    0    0    0  0.00000000000E+00  0.00000000000E+00  0.45593999997E+02  0.45594000000E+02  0.51100000000E-03 0.  1.
         11   -1    0    0    0    0 -0.00000000000E+00 -0.00000000000E+00 -0.45593999997E+02  0.45594000000E+02  0.51100000000E-03 0. -1.
    9900012    2    1    2    0    0  0.30430559209E+02 -0.41153504781E+01  0.85886280376E+01  0.59301959560E+02  0.50000028328E+02 0.  0.
         12    1    1    2    0    0 -0.30430559209E+02  0.41153504781E+01 -0.85886280376E+01  0.31886040440E+02  0.00000000000E+00 0. -1.
         11    1    3    3    0    0  0.12046570353E+02  0.99881739428E+01 -0.32112443513E+01  0.15974841674E+02  0.51100000000E-03 0. -1.
        -11    1    3    3    0    0  0.23833632657E+02 -0.17940128994E+02  0.17475794352E+02  0.34573019284E+02  0.51100000000E-03 0.  1.
         12    1    3    3    0    0 -0.54496438004E+01  0.38366045731E+01 -0.56759219627E+01  0.87540986017E+01  0.00000000000E+00 0. -1.
</event>
<event>
 7    1  0.5634483E-012  0.5930194E+02  0.7816164E-02  0.1266605E+00
        -11   -1    0    0    0    0  0.00000000000E+00  0.00000000000E+00  0.45593999997E+02  0.45594000000E+02  0.51100000000E-03 0.  1.
         11   -1    0    0    0    0 -0.00000000000E+00 -0.00000000000E+00 -0.45593999997E+02  0.45594000000E+02  0.51100000000E-03 0. -1.
    9900012    2    1    2    0    0  0.27745381650E+02  0.15488771361E+02  0.26481358423E+01  0.59301939337E+02  0.49999991445E+02 0.  0.
         12    1    1    2    0    0 -0.27745381650E+02 -0.15488771361E+02 -0.26481358423E+01  0.31886060663E+02  0.00000000000E+00 0. -1.
         11    1    3    3    0    0 -0.50113958575E+01 -0.75201937501E+01  0.25026707019E+01  0.93771404694E+01  0.51100000000E-03 0. -1.
        -11    1    3    3    0    0  0.13265441416E+02 -0.27402833414E+01  0.92126880101E+01  0.16381535623E+02  0.51100000000E-03 0.  1.
        -12    1    3    3    0    0  0.19491336092E+02  0.25749248453E+02 -0.90672228696E+01  0.33543263244E+02  0.00000000000E+00 0.  1.
</event>
<event>
 7    1  0.5634483E-012  0.5930195E+02  0.7816164E-02  0.1266605E+00
        -11   -1    0    0    0    0  0.00000000000E+00  0.00000000000E+00  0.45593999997E+02  0.45594000000E+02  0.51100000000E-03 0.  1.
         11   -1    0    0    0    0 -0.00000000000E+00 -0.00000000000E+00 -0.45593999997E+02  0.45594000000E+02  0.51100000000E-03 0. -1.
    9900012    2    1    2    0    0  0.28916492832E+01 -0.31751450591E+02 -0.45166356938E+00  0.59301948971E+02  0.50000009015E+02 0.  0.
         12    1    1    2    0    0 -0.28916492832E+01  0.31751450591E+02  0.45166356938E+00  0.31886051029E+02  0.00000000000E+00 0. -1.
         11    1    3    3    0    0 -0.17195662987E+02 -0.11530971736E+02  0.10684640358E+02  0.23298404980E+02  0.51100000000E-03 0.  1.
        -11    1    3    3    0    0 -0.26312843024E+01  0.12245253947E+01 -0.17214056555E+01  0.33743676762E+01  0.51100000000E-03 0. -1.
        -12    1    3    3    0    0  0.22718596573E+02 -0.21445004250E+02 -0.94148982722E+01  0.32629176315E+02  0.00000000000E+00 0.  1.
</event>
<event>
 7    1  0.5634483E-012  0.5930194E+02  0.7816164E-02  0.1266605E+00
        -11   -1    0    0    0    0  0.00000000000E+00  0.00000000000E+00  0.45593999997E+02  0.45594000000E+02  0.51100000000E-03 0.  1.
         11   -1    0    0    0    0 -0.00000000000E+00 -0.00000000000E+00 -0.45593999997E+02  0.45594000000E+02  0.51100000000E-03 0. -1.
    9900012    2    1    2    0    0 -0.11231356291E+02 -0.19496171983E+02  0.22593736570E+02  0.59301936927E+02  0.49999987049E+02 0.  0.
         12    1    1    2    0    0  0.11231356291E+02  0.19496171983E+02 -0.22593736570E+02  0.31886063073E+02  0.00000000000E+00 0. -1.
         11    1    3    3    0    0 -0.15516158165E+00 -0.98230829497E+01  0.33948242871E+00  0.98301720399E+01  0.51100000000E-03 0. -1.
        -11    1    3    3    0    0 -0.23744289662E+02  0.52787052319E+01  0.96315287758E+01  0.26161467224E+02  0.51100000000E-03 0.  1.
         12    1    3    3    0    0  0.12668094953E+02 -0.14951794265E+02  0.12622725365E+02  0.23310297663E+02  0.00000000000E+00 0. -1.
</event>
<event>
 7    1  0.5634483E-012  0.5930194E+02  0.7816164E-02  0.1266605E+00
        -11   -1    0    0    0    0  0.00000000000E+00  0.00000000000E+00  0.45593999997E+02  0.45594000000E+02  0.51100000000E-03 0.  1.
         11   -1    0    0    0    0 -0.00000000000E+00 -0.00000000000E+00 -0.45593999997E+02  0.45594000000E+02  0.51100000000E-03 0. -1.
    9900012    2    1    2    0    0 -0.13255760389E+00  0.89664421624E+01  0.30599120282E+02  0.59301940058E+02  0.49999992760E+02 0.  0.
         12    1    1    2    0    0  0.13255760389E+00 -0.89664421624E+01 -0.30599120282E+02  0.31886059942E+02  0.00000000000E+00 0. -1.
         11    1    3    3    0    0  0.49250310784E+01 -0.82077530918E+01  0.35787332819E+01  0.10219122962E+02  0.51100000000E-03 0. -1.
        -11    1    3    3    0    0  0.44302948625E+01  0.21485956782E+02  0.30957209286E+02  0.37942359685E+02  0.51100000000E-03 0.  1.
         12    1    3    3    0    0 -0.94878835448E+01 -0.43117615279E+01 -0.39368222857E+01  0.11140457412E+02  0.00000000000E+00 0. -1.
</event>
<event>
 7    1  0.5634483E-012  0.5930196E+02  0.7816164E-02  0.1266605E+00
        -11   -1    0    0    0    0  0.00000000000E+00  0.00000000000E+00  0.45593999997E+02  0.45594000000E+02  0.51100000000E-03 0.  1.
         11   -1    0    0    0    0 -0.00000000000E+00 -0.00000000000E+00 -0.45593999997E+02  0.45594000000E+02  0.51100000000E-03 0. -1.
    9900012    2    1    2    0    0 -0.26898820674E+02  0.27608179820E+01  0.16898258077E+02  0.59301956100E+02  0.50000022016E+02 0.  0.
         12    1    1    2    0    0  0.26898820674E+02 -0.27608179820E+01 -0.16898258077E+02  0.31886043900E+02  0.00000000000E+00 0. -1.
         11    1    3    3    0    0 -0.15550381619E+02 -0.14659348359E+02  0.46653009267E+01  0.21874091886E+02  0.51100000000E-03 0. -1.
        -11    1    3    3    0    0 -0.20484324743E+02  0.16061561310E+02  0.10283251169E+02  0.27987971823E+02  0.51100000000E-03 0.  1.
         12    1    3    3    0    0  0.91358856885E+01  0.13586050309E+01  0.19497059816E+01  0.94398923912E+01  0.00000000000E+00 0. -1.
</event>
<event>
 7    1  0.5634483E-012  0.5930194E+02  0.7816164E-02  0.1266605E+00
        -11   -1    0    0    0    0  0.00000000000E+00  0.00000000000E+00  0.45593999997E+02  0.45594000000E+02  0.51100000000E-03 0. -1.
         11   -1    0    0    0    0 -0.00000000000E+00 -0.00000000000E+00 -0.45593999997E+02  0.45594000000E+02  0.51100000000E-03 0.  1.
    9900012    2    1    2    0    0 -0.70253173974E+01  0.15299854732E+02 -0.27079147338E+02  0.59301939411E+02  0.49999991580E+02 0.  0.
         12    1    1    2    0    0  0.70253173974E+01 -0.15299854732E+02  0.27079147338E+02  0.31886060589E+02  0.00000000000E+00 0. -1.
         11    1    3    3    0    0 -0.54340564564E+01 -0.53952144913E+01  0.11246810268E+01  0.77396522307E+01  0.51100000000E-03 0. -1.
        -11    1    3    3    0    0 -0.34676648008E+01 -0.10521907546E+02 -0.12030213722E+02  0.16354243487E+02  0.51100000000E-03 0.  1.
        -12    1    3    3    0    0  0.18764038598E+01  0.31216976770E+02 -0.16173614643E+02  0.35208043693E+02  0.00000000000E+00 0.  1.
</event>
<event>
 7    1  0.5634483E-012  0.5930185E+02  0.7816164E-02  0.1266605E+00
        -11   -1    0    0    0    0  0.00000000000E+00  0.00000000000E+00  0.45593999997E+02  0.45594000000E+02  0.51100000000E-03 0. -1.
         11   -1    0    0    0    0 -0.00000000000E+00 -0.00000000000E+00 -0.45593999997E+02  0.45594000000E+02  0.51100000000E-03 0.  1.
    9900012    2    1    2    0    0  0.17777124030E+02  0.18618200317E+02 -0.18816559597E+02  0.59301851959E+02  0.49999832088E+02 0.  0.
         12    1    1    2    0    0 -0.17777124030E+02 -0.18618200317E+02  0.18816559597E+02  0.31886148041E+02  0.00000000000E+00 0. -1.
         11    1    3    3    0    0 -0.60519758892E+01  0.21662480419E+02 -0.82441295630E+01  0.23955273794E+02  0.51100000000E-03 0. -1.
        -11    1    3    3    0    0 -0.15472524951E+01 -0.77140518644E+01 -0.33595034158E+01  0.85549313214E+01  0.51100000000E-03 0.  1.
        -12    1    3    3    0    0  0.25376352414E+02  0.46697717630E+01 -0.72129266181E+01  0.26791646843E+02  0.00000000000E+00 0.  1.
</event>
<event>
 7    1  0.5634483E-012  0.5930193E+02  0.7816164E-02  0.1266605E+00
        -11   -1    0    0    0    0  0.00000000000E+00  0.00000000000E+00  0.45593999997E+02  0.45594000000E+02  0.51100000000E-03 0.  1.
         11   -1    0    0    0    0 -0.00000000000E+00 -0.00000000000E+00 -0.45593999997E+02  0.45594000000E+02  0.51100000000E-03 0. -1.
    9900012    2    1    2    0    0  0.19485594364E+02  0.41677307167E+01  0.24893032234E+02  0.59301930615E+02  0.49999975539E+02 0.  0.
         12    1    1    2    0    0 -0.19485594364E+02 -0.41677307167E+01 -0.24893032234E+02  0.31886069385E+02  0.00000000000E+00 0. -1.
         11    1    3    3    0    0 -0.24384959653E+01  0.66323510165E+01 -0.10182091951E+02  0.12393923484E+02  0.51100000000E-03 0. -1.
        -11    1    3    3    0    0  0.18579137375E+02 -0.60516939453E+01  0.11174823741E+02  0.22509643069E+02  0.51100000000E-03 0.  1.
        -12    1    3    3    0    0  0.33449529539E+01  0.35870736456E+01  0.23900300444E+02  0.24398364062E+02  0.00000000000E+00 0.  1.
</event>
<event>
 7    1  0.5634483E-012  0.5930199E+02  0.7816164E-02  0.1266605E+00
        -11   -1    0    0    0    0  0.00000000000E+00  0.00000000000E+00  0.45593999997E+02  0.45594000000E+02  0.51100000000E-03 0. -1.
         11   -1    0    0    0    0 -0.00000000000E+00 -0.00000000000E+00 -0.45593999997E+02  0.45594000000E+02  0.51100000000E-03 0.  1.
    9900012    2    1    2    0    0 -0.21946293783E+02 -0.21457631930E+02 -0.86399133693E+01  0.59301986109E+02  0.50000076746E+02 0.  0.
         12    1    1    2    0    0  0.21946293783E+02  0.21457631930E+02  0.86399133693E+01  0.31886013891E+02  0.00000000000E+00 0. -1.
         11    1    3    3    0    0 -0.78703216397E+01  0.38278064910E+01 -0.20225109478E+01  0.89824615802E+01  0.51100000000E-03 0. -1.
        -11    1    3    3    0    0  0.53417719426E+01 -0.12683385190E+02  0.13773432645E+02  0.19470753310E+02  0.51100000000E-03 0.  1.
        -12    1    3    3    0    0 -0.19417744086E+02 -0.12602053230E+02 -0.20390835066E+02  0.30848771219E+02  0.00000000000E+00 0.  1.
</event>
<event>
 7    1  0.5634483E-012  0.5930195E+02  0.7816164E-02  0.1266605E+00
        -11   -1    0    0    0    0  0.00000000000E+00  0.00000000000E+00  0.45593999997E+02  0.45594000000E+02  0.51100000000E-03 0. -1.
         11   -1    0    0    0    0 -0.00000000000E+00 -0.00000000000E+00 -0.45593999997E+02  0.45594000000E+02  0.51100000000E-03 0.  1.
    9900012    2    1    2    0    0 -0.20314717789E+02 -0.67333879365E-01 -0.24576985228E+02  0.59301945124E+02  0.50000001999E+02 0.  0.
         12    1    1    2    0    0  0.20314717789E+02  0.67333879365E-01  0.24576985228E+02  0.31886054876E+02  0.00000000000E+00 0. -1.
         11    1    3    3    0    0  0.72305836129E+00  0.98614728936E+00  0.73212811842E+01  0.74226988562E+01  0.51100000000E-03 0. -1.
        -11    1    3    3    0    0 -0.68790642477E+01  0.38169120221E+01  0.67916465927E+01  0.10393113393E+02  0.51100000000E-03 0.  1.
        -12    1    3    3    0    0 -0.14158711902E+02 -0.48703931908E+01 -0.38689913004E+02  0.41486132874E+02  0.00000000000E+00 0.  1.
</event>
<event>
 7    1  0.5634483E-012  0.5930193E+02  0.7816164E-02  0.1266605E+00
        -11   -1    0    0    0    0  0.00000000000E+00  0.00000000000E+00  0.45593999997E+02  0.45594000000E+02  0.51100000000E-03 0. -1.
         11   -1    0    0    0    0 -0.00000000000E+00 -0.00000000000E+00 -0.45593999997E+02  0.45594000000E+02  0.51100000000E-03 0.  1.
    9900012    2    1    2    0    0 -0.77301946659E+01  0.23432755270E+02 -0.20195835097E+02  0.59301926482E+02  0.49999968001E+02 0.  0.
         12    1    1    2    0    0  0.77301946659E+01 -0.23432755270E+02  0.20195835097E+02  0.31886073518E+02  0.00000000000E+00 0. -1.
         11    1    3    3    0    0  0.37079711408E+01  0.16244753288E+02 -0.13274118449E+02  0.21303597824E+02  0.51100000000E-03 0. -1.
        -11    1    3    3    0    0 -0.10991031043E+02 -0.81824968728E+01 -0.15257508546E+02  0.20507256904E+02  0.51100000000E-03 0.  1.
         12    1    3    3    0    0 -0.44713476373E+00  0.15370498855E+02  0.83357918974E+01  0.17491071754E+02  0.00000000000E+00 0. -1.
</event>
<event>
 7    1  0.5634483E-012  0.5930193E+02  0.7816164E-02  0.1266605E+00
        -11   -1    0    0    0    0  0.00000000000E+00  0.00000000000E+00  0.45593999997E+02  0.45594000000E+02  0.51100000000E-03 0. -1.
         11   -1    0    0    0    0 -0.00000000000E+00 -0.00000000000E+00 -0.45593999997E+02  0.45594000000E+02  0.51100000000E-03 0.  1.
    9900012    2    1    2    0    0  0.80332717011E+01  0.24299716775E+02 -0.19018728460E+02  0.59301925896E+02  0.49999966931E+02 0.  0.
         12    1    1    2    0    0 -0.80332717011E+01 -0.24299716775E+02  0.19018728460E+02  0.31886074104E+02  0.00000000000E+00 0. -1.
         11    1    3    3    0    0  0.54468682141E+01 -0.55177607932E+01 -0.12878514516E+02  0.15032305010E+02  0.51100000000E-03 0. -1.
        -11    1    3    3    0    0  0.72322913773E+01  0.22050514006E+02  0.10388405252E+02  0.25425384371E+02  0.51100000000E-03 0.  1.
         12    1    3    3    0    0 -0.46458878903E+01  0.77669635623E+01 -0.16528619196E+02  0.18844236514E+02  0.00000000000E+00 0. -1.
</event>
<event>
 7    1  0.5634483E-012  0.5930195E+02  0.7816164E-02  0.1266605E+00
        -11   -1    0    0    0    0  0.00000000000E+00  0.00000000000E+00  0.45593999997E+02  0.45594000000E+02  0.51100000000E-03 0. -1.
         11   -1    0    0    0    0 -0.00000000000E+00 -0.00000000000E+00 -0.45593999997E+02  0.45594000000E+02  0.51100000000E-03 0.  1.
    9900012    2    1    2    0    0 -0.59474039917E+01  0.31303152973E+02 -0.12087962196E+01  0.59301949938E+02  0.50000010779E+02 0.  0.
         12    1    1    2    0    0  0.59474039917E+01 -0.31303152973E+02  0.12087962196E+01  0.31886050062E+02  0.00000000000E+00 0. -1.
         11    1    3    3    0    0  0.45297134002E+01  0.11064498199E+02  0.12672891701E+02  0.17422502926E+02  0.51100000000E-03 0. -1.
        -11    1    3    3    0    0  0.51818469770E+00 -0.59641081541E+01 -0.11988635997E+02  0.13400242341E+02  0.51100000000E-03 0.  1.
         12    1    3    3    0    0 -0.10995302090E+02  0.26202762928E+02 -0.18930519236E+01  0.28479204671E+02  0.00000000000E+00 0. -1.
</event>
<event>
 7    1  0.5634483E-012  0.5930195E+02  0.7816164E-02  0.1266605E+00
        -11   -1    0    0    0    0  0.00000000000E+00  0.00000000000E+00  0.45593999997E+02  0.45594000000E+02  0.51100000000E-03 0. -1.
         11   -1    0    0    0    0 -0.00000000000E+00 -0.00000000000E+00 -0.45593999997E+02  0.45594000000E+02  0.51100000000E-03 0.  1.
    9900012    2    1    2    0    0 -0.14306576285E+02  0.27393730262E+02  0.78502075717E+01  0.59301947538E+02  0.50000006403E+02 0.  0.
         12    1    1    2    0    0  0.14306576285E+02 -0.27393730262E+02 -0.78502075717E+01  0.31886052462E+02  0.00000000000E+00 0. -1.
         11    1    3    3    0    0  0.25787056163E+01 -0.27623478857E+01  0.33667032422E+01  0.50611243296E+01  0.51100000000E-03 0. -1.
        -11    1    3    3    0    0  0.14005547488E+01  0.26243508277E+02  0.17395449375E+02  0.31516423330E+02  0.51100000000E-03 0.  1.
        -12    1    3    3    0    0 -0.18285836650E+02  0.39125698707E+01 -0.12911945046E+02  0.22724399879E+02  0.00000000000E+00 0.  1.
</event>
<event>
 7    1  0.5634483E-012  0.5930217E+02  0.7816164E-02  0.1266604E+00
        -11   -1    0    0    0    0  0.00000000000E+00  0.00000000000E+00  0.45593999997E+02  0.45594000000E+02  0.51100000000E-03 0. -1.
         11   -1    0    0    0    0 -0.00000000000E+00 -0.00000000000E+00 -0.45593999997E+02  0.45594000000E+02  0.51100000000E-03 0.  1.
    9900012    2    1    2    0    0  0.96773579933E+01 -0.29903577589E+02 -0.53694197760E+01  0.59302174323E+02  0.50000420002E+02 0.  0.
         12    1    1    2    0    0 -0.96773579933E+01  0.29903577589E+02  0.53694197760E+01  0.31885825677E+02  0.00000000000E+00 0. -1.
         11    1    3    3    0    0 -0.35384450461E+01  0.47232069760E+01 -0.34255224306E+01  0.68237439625E+01  0.51100000000E-03 0. -1.
        -11    1    3    3    0    0 -0.29732231295E+01 -0.21308293098E+02 -0.16366949876E+02  0.27032581435E+02  0.51100000000E-03 0.  1.
         12    1    3    3    0    0  0.16189026169E+02 -0.13318491467E+02  0.14423052531E+02  0.25445848926E+02  0.00000000000E+00 0. -1.
</event>
<event>
 7    1  0.5634483E-012  0.5930193E+02  0.7816164E-02  0.1266605E+00
        -11   -1    0    0    0    0  0.00000000000E+00  0.00000000000E+00  0.45593999997E+02  0.45594000000E+02  0.51100000000E-03 0. -1.
         11   -1    0    0    0    0 -0.00000000000E+00 -0.00000000000E+00 -0.45593999997E+02  0.45594000000E+02  0.51100000000E-03 0.  1.
    9900012    2    1    2    0    0 -0.13437096585E+02 -0.18078217139E+02 -0.22568646604E+02  0.59301932367E+02  0.49999978734E+02 0.  0.
         12    1    1    2    0    0  0.13437096585E+02  0.18078217139E+02  0.22568646604E+02  0.31886067633E+02  0.00000000000E+00 0. -1.
         11    1    3    3    0    0 -0.35301036938E+00  0.10331826211E+02 -0.63392724512E+01  0.12126731820E+02  0.51100000000E-03 0. -1.
        -11    1    3    3    0    0 -0.28324476925E+01  0.20434024422E+01 -0.14588401580E+02  0.15000657132E+02  0.51100000000E-03 0.  1.
         12    1    3    3    0    0 -0.10251638523E+02 -0.30453445792E+02 -0.16409725728E+01  0.32174543415E+02  0.00000000000E+00 0. -1.
</event>
<event>
 7    1  0.5634483E-012  0.5930200E+02  0.7816164E-02  0.1266605E+00
        -11   -1    0    0    0    0  0.00000000000E+00  0.00000000000E+00  0.45593999997E+02  0.45594000000E+02  0.51100000000E-03 0.  1.
         11   -1    0    0    0    0 -0.00000000000E+00 -0.00000000000E+00 -0.45593999997E+02  0.45594000000E+02  0.51100000000E-03 0. -1.
    9900012    2    1    2    0    0 -0.12791868943E+01  0.96914122248E+01  0.30350572592E+02  0.59301999206E+02  0.50000100631E+02 0.  0.
         12    1    1    2    0    0  0.12791868943E+01 -0.96914122248E+01 -0.30350572592E+02  0.31886000794E+02  0.00000000000E+00 0. -1.
         11    1    3    3    0    0  0.19877413813E+02  0.61229025215E+01  0.16106109828E+02  0.26306050431E+02  0.51100000000E-03 0. -1.
        -11    1    3    3    0    0  0.59152443624E+00  0.76166501031E+01  0.38064965751E+01  0.85353779289E+01  0.51100000000E-03 0.  1.
         12    1    3    3    0    0 -0.21748125144E+02 -0.40481403997E+01  0.10437966188E+02  0.24460570846E+02  0.00000000000E+00 0. -1.
</event>
<event>
 7    1  0.5634483E-012  0.5930195E+02  0.7816164E-02  0.1266605E+00
        -11   -1    0    0    0    0  0.00000000000E+00  0.00000000000E+00  0.45593999997E+02  0.45594000000E+02  0.51100000000E-03 0.  1.
         11   -1    0    0    0    0 -0.00000000000E+00 -0.00000000000E+00 -0.45593999997E+02  0.45594000000E+02  0.51100000000E-03 0. -1.
    9900012    2    1    2    0    0  0.64569540358E+01 -0.30591802954E+02  0.62585459886E+01  0.59301951933E+02  0.50000014418E+02 0.  0.
         12    1    1    2    0    0 -0.64569540358E+01  0.30591802954E+02 -0.62585459886E+01  0.31886048067E+02  0.00000000000E+00 0. -1.
         11    1    3    3    0    0 -0.20146319253E+01 -0.20295226545E+02 -0.36266632706E+01  0.20714913687E+02  0.51100000000E-03 0. -1.
        -11    1    3    3    0    0 -0.49936443116E+01 -0.19890095961E+02  0.77212488254E+01  0.21912783587E+02  0.51100000000E-03 0.  1.
         12    1    3    3    0    0  0.13465230273E+02  0.95935195519E+01  0.21639604338E+01  0.16674254659E+02  0.00000000000E+00 0. -1.
</event>
<event>
 7    1  0.5634483E-012  0.5930196E+02  0.7816164E-02  0.1266605E+00
        -11   -1    0    0    0    0  0.00000000000E+00  0.00000000000E+00  0.45593999997E+02  0.45594000000E+02  0.51100000000E-03 0.  1.
         11   -1    0    0    0    0 -0.00000000000E+00 -0.00000000000E+00 -0.45593999997E+02  0.45594000000E+02  0.51100000000E-03 0. -1.
    9900012    2    1    2    0    0  0.12015297891E+02  0.28646806238E+02 -0.71911698470E+01  0.59301955798E+02  0.50000021467E+02 0.  0.
         12    1    1    2    0    0 -0.12015297891E+02 -0.28646806238E+02  0.71911698470E+01  0.31886044202E+02  0.00000000000E+00 0. -1.
         11    1    3    3    0    0 -0.13433807646E+02  0.16691176183E+02 -0.89859138873E+01  0.23233794329E+02  0.51100000000E-03 0. -1.
        -11    1    3    3    0    0  0.14587292737E+02 -0.49684584762E+01 -0.21969527996E+01  0.15566030030E+02  0.51100000000E-03 0.  1.
        -12    1    3    3    0    0  0.10861812800E+02  0.16924088531E+02  0.39916968399E+01  0.20502131440E+02  0.00000000000E+00 0.  1.
</event>
<event>
 7    1  0.5634483E-012  0.5930195E+02  0.7816164E-02  0.1266605E+00
        -11   -1    0    0    0    0  0.00000000000E+00  0.00000000000E+00  0.45593999997E+02  0.45594000000E+02  0.51100000000E-03 0.  1.
         11   -1    0    0    0    0 -0.00000000000E+00 -0.00000000000E+00 -0.45593999997E+02  0.45594000000E+02  0.51100000000E-03 0. -1.
    9900012    2    1    2    0    0 -0.29224567634E+02 -0.11406243373E+02  0.57046123579E+01  0.59301947510E+02  0.50000006351E+02 0.  0.
         12    1    1    2    0    0  0.29224567634E+02  0.11406243373E+02 -0.57046123579E+01  0.31886052490E+02  0.00000000000E+00 0. -1.
         11    1    3    3    0    0 -0.17489340294E+02  0.75773984115E+01  0.10408860050E+02  0.21717236436E+02  0.51100000000E-03 0. -1.
        -11    1    3    3    0    0 -0.13543980546E+01  0.80852429782E+01  0.98249811266E-01  0.81984877504E+01  0.51100000000E-03 0.  1.
        -12    1    3    3    0    0 -0.10380829284E+02 -0.27068884762E+02 -0.48024975039E+01  0.29386223323E+02  0.00000000000E+00 0.  1.
</event>
<event>
 7    1  0.5634483E-012  0.5930194E+02  0.7816164E-02  0.1266605E+00
        -11   -1    0    0    0    0  0.00000000000E+00  0.00000000000E+00  0.45593999997E+02  0.45594000000E+02  0.51100000000E-03 0.  1.
         11   -1    0    0    0    0 -0.00000000000E+00 -0.00000000000E+00 -0.45593999997E+02  0.45594000000E+02  0.51100000000E-03 0. -1.
    9900012    2    1    2    0    0  0.91810070662E+01  0.30475932073E+02 -0.19097792819E+01  0.59301943747E+02  0.49999999488E+02 0.  0.
         12    1    1    2    0    0 -0.91810070662E+01 -0.30475932073E+02  0.19097792819E+01  0.31886056253E+02  0.00000000000E+00 0. -1.
         11    1    3    3    0    0 -0.17920043046E+01 -0.11566755868E+01  0.49380537750E+00  0.21892971138E+01  0.51100000000E-03 0. -1.
        -11    1    3    3    0    0  0.17623808569E+02 -0.40221069992E+01 -0.90868628259E+01  0.20232326843E+02  0.51100000000E-03 0.  1.
        -12    1    3    3    0    0 -0.66507971986E+01  0.35654714659E+02  0.66832781665E+01  0.36880319790E+02  0.00000000000E+00 0.  1.
</event>
<event>
 7    1  0.5634483E-012  0.5930208E+02  0.7816164E-02  0.1266604E+00
        -11   -1    0    0    0    0  0.00000000000E+00  0.00000000000E+00  0.45593999997E+02  0.45594000000E+02  0.51100000000E-03 0. -1.
         11   -1    0    0    0    0 -0.00000000000E+00 -0.00000000000E+00 -0.45593999997E+02  0.45594000000E+02  0.51100000000E-03 0.  1.
    9900012    2    1    2    0    0 -0.21494521484E+02  0.20475896691E+02 -0.11637648613E+02  0.59302083605E+02  0.50000254555E+02 0.  0.
         12    1    1    2    0    0  0.21494521484E+02 -0.20475896691E+02  0.11637648613E+02  0.31885916395E+02  0.00000000000E+00 0. -1.
         11    1    3    3    0    0 -0.56002872779E+01  0.58134440759E+01 -0.36967522686E+01  0.88783628679E+01  0.51100000000E-03 0. -1.
        -11    1    3    3    0    0 -0.18946706712E+02  0.29271268113E+02 -0.53485906285E+01  0.35275944412E+02  0.51100000000E-03 0.  1.
         12    1    3    3    0    0  0.30524725062E+01 -0.14608815498E+02 -0.25923057160E+01  0.15147776325E+02  0.00000000000E+00 0. -1.
</event>
<event>
 7    1  0.5634483E-012  0.5930210E+02  0.7816164E-02  0.1266604E+00
        -11   -1    0    0    0    0  0.00000000000E+00  0.00000000000E+00  0.45593999997E+02  0.45594000000E+02  0.51100000000E-03 0. -1.
         11   -1    0    0    0    0 -0.00000000000E+00 -0.00000000000E+00 -0.45593999997E+02  0.45594000000E+02  0.51100000000E-03 0.  1.
    9900012    2    1    2    0    0  0.14820677168E+02 -0.84770566099E+01 -0.26929495395E+02  0.59302098998E+02  0.50000282628E+02 0.  0.
         12    1    1    2    0    0 -0.14820677168E+02  0.84770566099E+01  0.26929495395E+02  0.31885901002E+02  0.00000000000E+00 0. -1.
         11    1    3    3    0    0  0.45638627755E+01 -0.53623867214E+01  0.10038818778E+02  0.12262215032E+02  0.51100000000E-03 0. -1.
        -11    1    3    3    0    0 -0.86165101361E+01 -0.11416302017E+01 -0.54783539787E+01  0.10274236177E+02  0.51100000000E-03 0.  1.
        -12    1    3    3    0    0  0.18873324528E+02 -0.19730396869E+01 -0.31489960194E+02  0.36765647789E+02  0.00000000000E+00 0.  1.
</event>
<event>
 7    1  0.5634483E-012  0.5930197E+02  0.7816164E-02  0.1266605E+00
        -11   -1    0    0    0    0  0.00000000000E+00  0.00000000000E+00  0.45593999997E+02  0.45594000000E+02  0.51100000000E-03 0. -1.
         11   -1    0    0    0    0 -0.00000000000E+00 -0.00000000000E+00 -0.45593999997E+02  0.45594000000E+02  0.51100000000E-03 0.  1.
    9900012    2    1    2    0    0 -0.10065668482E+02  0.25387783064E+02 -0.16457876954E+02  0.59301969756E+02  0.50000046923E+02 0.  0.
         12    1    1    2    0    0  0.10065668482E+02 -0.25387783064E+02  0.16457876954E+02  0.31886030244E+02  0.00000000000E+00 0. -1.
         11    1    3    3    0    0  0.61195824625E+01 -0.10517370571E+02  0.36224547919E+01  0.12695926600E+02  0.51100000000E-03 0. -1.
        -11    1    3    3    0    0 -0.55813867021E+01  0.12581158547E+01 -0.16497398470E+01  0.59545255769E+01  0.51100000000E-03 0.  1.
        -12    1    3    3    0    0 -0.10603864243E+02  0.34647037780E+02 -0.18430591899E+02  0.40651517580E+02  0.00000000000E+00 0.  1.
</event>
<event>
 7    1  0.5634483E-012  0.5930193E+02  0.7816164E-02  0.1266605E+00
        -11   -1    0    0    0    0  0.00000000000E+00  0.00000000000E+00  0.45593999997E+02  0.45594000000E+02  0.51100000000E-03 0. -1.
         11   -1    0    0    0    0 -0.00000000000E+00 -0.00000000000E+00 -0.45593999997E+02  0.45594000000E+02  0.51100000000E-03 0.  1.
    9900012    2    1    2    0    0  0.50834869283E+01  0.11831846225E+02 -0.29169966042E+02  0.59301931830E+02  0.49999977754E+02 0.  0.
         12    1    1    2    0    0 -0.50834869283E+01 -0.11831846225E+02  0.29169966042E+02  0.31886068170E+02  0.00000000000E+00 0. -1.
         11    1    3    3    0    0 -0.13041937420E+01  0.25755733110E+01  0.42041270982E+01  0.50999200108E+01  0.51100000000E-03 0. -1.
        -11    1    3    3    0    0 -0.13166664074E+02 -0.35862831515E+01 -0.24895046473E+00  0.13648606020E+02  0.51100000000E-03 0.  1.
        -12    1    3    3    0    0  0.19554344744E+02  0.12842556065E+02 -0.33125142676E+02  0.40553405800E+02  0.00000000000E+00 0.  1.
</event>
<event>
 7    1  0.5634483E-012  0.5930196E+02  0.7816164E-02  0.1266605E+00
        -11   -1    0    0    0    0  0.00000000000E+00  0.00000000000E+00  0.45593999997E+02  0.45594000000E+02  0.51100000000E-03 0.  1.
         11   -1    0    0    0    0 -0.00000000000E+00 -0.00000000000E+00 -0.45593999997E+02  0.45594000000E+02  0.51100000000E-03 0. -1.
    9900012    2    1    2    0    0  0.10007126945E+02  0.26381750364E+02 -0.14851939633E+02  0.59301961475E+02  0.50000031820E+02 0.  0.
         12    1    1    2    0    0 -0.10007126945E+02 -0.26381750364E+02  0.14851939633E+02  0.31886038525E+02  0.00000000000E+00 0. -1.
         11    1    3    3    0    0  0.13600238020E+02  0.10954307280E+02 -0.95904180255E+01  0.19923339086E+02  0.51100000000E-03 0. -1.
        -11    1    3    3    0    0 -0.53521936696E+01  0.39795107999E+01  0.14788924835E+02  0.16223278994E+02  0.51100000000E-03 0.  1.
         12    1    3    3    0    0  0.17590825946E+01  0.11447932284E+02 -0.20050446443E+02  0.23155343395E+02  0.00000000000E+00 0. -1.
</event>
<event>
 7    1  0.5634483E-012  0.5930193E+02  0.7816164E-02  0.1266605E+00
        -11   -1    0    0    0    0  0.00000000000E+00  0.00000000000E+00  0.45593999997E+02  0.45594000000E+02  0.51100000000E-03 0.  1.
         11   -1    0    0    0    0 -0.00000000000E+00 -0.00000000000E+00 -0.45593999997E+02  0.45594000000E+02  0.51100000000E-03 0. -1.
    9900012    2    1    2    0    0  0.54421503491E+01  0.25158178010E+02  0.18819422352E+02  0.59301928137E+02  0.49999971018E+02 0.  0.
         12    1    1    2    0    0 -0.54421503491E+01 -0.25158178010E+02 -0.18819422352E+02  0.31886071863E+02  0.00000000000E+00 0. -1.
         11    1    3    3    0    0 -0.25870268339E+01  0.36627006872E+01 -0.10507910062E+02  0.11424721366E+02  0.51100000000E-03 0. -1.
        -11    1    3    3    0    0  0.18575003117E+02  0.13619671258E+02  0.11575922352E+02  0.25778443796E+02  0.51100000000E-03 0.  1.
        -12    1    3    3    0    0 -0.10545825934E+02  0.78758060651E+01  0.17751410062E+02  0.22098762975E+02  0.00000000000E+00 0.  1.
</event>
<event>
 7    1  0.5634483E-012  0.5930194E+02  0.7816164E-02  0.1266605E+00
        -11   -1    0    0    0    0  0.00000000000E+00  0.00000000000E+00  0.45593999997E+02  0.45594000000E+02  0.51100000000E-03 0.  1.
         11   -1    0    0    0    0 -0.00000000000E+00 -0.00000000000E+00 -0.45593999997E+02  0.45594000000E+02  0.51100000000E-03 0. -1.
    9900012    2    1    2    0    0  0.21821979709E+01 -0.30505350883E+02  0.90212149835E+01  0.59301941287E+02  0.49999995001E+02 0.  0.
         12    1    1    2    0    0 -0.21821979709E+01  0.30505350883E+02 -0.90212149835E+01  0.31886058713E+02  0.00000000000E+00 0. -1.
         11    1    3    3    0    0  0.19810179790E+02 -0.20127059525E+02 -0.50276203076E+01  0.28684816797E+02  0.51100000000E-03 0. -1.
        -11    1    3    3    0    0 -0.45415993393E+00  0.44746375423E+01  0.22690366099E+01  0.50375757839E+01  0.51100000000E-03 0.  1.
        -12    1    3    3    0    0 -0.17173821885E+02 -0.14852928900E+02  0.11779798681E+02  0.25579548706E+02  0.00000000000E+00 0.  1.
</event>
<event>
 7    1  0.5634483E-012  0.5930194E+02  0.7816164E-02  0.1266605E+00
        -11   -1    0    0    0    0  0.00000000000E+00  0.00000000000E+00  0.45593999997E+02  0.45594000000E+02  0.51100000000E-03 0.  1.
         11   -1    0    0    0    0 -0.00000000000E+00 -0.00000000000E+00 -0.45593999997E+02  0.45594000000E+02  0.51100000000E-03 0. -1.
    9900012    2    1    2    0    0 -0.29282874103E+02 -0.99756256695E+01  0.77279250402E+01  0.59301942723E+02  0.49999997621E+02 0.  0.
         12    1    1    2    0    0  0.29282874103E+02  0.99756256695E+01 -0.77279250402E+01  0.31886057277E+02  0.00000000000E+00 0. -1.
         11    1    3    3    0    0  0.26921678627E+01 -0.10819274655E+02 -0.79175387544E+01  0.13674497872E+02  0.51100000000E-03 0. -1.
        -11    1    3    3    0    0 -0.24191877358E+02 -0.63368942815E+01 -0.19577103988E+01  0.25084572739E+02  0.51100000000E-03 0.  1.
         12    1    3    3    0    0 -0.77831646083E+01  0.71805432674E+01  0.17603174193E+02  0.20542872112E+02  0.00000000000E+00 0. -1.
</event>
<event>
 7    1  0.5634483E-012  0.5930184E+02  0.7816164E-02  0.1266605E+00
        -11   -1    0    0    0    0  0.00000000000E+00  0.00000000000E+00  0.45593999997E+02  0.45594000000E+02  0.51100000000E-03 0.  1.
         11   -1    0    0    0    0 -0.00000000000E+00 -0.00000000000E+00 -0.45593999997E+02  0.45594000000E+02  0.51100000000E-03 0. -1.
    9900012    2    1    2    0    0 -0.29554533386E+02  0.85496448223E+01  0.83761851124E+01  0.59301837683E+02  0.49999806052E+02 0.  0.
         12    1    1    2    0    0  0.29554533386E+02 -0.85496448223E+01 -0.83761851124E+01  0.31886162317E+02  0.00000000000E+00 0. -1.
         11    1    3    3    0    0  0.10045626361E+02  0.48230772385E+01  0.61395749436E-01  0.11143628347E+02  0.51100000000E-03 0. -1.
        -11    1    3    3    0    0 -0.11907045186E+01  0.86313653515E+01  0.16145849786E+01  0.88614406276E+01  0.51100000000E-03 0.  1.
         12    1    3    3    0    0 -0.38409455229E+02 -0.49047977677E+01  0.67002043844E+01  0.39296768708E+02  0.00000000000E+00 0. -1.
</event>
<event>
 7    1  0.5634483E-012  0.5930194E+02  0.7816164E-02  0.1266605E+00
        -11   -1    0    0    0    0  0.00000000000E+00  0.00000000000E+00  0.45593999997E+02  0.45594000000E+02  0.51100000000E-03 0.  1.
         11   -1    0    0    0    0 -0.00000000000E+00 -0.00000000000E+00 -0.45593999997E+02  0.45594000000E+02  0.51100000000E-03 0. -1.
    9900012    2    1    2    0    0 -0.52858891565E-01 -0.22853331852E+02  0.22236080995E+02  0.59301939271E+02  0.49999991325E+02 0.  0.
         12    1    1    2    0    0  0.52858891565E-01  0.22853331852E+02 -0.22236080995E+02  0.31886060729E+02  0.00000000000E+00 0. -1.
         11    1    3    3    0    0 -0.15126575643E+02 -0.49192353692E+01  0.12826649795E+02  0.20433675942E+02  0.51100000000E-03 0.  1.
        -11    1    3    3    0    0 -0.75257403356E-01  0.44374309700E+01 -0.62307930200E+01  0.76497868735E+01  0.51100000000E-03 0. -1.
        -12    1    3    3    0    0  0.15148974155E+02 -0.22371527453E+02  0.15640224220E+02  0.31218476455E+02  0.00000000000E+00 0.  1.
</event>
<event>
 7    1  0.5634483E-012  0.5930200E+02  0.7816164E-02  0.1266605E+00
        -11   -1    0    0    0    0  0.00000000000E+00  0.00000000000E+00  0.45593999997E+02  0.45594000000E+02  0.51100000000E-03 0.  1.
         11   -1    0    0    0    0 -0.00000000000E+00 -0.00000000000E+00 -0.45593999997E+02  0.45594000000E+02  0.51100000000E-03 0. -1.
    9900012    2    1    2    0    0  0.22317881888E+02  0.22438191398E+02  0.38931677066E+01  0.59301999310E+02  0.50000100822E+02 0.  0.
         12    1    1    2    0    0 -0.22317881888E+02 -0.22438191398E+02 -0.38931677066E+01  0.31886000690E+02  0.00000000000E+00 0. -1.
         11    1    3    3    0    0 -0.85200214316E+00 -0.23579740069E+01  0.14150197967E+02  0.14370596781E+02  0.51100000000E-03 0. -1.
        -11    1    3    3    0    0  0.61280433174E+01 -0.41795188875E+01  0.39883347883E+01  0.84218826681E+01  0.51100000000E-03 0.  1.
        -12    1    3    3    0    0  0.17041840714E+02  0.28975684292E+02 -0.14245365049E+02  0.36509519861E+02  0.00000000000E+00 0.  1.
</event>
<event>
 7    1  0.5634483E-012  0.5930198E+02  0.7816164E-02  0.1266605E+00
        -11   -1    0    0    0    0  0.00000000000E+00  0.00000000000E+00  0.45593999997E+02  0.45594000000E+02  0.51100000000E-03 0. -1.
         11   -1    0    0    0    0 -0.00000000000E+00 -0.00000000000E+00 -0.45593999997E+02  0.45594000000E+02  0.51100000000E-03 0.  1.
    9900012    2    1    2    0    0  0.27211586597E+02 -0.45147395538E+01 -0.15995781495E+02  0.59301978862E+02  0.50000063529E+02 0.  0.
         12    1    1    2    0    0 -0.27211586597E+02  0.45147395538E+01  0.15995781495E+02  0.31886021138E+02  0.00000000000E+00 0. -1.
         11    1    3    3    0    0  0.14526921768E+02  0.41026489892E+01 -0.25737944952E+01  0.15312988054E+02  0.51100000000E-03 0. -1.
        -11    1    3    3    0    0 -0.12008094036E+01  0.14296427685E+02 -0.79196293242E+00  0.14368611392E+02  0.51100000000E-03 0.  1.
         12    1    3    3    0    0  0.13885474233E+02 -0.22913816228E+02 -0.12630024068E+02  0.29620379416E+02  0.00000000000E+00 0. -1.
</event>
<event>
 7    1  0.5634483E-012  0.5930194E+02  0.7816164E-02  0.1266605E+00
        -11   -1    0    0    0    0  0.00000000000E+00  0.00000000000E+00  0.45593999997E+02  0.45594000000E+02  0.51100000000E-03 0.  1.
         11   -1    0    0    0    0 -0.00000000000E+00 -0.00000000000E+00 -0.45593999997E+02  0.45594000000E+02  0.51100000000E-03 0. -1.
    9900012    2    1    2    0    0 -0.11339136402E+02 -0.10330775948E+02  0.27953884537E+02  0.59301943381E+02  0.49999998820E+02 0.  0.
         12    1    1    2    0    0  0.11339136402E+02  0.10330775948E+02 -0.27953884537E+02  0.31886056619E+02  0.00000000000E+00 0. -1.
         11    1    3    3    0    0 -0.42792599629E+01 -0.12116612371E+01 -0.61626791880E+01  0.75999213035E+01  0.51100000000E-03 0. -1.
        -11    1    3    3    0    0 -0.21101520294E+02 -0.11890214135E+01  0.11916183413E+02  0.24262797819E+02  0.51100000000E-03 0.  1.
        -12    1    3    3    0    0  0.14041643855E+02 -0.79300932974E+01  0.22200380312E+02  0.27439224258E+02  0.00000000000E+00 0.  1.
</event>
<event>
 7    1  0.5634483E-012  0.5930195E+02  0.7816164E-02  0.1266605E+00
        -11   -1    0    0    0    0  0.00000000000E+00  0.00000000000E+00  0.45593999997E+02  0.45594000000E+02  0.51100000000E-03 0.  1.
         11   -1    0    0    0    0 -0.00000000000E+00 -0.00000000000E+00 -0.45593999997E+02  0.45594000000E+02  0.51100000000E-03 0. -1.
    9900012    2    1    2    0    0  0.10450403908E+02 -0.21202427993E+01  0.30050183172E+02  0.59301954776E+02  0.50000019602E+02 0.  0.
         12    1    1    2    0    0 -0.10450403908E+02  0.21202427993E+01 -0.30050183172E+02  0.31886045224E+02  0.00000000000E+00 0. -1.
         11    1    3    3    0    0 -0.69851711851E+01  0.11428582956E+02  0.46189533622E+01  0.14168269312E+02  0.51100000000E-03 0. -1.
        -11    1    3    3    0    0 -0.58147350967E+01 -0.67851335221E+01 -0.13405872085E+01  0.90358372873E+01  0.51100000000E-03 0.  1.
        -12    1    3    3    0    0  0.23250310190E+02 -0.67636922332E+01  0.26771817018E+02  0.36097848177E+02  0.00000000000E+00 0.  1.
</event>
<event>
 7    1  0.5634483E-012  0.5930193E+02  0.7816164E-02  0.1266605E+00
        -11   -1    0    0    0    0  0.00000000000E+00  0.00000000000E+00  0.45593999997E+02  0.45594000000E+02  0.51100000000E-03 0. -1.
         11   -1    0    0    0    0 -0.00000000000E+00 -0.00000000000E+00 -0.45593999997E+02  0.45594000000E+02  0.51100000000E-03 0.  1.
    9900012    2    1    2    0    0 -0.25326711601E+02  0.13407680318E+02 -0.13982599005E+02  0.59301932714E+02  0.49999979367E+02 0.  0.
         12    1    1    2    0    0  0.25326711601E+02 -0.13407680318E+02  0.13982599005E+02  0.31886067286E+02  0.00000000000E+00 0. -1.
         11    1    3    3    0    0  0.79558916131E+00 -0.55297885569E+01 -0.55278265558E+01  0.78592868818E+01  0.51100000000E-03 0.  1.
        -11    1    3    3    0    0  0.24862670333E+01 -0.64035258208E+01  0.73727228122E+01  0.10076889829E+02  0.51100000000E-03 0. -1.
        -12    1    3    3    0    0 -0.28608567795E+02  0.25340994696E+02 -0.15827495262E+02  0.41365756003E+02  0.00000000000E+00 0.  1.
</event>
<event>
 7    1  0.5634483E-012  0.5930214E+02  0.7816164E-02  0.1266604E+00
        -11   -1    0    0    0    0  0.00000000000E+00  0.00000000000E+00  0.45593999997E+02  0.45594000000E+02  0.51100000000E-03 0. -1.
         11   -1    0    0    0    0 -0.00000000000E+00 -0.00000000000E+00 -0.45593999997E+02  0.45594000000E+02  0.51100000000E-03 0.  1.
    9900012    2    1    2    0    0  0.23827278123E+02 -0.19710843294E+02 -0.77750452910E+01  0.59302143333E+02  0.50000363483E+02 0.  0.
         12    1    1    2    0    0 -0.23827278123E+02  0.19710843294E+02  0.77750452910E+01  0.31885856667E+02  0.00000000000E+00 0. -1.
         11    1    3    3    0    0  0.38699249639E+00  0.11108955026E+02  0.39675305672E+01  0.11802539727E+02  0.51100000000E-03 0. -1.
        -11    1    3    3    0    0  0.24787622765E+01 -0.21561885262E+02  0.10273976531E+00  0.21704140486E+02  0.51100000000E-03 0.  1.
         12    1    3    3    0    0  0.20961523350E+02 -0.92579130575E+01 -0.11845315623E+02  0.25795463120E+02  0.00000000000E+00 0. -1.
</event>
<event>
 7    1  0.5634483E-012  0.5930194E+02  0.7816164E-02  0.1266605E+00
        -11   -1    0    0    0    0  0.00000000000E+00  0.00000000000E+00  0.45593999997E+02  0.45594000000E+02  0.51100000000E-03 0.  1.
         11   -1    0    0    0    0 -0.00000000000E+00 -0.00000000000E+00 -0.45593999997E+02  0.45594000000E+02  0.51100000000E-03 0. -1.
    9900012    2    1    2    0    0 -0.11663158582E+02 -0.12149543696E+02  0.27075451995E+02  0.59301940650E+02  0.49999993840E+02 0.  0.
         12    1    1    2    0    0  0.11663158582E+02  0.12149543696E+02 -0.27075451995E+02  0.31886059350E+02  0.00000000000E+00 0. -1.
         11    1    3    3    0    0  0.15670367094E+01  0.19311189254E+00  0.13712382797E+02  0.13802982956E+02  0.51100000000E-03 0. -1.
        -11    1    3    3    0    0 -0.48366105443E+01 -0.18713526571E+02  0.23805194874E+02  0.30663923127E+02  0.51100000000E-03 0.  1.
         12    1    3    3    0    0 -0.83935847468E+01  0.63708709820E+01 -0.10442125676E+02  0.14835034567E+02  0.00000000000E+00 0. -1.
</event>
<event>
 7    1  0.5634483E-012  0.5930197E+02  0.7816164E-02  0.1266605E+00
        -11   -1    0    0    0    0  0.00000000000E+00  0.00000000000E+00  0.45593999997E+02  0.45594000000E+02  0.51100000000E-03 0. -1.
         11   -1    0    0    0    0 -0.00000000000E+00 -0.00000000000E+00 -0.45593999997E+02  0.45594000000E+02  0.51100000000E-03 0.  1.
    9900012    2    1    2    0    0  0.11937560332E+02  0.19620931929E+02 -0.22118609416E+02  0.59301965456E+02  0.50000039080E+02 0.  0.
         12    1    1    2    0    0 -0.11937560332E+02 -0.19620931929E+02  0.22118609416E+02  0.31886034544E+02  0.00000000000E+00 0. -1.
         11    1    3    3    0    0  0.19307573874E+02  0.15977894617E+02 -0.28854957299E+02  0.38218896979E+02  0.51100000000E-03 0. -1.
        -11    1    3    3    0    0 -0.70853394476E+01  0.94301828105E+01 -0.50839109097E+00  0.11806305294E+02  0.51100000000E-03 0.  1.
         12    1    3    3    0    0 -0.28467409451E+00 -0.57871454986E+01  0.72447389741E+01  0.92767631836E+01  0.00000000000E+00 0. -1.
</event>
<event>
 7    1  0.5634483E-012  0.5930194E+02  0.7816164E-02  0.1266605E+00
        -11   -1    0    0    0    0  0.00000000000E+00  0.00000000000E+00  0.45593999997E+02  0.45594000000E+02  0.51100000000E-03 0.  1.
         11   -1    0    0    0    0 -0.00000000000E+00 -0.00000000000E+00 -0.45593999997E+02  0.45594000000E+02  0.51100000000E-03 0. -1.
    9900012    2    1    2    0    0  0.92916269352E+01  0.71653203116E+00  0.30493822020E+02  0.59301938301E+02  0.49999989556E+02 0.  0.
         12    1    1    2    0    0 -0.92916269352E+01 -0.71653203116E+00 -0.30493822020E+02  0.31886061699E+02  0.00000000000E+00 0. -1.
         11    1    3    3    0    0 -0.35689889163E+01 -0.19858164455E+02  0.80987945918E+01  0.21741086714E+02  0.51100000000E-03 0. -1.
        -11    1    3    3    0    0  0.99987131663E+01  0.22573935883E+01  0.28885847162E+01  0.10649601529E+02  0.51100000000E-03 0.  1.
        -12    1    3    3    0    0  0.28619026852E+01  0.18317302898E+02  0.19506442712E+02  0.26911250059E+02  0.00000000000E+00 0.  1.
</event>
<event>
 7    1  0.5634483E-012  0.5930194E+02  0.7816164E-02  0.1266605E+00
        -11   -1    0    0    0    0  0.00000000000E+00  0.00000000000E+00  0.45593999997E+02  0.45594000000E+02  0.51100000000E-03 0. -1.
         11   -1    0    0    0    0 -0.00000000000E+00 -0.00000000000E+00 -0.45593999997E+02  0.45594000000E+02  0.51100000000E-03 0.  1.
    9900012    2    1    2    0    0  0.24639427941E+02  0.72786834854E+01 -0.18884921014E+02  0.59301939029E+02  0.49999990884E+02 0.  0.
         12    1    1    2    0    0 -0.24639427941E+02 -0.72786834854E+01  0.18884921014E+02  0.31886060971E+02  0.00000000000E+00 0. -1.
         11    1    3    3    0    0 -0.14160549131E+01  0.22798148808E+01  0.86826926392E+01  0.90880096355E+01  0.51100000000E-03 0. -1.
        -11    1    3    3    0    0  0.44878853084E+01 -0.95156524837E+01 -0.20864324995E+02  0.23366831503E+02  0.51100000000E-03 0.  1.
        -12    1    3    3    0    0  0.21567597545E+02  0.14514521088E+02 -0.67032886582E+01  0.26847097891E+02  0.00000000000E+00 0.  1.
</event>
<event>
 7    1  0.5687149E-012  0.5930194E+02  0.7816164E-02  0.1266605E+00
        -11   -1    0    0    0    0  0.00000000000E+00  0.00000000000E+00  0.45593999997E+02  0.45594000000E+02  0.51100000000E-03 0. -1.
         11   -1    0    0    0    0 -0.00000000000E+00 -0.00000000000E+00 -0.45593999997E+02  0.45594000000E+02  0.51100000000E-03 0.  1.
    9900012    2    1    2    0    0 -0.99213804253E+01  0.18993447725E+02 -0.23612198725E+02  0.59301940748E+02  0.49999994018E+02 0.  0.
         12    1    1    2    0    0  0.99213804253E+01 -0.18993447725E+02  0.23612198725E+02  0.31886059252E+02  0.00000000000E+00 0. -1.
         11    1    3    3    0    0 -0.31406800940E+00 -0.63381911954E+01 -0.14943953739E+02  0.16235549266E+02  0.51100000000E-03 0. -1.
        -11    1    3    3    0    0 -0.14751928092E+02  0.14954808432E+02 -0.18410098277E+02  0.27932013828E+02  0.51100000000E-03 0.  1.
         12    1    3    3    0    0  0.51446156757E+01  0.10376830488E+02  0.97418532909E+01  0.15134377654E+02  0.00000000000E+00 0. -1.
</event>
<event>
 7    1  0.5634483E-012  0.5930197E+02  0.7816164E-02  0.1266605E+00
        -11   -1    0    0    0    0  0.00000000000E+00  0.00000000000E+00  0.45593999997E+02  0.45594000000E+02  0.51100000000E-03 0.  1.
         11   -1    0    0    0    0 -0.00000000000E+00 -0.00000000000E+00 -0.45593999997E+02  0.45594000000E+02  0.51100000000E-03 0. -1.
    9900012    2    1    2    0    0  0.25272001195E+02 -0.73819466863E+01  0.17987547563E+02  0.59301967814E+02  0.50000043380E+02 0.  0.
         12    1    1    2    0    0 -0.25272001195E+02  0.73819466863E+01 -0.17987547563E+02  0.31886032186E+02  0.00000000000E+00 0. -1.
         11    1    3    3    0    0  0.41629859170E+01 -0.85959184640E+01  0.23907160210E+01  0.98455974597E+01  0.51100000000E-03 0. -1.
        -11    1    3    3    0    0 -0.85926531422E+01  0.82079851671E+01  0.14735947572E+02  0.18930210238E+02  0.51100000000E-03 0.  1.
         12    1    3    3    0    0  0.29701668420E+02 -0.69940133894E+01  0.86088396934E+00  0.30526160116E+02  0.00000000000E+00 0. -1.
</event>
<event>
 7    1  0.5634483E-012  0.5930195E+02  0.7816164E-02  0.1266605E+00
        -11   -1    0    0    0    0  0.00000000000E+00  0.00000000000E+00  0.45593999997E+02  0.45594000000E+02  0.51100000000E-03 0. -1.
         11   -1    0    0    0    0 -0.00000000000E+00 -0.00000000000E+00 -0.45593999997E+02  0.45594000000E+02  0.51100000000E-03 0.  1.
    9900012    2    1    2    0    0 -0.30325209072E+02 -0.92365235407E+01  0.34334233644E+01  0.59301951823E+02  0.50000014216E+02 0.  0.
         12    1    1    2    0    0  0.30325209072E+02  0.92365235407E+01 -0.34334233644E+01  0.31886048177E+02  0.00000000000E+00 0. -1.
         11    1    3    3    0    0  0.15796542688E+01  0.15848349833E+00  0.12995631509E+02  0.13092244392E+02  0.51100000000E-03 0. -1.
        -11    1    3    3    0    0 -0.35019520248E+01 -0.97398867238E+01  0.77629436695E+01  0.12938019789E+02  0.51100000000E-03 0.  1.
        -12    1    3    3    0    0 -0.28402911316E+02  0.34487968484E+00 -0.17325151814E+02  0.33271687643E+02  0.00000000000E+00 0.  1.
</event>
<event>
 7    1  0.5634483E-012  0.5930202E+02  0.7816164E-02  0.1266604E+00
        -11   -1    0    0    0    0  0.00000000000E+00  0.00000000000E+00  0.45593999997E+02  0.45594000000E+02  0.51100000000E-03 0.  1.
         11   -1    0    0    0    0 -0.00000000000E+00 -0.00000000000E+00 -0.45593999997E+02  0.45594000000E+02  0.51100000000E-03 0. -1.
    9900012    2    1    2    0    0  0.12575268564E+02  0.28934185847E+02  0.46250563938E+01  0.59302021315E+02  0.50000140953E+02 0.  0.
         12    1    1    2    0    0 -0.12575268564E+02 -0.28934185847E+02 -0.46250563938E+01  0.31885978685E+02  0.00000000000E+00 0. -1.
         11    1    3    3    0    0 -0.20613461839E+01  0.77481176752E+01  0.60095625579E+01  0.10019846206E+02  0.51100000000E-03 0. -1.
        -11    1    3    3    0    0  0.19992892925E+01 -0.14400100856E+01  0.17210021313E+02  0.17385500297E+02  0.51100000000E-03 0.  1.
         12    1    3    3    0    0  0.12637325455E+02  0.22626078257E+02 -0.18594527477E+02  0.31896674812E+02  0.00000000000E+00 0. -1.
</event>
<event>
 7    1  0.5634483E-012  0.5930193E+02  0.7816164E-02  0.1266605E+00
        -11   -1    0    0    0    0  0.00000000000E+00  0.00000000000E+00  0.45593999997E+02  0.45594000000E+02  0.51100000000E-03 0. -1.
         11   -1    0    0    0    0 -0.00000000000E+00 -0.00000000000E+00 -0.45593999997E+02  0.45594000000E+02  0.51100000000E-03 0.  1.
    9900012    2    1    2    0    0  0.24166500821E+01 -0.18583177402E+02 -0.25798197076E+02  0.59301926984E+02  0.49999968917E+02 0.  0.
         12    1    1    2    0    0 -0.24166500821E+01  0.18583177402E+02  0.25798197076E+02  0.31886073016E+02  0.00000000000E+00 0. -1.
         11    1    3    3    0    0  0.41669791376E+01 -0.10962800118E+01 -0.75751129176E+01  0.87148081432E+01  0.51100000000E-03 0. -1.
        -11    1    3    3    0    0 -0.38815075348E+01  0.79387142751E+01 -0.22990910489E+02  0.24630697320E+02  0.51100000000E-03 0.  1.
         12    1    3    3    0    0  0.21311784792E+01 -0.25425611666E+02  0.47678263301E+01  0.25956421521E+02  0.00000000000E+00 0. -1.
</event>
<event>
 7    1  0.5634483E-012  0.5930194E+02  0.7816164E-02  0.1266605E+00
        -11   -1    0    0    0    0  0.00000000000E+00  0.00000000000E+00  0.45593999997E+02  0.45594000000E+02  0.51100000000E-03 0.  1.
         11   -1    0    0    0    0 -0.00000000000E+00 -0.00000000000E+00 -0.45593999997E+02  0.45594000000E+02  0.51100000000E-03 0. -1.
    9900012    2    1    2    0    0  0.26663649412E+02 -0.17452276278E+02 -0.10902205031E+01  0.59301941479E+02  0.49999995351E+02 0.  0.
         12    1    1    2    0    0 -0.26663649412E+02  0.17452276278E+02  0.10902205031E+01  0.31886058521E+02  0.00000000000E+00 0. -1.
         11    1    3    3    0    0 -0.91581576042E+01 -0.51490315384E+01 -0.10974161357E+01  0.10563555222E+02  0.51100000000E-03 0. -1.
        -11    1    3    3    0    0  0.87624113024E+01  0.36807095694E+01 -0.11812804233E+02  0.15161458336E+02  0.51100000000E-03 0.  1.
        -12    1    3    3    0    0  0.27059395714E+02 -0.15983954309E+02  0.11819999866E+02  0.33576927921E+02  0.00000000000E+00 0.  1.
</event>
<event>
 7    1  0.5634483E-012  0.5930195E+02  0.7816164E-02  0.1266605E+00
        -11   -1    0    0    0    0  0.00000000000E+00  0.00000000000E+00  0.45593999997E+02  0.45594000000E+02  0.51100000000E-03 0. -1.
         11   -1    0    0    0    0 -0.00000000000E+00 -0.00000000000E+00 -0.45593999997E+02  0.45594000000E+02  0.51100000000E-03 0.  1.
    9900012    2    1    2    0    0 -0.24012509177E+02 -0.17869187860E+02  0.10991446737E+02  0.59301947043E+02  0.50000005500E+02 0.  0.
         12    1    1    2    0    0  0.24012509177E+02  0.17869187860E+02 -0.10991446737E+02  0.31886052957E+02  0.00000000000E+00 0. -1.
         11    1    3    3    0    0  0.15314583233E+01  0.33259453449E+00  0.42166476537E+01  0.44984554480E+01  0.51100000000E-03 0. -1.
        -11    1    3    3    0    0 -0.51430528833E+01  0.14690366882E+02  0.34907773664E+00  0.15568549310E+02  0.51100000000E-03 0.  1.
         12    1    3    3    0    0 -0.20400914617E+02 -0.32892149277E+02  0.64257213468E+01  0.39234942285E+02  0.00000000000E+00 0. -1.
</event>
<event>
 7    1  0.5634483E-012  0.5930195E+02  0.7816164E-02  0.1266605E+00
        -11   -1    0    0    0    0  0.00000000000E+00  0.00000000000E+00  0.45593999997E+02  0.45594000000E+02  0.51100000000E-03 0.  1.
         11   -1    0    0    0    0 -0.00000000000E+00 -0.00000000000E+00 -0.45593999997E+02  0.45594000000E+02  0.51100000000E-03 0. -1.
    9900012    2    1    2    0    0  0.67575701507E+01 -0.30060652174E+02  0.82104997123E+01  0.59301954949E+02  0.50000019917E+02 0.  0.
         12    1    1    2    0    0 -0.67575701507E+01  0.30060652174E+02 -0.82104997123E+01  0.31886045051E+02  0.00000000000E+00 0. -1.
         11    1    3    3    0    0  0.16246250602E+02  0.24233398305E+01  0.14243684760E+01  0.16487633559E+02  0.51100000000E-03 0. -1.
        -11    1    3    3    0    0 -0.51356933056E+00 -0.57558030460E+01  0.12747519841E+02  0.13996152490E+02  0.51100000000E-03 0.  1.
         12    1    3    3    0    0 -0.89751111208E+01 -0.26728188959E+02 -0.59613886048E+01  0.28818168900E+02  0.00000000000E+00 0. -1.
</event>
<event>
 7    1  0.5634483E-012  0.5930195E+02  0.7816164E-02  0.1266605E+00
        -11   -1    0    0    0    0  0.00000000000E+00  0.00000000000E+00  0.45593999997E+02  0.45594000000E+02  0.51100000000E-03 0.  1.
         11   -1    0    0    0    0 -0.00000000000E+00 -0.00000000000E+00 -0.45593999997E+02  0.45594000000E+02  0.51100000000E-03 0. -1.
    9900012    2    1    2    0    0 -0.10865267463E+02  0.14244715335E+02 -0.26377147691E+02  0.59301954897E+02  0.50000019822E+02 0.  0.
         12    1    1    2    0    0  0.10865267463E+02 -0.14244715335E+02  0.26377147691E+02  0.31886045103E+02  0.00000000000E+00 0. -1.
         11    1    3    3    0    0 -0.12276759770E+02 -0.65833272819E+01  0.80245580248E+01  0.16076459819E+02  0.51100000000E-03 0. -1.
        -11    1    3    3    0    0 -0.52858364471E+01  0.13513752164E+01 -0.89823641179E+01  0.10509478928E+02  0.51100000000E-03 0.  1.
        -12    1    3    3    0    0  0.66973287539E+01  0.19476667401E+02 -0.25419341598E+02  0.32716016150E+02  0.00000000000E+00 0.  1.
</event>
<event>
 7    1  0.5634483E-012  0.5930195E+02  0.7816164E-02  0.1266605E+00
        -11   -1    0    0    0    0  0.00000000000E+00  0.00000000000E+00  0.45593999997E+02  0.45594000000E+02  0.51100000000E-03 0. -1.
         11   -1    0    0    0    0 -0.00000000000E+00 -0.00000000000E+00 -0.45593999997E+02  0.45594000000E+02  0.51100000000E-03 0.  1.
    9900012    2    1    2    0    0  0.89767439392E+00 -0.10507984334E+02 -0.30091472128E+02  0.59301948991E+02  0.50000009052E+02 0.  0.
         12    1    1    2    0    0 -0.89767439392E+00  0.10507984334E+02  0.30091472128E+02  0.31886051009E+02  0.00000000000E+00 0. -1.
         11    1    3    3    0    0  0.21451151799E+02 -0.11075075260E+02 -0.18596452771E+02  0.30473550194E+02  0.51100000000E-03 0. -1.
        -11    1    3    3    0    0 -0.14814529433E+01  0.61055984016E+01 -0.46706142099E+01  0.78286443286E+01  0.51100000000E-03 0.  1.
        -12    1    3    3    0    0 -0.19072024462E+02 -0.55385074755E+01 -0.68244051479E+01  0.20999754469E+02  0.00000000000E+00 0.  1.
</event>
<event>
 7    1  0.5634483E-012  0.5930194E+02  0.7816164E-02  0.1266605E+00
        -11   -1    0    0    0    0  0.00000000000E+00  0.00000000000E+00  0.45593999997E+02  0.45594000000E+02  0.51100000000E-03 0.  1.
         11   -1    0    0    0    0 -0.00000000000E+00 -0.00000000000E+00 -0.45593999997E+02  0.45594000000E+02  0.51100000000E-03 0. -1.
    9900012    2    1    2    0    0 -0.20688808911E+02 -0.24067389311E+02 -0.30748365900E+01  0.59301942506E+02  0.49999997225E+02 0.  0.
         12    1    1    2    0    0  0.20688808911E+02  0.24067389311E+02  0.30748365900E+01  0.31886057494E+02  0.00000000000E+00 0. -1.
         11    1    3    3    0    0  0.90423623907E+01  0.14873387911E+01 -0.42788598382E+01  0.10113611425E+02  0.51100000000E-03 0. -1.
        -11    1    3    3    0    0 -0.81851957121E+01 -0.62269159251E+01  0.14139911674E+02  0.17484536402E+02  0.51100000000E-03 0.  1.
         12    1    3    3    0    0 -0.21545975590E+02 -0.19327812177E+02 -0.12935888426E+02  0.31703794679E+02  0.00000000000E+00 0. -1.
</event>
<event>
 7    1  0.5634483E-012  0.5930193E+02  0.7816164E-02  0.1266605E+00
        -11   -1    0    0    0    0  0.00000000000E+00  0.00000000000E+00  0.45593999997E+02  0.45594000000E+02  0.51100000000E-03 0.  1.
         11   -1    0    0    0    0 -0.00000000000E+00 -0.00000000000E+00 -0.45593999997E+02  0.45594000000E+02  0.51100000000E-03 0. -1.
    9900012    2    1    2    0    0  0.12341677945E+02  0.18849062548E+02  0.22563633928E+02  0.59301925461E+02  0.49999966140E+02 0.  0.
         12    1    1    2    0    0 -0.12341677945E+02 -0.18849062548E+02 -0.22563633928E+02  0.31886074539E+02  0.00000000000E+00 0. -1.
         11    1    3    3    0    0  0.27899827821E+01  0.11628450537E+02  0.38886775834E+01  0.12574843117E+02  0.51100000000E-03 0. -1.
        -11    1    3    3    0    0  0.19651925076E+02 -0.39543136193E+01  0.23520541657E+02  0.30903893533E+02  0.51100000000E-03 0.  1.
         12    1    3    3    0    0 -0.10100229913E+02  0.11174925631E+02 -0.48455853123E+01  0.15823188811E+02  0.00000000000E+00 0. -1.
</event>
<event>
 7    1  0.5634483E-012  0.5930170E+02  0.7816164E-02  0.1266606E+00
        -11   -1    0    0    0    0  0.00000000000E+00  0.00000000000E+00  0.45593999997E+02  0.45594000000E+02  0.51100000000E-03 0.  1.
         11   -1    0    0    0    0 -0.00000000000E+00 -0.00000000000E+00 -0.45593999997E+02  0.45594000000E+02  0.51100000000E-03 0. -1.
    9900012    2    1    2    0    0  0.94666859036E+01  0.21496751399E+02  0.21564036756E+02  0.59301699745E+02  0.49999554485E+02 0.  0.
         12    1    1    2    0    0 -0.94666859036E+01 -0.21496751399E+02 -0.21564036756E+02  0.31886300255E+02  0.00000000000E+00 0. -1.
         11    1    3    3    0    0  0.38219342289E+01 -0.26115942205E+01 -0.32441725299E+01  0.56526331287E+01  0.51100000000E-03 0. -1.
        -11    1    3    3    0    0  0.19955286510E+02  0.42412703615E+01  0.25505157468E+01  0.20559838637E+02  0.51100000000E-03 0.  1.
        -12    1    3    3    0    0 -0.14310534835E+02  0.19867075258E+02  0.22257693539E+02  0.33089227979E+02  0.00000000000E+00 0.  1.
</event>
<event>
 7    1  0.5634483E-012  0.5930194E+02  0.7816164E-02  0.1266605E+00
        -11   -1    0    0    0    0  0.00000000000E+00  0.00000000000E+00  0.45593999997E+02  0.45594000000E+02  0.51100000000E-03 0.  1.
         11   -1    0    0    0    0 -0.00000000000E+00 -0.00000000000E+00 -0.45593999997E+02  0.45594000000E+02  0.51100000000E-03 0. -1.
    9900012    2    1    2    0    0  0.20197473733E+02  0.11744220182E+02  0.21699225165E+02  0.59301936812E+02  0.49999986840E+02 0.  0.
         12    1    1    2    0    0 -0.20197473733E+02 -0.11744220182E+02 -0.21699225165E+02  0.31886063188E+02  0.00000000000E+00 0. -1.
         11    1    3    3    0    0  0.47007290157E+01 -0.46334126751E+01  0.15637436168E+02  0.16973354897E+02  0.51100000000E-03 0. -1.
        -11    1    3    3    0    0  0.34332349384E+01 -0.11122401343E+02 -0.24938813708E+00  0.11642899488E+02  0.51100000000E-03 0.  1.
        -12    1    3    3    0    0  0.12063509779E+02  0.27500034200E+02  0.63111771339E+01  0.30685682427E+02  0.00000000000E+00 0.  1.
</event>
<event>
 7    1  0.5634483E-012  0.5930194E+02  0.7816164E-02  0.1266605E+00
        -11   -1    0    0    0    0  0.00000000000E+00  0.00000000000E+00  0.45593999997E+02  0.45594000000E+02  0.51100000000E-03 0.  1.
         11   -1    0    0    0    0 -0.00000000000E+00 -0.00000000000E+00 -0.45593999997E+02  0.45594000000E+02  0.51100000000E-03 0. -1.
    9900012    2    1    2    0    0 -0.25195832755E+02 -0.15723236032E+01  0.19478668177E+02  0.59301941861E+02  0.49999996048E+02 0.  0.
         12    1    1    2    0    0  0.25195832755E+02  0.15723236032E+01 -0.19478668177E+02  0.31886058139E+02  0.00000000000E+00 0. -1.
         11    1    3    3    0    0 -0.29683587974E+01  0.92339288224E+01  0.16686888614E+02  0.19301006381E+02  0.51100000000E-03 0. -1.
        -11    1    3    3    0    0 -0.49642049536E+00  0.26570290157E+01 -0.10741283260E+02  0.11076163724E+02  0.51100000000E-03 0.  1.
        -12    1    3    3    0    0 -0.21731053462E+02 -0.13463281441E+02  0.13533062823E+02  0.28924771756E+02  0.00000000000E+00 0.  1.
</event>
<event>
 7    1  0.5634483E-012  0.5930194E+02  0.7816164E-02  0.1266605E+00
        -11   -1    0    0    0    0  0.00000000000E+00  0.00000000000E+00  0.45593999997E+02  0.45594000000E+02  0.51100000000E-03 0.  1.
         11   -1    0    0    0    0 -0.00000000000E+00 -0.00000000000E+00 -0.45593999997E+02  0.45594000000E+02  0.51100000000E-03 0. -1.
    9900012    2    1    2    0    0  0.14827540155E+02  0.23934116666E+02 -0.14967399399E+02  0.59301938274E+02  0.49999989506E+02 0.  0.
         12    1    1    2    0    0 -0.14827540155E+02 -0.23934116666E+02  0.14967399399E+02  0.31886061726E+02  0.00000000000E+00 0. -1.
         11    1    3    3    0    0  0.29560378573E+01 -0.81840088538E+00 -0.48046498346E+01  0.57002280759E+01  0.51100000000E-03 0. -1.
        -11    1    3    3    0    0 -0.10197723900E+02 -0.84577966209E+00  0.99491666713E+01  0.14272169902E+02  0.51100000000E-03 0.  1.
        -12    1    3    3    0    0  0.22069226198E+02  0.25598297214E+02 -0.20111916236E+02  0.39329540296E+02  0.00000000000E+00 0.  1.
</event>
<event>
 7    1  0.5634483E-012  0.5930196E+02  0.7816164E-02  0.1266605E+00
        -11   -1    0    0    0    0  0.00000000000E+00  0.00000000000E+00  0.45593999997E+02  0.45594000000E+02  0.51100000000E-03 0.  1.
         11   -1    0    0    0    0 -0.00000000000E+00 -0.00000000000E+00 -0.45593999997E+02  0.45594000000E+02  0.51100000000E-03 0. -1.
    9900012    2    1    2    0    0  0.64418885423E+01  0.87260215397E+01  0.29984629937E+02  0.59301962109E+02  0.50000032976E+02 0.  0.
         12    1    1    2    0    0 -0.64418885423E+01 -0.87260215397E+01 -0.29984629937E+02  0.31886037891E+02  0.00000000000E+00 0. -1.
         11    1    3    3    0    0 -0.88766724183E+01  0.12226095028E+02  0.38761249070E+01  0.15597982479E+02  0.51100000000E-03 0. -1.
        -11    1    3    3    0    0 -0.58047116075E+01 -0.10205380920E+02  0.14590232556E+02  0.18727502846E+02  0.51100000000E-03 0.  1.
        -12    1    3    3    0    0  0.21123272568E+02  0.67053074320E+01  0.11518272475E+02  0.24976476784E+02  0.00000000000E+00 0.  1.
</event>
<event>
 7    1  0.5634483E-012  0.5930194E+02  0.7816164E-02  0.1266605E+00
        -11   -1    0    0    0    0  0.00000000000E+00  0.00000000000E+00  0.45593999997E+02  0.45594000000E+02  0.51100000000E-03 0. -1.
         11   -1    0    0    0    0 -0.00000000000E+00 -0.00000000000E+00 -0.45593999997E+02  0.45594000000E+02  0.51100000000E-03 0.  1.
    9900012    2    1    2    0    0 -0.18721708966E+02 -0.53848900084E+01 -0.25243240286E+02  0.59301943374E+02  0.49999998808E+02 0.  0.
         12    1    1    2    0    0  0.18721708966E+02  0.53848900084E+01  0.25243240286E+02  0.31886056626E+02  0.00000000000E+00 0. -1.
         11    1    3    3    0    0 -0.75160787503E+01 -0.15678604044E+01  0.94501247021E+01  0.12175979762E+02  0.51100000000E-03 0. -1.
        -11    1    3    3    0    0  0.56087178657E+01 -0.61790890349E+01  0.17103466474E+00  0.83467425093E+01  0.51100000000E-03 0.  1.
        -12    1    3    3    0    0 -0.16814348081E+02  0.23620594308E+01 -0.34864399653E+02  0.38779221102E+02  0.00000000000E+00 0.  1.
</event>
<event>
 7    1  0.5634483E-012  0.5930198E+02  0.7816164E-02  0.1266605E+00
        -11   -1    0    0    0    0  0.00000000000E+00  0.00000000000E+00  0.45593999997E+02  0.45594000000E+02  0.51100000000E-03 0.  1.
         11   -1    0    0    0    0 -0.00000000000E+00 -0.00000000000E+00 -0.45593999997E+02  0.45594000000E+02  0.51100000000E-03 0. -1.
    9900012    2    1    2    0    0 -0.25817294002E+02  0.83217054143E+01 -0.16761106539E+02  0.59301982014E+02  0.50000069278E+02 0.  0.
         12    1    1    2    0    0  0.25817294002E+02 -0.83217054143E+01  0.16761106539E+02  0.31886017986E+02  0.00000000000E+00 0. -1.
         11    1    3    3    0    0 -0.14914497749E+02  0.33008493312E+01 -0.13738614282E+02  0.20544765077E+02  0.51100000000E-03 0. -1.
        -11    1    3    3    0    0 -0.20203520735E+02 -0.68091877946E+01 -0.82005968996E+01  0.22842878065E+02  0.51100000000E-03 0.  1.
        -12    1    3    3    0    0  0.93007244826E+01  0.11830043878E+02  0.51781046427E+01  0.15914338872E+02  0.00000000000E+00 0.  1.
</event>
<event>
 7    1  0.5634483E-012  0.5930195E+02  0.7816164E-02  0.1266605E+00
        -11   -1    0    0    0    0  0.00000000000E+00  0.00000000000E+00  0.45593999997E+02  0.45594000000E+02  0.51100000000E-03 0.  1.
         11   -1    0    0    0    0 -0.00000000000E+00 -0.00000000000E+00 -0.45593999997E+02  0.45594000000E+02  0.51100000000E-03 0. -1.
    9900012    2    1    2    0    0  0.29635019149E+02 -0.11451559761E+02 -0.27107028491E+01  0.59301945198E+02  0.50000002134E+02 0.  0.
         12    1    1    2    0    0 -0.29635019149E+02  0.11451559761E+02  0.27107028491E+01  0.31886054802E+02  0.00000000000E+00 0. -1.
         11    1    3    3    0    0  0.23462751334E+02 -0.47669872549E+01 -0.14413335082E+02  0.27945824305E+02  0.51100000000E-03 0. -1.
        -11    1    3    3    0    0  0.53068927034E+01 -0.10954322290E+02  0.19171703925E+02  0.22709348706E+02  0.51100000000E-03 0.  1.
         12    1    3    3    0    0  0.86537511121E+00  0.42697497838E+01 -0.74690716925E+01  0.86467721866E+01  0.00000000000E+00 0. -1.
</event>
<event>
 7    1  0.5634483E-012  0.5930189E+02  0.7816164E-02  0.1266605E+00
        -11   -1    0    0    0    0  0.00000000000E+00  0.00000000000E+00  0.45593999997E+02  0.45594000000E+02  0.51100000000E-03 0. -1.
         11   -1    0    0    0    0 -0.00000000000E+00 -0.00000000000E+00 -0.45593999997E+02  0.45594000000E+02  0.51100000000E-03 0.  1.
    9900012    2    1    2    0    0 -0.42671160496E+00  0.22270442588E+02 -0.22815991322E+02  0.59301887727E+02  0.49999897321E+02 0.  0.
         12    1    1    2    0    0  0.42671160496E+00 -0.22270442588E+02  0.22815991322E+02  0.31886112273E+02  0.00000000000E+00 0. -1.
         11    1    3    3    0    0 -0.10205381596E+02  0.95145712111E+01 -0.88887592219E+01  0.16543485715E+02  0.51100000000E-03 0. -1.
        -11    1    3    3    0    0 -0.95011043564E+01  0.31380907717E+00 -0.17129089275E+02  0.19590180187E+02  0.51100000000E-03 0.  1.
        -12    1    3    3    0    0  0.19279774347E+02  0.12442062300E+02  0.32018571745E+01  0.23168221825E+02  0.00000000000E+00 0.  1.
</event>
<event>
 7    1  0.5634483E-012  0.5930193E+02  0.7816164E-02  0.1266605E+00
        -11   -1    0    0    0    0  0.00000000000E+00  0.00000000000E+00  0.45593999997E+02  0.45594000000E+02  0.51100000000E-03 0.  1.
         11   -1    0    0    0    0 -0.00000000000E+00 -0.00000000000E+00 -0.45593999997E+02  0.45594000000E+02  0.51100000000E-03 0. -1.
    9900012    2    1    2    0    0 -0.45196975759E+01  0.27724710246E+02  0.15087542380E+02  0.59301934713E+02  0.49999983013E+02 0.  0.
         12    1    1    2    0    0  0.45196975759E+01 -0.27724710246E+02 -0.15087542380E+02  0.31886065287E+02  0.00000000000E+00 0. -1.
         11    1    3    3    0    0  0.97958614414E+01  0.99164529836E+01  0.53029676386E+01  0.14913631590E+02  0.51100000000E-03 0. -1.
        -11    1    3    3    0    0  0.39561186784E+01  0.20685480056E+02  0.14163759069E+02  0.25380150342E+02  0.51100000000E-03 0.  1.
         12    1    3    3    0    0 -0.18271677696E+02 -0.28772227936E+01 -0.43791843272E+01  0.19008152782E+02  0.00000000000E+00 0. -1.
</event>
<event>
 7    1  0.5634483E-012  0.5930197E+02  0.7816164E-02  0.1266605E+00
        -11   -1    0    0    0    0  0.00000000000E+00  0.00000000000E+00  0.45593999997E+02  0.45594000000E+02  0.51100000000E-03 0.  1.
         11   -1    0    0    0    0 -0.00000000000E+00 -0.00000000000E+00 -0.45593999997E+02  0.45594000000E+02  0.51100000000E-03 0. -1.
    9900012    2    1    2    0    0  0.16331160101E+02  0.23874954219E+02  0.13416354815E+02  0.59301971622E+02  0.50000050326E+02 0.  0.
         12    1    1    2    0    0 -0.16331160101E+02 -0.23874954219E+02 -0.13416354815E+02  0.31886028378E+02  0.00000000000E+00 0. -1.
         11    1    3    3    0    0  0.28027075654E+01  0.75630460432E+01 -0.28607625453E+00  0.80707295230E+01  0.51100000000E-03 0. -1.
        -11    1    3    3    0    0  0.28291543702E+02  0.18665696437E+02  0.60251815909E+01  0.34425607939E+02  0.51100000000E-03 0.  1.
         12    1    3    3    0    0 -0.14763091166E+02 -0.23537882612E+01  0.76772494783E+01  0.16805634160E+02  0.00000000000E+00 0. -1.
</event>
<event>
 7    1  0.5634483E-012  0.5930194E+02  0.7816164E-02  0.1266605E+00
        -11   -1    0    0    0    0  0.00000000000E+00  0.00000000000E+00  0.45593999997E+02  0.45594000000E+02  0.51100000000E-03 0.  1.
         11   -1    0    0    0    0 -0.00000000000E+00 -0.00000000000E+00 -0.45593999997E+02  0.45594000000E+02  0.51100000000E-03 0. -1.
    9900012    2    1    2    0    0 -0.37522296652E+01 -0.29178771604E+02  0.12298008537E+02  0.59301937939E+02  0.49999988896E+02 0.  0.
         12    1    1    2    0    0  0.37522296652E+01  0.29178771604E+02 -0.12298008537E+02  0.31886062061E+02  0.00000000000E+00 0. -1.
         11    1    3    3    0    0  0.69024709428E+00 -0.13343055299E+02 -0.72840540935E+01  0.15217457411E+02  0.51100000000E-03 0. -1.
        -11    1    3    3    0    0 -0.15113764834E+02 -0.22321802005E+02  0.12324677881E+02  0.29640958442E+02  0.51100000000E-03 0.  1.
         12    1    3    3    0    0  0.10671288074E+02  0.64860857001E+01  0.72573847491E+01  0.14443522087E+02  0.00000000000E+00 0. -1.
</event>
<event>
 7    1  0.5634483E-012  0.5930194E+02  0.7816164E-02  0.1266605E+00
        -11   -1    0    0    0    0  0.00000000000E+00  0.00000000000E+00  0.45593999997E+02  0.45594000000E+02  0.51100000000E-03 0. -1.
         11   -1    0    0    0    0 -0.00000000000E+00 -0.00000000000E+00 -0.45593999997E+02  0.45594000000E+02  0.51100000000E-03 0.  1.
    9900012    2    1    2    0    0 -0.48158362087E+01 -0.21040021249E+02 -0.23470114444E+02  0.59301936515E+02  0.49999986298E+02 0.  0.
         12    1    1    2    0    0  0.48158362087E+01  0.21040021249E+02  0.23470114444E+02  0.31886063485E+02  0.00000000000E+00 0. -1.
         11    1    3    3    0    0 -0.47799852222E+01 -0.87446276164E+01  0.11674652773E+02  0.15349732522E+02  0.51100000000E-03 0. -1.
        -11    1    3    3    0    0 -0.70839947073E+01  0.74325127322E+00 -0.16310165118E+01  0.73072305692E+01  0.51100000000E-03 0.  1.
        -12    1    3    3    0    0  0.70481437209E+01 -0.13038644906E+02 -0.33513750705E+02  0.36644973424E+02  0.00000000000E+00 0.  1.
</event>
<event>
 7    1  0.5634483E-012  0.5930193E+02  0.7816164E-02  0.1266605E+00
        -11   -1    0    0    0    0  0.00000000000E+00  0.00000000000E+00  0.45593999997E+02  0.45594000000E+02  0.51100000000E-03 0. -1.
         11   -1    0    0    0    0 -0.00000000000E+00 -0.00000000000E+00 -0.45593999997E+02  0.45594000000E+02  0.51100000000E-03 0.  1.
    9900012    2    1    2    0    0 -0.80534092037E+00  0.13882029477E+02 -0.28694291951E+02  0.59301926128E+02  0.49999967356E+02 0.  0.
         12    1    1    2    0    0  0.80534092037E+00 -0.13882029477E+02  0.28694291951E+02  0.31886073872E+02  0.00000000000E+00 0. -1.
         11    1    3    3    0    0  0.24217314637E+01 -0.64909744815E+00  0.69012717930E+01  0.73425924170E+01  0.51100000000E-03 0. -1.
        -11    1    3    3    0    0  0.19890610863E+01 -0.11311129805E+02 -0.10487766130E+02  0.15552853762E+02  0.51100000000E-03 0.  1.
         12    1    3    3    0    0 -0.52161334704E+01  0.25842256730E+02 -0.25107797614E+02  0.36406479950E+02  0.00000000000E+00 0. -1.
</event>
<event>
 7    1  0.5634483E-012  0.5930196E+02  0.7816164E-02  0.1266605E+00
        -11   -1    0    0    0    0  0.00000000000E+00  0.00000000000E+00  0.45593999997E+02  0.45594000000E+02  0.51100000000E-03 0. -1.
         11   -1    0    0    0    0 -0.00000000000E+00 -0.00000000000E+00 -0.45593999997E+02  0.45594000000E+02  0.51100000000E-03 0.  1.
    9900012    2    1    2    0    0 -0.70907267369E+01 -0.31044674333E+02 -0.16337349412E+01  0.59301963872E+02  0.50000036190E+02 0.  0.
         12    1    1    2    0    0  0.70907267369E+01  0.31044674333E+02  0.16337349412E+01  0.31886036128E+02  0.00000000000E+00 0. -1.
         11    1    3    3    0    0  0.58148945885E+01 -0.10302674037E+01 -0.60169218678E+01  0.84307650319E+01  0.51100000000E-03 0. -1.
        -11    1    3    3    0    0 -0.20339753374E+02 -0.27138538085E+01 -0.48920579426E+01  0.21095089500E+02  0.51100000000E-03 0.  1.
         12    1    3    3    0    0  0.74341320489E+01 -0.27300553121E+02  0.92752448691E+01  0.29776109340E+02  0.00000000000E+00 0. -1.
</event>
<event>
 7    1  0.5634483E-012  0.5930195E+02  0.7816164E-02  0.1266605E+00
        -11   -1    0    0    0    0  0.00000000000E+00  0.00000000000E+00  0.45593999997E+02  0.45594000000E+02  0.51100000000E-03 0. -1.
         11   -1    0    0    0    0 -0.00000000000E+00 -0.00000000000E+00 -0.45593999997E+02  0.45594000000E+02  0.51100000000E-03 0.  1.
    9900012    2    1    2    0    0 -0.26890616145E+02  0.15450117104E+02  0.74100318610E+01  0.59301954033E+02  0.50000018248E+02 0.  0.
         12    1    1    2    0    0  0.26890616145E+02 -0.15450117104E+02 -0.74100318610E+01  0.31886045967E+02  0.00000000000E+00 0. -1.
         11    1    3    3    0    0 -0.10638582310E+02 -0.86115473224E+01  0.21473636860E+02  0.25464784725E+02  0.51100000000E-03 0. -1.
        -11    1    3    3    0    0 -0.50050142271E+01  0.72540802890E+01 -0.97797394508E+01  0.13164921277E+02  0.51100000000E-03 0.  1.
        -12    1    3    3    0    0 -0.11247019609E+02  0.16807584138E+02 -0.42838655478E+01  0.20672248031E+02  0.00000000000E+00 0.  1.
</event>
<event>
 7    1  0.5634483E-012  0.5930190E+02  0.7816164E-02  0.1266605E+00
        -11   -1    0    0    0    0  0.00000000000E+00  0.00000000000E+00  0.45593999997E+02  0.45594000000E+02  0.51100000000E-03 0. -1.
         11   -1    0    0    0    0 -0.00000000000E+00 -0.00000000000E+00 -0.45593999997E+02  0.45594000000E+02  0.51100000000E-03 0.  1.
    9900012    2    1    2    0    0  0.13296896791E+02 -0.65856451129E+01 -0.28223130070E+02  0.59301901826E+02  0.49999923034E+02 0.  0.
         12    1    1    2    0    0 -0.13296896791E+02  0.65856451129E+01  0.28223130070E+02  0.31886098174E+02  0.00000000000E+00 0. -1.
         11    1    3    3    0    0 -0.14726934804E+01  0.20176951027E+01  0.75588748282E+01  0.79609364113E+01  0.51100000000E-03 0. -1.
        -11    1    3    3    0    0  0.39649990301E+01  0.10717396651E+02 -0.30519686950E+01  0.11827862083E+02  0.51100000000E-03 0.  1.
        -12    1    3    3    0    0  0.10804591241E+02 -0.19320736867E+02 -0.32730036203E+02  0.39513103331E+02  0.00000000000E+00 0.  1.
</event>
<event>
 7    1  0.5634483E-012  0.5930196E+02  0.7816164E-02  0.1266605E+00
        -11   -1    0    0    0    0  0.00000000000E+00  0.00000000000E+00  0.45593999997E+02  0.45594000000E+02  0.51100000000E-03 0. -1.
         11   -1    0    0    0    0 -0.00000000000E+00 -0.00000000000E+00 -0.45593999997E+02  0.45594000000E+02  0.51100000000E-03 0.  1.
    9900012    2    1    2    0    0 -0.27958860740E+01  0.10062825755E+01 -0.31747286046E+02  0.59301956739E+02  0.50000023182E+02 0.  0.
         12    1    1    2    0    0  0.27958860740E+01 -0.10062825755E+01  0.31747286046E+02  0.31886043261E+02  0.00000000000E+00 0. -1.
         11    1    3    3    0    0 -0.23985673407E+01  0.84609985429E+01  0.94407817376E+01  0.12902324663E+02  0.51100000000E-03 0. -1.
        -11    1    3    3    0    0  0.40831912782E+01 -0.16312341526E+01  0.16382613330E+00  0.44000244474E+01  0.51100000000E-03 0.  1.
        -12    1    3    3    0    0 -0.44805100115E+01 -0.58234818149E+01 -0.41351893917E+02  0.41999607628E+02  0.00000000000E+00 0.  1.
</event>
<event>
 7    1  0.5634483E-012  0.5930198E+02  0.7816164E-02  0.1266605E+00
        -11   -1    0    0    0    0  0.00000000000E+00  0.00000000000E+00  0.45593999997E+02  0.45594000000E+02  0.51100000000E-03 0. -1.
         11   -1    0    0    0    0 -0.00000000000E+00 -0.00000000000E+00 -0.45593999997E+02  0.45594000000E+02  0.51100000000E-03 0.  1.
    9900012    2    1    2    0    0  0.25401362069E+01 -0.23488908795E+02 -0.21413480970E+02  0.59301979621E+02  0.50000064914E+02 0.  0.
         12    1    1    2    0    0 -0.25401362069E+01  0.23488908795E+02  0.21413480970E+02  0.31886020379E+02  0.00000000000E+00 0. -1.
         11    1    3    3    0    0  0.92450784244E+01 -0.26031887554E+02 -0.88351431006E+01  0.29003282548E+02  0.51100000000E-03 0. -1.
        -11    1    3    3    0    0  0.17905835868E+01  0.64767485768E+01  0.63097025389E+01  0.92177441979E+01  0.51100000000E-03 0.  1.
        -12    1    3    3    0    0 -0.84955258043E+01 -0.39337698185E+01 -0.18888040408E+02  0.21080952875E+02  0.00000000000E+00 0.  1.
</event>
<event>
 7    1  0.5634483E-012  0.5930197E+02  0.7816164E-02  0.1266605E+00
        -11   -1    0    0    0    0  0.00000000000E+00  0.00000000000E+00  0.45593999997E+02  0.45594000000E+02  0.51100000000E-03 0. -1.
         11   -1    0    0    0    0 -0.00000000000E+00 -0.00000000000E+00 -0.45593999997E+02  0.45594000000E+02  0.51100000000E-03 0.  1.
    9900012    2    1    2    0    0 -0.80472577727E+01  0.61027701094E+01 -0.30244287521E+02  0.59301967191E+02  0.50000042244E+02 0.  0.
         12    1    1    2    0    0  0.80472577727E+01 -0.61027701094E+01  0.30244287521E+02  0.31886032809E+02  0.00000000000E+00 0. -1.
         11    1    3    3    0    0  0.42148097444E+01  0.27296187663E+01 -0.22882889254E+02  0.23427378442E+02  0.51100000000E-03 0.  1.
        -11    1    3    3    0    0  0.11122092444E+02  0.33907264124E+01 -0.11798103236E+01  0.11687168972E+02  0.51100000000E-03 0. -1.
        -12    1    3    3    0    0 -0.23384159961E+02 -0.17575069289E-01 -0.61815879431E+01  0.24187419777E+02  0.00000000000E+00 0.  1.
</event>
<event>
 7    1  0.5634483E-012  0.5930194E+02  0.7816164E-02  0.1266605E+00
        -11   -1    0    0    0    0  0.00000000000E+00  0.00000000000E+00  0.45593999997E+02  0.45594000000E+02  0.51100000000E-03 0.  1.
         11   -1    0    0    0    0 -0.00000000000E+00 -0.00000000000E+00 -0.45593999997E+02  0.45594000000E+02  0.51100000000E-03 0. -1.
    9900012    2    1    2    0    0  0.31111724644E+02  0.59218252645E+01  0.37031641269E+01  0.59301939576E+02  0.49999991881E+02 0.  0.
         12    1    1    2    0    0 -0.31111724644E+02 -0.59218252645E+01 -0.37031641269E+01  0.31886060424E+02  0.00000000000E+00 0. -1.
         11    1    3    3    0    0 -0.17199216912E+01  0.68387311710E+01 -0.17582638388E+02  0.18944010863E+02  0.51100000000E-03 0. -1.
        -11    1    3    3    0    0  0.44640025566E+01 -0.29453268355E+01  0.61177819558E+01  0.81258553589E+01  0.51100000000E-03 0.  1.
        -12    1    3    3    0    0  0.28367643779E+02  0.20284209290E+01  0.15168020559E+02  0.32232073354E+02  0.00000000000E+00 0.  1.
</event>
<event>
 7    1  0.5634483E-012  0.5930194E+02  0.7816164E-02  0.1266605E+00
        -11   -1    0    0    0    0  0.00000000000E+00  0.00000000000E+00  0.45593999997E+02  0.45594000000E+02  0.51100000000E-03 0.  1.
         11   -1    0    0    0    0 -0.00000000000E+00 -0.00000000000E+00 -0.45593999997E+02  0.45594000000E+02  0.51100000000E-03 0. -1.
    9900012    2    1    2    0    0 -0.21558231246E+02 -0.21593790079E+02  0.92558909913E+01  0.59301943134E+02  0.49999998370E+02 0.  0.
         12    1    1    2    0    0  0.21558231246E+02  0.21593790079E+02 -0.92558909913E+01  0.31886056866E+02  0.00000000000E+00 0. -1.
         11    1    3    3    0    0 -0.18575584827E+02 -0.31680525898E+02 -0.40831966781E+01  0.36951056388E+02  0.51100000000E-03 0. -1.
        -11    1    3    3    0    0  0.57449296061E+01  0.34645358263E+01  0.32377788911E+01  0.74491903640E+01  0.51100000000E-03 0.  1.
        -12    1    3    3    0    0 -0.87275760254E+01  0.66221999925E+01  0.10101308778E+02  0.14901696382E+02  0.00000000000E+00 0.  1.
</event>
<event>
 7    1  0.5634483E-012  0.5930213E+02  0.7816164E-02  0.1266604E+00
        -11   -1    0    0    0    0  0.00000000000E+00  0.00000000000E+00  0.45593999997E+02  0.45594000000E+02  0.51100000000E-03 0. -1.
         11   -1    0    0    0    0 -0.00000000000E+00 -0.00000000000E+00 -0.45593999997E+02  0.45594000000E+02  0.51100000000E-03 0.  1.
    9900012    2    1    2    0    0 -0.25228710238E+02  0.16135370811E+02 -0.10948543293E+02  0.59302131473E+02  0.50000341854E+02 0.  0.
         12    1    1    2    0    0  0.25228710238E+02 -0.16135370811E+02  0.10948543293E+02  0.31885868527E+02  0.00000000000E+00 0. -1.
         11    1    3    3    0    0 -0.13492475698E+02  0.15492704285E+02 -0.44447705357E+01  0.21019675828E+02  0.51100000000E-03 0. -1.
        -11    1    3    3    0    0 -0.17286527737E+01 -0.54997551910E+01 -0.19753941926E+02  0.20577992357E+02  0.51100000000E-03 0.  1.
         12    1    3    3    0    0 -0.10007581766E+02  0.61424217165E+01  0.13250169168E+02  0.17704463288E+02  0.00000000000E+00 0. -1.
</event>
<event>
 7    1  0.5634483E-012  0.5930196E+02  0.7816164E-02  0.1266605E+00
        -11   -1    0    0    0    0  0.00000000000E+00  0.00000000000E+00  0.45593999997E+02  0.45594000000E+02  0.51100000000E-03 0. -1.
         11   -1    0    0    0    0 -0.00000000000E+00 -0.00000000000E+00 -0.45593999997E+02  0.45594000000E+02  0.51100000000E-03 0.  1.
    9900012    2    1    2    0    0  0.18635787761E+02  0.25566948571E+02 -0.39696872734E+01  0.59301955063E+02  0.50000020125E+02 0.  0.
         12    1    1    2    0    0 -0.18635787761E+02 -0.25566948571E+02  0.39696872734E+01  0.31886044937E+02  0.00000000000E+00 0. -1.
         11    1    3    3    0    0 -0.15862018188E+02  0.46089322407E+01  0.68098444699E+00  0.16532078438E+02  0.51100000000E-03 0. -1.
        -11    1    3    3    0    0  0.71105329361E+01  0.11457601580E+02 -0.57959105206E+00  0.13497119643E+02  0.51100000000E-03 0.  1.
        -12    1    3    3    0    0  0.27387273013E+02  0.95004147497E+01 -0.40710806683E+01  0.29272756982E+02  0.00000000000E+00 0.  1.
</event>
<event>
 7    1  0.5634483E-012  0.5930194E+02  0.7816164E-02  0.1266605E+00
        -11   -1    0    0    0    0  0.00000000000E+00  0.00000000000E+00  0.45593999997E+02  0.45594000000E+02  0.51100000000E-03 0.  1.
         11   -1    0    0    0    0 -0.00000000000E+00 -0.00000000000E+00 -0.45593999997E+02  0.45594000000E+02  0.51100000000E-03 0. -1.
    9900012    2    1    2    0    0  0.30289547261E+01  0.28197699331E+02  0.14575186412E+02  0.59301939201E+02  0.49999991198E+02 0.  0.
         12    1    1    2    0    0 -0.30289547261E+01 -0.28197699331E+02 -0.14575186412E+02  0.31886060799E+02  0.00000000000E+00 0. -1.
         11    1    3    3    0    0  0.31242011763E+01  0.75018066161E+01 -0.94466375714E+00  0.81810833861E+01  0.51100000000E-03 0. -1.
        -11    1    3    3    0    0 -0.17206193839E+02  0.17133932505E+02 -0.43383954377E+01  0.24666706808E+02  0.51100000000E-03 0.  1.
         12    1    3    3    0    0  0.17110947389E+02  0.35619602100E+01  0.19858245607E+02  0.26454149007E+02  0.00000000000E+00 0. -1.
</event>
<event>
 7    1  0.5634483E-012  0.5930194E+02  0.7816164E-02  0.1266605E+00
        -11   -1    0    0    0    0  0.00000000000E+00  0.00000000000E+00  0.45593999997E+02  0.45594000000E+02  0.51100000000E-03 0.  1.
         11   -1    0    0    0    0 -0.00000000000E+00 -0.00000000000E+00 -0.45593999997E+02  0.45594000000E+02  0.51100000000E-03 0. -1.
    9900012    2    1    2    0    0  0.26762648534E+02  0.90659514170E+01  0.14774641772E+02  0.59301939235E+02  0.49999991258E+02 0.  0.
         12    1    1    2    0    0 -0.26762648534E+02 -0.90659514170E+01 -0.14774641772E+02  0.31886060765E+02  0.00000000000E+00 0. -1.
         11    1    3    3    0    0  0.24237577868E+00 -0.14147189628E+02  0.32195827971E+01  0.14510941873E+02  0.51100000000E-03 0. -1.
        -11    1    3    3    0    0 -0.41268677515E+01  0.13528705499E+01  0.49260778886E+01  0.65671561417E+01  0.51100000000E-03 0.  1.
         12    1    3    3    0    0  0.30647140507E+02  0.21860270495E+02  0.66289810858E+01  0.38223841220E+02  0.00000000000E+00 0. -1.
</event>
<event>
 7    1  0.5634483E-012  0.5930193E+02  0.7816164E-02  0.1266605E+00
        -11   -1    0    0    0    0  0.00000000000E+00  0.00000000000E+00  0.45593999997E+02  0.45594000000E+02  0.51100000000E-03 0.  1.
         11   -1    0    0    0    0 -0.00000000000E+00 -0.00000000000E+00 -0.45593999997E+02  0.45594000000E+02  0.51100000000E-03 0. -1.
    9900012    2    1    2    0    0 -0.11406775446E+02  0.11541096994E+02  0.27448317429E+02  0.59301928188E+02  0.49999971112E+02 0.  0.
         12    1    1    2    0    0  0.11406775446E+02 -0.11541096994E+02 -0.27448317429E+02  0.31886071812E+02  0.00000000000E+00 0. -1.
         11    1    3    3    0    0 -0.24500109557E+01 -0.46711290032E+01 -0.54677624011E+01  0.75972643618E+01  0.51100000000E-03 0.  1.
        -11    1    3    3    0    0 -0.20619642960E+02  0.42987698644E+01  0.98710487777E+01  0.23261270438E+02  0.51100000000E-03 0. -1.
        -12    1    3    3    0    0  0.11662878470E+02  0.11913456133E+02  0.23045031053E+02  0.28443393389E+02  0.00000000000E+00 0.  1.
</event>
<event>
 7    1  0.5634483E-012  0.5930210E+02  0.7816164E-02  0.1266604E+00
        -11   -1    0    0    0    0  0.00000000000E+00  0.00000000000E+00  0.45593999997E+02  0.45594000000E+02  0.51100000000E-03 0.  1.
         11   -1    0    0    0    0 -0.00000000000E+00 -0.00000000000E+00 -0.45593999997E+02  0.45594000000E+02  0.51100000000E-03 0. -1.
    9900012    2    1    2    0    0  0.93640681324E+00  0.30161301233E+02  0.10301931122E+02  0.59302098184E+02  0.50000281143E+02 0.  0.
         12    1    1    2    0    0 -0.93640681324E+00 -0.30161301233E+02 -0.10301931122E+02  0.31885901816E+02  0.00000000000E+00 0. -1.
         11    1    3    3    0    0 -0.11283299848E+02  0.48670985598E+00 -0.58507045621E+01  0.12719295817E+02  0.51100000000E-03 0. -1.
        -11    1    3    3    0    0  0.69874012252E+01  0.97859386284E+01  0.22113181651E+02  0.25171038392E+02  0.51100000000E-03 0.  1.
        -12    1    3    3    0    0  0.52323054358E+01  0.19888652748E+02 -0.59605459670E+01  0.21411763976E+02  0.00000000000E+00 0.  1.
</event>
<event>
 7    1  0.5634483E-012  0.5930186E+02  0.7816164E-02  0.1266605E+00
        -11   -1    0    0    0    0  0.00000000000E+00  0.00000000000E+00  0.45593999997E+02  0.45594000000E+02  0.51100000000E-03 0.  1.
         11   -1    0    0    0    0 -0.00000000000E+00 -0.00000000000E+00 -0.45593999997E+02  0.45594000000E+02  0.51100000000E-03 0. -1.
    9900012    2    1    2    0    0  0.29501590507E+00 -0.29736720916E+02  0.11505061831E+02  0.59301857980E+02  0.49999843069E+02 0.  0.
         12    1    1    2    0    0 -0.29501590507E+00  0.29736720916E+02 -0.11505061831E+02  0.31886142020E+02  0.00000000000E+00 0. -1.
         11    1    3    3    0    0  0.12974311301E+01 -0.13002279070E+02 -0.13239953038E+02  0.18602122063E+02  0.51100000000E-03 0. -1.
        -11    1    3    3    0    0 -0.18849857229E+01  0.48786525766E+01  0.16898658298E+02  0.17689518780E+02  0.51100000000E-03 0.  1.
         12    1    3    3    0    0  0.88257049787E+00 -0.21613094423E+02  0.78463565713E+01  0.23010217136E+02  0.00000000000E+00 0. -1.
</event>
<event>
 7    1  0.5634483E-012  0.5930194E+02  0.7816164E-02  0.1266605E+00
        -11   -1    0    0    0    0  0.00000000000E+00  0.00000000000E+00  0.45593999997E+02  0.45594000000E+02  0.51100000000E-03 0.  1.
         11   -1    0    0    0    0 -0.00000000000E+00 -0.00000000000E+00 -0.45593999997E+02  0.45594000000E+02  0.51100000000E-03 0. -1.
    9900012    2    1    2    0    0  0.80790431519E+01  0.24079344836E+02  0.19277833698E+02  0.59301942576E+02  0.49999997352E+02 0.  0.
         12    1    1    2    0    0 -0.80790431519E+01 -0.24079344836E+02 -0.19277833698E+02  0.31886057424E+02  0.00000000000E+00 0. -1.
         11    1    3    3    0    0 -0.14382996294E+02  0.12595940618E+02  0.87450100258E+01  0.21023879353E+02  0.51100000000E-03 0. -1.
        -11    1    3    3    0    0 -0.30730533690E+01 -0.21322163556E+00  0.97019773202E+01  0.10179267393E+02  0.51100000000E-03 0.  1.
         12    1    3    3    0    0  0.25535092815E+02  0.11696625854E+02  0.83084635170E+00  0.28098795830E+02  0.00000000000E+00 0. -1.
</event>
<event>
 7    1  0.5634483E-012  0.5930195E+02  0.7816164E-02  0.1266605E+00
        -11   -1    0    0    0    0  0.00000000000E+00  0.00000000000E+00  0.45593999997E+02  0.45594000000E+02  0.51100000000E-03 0.  1.
         11   -1    0    0    0    0 -0.00000000000E+00 -0.00000000000E+00 -0.45593999997E+02  0.45594000000E+02  0.51100000000E-03 0. -1.
    9900012    2    1    2    0    0  0.85718809357E+01  0.10518101886E+02  0.28855027231E+02  0.59301949656E+02  0.50000010264E+02 0.  0.
         12    1    1    2    0    0 -0.85718809357E+01 -0.10518101886E+02 -0.28855027231E+02  0.31886050344E+02  0.00000000000E+00 0. -1.
         11    1    3    3    0    0 -0.11666419044E+02  0.20770347308E+01 -0.33727714512E+01  0.12320511114E+02  0.51100000000E-03 0. -1.
        -11    1    3    3    0    0  0.80923680743E+01  0.16980247321E+02  0.22037583549E+02  0.28973614015E+02  0.51100000000E-03 0.  1.
        -12    1    3    3    0    0  0.12145931905E+02 -0.85391801653E+01  0.10190215133E+02  0.18007824527E+02  0.00000000000E+00 0.  1.
</event>
<event>
 7    1  0.5634483E-012  0.5930194E+02  0.7816164E-02  0.1266605E+00
        -11   -1    0    0    0    0  0.00000000000E+00  0.00000000000E+00  0.45593999997E+02  0.45594000000E+02  0.51100000000E-03 0.  1.
         11   -1    0    0    0    0 -0.00000000000E+00 -0.00000000000E+00 -0.45593999997E+02  0.45594000000E+02  0.51100000000E-03 0. -1.
    9900012    2    1    2    0    0  0.25238622096E+02 -0.14324541697E+02  0.13211362803E+02  0.59301942745E+02  0.49999997661E+02 0.  0.
         12    1    1    2    0    0 -0.25238622096E+02  0.14324541697E+02 -0.13211362803E+02  0.31886057255E+02  0.00000000000E+00 0. -1.
         11    1    3    3    0    0  0.73353084502E+01 -0.11944273727E+02  0.13970699175E+02  0.19790221339E+02  0.51100000000E-03 0. -1.
        -11    1    3    3    0    0  0.25762645422E+02 -0.39233013569E+01  0.83663424663E+01  0.27369725596E+02  0.51100000000E-03 0.  1.
         12    1    3    3    0    0 -0.78593317758E+01  0.15430333876E+01 -0.91256788387E+01  0.12141995811E+02  0.00000000000E+00 0. -1.
</event>
<event>
 7    1  0.5634483E-012  0.5930195E+02  0.7816164E-02  0.1266605E+00
        -11   -1    0    0    0    0  0.00000000000E+00  0.00000000000E+00  0.45593999997E+02  0.45594000000E+02  0.51100000000E-03 0.  1.
         11   -1    0    0    0    0 -0.00000000000E+00 -0.00000000000E+00 -0.45593999997E+02  0.45594000000E+02  0.51100000000E-03 0. -1.
    9900012    2    1    2    0    0  0.10195745445E+01  0.66324430262E+01  0.31171961143E+02  0.59301952985E+02  0.50000016335E+02 0.  0.
         12    1    1    2    0    0 -0.10195745445E+01 -0.66324430262E+01 -0.31171961143E+02  0.31886047015E+02  0.00000000000E+00 0. -1.
         11    1    3    3    0    0 -0.16389740563E+01 -0.54726027689E+01 -0.53021133622E+00  0.57373113342E+01  0.51100000000E-03 0. -1.
        -11    1    3    3    0    0  0.16747576981E+02  0.48173277719E+01 -0.75050030562E+00  0.17442798874E+02  0.51100000000E-03 0.  1.
        -12    1    3    3    0    0 -0.14089028380E+02  0.72877180231E+01  0.32452672785E+02  0.36121842777E+02  0.00000000000E+00 0.  1.
</event>
<event>
 7    1  0.5634483E-012  0.5930196E+02  0.7816164E-02  0.1266605E+00
        -11   -1    0    0    0    0  0.00000000000E+00  0.00000000000E+00  0.45593999997E+02  0.45594000000E+02  0.51100000000E-03 0.  1.
         11   -1    0    0    0    0 -0.00000000000E+00 -0.00000000000E+00 -0.45593999997E+02  0.45594000000E+02  0.51100000000E-03 0. -1.
    9900012    2    1    2    0    0 -0.24309772123E+02  0.20275506470E+02 -0.38286322750E+01  0.59301959035E+02  0.50000027370E+02 0.  0.
         12    1    1    2    0    0  0.24309772123E+02 -0.20275506470E+02  0.38286322750E+01  0.31886040965E+02  0.00000000000E+00 0. -1.
         11    1    3    3    0    0  0.61772061526E+01 -0.20890416215E+01 -0.90896448005E+00  0.65839340394E+01  0.51100000000E-03 0. -1.
        -11    1    3    3    0    0  0.14378444940E+00  0.22003719875E+02 -0.11902205222E+01  0.22036356039E+02  0.51100000000E-03 0.  1.
        -12    1    3    3    0    0 -0.30630762725E+02  0.36082821662E+00 -0.17294472727E+01  0.30681668957E+02  0.00000000000E+00 0.  1.
</event>
<event>
 7    1  0.5634483E-012  0.5930202E+02  0.7816164E-02  0.1266604E+00
        -11   -1    0    0    0    0  0.00000000000E+00  0.00000000000E+00  0.45593999997E+02  0.45594000000E+02  0.51100000000E-03 0. -1.
         11   -1    0    0    0    0 -0.00000000000E+00 -0.00000000000E+00 -0.45593999997E+02  0.45594000000E+02  0.51100000000E-03 0.  1.
    9900012    2    1    2    0    0 -0.29678425201E+02  0.61921717860E+01 -0.98774284734E+01  0.59302023348E+02  0.50000144661E+02 0.  0.
         12    1    1    2    0    0  0.29678425201E+02 -0.61921717860E+01  0.98774284734E+01  0.31885976652E+02  0.00000000000E+00 0. -1.
         11    1    3    3    0    0 -0.41369975570E+01 -0.13511438219E+02 -0.69654864322E-01  0.14130766561E+02  0.51100000000E-03 0. -1.
        -11    1    3    3    0    0 -0.24164094518E+02  0.28890985799E+01 -0.13601384740E+02  0.27879168237E+02  0.51100000000E-03 0.  1.
        -12    1    3    3    0    0 -0.13773331258E+01  0.16814511425E+02  0.37936111311E+01  0.17292088550E+02  0.00000000000E+00 0.  1.
</event>
<event>
 7    1  0.5634483E-012  0.5930191E+02  0.7816164E-02  0.1266605E+00
        -11   -1    0    0    0    0  0.00000000000E+00  0.00000000000E+00  0.45593999997E+02  0.45594000000E+02  0.51100000000E-03 0.  1.
         11   -1    0    0    0    0 -0.00000000000E+00 -0.00000000000E+00 -0.45593999997E+02  0.45594000000E+02  0.51100000000E-03 0. -1.
    9900012    2    1    2    0    0 -0.25384682503E+02 -0.13490526854E+02  0.13796610504E+02  0.59301907703E+02  0.49999933753E+02 0.  0.
         12    1    1    2    0    0  0.25384682503E+02  0.13490526854E+02 -0.13796610504E+02  0.31886092297E+02  0.00000000000E+00 0. -1.
         11    1    3    3    0    0  0.20585923403E+01  0.90519604501E+01 -0.59382483506E+00  0.93020652873E+01  0.51100000000E-03 0. -1.
        -11    1    3    3    0    0 -0.97038609619E+01 -0.81904243283E+01  0.22456397844E+02  0.25798018773E+02  0.51100000000E-03 0.  1.
        -12    1    3    3    0    0 -0.17739413881E+02 -0.14352062975E+02 -0.80659625047E+01  0.24201823643E+02  0.00000000000E+00 0.  1.
</event>
<event>
 7    1  0.5634483E-012  0.5930192E+02  0.7816164E-02  0.1266605E+00
        -11   -1    0    0    0    0  0.00000000000E+00  0.00000000000E+00  0.45593999997E+02  0.45594000000E+02  0.51100000000E-03 0.  1.
         11   -1    0    0    0    0 -0.00000000000E+00 -0.00000000000E+00 -0.45593999997E+02  0.45594000000E+02  0.51100000000E-03 0. -1.
    9900012    2    1    2    0    0 -0.23717632674E+02  0.14938848046E+02  0.15199558058E+02  0.59301923952E+02  0.49999963386E+02 0.  0.
         12    1    1    2    0    0  0.23717632674E+02 -0.14938848046E+02 -0.15199558058E+02  0.31886076048E+02  0.00000000000E+00 0. -1.
         11    1    3    3    0    0 -0.11376378370E+02  0.68712241481E+01  0.30934464884E+01  0.13645699599E+02  0.51100000000E-03 0. -1.
        -11    1    3    3    0    0 -0.17758081956E+02  0.14223058282E+02 -0.78606415651E+01  0.24071446731E+02  0.51100000000E-03 0.  1.
        -12    1    3    3    0    0  0.54168276513E+01 -0.61554343838E+01  0.19966753134E+02  0.21584777622E+02  0.00000000000E+00 0.  1.
</event>
<event>
 7    1  0.5634483E-012  0.5930194E+02  0.7816164E-02  0.1266605E+00
        -11   -1    0    0    0    0  0.00000000000E+00  0.00000000000E+00  0.45593999997E+02  0.45594000000E+02  0.51100000000E-03 0.  1.
         11   -1    0    0    0    0 -0.00000000000E+00 -0.00000000000E+00 -0.45593999997E+02  0.45594000000E+02  0.51100000000E-03 0. -1.
    9900012    2    1    2    0    0  0.15640236982E+02  0.68898990760E+01  0.26919005053E+02  0.59301944189E+02  0.50000000294E+02 0.  0.
         12    1    1    2    0    0 -0.15640236982E+02 -0.68898990760E+01 -0.26919005053E+02  0.31886055811E+02  0.00000000000E+00 0. -1.
         11    1    3    3    0    0  0.17527955525E+01 -0.17366170048E+02  0.44104060989E+01  0.18002995212E+02  0.51100000000E-03 0. -1.
        -11    1    3    3    0    0  0.24935533963E+01 -0.25095845455E+01  0.80943715710E+01  0.88337237065E+01  0.51100000000E-03 0.  1.
        -12    1    3    3    0    0  0.11393888033E+02  0.26765653669E+02  0.14414227383E+02  0.32465225271E+02  0.00000000000E+00 0.  1.
</event>
<event>
 7    1  0.5634483E-012  0.5930196E+02  0.7816164E-02  0.1266605E+00
        -11   -1    0    0    0    0  0.00000000000E+00  0.00000000000E+00  0.45593999997E+02  0.45594000000E+02  0.51100000000E-03 0.  1.
         11   -1    0    0    0    0 -0.00000000000E+00 -0.00000000000E+00 -0.45593999997E+02  0.45594000000E+02  0.51100000000E-03 0. -1.
    9900012    2    1    2    0    0 -0.14383841068E+02 -0.22354507990E+02  0.17609683006E+02  0.59301955295E+02  0.50000020549E+02 0.  0.
         12    1    1    2    0    0  0.14383841068E+02  0.22354507990E+02 -0.17609683006E+02  0.31886044705E+02  0.00000000000E+00 0. -1.
         11    1    3    3    0    0  0.82939103272E+01  0.59933418093E+01 -0.13785179140E+00  0.10233674703E+02  0.51100000000E-03 0. -1.
        -11    1    3    3    0    0 -0.11866875390E+02 -0.13839090713E+01 -0.41947846559E+01  0.12662312364E+02  0.51100000000E-03 0.  1.
         12    1    3    3    0    0 -0.10810876006E+02 -0.26963940728E+02  0.21942319453E+02  0.36405968228E+02  0.00000000000E+00 0. -1.
</event>
<event>
 7    1  0.5634483E-012  0.5930194E+02  0.7816164E-02  0.1266605E+00
        -11   -1    0    0    0    0  0.00000000000E+00  0.00000000000E+00  0.45593999997E+02  0.45594000000E+02  0.51100000000E-03 0.  1.
         11   -1    0    0    0    0 -0.00000000000E+00 -0.00000000000E+00 -0.45593999997E+02  0.45594000000E+02  0.51100000000E-03 0. -1.
    9900012    2    1    2    0    0 -0.10681209973E+02 -0.25791259882E+02 -0.15409194470E+02  0.59301943377E+02  0.49999998812E+02 0.  0.
         12    1    1    2    0    0  0.10681209973E+02  0.25791259882E+02  0.15409194470E+02  0.31886056623E+02  0.00000000000E+00 0. -1.
         11    1    3    3    0    0 -0.72370160541E+01  0.10280760225E+02 -0.13190176018E+01  0.12641528384E+02  0.51100000000E-03 0. -1.
        -11    1    3    3    0    0 -0.59907988684E+01 -0.18117003868E+02 -0.19946100547E+02  0.27603666921E+02  0.51100000000E-03 0.  1.
        -12    1    3    3    0    0  0.25466049500E+01 -0.17955016240E+02  0.58559236787E+01  0.19056748072E+02  0.00000000000E+00 0.  1.
</event>
<event>
 7    1  0.5634483E-012  0.5930198E+02  0.7816164E-02  0.1266605E+00
        -11   -1    0    0    0    0  0.00000000000E+00  0.00000000000E+00  0.45593999997E+02  0.45594000000E+02  0.51100000000E-03 0.  1.
         11   -1    0    0    0    0 -0.00000000000E+00 -0.00000000000E+00 -0.45593999997E+02  0.45594000000E+02  0.51100000000E-03 0. -1.
    9900012    2    1    2    0    0  0.31186210290E+01 -0.61090322444E+00  0.31727264043E+02  0.59301979810E+02  0.50000065259E+02 0.  0.
         12    1    1    2    0    0 -0.31186210290E+01  0.61090322444E+00 -0.31727264043E+02  0.31886020190E+02  0.00000000000E+00 0. -1.
         11    1    3    3    0    0 -0.52666595525E+01 -0.76283993888E+00 -0.20565788320E+01  0.57051857435E+01  0.51100000000E-03 0. -1.
        -11    1    3    3    0    0  0.20692828346E+02  0.10231721190E+02  0.10410057147E+02  0.25322925454E+02  0.51100000000E-03 0.  1.
         12    1    3    3    0    0 -0.12307547765E+02 -0.10079784476E+02  0.23373785729E+02  0.28273868613E+02  0.00000000000E+00 0. -1.
</event>
<event>
 7    1  0.5634483E-012  0.5930197E+02  0.7816164E-02  0.1266605E+00
        -11   -1    0    0    0    0  0.00000000000E+00  0.00000000000E+00  0.45593999997E+02  0.45594000000E+02  0.51100000000E-03 0.  1.
         11   -1    0    0    0    0 -0.00000000000E+00 -0.00000000000E+00 -0.45593999997E+02  0.45594000000E+02  0.51100000000E-03 0. -1.
    9900012    2    1    2    0    0 -0.40528723663E+01  0.16561348884E+02  0.26944666597E+02  0.59301966861E+02  0.50000041643E+02 0.  0.
         12    1    1    2    0    0  0.40528723663E+01 -0.16561348884E+02 -0.26944666597E+02  0.31886033139E+02  0.00000000000E+00 0. -1.
         11    1    3    3    0    0 -0.63863101158E+00 -0.89524309867E+01  0.16269197764E+02  0.18580653010E+02  0.51100000000E-03 0. -1.
        -11    1    3    3    0    0  0.91361729228E+00  0.42264886524E+01  0.17441250332E+02  0.17969282576E+02  0.51100000000E-03 0.  1.
        -12    1    3    3    0    0 -0.43278586470E+01  0.21287291218E+02 -0.67657814984E+01  0.22752031276E+02  0.00000000000E+00 0.  1.
</event>
<event>
 7    1  0.5634483E-012  0.5930195E+02  0.7816164E-02  0.1266605E+00
        -11   -1    0    0    0    0  0.00000000000E+00  0.00000000000E+00  0.45593999997E+02  0.45594000000E+02  0.51100000000E-03 0. -1.
         11   -1    0    0    0    0 -0.00000000000E+00 -0.00000000000E+00 -0.45593999997E+02  0.45594000000E+02  0.51100000000E-03 0.  1.
    9900012    2    1    2    0    0 -0.27771134408E+02  0.13323086348E+02 -0.82449847319E+01  0.59301948043E+02  0.50000007324E+02 0.  0.
         12    1    1    2    0    0  0.27771134408E+02 -0.13323086348E+02  0.82449847319E+01  0.31886051957E+02  0.00000000000E+00 0. -1.
         11    1    3    3    0    0 -0.18499255555E+02  0.35769990126E+01 -0.11541126737E+01  0.18877217866E+02  0.51100000000E-03 0. -1.
        -11    1    3    3    0    0 -0.29716556589E+00  0.21300348267E+02 -0.12648311255E+02  0.24774440893E+02  0.51100000000E-03 0.  1.
         12    1    3    3    0    0 -0.89747132875E+01 -0.11554260932E+02  0.55574391967E+01  0.15650289285E+02  0.00000000000E+00 0. -1.
</event>
<event>
 7    1  0.5634483E-012  0.5930191E+02  0.7816164E-02  0.1266605E+00
        -11   -1    0    0    0    0  0.00000000000E+00  0.00000000000E+00  0.45593999997E+02  0.45594000000E+02  0.51100000000E-03 0.  1.
         11   -1    0    0    0    0 -0.00000000000E+00 -0.00000000000E+00 -0.45593999997E+02  0.45594000000E+02  0.51100000000E-03 0. -1.
    9900012    2    1    2    0    0  0.19141947692E+02 -0.79399081477E+01  0.24233580773E+02  0.59301909931E+02  0.49999937815E+02 0.  0.
         12    1    1    2    0    0 -0.19141947692E+02  0.79399081477E+01 -0.24233580773E+02  0.31886090069E+02  0.00000000000E+00 0. -1.
         11    1    3    3    0    0  0.68664337417E+01  0.83058534778E+01  0.27772594033E+01  0.11128714408E+02  0.51100000000E-03 0. -1.
        -11    1    3    3    0    0  0.15214000468E+02  0.86826669008E+01  0.52190587404E+01  0.18278213511E+02  0.51100000000E-03 0.  1.
         12    1    3    3    0    0 -0.29384865172E+01 -0.24928428526E+02  0.16237262629E+02  0.29894982012E+02  0.00000000000E+00 0. -1.
</event>
<event>
 7    1  0.5634483E-012  0.5930196E+02  0.7816164E-02  0.1266605E+00
        -11   -1    0    0    0    0  0.00000000000E+00  0.00000000000E+00  0.45593999997E+02  0.45594000000E+02  0.51100000000E-03 0. -1.
         11   -1    0    0    0    0 -0.00000000000E+00 -0.00000000000E+00 -0.45593999997E+02  0.45594000000E+02  0.51100000000E-03 0.  1.
    9900012    2    1    2    0    0 -0.59854665754E+01  0.29533545256E+02 -0.10424174227E+02  0.59301960518E+02  0.50000030075E+02 0.  0.
         12    1    1    2    0    0  0.59854665754E+01 -0.29533545256E+02  0.10424174227E+02  0.31886039482E+02  0.00000000000E+00 0. -1.
         11    1    3    3    0    0 -0.55434337796E+01  0.23124270869E+02  0.88362716926E+00  0.23795847506E+02  0.51100000000E-03 0. -1.
        -11    1    3    3    0    0 -0.14146235603E+02  0.53346352290E+01 -0.14974375673E+02  0.21279244390E+02  0.51100000000E-03 0.  1.
         12    1    3    3    0    0  0.13704202807E+02  0.10746391580E+01  0.36665742760E+01  0.14226868623E+02  0.00000000000E+00 0. -1.
</event>
<event>
 7    1  0.5634483E-012  0.5930204E+02  0.7816164E-02  0.1266604E+00
        -11   -1    0    0    0    0  0.00000000000E+00  0.00000000000E+00  0.45593999997E+02  0.45594000000E+02  0.51100000000E-03 0. -1.
         11   -1    0    0    0    0 -0.00000000000E+00 -0.00000000000E+00 -0.45593999997E+02  0.45594000000E+02  0.51100000000E-03 0.  1.
    9900012    2    1    2    0    0  0.19944124865E+02  0.19222958682E+02 -0.15793170584E+02  0.59302039230E+02  0.50000173626E+02 0.  0.
         12    1    1    2    0    0 -0.19944124865E+02 -0.19222958682E+02  0.15793170584E+02  0.31885960770E+02  0.00000000000E+00 0. -1.
         11    1    3    3    0    0 -0.18001930462E+01 -0.50398735132E+01 -0.12445138906E+02  0.13547047748E+02  0.51100000000E-03 0. -1.
        -11    1    3    3    0    0 -0.41576877715E+01  0.14391182553E+02 -0.89857069662E+01  0.17468126197E+02  0.51100000000E-03 0.  1.
        -12    1    3    3    0    0  0.25902005683E+02  0.98716496420E+01  0.56376752878E+01  0.28286865286E+02  0.00000000000E+00 0.  1.
</event>
<event>
 7    1  0.5634483E-012  0.5930193E+02  0.7816164E-02  0.1266605E+00
        -11   -1    0    0    0    0  0.00000000000E+00  0.00000000000E+00  0.45593999997E+02  0.45594000000E+02  0.51100000000E-03 0. -1.
         11   -1    0    0    0    0 -0.00000000000E+00 -0.00000000000E+00 -0.45593999997E+02  0.45594000000E+02  0.51100000000E-03 0.  1.
    9900012    2    1    2    0    0  0.75498040493E+01 -0.15242857763E+02 -0.26969927817E+02  0.59301933130E+02  0.49999980126E+02 0.  0.
         12    1    1    2    0    0 -0.75498040493E+01  0.15242857763E+02  0.26969927817E+02  0.31886066870E+02  0.00000000000E+00 0. -1.
         11    1    3    3    0    0 -0.12569691816E+02  0.58525024346E-01 -0.89953367181E+00  0.12601973600E+02  0.51100000000E-03 0. -1.
        -11    1    3    3    0    0  0.57681443591E+01 -0.32583193600E+01  0.64006500248E+01  0.92117563689E+01  0.51100000000E-03 0.  1.
        -12    1    3    3    0    0  0.14351351506E+02 -0.12043063427E+02 -0.32471044170E+02  0.37488203161E+02  0.00000000000E+00 0.  1.
</event>
<event>
 7    1  0.5634483E-012  0.5930194E+02  0.7816164E-02  0.1266605E+00
        -11   -1    0    0    0    0  0.00000000000E+00  0.00000000000E+00  0.45593999997E+02  0.45594000000E+02  0.51100000000E-03 0. -1.
         11   -1    0    0    0    0 -0.00000000000E+00 -0.00000000000E+00 -0.45593999997E+02  0.45594000000E+02  0.51100000000E-03 0.  1.
    9900012    2    1    2    0    0 -0.28279466307E+01 -0.23877776589E+02  0.20942194443E+02  0.59301937134E+02  0.49999987428E+02 0.  0.
         12    1    1    2    0    0  0.28279466307E+01  0.23877776589E+02 -0.20942194443E+02  0.31886062866E+02  0.00000000000E+00 0. -1.
         11    1    3    3    0    0 -0.48370050291E+01 -0.24105894354E+02  0.25304688742E+02  0.35281978868E+02  0.51100000000E-03 0. -1.
        -11    1    3    3    0    0 -0.48847445479E+01  0.51614644472E+01  0.69123773562E+01  0.99137483079E+01  0.51100000000E-03 0.  1.
        -12    1    3    3    0    0  0.68938029462E+01 -0.49333466825E+01 -0.11274871655E+02  0.14106209958E+02  0.00000000000E+00 0.  1.
</event>
<event>
 7    1  0.5634483E-012  0.5930196E+02  0.7816164E-02  0.1266605E+00
        -11   -1    0    0    0    0  0.00000000000E+00  0.00000000000E+00  0.45593999997E+02  0.45594000000E+02  0.51100000000E-03 0. -1.
         11   -1    0    0    0    0 -0.00000000000E+00 -0.00000000000E+00 -0.45593999997E+02  0.45594000000E+02  0.51100000000E-03 0.  1.
    9900012    2    1    2    0    0  0.18379040186E+02  0.24891632435E+02  0.77030367858E+01  0.59301964511E+02  0.50000037357E+02 0.  0.
         12    1    1    2    0    0 -0.18379040186E+02 -0.24891632435E+02 -0.77030367858E+01  0.31886035489E+02  0.00000000000E+00 0. -1.
         11    1    3    3    0    0 -0.87941667486E+01  0.18820573993E+02  0.21195905133E+01  0.20881667521E+02  0.51100000000E-03 0. -1.
        -11    1    3    3    0    0  0.25788303077E+01  0.51852937234E+01 -0.83330315456E+01  0.10147760923E+02  0.51100000000E-03 0.  1.
         12    1    3    3    0    0  0.24594376627E+02  0.88576471860E+00  0.13916477818E+02  0.28272536067E+02  0.00000000000E+00 0. -1.
</event>
<event>
 7    1  0.5634483E-012  0.5930159E+02  0.7816164E-02  0.1266606E+00
        -11   -1    0    0    0    0  0.00000000000E+00  0.00000000000E+00  0.45593999997E+02  0.45594000000E+02  0.51100000000E-03 0.  1.
         11   -1    0    0    0    0 -0.00000000000E+00 -0.00000000000E+00 -0.45593999997E+02  0.45594000000E+02  0.51100000000E-03 0. -1.
    9900012    2    1    2    0    0 -0.23643636047E+02  0.21165431293E+02  0.31219301561E+01  0.59301585099E+02  0.49999345396E+02 0.  0.
         12    1    1    2    0    0  0.23643636047E+02 -0.21165431293E+02 -0.31219301561E+01  0.31886414901E+02  0.00000000000E+00 0. -1.
         11    1    3    3    0    0  0.27969767831E+01  0.41365421665E+01 -0.27012515733E-01  0.49934747579E+01  0.51100000000E-03 0. -1.
        -11    1    3    3    0    0 -0.31475529442E+01 -0.35615367360E+01  0.18877555125E+02  0.19466733707E+02  0.51100000000E-03 0.  1.
        -12    1    3    3    0    0 -0.23293059886E+02  0.20590425863E+02 -0.15728612453E+02  0.34841376634E+02  0.00000000000E+00 0.  1.
</event>
<event>
 7    1  0.5634483E-012  0.5930196E+02  0.7816164E-02  0.1266605E+00
        -11   -1    0    0    0    0  0.00000000000E+00  0.00000000000E+00  0.45593999997E+02  0.45594000000E+02  0.51100000000E-03 0.  1.
         11   -1    0    0    0    0 -0.00000000000E+00 -0.00000000000E+00 -0.45593999997E+02  0.45594000000E+02  0.51100000000E-03 0. -1.
    9900012    2    1    2    0    0 -0.78227290459E+01 -0.11677678701E+02  0.28620908674E+02  0.59301957867E+02  0.50000025239E+02 0.  0.
         12    1    1    2    0    0  0.78227290459E+01  0.11677678701E+02 -0.28620908674E+02  0.31886042133E+02  0.00000000000E+00 0. -1.
         11    1    3    3    0    0  0.12934834822E+02 -0.11359276526E+01  0.54890995165E+01  0.14097180472E+02  0.51100000000E-03 0. -1.
        -11    1    3    3    0    0  0.26910556124E+01 -0.63323540200E+01 -0.48777030316E+01  0.84340070470E+01  0.51100000000E-03 0.  1.
        -12    1    3    3    0    0 -0.23448619480E+02 -0.42093970288E+01  0.28009512189E+02  0.36770770348E+02  0.00000000000E+00 0.  1.
</event>
<event>
 7    1  0.5634483E-012  0.5930190E+02  0.7816164E-02  0.1266605E+00
        -11   -1    0    0    0    0  0.00000000000E+00  0.00000000000E+00  0.45593999997E+02  0.45594000000E+02  0.51100000000E-03 0. -1.
         11   -1    0    0    0    0 -0.00000000000E+00 -0.00000000000E+00 -0.45593999997E+02  0.45594000000E+02  0.51100000000E-03 0.  1.
    9900012    2    1    2    0    0 -0.24170662416E+02 -0.23489021318E+01 -0.20663623237E+02  0.59301896629E+02  0.49999913557E+02 0.  0.
         12    1    1    2    0    0  0.24170662416E+02  0.23489021318E+01  0.20663623237E+02  0.31886103371E+02  0.00000000000E+00 0. -1.
         11    1    3    3    0    0 -0.82966896172E+01  0.14974939176E+02 -0.32710981587E+01  0.17429398881E+02  0.51100000000E-03 0. -1.
        -11    1    3    3    0    0 -0.17655481750E+02 -0.68369060634E+01 -0.23046398684E+02  0.29826092820E+02  0.51100000000E-03 0.  1.
        -12    1    3    3    0    0  0.17815089508E+01 -0.10486935244E+02  0.56538736052E+01  0.12046404929E+02  0.00000000000E+00 0.  1.
</event>
<event>
 7    1  0.5634483E-012  0.5930195E+02  0.7816164E-02  0.1266605E+00
        -11   -1    0    0    0    0  0.00000000000E+00  0.00000000000E+00  0.45593999997E+02  0.45594000000E+02  0.51100000000E-03 0.  1.
         11   -1    0    0    0    0 -0.00000000000E+00 -0.00000000000E+00 -0.45593999997E+02  0.45594000000E+02  0.51100000000E-03 0. -1.
    9900012    2    1    2    0    0  0.22404172514E+02 -0.13973151850E+02  0.17875234299E+02  0.59301954151E+02  0.50000018462E+02 0.  0.
         12    1    1    2    0    0 -0.22404172514E+02  0.13973151850E+02 -0.17875234299E+02  0.31886045849E+02  0.00000000000E+00 0. -1.
         11    1    3    3    0    0  0.26335246688E+02 -0.75224703437E+01  0.80651685072E+01  0.28551352359E+02  0.51100000000E-03 0. -1.
        -11    1    3    3    0    0 -0.22823701594E+00 -0.15792449322E+02  0.12730535634E+02  0.20285957840E+02  0.51100000000E-03 0.  1.
         12    1    3    3    0    0 -0.37028371583E+01  0.93417678155E+01 -0.29204698420E+01  0.10464643952E+02  0.00000000000E+00 0. -1.
</event>
<event>
 7    1  0.5634483E-012  0.5930194E+02  0.7816164E-02  0.1266605E+00
        -11   -1    0    0    0    0  0.00000000000E+00  0.00000000000E+00  0.45593999997E+02  0.45594000000E+02  0.51100000000E-03 0. -1.
         11   -1    0    0    0    0 -0.00000000000E+00 -0.00000000000E+00 -0.45593999997E+02  0.45594000000E+02  0.51100000000E-03 0.  1.
    9900012    2    1    2    0    0  0.11875877974E+02  0.20879630781E+02 -0.20969624780E+02  0.59301943132E+02  0.49999998366E+02 0.  0.
         12    1    1    2    0    0 -0.11875877974E+02 -0.20879630781E+02  0.20969624780E+02  0.31886056868E+02  0.00000000000E+00 0. -1.
         11    1    3    3    0    0 -0.10326875619E+02 -0.60321162632E+01 -0.68052618570E+01  0.13760173541E+02  0.51100000000E-03 0. -1.
        -11    1    3    3    0    0  0.13448716978E+02  0.62847663077E+01  0.53986071874E+01  0.15795924655E+02  0.51100000000E-03 0.  1.
        -12    1    3    3    0    0  0.87540366152E+01  0.20626980737E+02 -0.19562970111E+02  0.29745844935E+02  0.00000000000E+00 0.  1.
</event>
<event>
 7    1  0.5634483E-012  0.5930197E+02  0.7816164E-02  0.1266605E+00
        -11   -1    0    0    0    0  0.00000000000E+00  0.00000000000E+00  0.45593999997E+02  0.45594000000E+02  0.51100000000E-03 0.  1.
         11   -1    0    0    0    0 -0.00000000000E+00 -0.00000000000E+00 -0.45593999997E+02  0.45594000000E+02  0.51100000000E-03 0. -1.
    9900012    2    1    2    0    0 -0.53776092984E+01 -0.26622294740E+02  0.16704893999E+02  0.59301972613E+02  0.50000052132E+02 0.  0.
         12    1    1    2    0    0  0.53776092984E+01  0.26622294740E+02 -0.16704893999E+02  0.31886027387E+02  0.00000000000E+00 0. -1.
         11    1    3    3    0    0 -0.21055647493E+01 -0.72081187051E+01 -0.40598783186E+01  0.85365678351E+01  0.51100000000E-03 0. -1.
        -11    1    3    3    0    0  0.14548651244E+02 -0.26953777169E+01 -0.46494248226E+01  0.15509528217E+02  0.51100000000E-03 0.  1.
        -12    1    3    3    0    0 -0.17820695794E+02 -0.16718798318E+02  0.25414197141E+02  0.35255876561E+02  0.00000000000E+00 0.  1.
</event>
<event>
 7    1  0.5634483E-012  0.5930194E+02  0.7816164E-02  0.1266605E+00
        -11   -1    0    0    0    0  0.00000000000E+00  0.00000000000E+00  0.45593999997E+02  0.45594000000E+02  0.51100000000E-03 0.  1.
         11   -1    0    0    0    0 -0.00000000000E+00 -0.00000000000E+00 -0.45593999997E+02  0.45594000000E+02  0.51100000000E-03 0. -1.
    9900012    2    1    2    0    0  0.77867854861E+01 -0.18794481865E+02  0.24553088686E+02  0.59301941278E+02  0.49999994985E+02 0.  0.
         12    1    1    2    0    0 -0.77867854861E+01  0.18794481865E+02 -0.24553088686E+02  0.31886058722E+02  0.00000000000E+00 0. -1.
         11    1    3    3    0    0 -0.62570024186E+01  0.49655815497E+00  0.72048790231E+01  0.95554660413E+01  0.51100000000E-03 0. -1.
        -11    1    3    3    0    0 -0.10918342216E+02 -0.16976553086E+02  0.13744069629E+02  0.24419520914E+02  0.51100000000E-03 0.  1.
         12    1    3    3    0    0  0.24962130120E+02 -0.23144869342E+01  0.36041400335E+01  0.25326954323E+02  0.00000000000E+00 0. -1.
</event>
<event>
 7    1  0.5634483E-012  0.5930198E+02  0.7816164E-02  0.1266605E+00
        -11   -1    0    0    0    0  0.00000000000E+00  0.00000000000E+00  0.45593999997E+02  0.45594000000E+02  0.51100000000E-03 0.  1.
         11   -1    0    0    0    0 -0.00000000000E+00 -0.00000000000E+00 -0.45593999997E+02  0.45594000000E+02  0.51100000000E-03 0. -1.
    9900012    2    1    2    0    0  0.26076712089E+02  0.12866585958E+02  0.13083362830E+02  0.59301979073E+02  0.50000063915E+02 0.  0.
         12    1    1    2    0    0 -0.26076712089E+02 -0.12866585958E+02 -0.13083362830E+02  0.31886020927E+02  0.00000000000E+00 0. -1.
         11    1    3    3    0    0  0.43235272609E+01  0.17569094854E+02 -0.17807547816E+01  0.18180678475E+02  0.51100000000E-03 0.  1.
        -11    1    3    3    0    0  0.24680568105E+02 -0.69988056715E+01 -0.14887376189E+00  0.25654159243E+02  0.51100000000E-03 0. -1.
         12    1    3    3    0    0 -0.29273832766E+01  0.22962967761E+01  0.15012991374E+02  0.15467141356E+02  0.00000000000E+00 0. -1.
</event>
<event>
 7    1  0.5634483E-012  0.5930194E+02  0.7816164E-02  0.1266605E+00
        -11   -1    0    0    0    0  0.00000000000E+00  0.00000000000E+00  0.45593999997E+02  0.45594000000E+02  0.51100000000E-03 0.  1.
         11   -1    0    0    0    0 -0.00000000000E+00 -0.00000000000E+00 -0.45593999997E+02  0.45594000000E+02  0.51100000000E-03 0. -1.
    9900012    2    1    2    0    0  0.51264505932E+01 -0.27556145135E+02  0.15201951088E+02  0.59301938040E+02  0.49999989080E+02 0.  0.
         12    1    1    2    0    0 -0.51264505932E+01  0.27556145135E+02 -0.15201951088E+02  0.31886061960E+02  0.00000000000E+00 0. -1.
         11    1    3    3    0    0 -0.10481426319E+02 -0.31261739641E+02  0.20607981222E+02  0.38882458170E+02  0.51100000000E-03 0. -1.
        -11    1    3    3    0    0  0.87205937987E+01 -0.37328894609E+01 -0.34585258858E+01  0.10096762921E+02  0.51100000000E-03 0.  1.
        -12    1    3    3    0    0  0.68872831130E+01  0.74384839668E+01 -0.19475042476E+01  0.10322716948E+02  0.00000000000E+00 0.  1.
</event>
<event>
 7    1  0.5634483E-012  0.5930195E+02  0.7816164E-02  0.1266605E+00
        -11   -1    0    0    0    0  0.00000000000E+00  0.00000000000E+00  0.45593999997E+02  0.45594000000E+02  0.51100000000E-03 0.  1.
         11   -1    0    0    0    0 -0.00000000000E+00 -0.00000000000E+00 -0.45593999997E+02  0.45594000000E+02  0.51100000000E-03 0. -1.
    9900012    2    1    2    0    0 -0.25462331102E+01  0.24491657802E+02  0.20258218333E+02  0.59301952660E+02  0.50000015744E+02 0.  0.
         12    1    1    2    0    0  0.25462331102E+01 -0.24491657802E+02 -0.20258218333E+02  0.31886047340E+02  0.00000000000E+00 0. -1.
         11    1    3    3    0    0 -0.16436629932E+02  0.39657099031E+01  0.76641403560E+01  0.18564178037E+02  0.51100000000E-03 0. -1.
        -11    1    3    3    0    0  0.40041992823E+01  0.37135702336E+01  0.19343223554E+02  0.20099365998E+02  0.51100000000E-03 0.  1.
         12    1    3    3    0    0  0.98861975393E+01  0.16812377665E+02 -0.67491455776E+01  0.20638408625E+02  0.00000000000E+00 0. -1.
</event>
<event>
 7    1  0.5634483E-012  0.5930192E+02  0.7816164E-02  0.1266605E+00
        -11   -1    0    0    0    0  0.00000000000E+00  0.00000000000E+00  0.45593999997E+02  0.45594000000E+02  0.51100000000E-03 0.  1.
         11   -1    0    0    0    0 -0.00000000000E+00 -0.00000000000E+00 -0.45593999997E+02  0.45594000000E+02  0.51100000000E-03 0. -1.
    9900012    2    1    2    0    0  0.12833025346E+02  0.65221854149E+01  0.28451655565E+02  0.59301919236E+02  0.49999954785E+02 0.  0.
         12    1    1    2    0    0 -0.12833025346E+02 -0.65221854149E+01 -0.28451655565E+02  0.31886080764E+02  0.00000000000E+00 0. -1.
         11    1    3    3    0    0  0.11605365581E+02 -0.15769408008E+02  0.60404210561E+01  0.20490129966E+02  0.51100000000E-03 0. -1.
        -11    1    3    3    0    0  0.62448229837E+01  0.51271997342E+01  0.18945319744E+02  0.20596386375E+02  0.51100000000E-03 0.  1.
        -12    1    3    3    0    0 -0.50171632194E+01  0.17164393689E+02  0.34659147645E+01  0.18215402895E+02  0.00000000000E+00 0.  1.
</event>
<event>
 7    1  0.5634483E-012  0.5930202E+02  0.7816164E-02  0.1266605E+00
        -11   -1    0    0    0    0  0.00000000000E+00  0.00000000000E+00  0.45593999997E+02  0.45594000000E+02  0.51100000000E-03 0.  1.
         11   -1    0    0    0    0 -0.00000000000E+00 -0.00000000000E+00 -0.45593999997E+02  0.45594000000E+02  0.51100000000E-03 0. -1.
    9900012    2    1    2    0    0 -0.65064563058E+01 -0.12606984654E+02  0.28556010925E+02  0.59302018822E+02  0.50000136406E+02 0.  0.
         12    1    1    2    0    0  0.65064563058E+01  0.12606984654E+02 -0.28556010925E+02  0.31885981178E+02  0.00000000000E+00 0. -1.
         11    1    3    3    0    0 -0.55297150821E+01  0.59475882648E+00 -0.86701624330E+01  0.10300640943E+02  0.51100000000E-03 0. -1.
        -11    1    3    3    0    0  0.57383205032E+01  0.78600146541E+01  0.10472333749E+02  0.14296080826E+02  0.51100000000E-03 0.  1.
         12    1    3    3    0    0 -0.67150617270E+01 -0.21061758135E+02  0.26753839610E+02  0.34705297054E+02  0.00000000000E+00 0. -1.
</event>
<event>
 7    1  0.5634483E-012  0.5930192E+02  0.7816164E-02  0.1266605E+00
        -11   -1    0    0    0    0  0.00000000000E+00  0.00000000000E+00  0.45593999997E+02  0.45594000000E+02  0.51100000000E-03 0. -1.
         11   -1    0    0    0    0 -0.00000000000E+00 -0.00000000000E+00 -0.45593999997E+02  0.45594000000E+02  0.51100000000E-03 0.  1.
    9900012    2    1    2    0    0  0.27279614767E+02 -0.93272811631E+01  0.13621542185E+02  0.59301922047E+02  0.49999959912E+02 0.  0.
         12    1    1    2    0    0 -0.27279614767E+02  0.93272811631E+01 -0.13621542185E+02  0.31886077953E+02  0.00000000000E+00 0. -1.
         11    1    3    3    0    0  0.34943059889E+01 -0.44100954549E+01 -0.57236328025E+01  0.80261503215E+01  0.51100000000E-03 0. -1.
        -11    1    3    3    0    0  0.15428124651E+02  0.15308463900E+02 -0.49057818828E+00  0.21739750790E+02  0.51100000000E-03 0.  1.
         12    1    3    3    0    0  0.83571841276E+01 -0.20225649608E+02  0.19835753176E+02  0.29536020935E+02  0.00000000000E+00 0. -1.
</event>
<event>
 7    1  0.5634483E-012  0.5930193E+02  0.7816164E-02  0.1266605E+00
        -11   -1    0    0    0    0  0.00000000000E+00  0.00000000000E+00  0.45593999997E+02  0.45594000000E+02  0.51100000000E-03 0.  1.
         11   -1    0    0    0    0 -0.00000000000E+00 -0.00000000000E+00 -0.45593999997E+02  0.45594000000E+02  0.51100000000E-03 0. -1.
    9900012    2    1    2    0    0  0.12766823461E+02  0.15202896391E+02  0.24951990057E+02  0.59301927057E+02  0.49999969049E+02 0.  0.
         12    1    1    2    0    0 -0.12766823461E+02 -0.15202896391E+02 -0.24951990057E+02  0.31886072943E+02  0.00000000000E+00 0. -1.
         11    1    3    3    0    0  0.29753006187E+01 -0.32240311152E+01  0.10331128142E+02  0.11224036678E+02  0.51100000000E-03 0. -1.
        -11    1    3    3    0    0  0.21845860575E+02  0.17241442527E+02  0.20547209562E+02  0.34593305504E+02  0.51100000000E-03 0.  1.
         12    1    3    3    0    0 -0.12054337733E+02  0.11854849797E+01 -0.59263476470E+01  0.13484584875E+02  0.00000000000E+00 0. -1.
</event>
<event>
 7    1  0.5634483E-012  0.5930197E+02  0.7816164E-02  0.1266605E+00
        -11   -1    0    0    0    0  0.00000000000E+00  0.00000000000E+00  0.45593999997E+02  0.45594000000E+02  0.51100000000E-03 0.  1.
         11   -1    0    0    0    0 -0.00000000000E+00 -0.00000000000E+00 -0.45593999997E+02  0.45594000000E+02  0.51100000000E-03 0. -1.
    9900012    2    1    2    0    0 -0.19123922110E+02  0.23391020450E+01  0.25407152130E+02  0.59301965838E+02  0.50000039776E+02 0.  0.
         12    1    1    2    0    0  0.19123922110E+02 -0.23391020450E+01 -0.25407152130E+02  0.31886034162E+02  0.00000000000E+00 0. -1.
         11    1    3    3    0    0 -0.19458888485E+02  0.28208546911E+01 -0.88973773570E+01  0.21581679415E+02  0.51100000000E-03 0. -1.
        -11    1    3    3    0    0 -0.65169560395E+01 -0.42810519469E+01  0.18659454065E+02  0.20223089479E+02  0.51100000000E-03 0.  1.
        -12    1    3    3    0    0  0.68519224145E+01  0.37992993008E+01  0.15645075422E+02  0.17497196944E+02  0.00000000000E+00 0.  1.
</event>
<event>
 7    1  0.5634483E-012  0.5930170E+02  0.7816164E-02  0.1266606E+00
        -11   -1    0    0    0    0  0.00000000000E+00  0.00000000000E+00  0.45593999997E+02  0.45594000000E+02  0.51100000000E-03 0. -1.
         11   -1    0    0    0    0 -0.00000000000E+00 -0.00000000000E+00 -0.45593999997E+02  0.45594000000E+02  0.51100000000E-03 0.  1.
    9900012    2    1    2    0    0 -0.19100665331E+02 -0.11224807915E+02 -0.22932608874E+02  0.59301697634E+02  0.49999550635E+02 0.  0.
         12    1    1    2    0    0  0.19100665331E+02  0.11224807915E+02  0.22932608874E+02  0.31886302366E+02  0.00000000000E+00 0. -1.
         11    1    3    3    0    0  0.64043464377E+01  0.11991629092E+00  0.26580098541E+01  0.69350594703E+01  0.51100000000E-03 0. -1.
        -11    1    3    3    0    0 -0.16639011098E+02  0.94414349472E+01 -0.12780562655E+01  0.19173701058E+02  0.51100000000E-03 0.  1.
         12    1    3    3    0    0 -0.88660006703E+01 -0.20786159153E+02 -0.24312562462E+02  0.33192937106E+02  0.00000000000E+00 0. -1.
</event>
<event>
 7    1  0.5634483E-012  0.5930196E+02  0.7816164E-02  0.1266605E+00
        -11   -1    0    0    0    0  0.00000000000E+00  0.00000000000E+00  0.45593999997E+02  0.45594000000E+02  0.51100000000E-03 0.  1.
         11   -1    0    0    0    0 -0.00000000000E+00 -0.00000000000E+00 -0.45593999997E+02  0.45594000000E+02  0.51100000000E-03 0. -1.
    9900012    2    1    2    0    0  0.18069245898E+02  0.55184139955E+00  0.26266283235E+02  0.59301955855E+02  0.50000021570E+02 0.  0.
         12    1    1    2    0    0 -0.18069245898E+02 -0.55184139955E+00 -0.26266283235E+02  0.31886044145E+02  0.00000000000E+00 0. -1.
         11    1    3    3    0    0  0.10290318444E+02 -0.41394507194E+01  0.91343415190E+01  0.14368782175E+02  0.51100000000E-03 0. -1.
        -11    1    3    3    0    0  0.64371345226E-01 -0.43191533701E+01  0.28308028594E+02  0.28635706952E+02  0.51100000000E-03 0.  1.
         12    1    3    3    0    0  0.77145561088E+01  0.90104454890E+01 -0.11176086878E+02  0.16297466729E+02  0.00000000000E+00 0. -1.
</event>
<event>
 7    1  0.5634483E-012  0.5930195E+02  0.7816164E-02  0.1266605E+00
        -11   -1    0    0    0    0  0.00000000000E+00  0.00000000000E+00  0.45593999997E+02  0.45594000000E+02  0.51100000000E-03 0.  1.
         11   -1    0    0    0    0 -0.00000000000E+00 -0.00000000000E+00 -0.45593999997E+02  0.45594000000E+02  0.51100000000E-03 0. -1.
    9900012    2    1    2    0    0 -0.18735013318E+02  0.95452717080E+01  0.23970972858E+02  0.59301945434E+02  0.50000002565E+02 0.  0.
         12    1    1    2    0    0  0.18735013318E+02 -0.95452717080E+01 -0.23970972858E+02  0.31886054566E+02  0.00000000000E+00 0. -1.
         11    1    3    3    0    0 -0.19612724607E+02  0.18407369058E+02  0.21056701619E+02  0.34159550428E+02  0.51100000000E-03 0. -1.
        -11    1    3    3    0    0  0.10782144897E+02 -0.35886676034E+00  0.50558176997E+01  0.11914055850E+02  0.51100000000E-03 0.  1.
        -12    1    3    3    0    0 -0.99044336085E+01 -0.85032305898E+01 -0.21415464607E+01  0.13228339155E+02  0.00000000000E+00 0.  1.
</event>
<event>
 7    1  0.5634483E-012  0.5930198E+02  0.7816164E-02  0.1266605E+00
        -11   -1    0    0    0    0  0.00000000000E+00  0.00000000000E+00  0.45593999997E+02  0.45594000000E+02  0.51100000000E-03 0.  1.
         11   -1    0    0    0    0 -0.00000000000E+00 -0.00000000000E+00 -0.45593999997E+02  0.45594000000E+02  0.51100000000E-03 0. -1.
    9900012    2    1    2    0    0  0.14007577568E+02 -0.14286352122E+02  0.24827527923E+02  0.59301980665E+02  0.50000066818E+02 0.  0.
         12    1    1    2    0    0 -0.14007577568E+02  0.14286352122E+02 -0.24827527923E+02  0.31886019335E+02  0.00000000000E+00 0. -1.
         11    1    3    3    0    0  0.28232467440E+01  0.86961096779E+01  0.43431884897E+01  0.10122071538E+02  0.51100000000E-03 0. -1.
        -11    1    3    3    0    0  0.13691697361E+02 -0.50225658713E+00 -0.54696572555E+01  0.14752355373E+02  0.51100000000E-03 0.  1.
        -12    1    3    3    0    0 -0.25073665368E+01 -0.22480205212E+02  0.25953996689E+02  0.34427553753E+02  0.00000000000E+00 0.  1.
</event>
<event>
 7    1  0.6401635E-012  0.5930201E+02  0.7816164E-02  0.1266605E+00
        -11   -1    0    0    0    0  0.00000000000E+00  0.00000000000E+00  0.45593999997E+02  0.45594000000E+02  0.51100000000E-03 0.  1.
         11   -1    0    0    0    0 -0.00000000000E+00 -0.00000000000E+00 -0.45593999997E+02  0.45594000000E+02  0.51100000000E-03 0. -1.
    9900012    2    1    2    0    0  0.17526478319E+01 -0.23341620261E+02  0.21652101794E+02  0.59302007418E+02  0.50000115609E+02 0.  0.
         12    1    1    2    0    0 -0.17526478319E+01  0.23341620261E+02 -0.21652101794E+02  0.31885992582E+02  0.00000000000E+00 0. -1.
         11    1    3    3    0    0 -0.11781632917E+02 -0.11824058449E+02 -0.93568912065E-01  0.16692033663E+02  0.51100000000E-03 0. -1.
        -11    1    3    3    0    0  0.89213120638E+01 -0.21113356713E+02  0.22259295493E+02  0.31950584921E+02  0.51100000000E-03 0.  1.
         12    1    3    3    0    0  0.46129686855E+01  0.95957949021E+01 -0.51362478731E+00  0.10659388834E+02  0.00000000000E+00 0. -1.
</event>
<event>
 7    1  0.5634483E-012  0.5930196E+02  0.7816164E-02  0.1266605E+00
        -11   -1    0    0    0    0  0.00000000000E+00  0.00000000000E+00  0.45593999997E+02  0.45594000000E+02  0.51100000000E-03 0.  1.
         11   -1    0    0    0    0 -0.00000000000E+00 -0.00000000000E+00 -0.45593999997E+02  0.45594000000E+02  0.51100000000E-03 0. -1.
    9900012    2    1    2    0    0 -0.26160473008E+02  0.31770615608E+01  0.17951479453E+02  0.59301957870E+02  0.50000025246E+02 0.  0.
         12    1    1    2    0    0  0.26160473008E+02 -0.31770615608E+01 -0.17951479453E+02  0.31886042130E+02  0.00000000000E+00 0. -1.
         11    1    3    3    0    0 -0.15830644846E+01 -0.13745900484E+02  0.10778654325E+01  0.13878676718E+02  0.51100000000E-03 0. -1.
        -11    1    3    3    0    0 -0.98656577860E+01 -0.81845366366E+01  0.74954978100E+01  0.14849253557E+02  0.51100000000E-03 0.  1.
        -12    1    3    3    0    0 -0.14711750737E+02  0.25107498682E+02  0.93781162100E+01  0.30574027596E+02  0.00000000000E+00 0.  1.
</event>
<event>
 7    1  0.5634483E-012  0.5930196E+02  0.7816164E-02  0.1266605E+00
        -11   -1    0    0    0    0  0.00000000000E+00  0.00000000000E+00  0.45593999997E+02  0.45594000000E+02  0.51100000000E-03 0.  1.
         11   -1    0    0    0    0 -0.00000000000E+00 -0.00000000000E+00 -0.45593999997E+02  0.45594000000E+02  0.51100000000E-03 0. -1.
    9900012    2    1    2    0    0 -0.24448557840E+02 -0.19469477842E+02  0.63187772594E+01  0.59301960830E+02  0.50000030644E+02 0.  0.
         12    1    1    2    0    0  0.24448557840E+02  0.19469477842E+02 -0.63187772594E+01  0.31886039170E+02  0.00000000000E+00 0. -1.
         11    1    3    3    0    0  0.57524175234E+01 -0.11998838920E+02 -0.68253426981E+01  0.14954856937E+02  0.51100000000E-03 0. -1.
        -11    1    3    3    0    0 -0.21586875826E+02 -0.91760914759E+01 -0.51855205875E+01  0.24022562035E+02  0.51100000000E-03 0.  1.
        -12    1    3    3    0    0 -0.86140995375E+01  0.17054525543E+01  0.18329640545E+02  0.20324541859E+02  0.00000000000E+00 0.  1.
</event>
<event>
 7    1  0.5634483E-012  0.5930199E+02  0.7816164E-02  0.1266605E+00
        -11   -1    0    0    0    0  0.00000000000E+00  0.00000000000E+00  0.45593999997E+02  0.45594000000E+02  0.51100000000E-03 0.  1.
         11   -1    0    0    0    0 -0.00000000000E+00 -0.00000000000E+00 -0.45593999997E+02  0.45594000000E+02  0.51100000000E-03 0. -1.
    9900012    2    1    2    0    0  0.23607142464E+02  0.17259566923E+02  0.12709360215E+02  0.59301989545E+02  0.50000083013E+02 0.  0.
         12    1    1    2    0    0 -0.23607142464E+02 -0.17259566923E+02 -0.12709360215E+02  0.31886010455E+02  0.00000000000E+00 0. -1.
         11    1    3    3    0    0  0.19779362200E+02  0.96739095608E+01  0.14970550849E+02  0.26625647188E+02  0.51100000000E-03 0. -1.
        -11    1    3    3    0    0  0.20603498236E+01 -0.49596094656E+01  0.12272342398E+02  0.13396012677E+02  0.51100000000E-03 0.  1.
         12    1    3    3    0    0  0.17674304402E+01  0.12545266828E+02 -0.14533533032E+02  0.19280329679E+02  0.00000000000E+00 0. -1.
</event>
<event>
 7    1  0.5634483E-012  0.5930195E+02  0.7816164E-02  0.1266605E+00
        -11   -1    0    0    0    0  0.00000000000E+00  0.00000000000E+00  0.45593999997E+02  0.45594000000E+02  0.51100000000E-03 0.  1.
         11   -1    0    0    0    0 -0.00000000000E+00 -0.00000000000E+00 -0.45593999997E+02  0.45594000000E+02  0.51100000000E-03 0. -1.
    9900012    2    1    2    0    0  0.93597159985E+01 -0.16459885929E+02  0.25655175762E+02  0.59301950202E+02  0.50000011260E+02 0.  0.
         12    1    1    2    0    0 -0.93597159985E+01  0.16459885929E+02 -0.25655175762E+02  0.31886049798E+02  0.00000000000E+00 0. -1.
         11    1    3    3    0    0  0.10804311270E+02 -0.10660281500E+02 -0.81295358877E+01  0.17218132817E+02  0.51100000000E-03 0. -1.
        -11    1    3    3    0    0  0.95851743032E+00  0.27451917577E+01 -0.30386537665E+01  0.42057401756E+01  0.51100000000E-03 0.  1.
        -12    1    3    3    0    0 -0.24031127017E+01 -0.85447961864E+01  0.36823365416E+02  0.37878077210E+02  0.00000000000E+00 0.  1.
</event>
<event>
 7    1  0.5634483E-012  0.5930194E+02  0.7816164E-02  0.1266605E+00
        -11   -1    0    0    0    0  0.00000000000E+00  0.00000000000E+00  0.45593999997E+02  0.45594000000E+02  0.51100000000E-03 0.  1.
         11   -1    0    0    0    0 -0.00000000000E+00 -0.00000000000E+00 -0.45593999997E+02  0.45594000000E+02  0.51100000000E-03 0. -1.
    9900012    2    1    2    0    0  0.84765288728E+01  0.54036242927E+01  0.30260045759E+02  0.59301936170E+02  0.49999985670E+02 0.  0.
         12    1    1    2    0    0 -0.84765288728E+01 -0.54036242927E+01 -0.30260045759E+02  0.31886063830E+02  0.00000000000E+00 0. -1.
         11    1    3    3    0    0 -0.25109339202E+01 -0.94692435272E+01  0.18921175546E+02  0.21306859141E+02  0.51100000000E-03 0. -1.
        -11    1    3    3    0    0 -0.59701956705E+01  0.17863983109E+02  0.79555088025E+01  0.20446399425E+02  0.51100000000E-03 0.  1.
         12    1    3    3    0    0  0.16957658464E+02 -0.29911152896E+01  0.33833614102E+01  0.17548677605E+02  0.00000000000E+00 0. -1.
</event>
<event>
 7    1  0.5634483E-012  0.5930193E+02  0.7816164E-02  0.1266605E+00
        -11   -1    0    0    0    0  0.00000000000E+00  0.00000000000E+00  0.45593999997E+02  0.45594000000E+02  0.51100000000E-03 0. -1.
         11   -1    0    0    0    0 -0.00000000000E+00 -0.00000000000E+00 -0.45593999997E+02  0.45594000000E+02  0.51100000000E-03 0.  1.
    9900012    2    1    2    0    0  0.16250369829E+02 -0.27197912270E+02 -0.35944833239E+01  0.59301933109E+02  0.49999980087E+02 0.  0.
         12    1    1    2    0    0 -0.16250369829E+02  0.27197912270E+02  0.35944833239E+01  0.31886066891E+02  0.00000000000E+00 0. -1.
         11    1    3    3    0    0  0.16153048381E+02 -0.10871396240E+02 -0.67851016006E+01  0.20619064776E+02  0.51100000000E-03 0. -1.
        -11    1    3    3    0    0  0.85624719165E+01 -0.21116823275E+02 -0.77267492208E+01  0.24061147195E+02  0.51100000000E-03 0.  1.
         12    1    3    3    0    0 -0.84651504691E+01  0.47903072461E+01  0.10917367497E+02  0.14621721138E+02  0.00000000000E+00 0. -1.
</event>
<event>
 7    1  0.5634483E-012  0.5930194E+02  0.7816164E-02  0.1266605E+00
        -11   -1    0    0    0    0  0.00000000000E+00  0.00000000000E+00  0.45593999997E+02  0.45594000000E+02  0.51100000000E-03 0.  1.
         11   -1    0    0    0    0 -0.00000000000E+00 -0.00000000000E+00 -0.45593999997E+02  0.45594000000E+02  0.51100000000E-03 0. -1.
    9900012    2    1    2    0    0  0.62278148167E+01  0.27298653585E+02  0.15255128438E+02  0.59301935510E+02  0.49999984466E+02 0.  0.
         12    1    1    2    0    0 -0.62278148167E+01 -0.27298653585E+02 -0.15255128438E+02  0.31886064490E+02  0.00000000000E+00 0. -1.
         11    1    3    3    0    0  0.48881082085E+01  0.17937970642E+02  0.24134320829E+02  0.30465223366E+02  0.51100000000E-03 0. -1.
        -11    1    3    3    0    0  0.79429516046E+01 -0.43821905127E+00  0.59075855308E+01  0.99086872589E+01  0.51100000000E-03 0.  1.
         12    1    3    3    0    0 -0.66032449963E+01  0.97989019952E+01 -0.14786777921E+02  0.18928024886E+02  0.00000000000E+00 0. -1.
</event>
<event>
 7    1  0.5634483E-012  0.5930193E+02  0.7816164E-02  0.1266605E+00
        -11   -1    0    0    0    0  0.00000000000E+00  0.00000000000E+00  0.45593999997E+02  0.45594000000E+02  0.51100000000E-03 0. -1.
         11   -1    0    0    0    0 -0.00000000000E+00 -0.00000000000E+00 -0.45593999997E+02  0.45594000000E+02  0.51100000000E-03 0.  1.
    9900012    2    1    2    0    0  0.25749731550E+00 -0.27390626810E+02 -0.16322034190E+02  0.59301928714E+02  0.49999972072E+02 0.  0.
         12    1    1    2    0    0 -0.25749731550E+00  0.27390626810E+02  0.16322034190E+02  0.31886071286E+02  0.00000000000E+00 0. -1.
         11    1    3    3    0    0 -0.92249028798E+00  0.27026282140E+01  0.76516675454E+01  0.81672029533E+01  0.51100000000E-03 0. -1.
        -11    1    3    3    0    0 -0.23468074391E+01 -0.31030307749E+02 -0.46439422558E+01  0.31463529747E+02  0.51100000000E-03 0.  1.
         12    1    3    3    0    0  0.35267950425E+01  0.93705272531E+00 -0.19329759480E+02  0.19671196014E+02  0.00000000000E+00 0. -1.
</event>
<event>
 7    1  0.5634483E-012  0.5930195E+02  0.7816164E-02  0.1266605E+00
        -11   -1    0    0    0    0  0.00000000000E+00  0.00000000000E+00  0.45593999997E+02  0.45594000000E+02  0.51100000000E-03 0.  1.
         11   -1    0    0    0    0 -0.00000000000E+00 -0.00000000000E+00 -0.45593999997E+02  0.45594000000E+02  0.51100000000E-03 0. -1.
    9900012    2    1    2    0    0 -0.15553554428E+02  0.60434208063E+01  0.27171383990E+02  0.59301951353E+02  0.50000013360E+02 0.  0.
         12    1    1    2    0    0  0.15553554428E+02 -0.60434208063E+01 -0.27171383990E+02  0.31886048647E+02  0.00000000000E+00 0. -1.
         11    1    3    3    0    0 -0.18589498459E+02 -0.90459482574E+01  0.23248649344E+02  0.31111064421E+02  0.51100000000E-03 0. -1.
        -11    1    3    3    0    0 -0.71151632838E+01  0.74440255102E+01  0.97765892915E+01  0.14199322617E+02  0.51100000000E-03 0.  1.
        -12    1    3    3    0    0  0.10151107315E+02  0.76453435535E+01 -0.58538546456E+01  0.13991564315E+02  0.00000000000E+00 0.  1.
</event>
<event>
 7    1  0.5634483E-012  0.5930192E+02  0.7816164E-02  0.1266605E+00
        -11   -1    0    0    0    0  0.00000000000E+00  0.00000000000E+00  0.45593999997E+02  0.45594000000E+02  0.51100000000E-03 0. -1.
         11   -1    0    0    0    0 -0.00000000000E+00 -0.00000000000E+00 -0.45593999997E+02  0.45594000000E+02  0.51100000000E-03 0.  1.
    9900012    2    1    2    0    0  0.64677961586E+01 -0.45269268879E+01 -0.30893313041E+02  0.59301917693E+02  0.49999951972E+02 0.  0.
         12    1    1    2    0    0 -0.64677961586E+01  0.45269268879E+01  0.30893313041E+02  0.31886082307E+02  0.00000000000E+00 0. -1.
         11    1    3    3    0    0 -0.37229008861E+00 -0.92703817608E+01 -0.83526190227E+01  0.12483782388E+02  0.51100000000E-03 0. -1.
        -11    1    3    3    0    0  0.13095100567E+02 -0.93845729647E+01 -0.26368159044E+02  0.30900350810E+02  0.51100000000E-03 0.  1.
         12    1    3    3    0    0 -0.62550143195E+01  0.14128027838E+02  0.38274650251E+01  0.15917784495E+02  0.00000000000E+00 0. -1.
</event>
<event>
 7    1  0.5634483E-012  0.5930196E+02  0.7816164E-02  0.1266605E+00
        -11   -1    0    0    0    0  0.00000000000E+00  0.00000000000E+00  0.45593999997E+02  0.45594000000E+02  0.51100000000E-03 0.  1.
         11   -1    0    0    0    0 -0.00000000000E+00 -0.00000000000E+00 -0.45593999997E+02  0.45594000000E+02  0.51100000000E-03 0. -1.
    9900012    2    1    2    0    0 -0.24822272691E+02  0.77380475817E+01  0.18457973431E+02  0.59301962537E+02  0.50000033756E+02 0.  0.
         12    1    1    2    0    0  0.24822272691E+02 -0.77380475817E+01 -0.18457973431E+02  0.31886037463E+02  0.00000000000E+00 0. -1.
         11    1    3    3    0    0  0.48767849862E+01 -0.20124826787E+01  0.44949994018E+01  0.69309550725E+01  0.51100000000E-03 0. -1.
        -11    1    3    3    0    0 -0.30949718887E+02  0.21954014338E+02  0.12810321116E+02  0.40049571435E+02  0.51100000000E-03 0.  1.
         12    1    3    3    0    0  0.12506612102E+01 -0.12203484078E+02  0.11526529128E+01  0.12321436030E+02  0.00000000000E+00 0. -1.
</event>
<event>
 7    1  0.5634483E-012  0.5930196E+02  0.7816164E-02  0.1266605E+00
        -11   -1    0    0    0    0  0.00000000000E+00  0.00000000000E+00  0.45593999997E+02  0.45594000000E+02  0.51100000000E-03 0. -1.
         11   -1    0    0    0    0 -0.00000000000E+00 -0.00000000000E+00 -0.45593999997E+02  0.45594000000E+02  0.51100000000E-03 0.  1.
    9900012    2    1    2    0    0  0.21937559087E+02 -0.20371331472E+02  0.10975955240E+02  0.59301964842E+02  0.50000037961E+02 0.  0.
         12    1    1    2    0    0 -0.21937559087E+02  0.20371331472E+02 -0.10975955240E+02  0.31886035158E+02  0.00000000000E+00 0. -1.
         11    1    3    3    0    0  0.71294191954E+01 -0.23825892081E+02  0.11979670090E+02  0.27604605545E+02  0.51100000000E-03 0. -1.
        -11    1    3    3    0    0  0.19534475174E+02 -0.51888469453E+01  0.40680789230E+01  0.20617204450E+02  0.51100000000E-03 0.  1.
         12    1    3    3    0    0 -0.47263352823E+01  0.86434075549E+01 -0.50717937735E+01  0.11080154847E+02  0.00000000000E+00 0. -1.
</event>
<event>
 7    1  0.5634483E-012  0.5930194E+02  0.7816164E-02  0.1266605E+00
        -11   -1    0    0    0    0  0.00000000000E+00  0.00000000000E+00  0.45593999997E+02  0.45594000000E+02  0.51100000000E-03 0.  1.
         11   -1    0    0    0    0 -0.00000000000E+00 -0.00000000000E+00 -0.45593999997E+02  0.45594000000E+02  0.51100000000E-03 0. -1.
    9900012    2    1    2    0    0  0.22469129074E+02  0.69275553309E+01 -0.21537594702E+02  0.59301940825E+02  0.49999994158E+02 0.  0.
         12    1    1    2    0    0 -0.22469129074E+02 -0.69275553309E+01  0.21537594702E+02  0.31886059175E+02  0.00000000000E+00 0. -1.
         11    1    3    3    0    0  0.17449019380E+02 -0.73182673462E+01 -0.13275309929E+02  0.23114046990E+02  0.51100000000E-03 0. -1.
        -11    1    3    3    0    0  0.18073164315E+02  0.12614675388E+02 -0.43663174857E+01  0.22468512015E+02  0.51100000000E-03 0.  1.
         12    1    3    3    0    0 -0.13053054621E+02  0.16311472888E+01 -0.38959672865E+01  0.13719381820E+02  0.00000000000E+00 0. -1.
</event>
<event>
 7    1  0.5634483E-012  0.5930194E+02  0.7816164E-02  0.1266605E+00
        -11   -1    0    0    0    0  0.00000000000E+00  0.00000000000E+00  0.45593999997E+02  0.45594000000E+02  0.51100000000E-03 0.  1.
         11   -1    0    0    0    0 -0.00000000000E+00 -0.00000000000E+00 -0.45593999997E+02  0.45594000000E+02  0.51100000000E-03 0. -1.
    9900012    2    1    2    0    0  0.13793091472E+02  0.11847674786E+02  0.26193586667E+02  0.59301941092E+02  0.49999994646E+02 0.  0.
         12    1    1    2    0    0 -0.13793091472E+02 -0.11847674786E+02 -0.26193586667E+02  0.31886058908E+02  0.00000000000E+00 0. -1.
         11    1    3    3    0    0 -0.36891148690E+01 -0.15007404998E+02  0.10222503766E+02  0.18529202811E+02  0.51100000000E-03 0.  1.
        -11    1    3    3    0    0  0.50002866476E+01  0.60169007007E+01 -0.44835529683E+01  0.90171064140E+01  0.51100000000E-03 0. -1.
        -12    1    3    3    0    0  0.12481919694E+02  0.20838179083E+02  0.20454635870E+02  0.31755631868E+02  0.00000000000E+00 0.  1.
</event>
<event>
 7    1  0.5634483E-012  0.5930195E+02  0.7816164E-02  0.1266605E+00
        -11   -1    0    0    0    0  0.00000000000E+00  0.00000000000E+00  0.45593999997E+02  0.45594000000E+02  0.51100000000E-03 0.  1.
         11   -1    0    0    0    0 -0.00000000000E+00 -0.00000000000E+00 -0.45593999997E+02  0.45594000000E+02  0.51100000000E-03 0. -1.
    9900012    2    1    2    0    0  0.24470010278E+02 -0.20143400201E+02 -0.34903317652E+01  0.59301946771E+02  0.50000005004E+02 0.  0.
         12    1    1    2    0    0 -0.24470010278E+02  0.20143400201E+02  0.34903317652E+01  0.31886053229E+02  0.00000000000E+00 0. -1.
         11    1    3    3    0    0  0.10747607553E+02 -0.10627989294E+01 -0.16617960532E+02  0.19819112547E+02  0.51100000000E-03 0.  1.
        -11    1    3    3    0    0  0.28229143916E+01 -0.11192463941E+02 -0.82749008286E+01  0.14202608166E+02  0.51100000000E-03 0. -1.
         12    1    3    3    0    0  0.10899488334E+02 -0.78881373305E+01  0.21402529595E+02  0.25280226058E+02  0.00000000000E+00 0. -1.
</event>
<event>
 7    1  0.5634483E-012  0.5930159E+02  0.7816164E-02  0.1266606E+00
        -11   -1    0    0    0    0  0.00000000000E+00  0.00000000000E+00  0.45593999997E+02  0.45594000000E+02  0.51100000000E-03 0. -1.
         11   -1    0    0    0    0 -0.00000000000E+00 -0.00000000000E+00 -0.45593999997E+02  0.45594000000E+02  0.51100000000E-03 0.  1.
    9900012    2    1    2    0    0  0.17629103940E+02  0.26566653226E+02 -0.41298549533E+00  0.59301593392E+02  0.49999360521E+02 0.  0.
         12    1    1    2    0    0 -0.17629103940E+02 -0.26566653226E+02  0.41298549533E+00  0.31886406608E+02  0.00000000000E+00 0. -1.
         11    1    3    3    0    0 -0.67947737688E+01  0.20784962219E+01 -0.50044925232E+01  0.86910323201E+01  0.51100000000E-03 0. -1.
        -11    1    3    3    0    0  0.23697103313E+02  0.33247484698E+02  0.29993764986E+00  0.40829375540E+02  0.51100000000E-03 0.  1.
         12    1    3    3    0    0  0.72677439588E+00 -0.87593276944E+01  0.42915693780E+01  0.97811855317E+01  0.00000000000E+00 0. -1.
</event>
<event>
 7    1  0.5634483E-012  0.5930193E+02  0.7816164E-02  0.1266605E+00
        -11   -1    0    0    0    0  0.00000000000E+00  0.00000000000E+00  0.45593999997E+02  0.45594000000E+02  0.51100000000E-03 0.  1.
         11   -1    0    0    0    0 -0.00000000000E+00 -0.00000000000E+00 -0.45593999997E+02  0.45594000000E+02  0.51100000000E-03 0. -1.
    9900012    2    1    2    0    0 -0.10801321292E+02 -0.79459970326E+01  0.28929464700E+02  0.59301931909E+02  0.49999977898E+02 0.  0.
         12    1    1    2    0    0  0.10801321292E+02  0.79459970326E+01 -0.28929464700E+02  0.31886068091E+02  0.00000000000E+00 0. -1.
         11    1    3    3    0    0  0.55772724948E+00 -0.10961388548E+01 -0.72178049543E+01  0.73218364291E+01  0.51100000000E-03 0. -1.
        -11    1    3    3    0    0  0.88980662067E+01 -0.90790142190E+01  0.29877868821E+01  0.13058750021E+02  0.51100000000E-03 0.  1.
        -12    1    3    3    0    0 -0.20257114748E+02  0.22291560411E+01  0.33159482772E+02  0.38921345458E+02  0.00000000000E+00 0.  1.
</event>
<event>
 7    1  0.5634483E-012  0.5930198E+02  0.7816164E-02  0.1266605E+00
        -11   -1    0    0    0    0  0.00000000000E+00  0.00000000000E+00  0.45593999997E+02  0.45594000000E+02  0.51100000000E-03 0.  1.
         11   -1    0    0    0    0 -0.00000000000E+00 -0.00000000000E+00 -0.45593999997E+02  0.45594000000E+02  0.51100000000E-03 0. -1.
    9900012    2    1    2    0    0  0.15011933480E+02 -0.52467392829E+01  0.27637512731E+02  0.59301975948E+02  0.50000058214E+02 0.  0.
         12    1    1    2    0    0 -0.15011933480E+02  0.52467392829E+01 -0.27637512731E+02  0.31886024052E+02  0.00000000000E+00 0. -1.
         11    1    3    3    0    0 -0.73164418339E+01  0.87192620918E+01 -0.17549553017E+01  0.11516758264E+02  0.51100000000E-03 0. -1.
        -11    1    3    3    0    0  0.14187090453E+02 -0.68330003507E+01 -0.74343912096E+00  0.15764394416E+02  0.51100000000E-03 0.  1.
        -12    1    3    3    0    0  0.81412848612E+01 -0.71330010240E+01  0.30135907153E+02  0.32020823268E+02  0.00000000000E+00 0.  1.
</event>
<event>
 7    1  0.5634483E-012  0.5930194E+02  0.7816164E-02  0.1266605E+00
        -11   -1    0    0    0    0  0.00000000000E+00  0.00000000000E+00  0.45593999997E+02  0.45594000000E+02  0.51100000000E-03 0.  1.
         11   -1    0    0    0    0 -0.00000000000E+00 -0.00000000000E+00 -0.45593999997E+02  0.45594000000E+02  0.51100000000E-03 0. -1.
    9900012    2    1    2    0    0 -0.68345670241E+01  0.14399367902E+02  0.27616435868E+02  0.59301942978E+02  0.49999998086E+02 0.  0.
         12    1    1    2    0    0  0.68345670241E+01 -0.14399367902E+02 -0.27616435868E+02  0.31886057022E+02  0.00000000000E+00 0. -1.
         11    1    3    3    0    0  0.11926660417E+02  0.28537488352E+01 -0.60910896784E+00  0.12278441478E+02  0.51100000000E-03 0. -1.
        -11    1    3    3    0    0 -0.84154368784E+01 -0.93575669710E+01  0.16967132692E+02  0.21125037977E+02  0.51100000000E-03 0.  1.
         12    1    3    3    0    0 -0.10345790563E+02  0.20903186037E+02  0.11258412143E+02  0.25898463523E+02  0.00000000000E+00 0. -1.
</event>
<event>
 7    1  0.5634483E-012  0.5930194E+02  0.7816164E-02  0.1266605E+00
        -11   -1    0    0    0    0  0.00000000000E+00  0.00000000000E+00  0.45593999997E+02  0.45594000000E+02  0.51100000000E-03 0.  1.
         11   -1    0    0    0    0 -0.00000000000E+00 -0.00000000000E+00 -0.45593999997E+02  0.45594000000E+02  0.51100000000E-03 0. -1.
    9900012    2    1    2    0    0 -0.16097845515E+02  0.27192376601E+02  0.42608315579E+01  0.59301942529E+02  0.49999997267E+02 0.  0.
         12    1    1    2    0    0  0.16097845515E+02 -0.27192376601E+02 -0.42608315579E+01  0.31886057471E+02  0.00000000000E+00 0. -1.
         11    1    3    3    0    0 -0.36433885436E+01  0.32366273924E+02  0.58849639693E+00  0.32576007983E+02  0.51100000000E-03 0. -1.
        -11    1    3    3    0    0  0.36869918667E+01  0.28799626733E+01 -0.48815374709E+01  0.67614719082E+01  0.51100000000E-03 0.  1.
        -12    1    3    3    0    0 -0.16141448838E+02 -0.80538599963E+01  0.85538726319E+01  0.19964462638E+02  0.00000000000E+00 0.  1.
</event>
<event>
 7    1  0.5634483E-012  0.5930183E+02  0.7816164E-02  0.1266605E+00
        -11   -1    0    0    0    0  0.00000000000E+00  0.00000000000E+00  0.45593999997E+02  0.45594000000E+02  0.51100000000E-03 0. -1.
         11   -1    0    0    0    0 -0.00000000000E+00 -0.00000000000E+00 -0.45593999997E+02  0.45594000000E+02  0.51100000000E-03 0.  1.
    9900012    2    1    2    0    0 -0.95935280716E+01 -0.20738529552E+02 -0.22239727226E+02  0.59301829707E+02  0.49999791507E+02 0.  0.
         12    1    1    2    0    0  0.95935280716E+01  0.20738529552E+02  0.22239727226E+02  0.31886170293E+02  0.00000000000E+00 0. -1.
         11    1    3    3    0    0 -0.10794886324E+02 -0.26065251519E+02 -0.42365047189E+01  0.28528492424E+02  0.51100000000E-03 0. -1.
        -11    1    3    3    0    0 -0.13662126856E+01 -0.21789674917E+01 -0.21819393119E+02  0.21970442708E+02  0.51100000000E-03 0.  1.
         12    1    3    3    0    0  0.25675709384E+01  0.75056894582E+01  0.38161706120E+01  0.88028945755E+01  0.00000000000E+00 0. -1.
</event>
<event>
 7    1  0.5634483E-012  0.5930193E+02  0.7816164E-02  0.1266605E+00
        -11   -1    0    0    0    0  0.00000000000E+00  0.00000000000E+00  0.45593999997E+02  0.45594000000E+02  0.51100000000E-03 0. -1.
         11   -1    0    0    0    0 -0.00000000000E+00 -0.00000000000E+00 -0.45593999997E+02  0.45594000000E+02  0.51100000000E-03 0.  1.
    9900012    2    1    2    0    0 -0.18914864013E+02 -0.12912464469E+02 -0.22185984243E+02  0.59301925984E+02  0.49999967093E+02 0.  0.
         12    1    1    2    0    0  0.18914864013E+02  0.12912464469E+02  0.22185984243E+02  0.31886074016E+02  0.00000000000E+00 0. -1.
         11    1    3    3    0    0 -0.11823205564E+02  0.80832588728E+01 -0.13378723115E+02  0.19598915692E+02  0.51100000000E-03 0. -1.
        -11    1    3    3    0    0 -0.23122618618E+01  0.23677151262E+01 -0.14757964234E+02  0.15124488038E+02  0.51100000000E-03 0.  1.
         12    1    3    3    0    0 -0.47793965872E+01 -0.23363438468E+02  0.59507031057E+01  0.24578522255E+02  0.00000000000E+00 0. -1.
</event>
<event>
 7    1  0.5634483E-012  0.5930190E+02  0.7816164E-02  0.1266605E+00
        -11   -1    0    0    0    0  0.00000000000E+00  0.00000000000E+00  0.45593999997E+02  0.45594000000E+02  0.51100000000E-03 0. -1.
         11   -1    0    0    0    0 -0.00000000000E+00 -0.00000000000E+00 -0.45593999997E+02  0.45594000000E+02  0.51100000000E-03 0.  1.
    9900012    2    1    2    0    0  0.28437279914E+02  0.13888912228E+02 -0.38913238626E+01  0.59301903137E+02  0.49999925425E+02 0.  0.
         12    1    1    2    0    0 -0.28437279914E+02 -0.13888912228E+02  0.38913238626E+01  0.31886096863E+02  0.00000000000E+00 0. -1.
         11    1    3    3    0    0  0.18934248647E+02 -0.26938447720E+01 -0.15484502780E+02  0.24607567903E+02  0.51100000000E-03 0. -1.
        -11    1    3    3    0    0  0.13284834002E+02  0.40840503218E+01 -0.38969581664E+01  0.14434422909E+02  0.51100000000E-03 0.  1.
         12    1    3    3    0    0 -0.37818027355E+01  0.12498706678E+02  0.15490137084E+02  0.20259912325E+02  0.00000000000E+00 0. -1.
</event>
<event>
 7    1  0.5634483E-012  0.5930197E+02  0.7816164E-02  0.1266605E+00
        -11   -1    0    0    0    0  0.00000000000E+00  0.00000000000E+00  0.45593999997E+02  0.45594000000E+02  0.51100000000E-03 0. -1.
         11   -1    0    0    0    0 -0.00000000000E+00 -0.00000000000E+00 -0.45593999997E+02  0.45594000000E+02  0.51100000000E-03 0.  1.
    9900012    2    1    2    0    0  0.26168490225E+02  0.18133673033E+02  0.17604482218E+01  0.59301966125E+02  0.50000040301E+02 0.  0.
         12    1    1    2    0    0 -0.26168490225E+02 -0.18133673033E+02 -0.17604482218E+01  0.31886033875E+02  0.00000000000E+00 0. -1.
         11    1    3    3    0    0  0.70703969590E+01  0.19997415888E+02 -0.14385419122E+02  0.25628644891E+02  0.51100000000E-03 0. -1.
        -11    1    3    3    0    0  0.14292752265E+00 -0.31962169325E+01 -0.45596001806E+01  0.55701153511E+01  0.51100000000E-03 0.  1.
        -12    1    3    3    0    0  0.18955165743E+02  0.13324740776E+01  0.20705467525E+02  0.28103205884E+02  0.00000000000E+00 0.  1.
</event>
<event>
 7    1  0.5634483E-012  0.5930193E+02  0.7816164E-02  0.1266605E+00
        -11   -1    0    0    0    0  0.00000000000E+00  0.00000000000E+00  0.45593999997E+02  0.45594000000E+02  0.51100000000E-03 0. -1.
         11   -1    0    0    0    0 -0.00000000000E+00 -0.00000000000E+00 -0.45593999997E+02  0.45594000000E+02  0.51100000000E-03 0.  1.
    9900012    2    1    2    0    0  0.70595532111E+01  0.44967475958E+01 -0.30767898106E+02  0.59301928051E+02  0.49999970862E+02 0.  0.
         12    1    1    2    0    0 -0.70595532111E+01 -0.44967475958E+01  0.30767898106E+02  0.31886071949E+02  0.00000000000E+00 0. -1.
         11    1    3    3    0    0  0.10378089156E+02  0.71660228161E+01 -0.18228366192E+02  0.22165963814E+02  0.51100000000E-03 0. -1.
        -11    1    3    3    0    0 -0.13524811732E+02 -0.13953249769E+02 -0.94592697886E+01  0.21612299662E+02  0.51100000000E-03 0.  1.
         12    1    3    3    0    0  0.10206275787E+02  0.11283974549E+02 -0.30802621257E+01  0.15523664574E+02  0.00000000000E+00 0. -1.
</event>
<event>
 7    1  0.5634483E-012  0.5930188E+02  0.7816164E-02  0.1266605E+00
        -11   -1    0    0    0    0  0.00000000000E+00  0.00000000000E+00  0.45593999997E+02  0.45594000000E+02  0.51100000000E-03 0.  1.
         11   -1    0    0    0    0 -0.00000000000E+00 -0.00000000000E+00 -0.45593999997E+02  0.45594000000E+02  0.51100000000E-03 0. -1.
    9900012    2    1    2    0    0  0.20101952176E+02  0.69341487390E+01  0.23760345861E+02  0.59301875502E+02  0.49999875026E+02 0.  0.
         12    1    1    2    0    0 -0.20101952176E+02 -0.69341487390E+01 -0.23760345861E+02  0.31886124498E+02  0.00000000000E+00 0. -1.
         11    1    3    3    0    0 -0.58137033996E+01  0.84287011340E+01  0.95887966503E+01  0.14028085097E+02  0.51100000000E-03 0. -1.
        -11    1    3    3    0    0  0.55676581612E+01 -0.58545335289E+01  0.21691205224E+02  0.23146981760E+02  0.51100000000E-03 0.  1.
        -12    1    3    3    0    0  0.20347997415E+02  0.43599811339E+01 -0.75196560134E+01  0.22126808646E+02  0.00000000000E+00 0.  1.
</event>
<event>
 7    1  0.5634483E-012  0.5930196E+02  0.7816164E-02  0.1266605E+00
        -11   -1    0    0    0    0  0.00000000000E+00  0.00000000000E+00  0.45593999997E+02  0.45594000000E+02  0.51100000000E-03 0.  1.
         11   -1    0    0    0    0 -0.00000000000E+00 -0.00000000000E+00 -0.45593999997E+02  0.45594000000E+02  0.51100000000E-03 0. -1.
    9900012    2    1    2    0    0  0.14011997317E+00 -0.19970423002E+02  0.24857238559E+02  0.59301957014E+02  0.50000023685E+02 0.  0.
         12    1    1    2    0    0 -0.14011997317E+00  0.19970423002E+02 -0.24857238559E+02  0.31886042986E+02  0.00000000000E+00 0. -1.
         11    1    3    3    0    0  0.35957323262E+01 -0.12292893831E+02 -0.50410962033E+00  0.12817903747E+02  0.51100000000E-03 0. -1.
        -11    1    3    3    0    0  0.16622922644E+02 -0.58539493741E+00  0.59362269853E+01  0.17660776753E+02  0.51100000000E-03 0.  1.
         12    1    3    3    0    0 -0.20078534997E+02 -0.70921342339E+01  0.19425121194E+02  0.28823276514E+02  0.00000000000E+00 0. -1.
</event>
<event>
 7    1  0.5634483E-012  0.5930194E+02  0.7816164E-02  0.1266605E+00
        -11   -1    0    0    0    0  0.00000000000E+00  0.00000000000E+00  0.45593999997E+02  0.45594000000E+02  0.51100000000E-03 0. -1.
         11   -1    0    0    0    0 -0.00000000000E+00 -0.00000000000E+00 -0.45593999997E+02  0.45594000000E+02  0.51100000000E-03 0.  1.
    9900012    2    1    2    0    0 -0.11422833086E+02 -0.22505974808E+02 -0.19486419145E+02  0.59301944289E+02  0.50000000476E+02 0.  0.
         12    1    1    2    0    0  0.11422833086E+02  0.22505974808E+02  0.19486419145E+02  0.31886055711E+02  0.00000000000E+00 0. -1.
         11    1    3    3    0    0  0.80102455546E+01  0.14617686663E+01 -0.10905840531E+02  0.13610222608E+02  0.51100000000E-03 0. -1.
        -11    1    3    3    0    0  0.75504337886E+01 -0.14291476403E+02 -0.20671820670E+01  0.16295048025E+02  0.51100000000E-03 0.  1.
         12    1    3    3    0    0 -0.26983512430E+02 -0.96762670706E+01 -0.65133965466E+01  0.29396673656E+02  0.00000000000E+00 0. -1.
</event>
<event>
 7    1  0.5634483E-012  0.5930190E+02  0.7816164E-02  0.1266605E+00
        -11   -1    0    0    0    0  0.00000000000E+00  0.00000000000E+00  0.45593999997E+02  0.45594000000E+02  0.51100000000E-03 0. -1.
         11   -1    0    0    0    0 -0.00000000000E+00 -0.00000000000E+00 -0.45593999997E+02  0.45594000000E+02  0.51100000000E-03 0.  1.
    9900012    2    1    2    0    0 -0.19100765455E+02  0.99507027485E+01 -0.23513132474E+02  0.59301903894E+02  0.49999926805E+02 0.  0.
         12    1    1    2    0    0  0.19100765455E+02 -0.99507027485E+01  0.23513132474E+02  0.31886096106E+02  0.00000000000E+00 0. -1.
         11    1    3    3    0    0 -0.52220063460E+01  0.15321334319E+02  0.13559556054E+01  0.16243498744E+02  0.51100000000E-03 0. -1.
        -11    1    3    3    0    0 -0.44002935779E+01 -0.10651673956E+02  0.40145463411E+01  0.12203988046E+02  0.51100000000E-03 0.  1.
         12    1    3    3    0    0 -0.94784655315E+01  0.52810423856E+01 -0.28883634420E+02  0.30854417104E+02  0.00000000000E+00 0. -1.
</event>
<event>
 7    1  0.5634483E-012  0.5930194E+02  0.7816164E-02  0.1266605E+00
        -11   -1    0    0    0    0  0.00000000000E+00  0.00000000000E+00  0.45593999997E+02  0.45594000000E+02  0.51100000000E-03 0.  1.
         11   -1    0    0    0    0 -0.00000000000E+00 -0.00000000000E+00 -0.45593999997E+02  0.45594000000E+02  0.51100000000E-03 0. -1.
    9900012    2    1    2    0    0 -0.24864110484E+02 -0.75749362421E+01  0.18469357967E+02  0.59301939834E+02  0.49999992351E+02 0.  0.
         12    1    1    2    0    0  0.24864110484E+02  0.75749362421E+01 -0.18469357967E+02  0.31886060166E+02  0.00000000000E+00 0. -1.
         11    1    3    3    0    0 -0.19888720135E+02  0.37598691286E+01  0.19441727834E+02  0.28065612160E+02  0.51100000000E-03 0. -1.
        -11    1    3    3    0    0 -0.16200777787E+02 -0.11609935040E+02 -0.15597710941E+01  0.19992215452E+02  0.51100000000E-03 0.  1.
         12    1    3    3    0    0  0.11225387438E+02  0.27512966911E+00  0.58740122731E+00  0.11244112222E+02  0.00000000000E+00 0. -1.
</event>
<event>
 7    1  0.5634483E-012  0.5930192E+02  0.7816164E-02  0.1266605E+00
        -11   -1    0    0    0    0  0.00000000000E+00  0.00000000000E+00  0.45593999997E+02  0.45594000000E+02  0.51100000000E-03 0. -1.
         11   -1    0    0    0    0 -0.00000000000E+00 -0.00000000000E+00 -0.45593999997E+02  0.45594000000E+02  0.51100000000E-03 0.  1.
    9900012    2    1    2    0    0 -0.62279090703E+01 -0.28079018415E+02  0.13766046589E+02  0.59301918942E+02  0.49999954250E+02 0.  0.
         12    1    1    2    0    0  0.62279090703E+01  0.28079018415E+02 -0.13766046589E+02  0.31886081058E+02  0.00000000000E+00 0. -1.
         11    1    3    3    0    0 -0.64003541200E+01 -0.53842986318E+01 -0.40885867832E+01  0.93097662034E+01  0.51100000000E-03 0. -1.
        -11    1    3    3    0    0 -0.17603708152E+02 -0.12593871203E+02  0.19954109778E+02  0.29439134326E+02  0.51100000000E-03 0.  1.
         12    1    3    3    0    0  0.17776153201E+02 -0.10100848580E+02 -0.20994764060E+01  0.20553018413E+02  0.00000000000E+00 0. -1.
</event>
<event>
 7    1  0.5634483E-012  0.5930194E+02  0.7816164E-02  0.1266605E+00
        -11   -1    0    0    0    0  0.00000000000E+00  0.00000000000E+00  0.45593999997E+02  0.45594000000E+02  0.51100000000E-03 0. -1.
         11   -1    0    0    0    0 -0.00000000000E+00 -0.00000000000E+00 -0.45593999997E+02  0.45594000000E+02  0.51100000000E-03 0.  1.
    9900012    2    1    2    0    0 -0.28199553671E+02  0.57303009835E+01 -0.13735695426E+02  0.59301944969E+02  0.50000001717E+02 0.  0.
         12    1    1    2    0    0  0.28199553671E+02 -0.57303009835E+01  0.13735695426E+02  0.31886055031E+02  0.00000000000E+00 0. -1.
         11    1    3    3    0    0  0.12389144836E+02  0.33222748123E+01 -0.39208684340E+01  0.13412741302E+02  0.51100000000E-03 0. -1.
        -11    1    3    3    0    0 -0.17038516144E+02  0.77427525887E+01 -0.11008511360E+02  0.21712866523E+02  0.51100000000E-03 0.  1.
        -12    1    3    3    0    0 -0.23550182363E+02 -0.53347264175E+01  0.11936843683E+01  0.24176337143E+02  0.00000000000E+00 0.  1.
</event>
<event>
 7    1  0.5634483E-012  0.5930193E+02  0.7816164E-02  0.1266605E+00
        -11   -1    0    0    0    0  0.00000000000E+00  0.00000000000E+00  0.45593999997E+02  0.45594000000E+02  0.51100000000E-03 0.  1.
         11   -1    0    0    0    0 -0.00000000000E+00 -0.00000000000E+00 -0.45593999997E+02  0.45594000000E+02  0.51100000000E-03 0. -1.
    9900012    2    1    2    0    0  0.51980680402E+01 -0.10515721315E+02  0.29649979014E+02  0.59301928407E+02  0.49999971511E+02 0.  0.
         12    1    1    2    0    0 -0.51980680402E+01  0.10515721315E+02 -0.29649979014E+02  0.31886071593E+02  0.00000000000E+00 0. -1.
         11    1    3    3    0    0  0.16394217991E+02  0.91422227419E+01  0.28993719537E-01  0.18771027173E+02  0.51100000000E-03 0. -1.
        -11    1    3    3    0    0 -0.40884792737E+01  0.22073514623E+01  0.56710099332E+01  0.73313312006E+01  0.51100000000E-03 0.  1.
        -12    1    3    3    0    0 -0.71076706776E+01 -0.21865295519E+02  0.23949975361E+02  0.33199570034E+02  0.00000000000E+00 0.  1.
</event>
<event>
 7    1  0.5634483E-012  0.5930193E+02  0.7816164E-02  0.1266605E+00
        -11   -1    0    0    0    0  0.00000000000E+00  0.00000000000E+00  0.45593999997E+02  0.45594000000E+02  0.51100000000E-03 0.  1.
         11   -1    0    0    0    0 -0.00000000000E+00 -0.00000000000E+00 -0.45593999997E+02  0.45594000000E+02  0.51100000000E-03 0. -1.
    9900012    2    1    2    0    0 -0.13979641938E+01 -0.12326146265E+02 -0.29374018665E+02  0.59301934733E+02  0.49999983049E+02 0.  0.
         12    1    1    2    0    0  0.13979641938E+01  0.12326146265E+02  0.29374018665E+02  0.31886065267E+02  0.00000000000E+00 0. -1.
         11    1    3    3    0    0 -0.19307251521E+02 -0.16322760574E+02 -0.12601596789E+02  0.28248941855E+02  0.51100000000E-03 0. -1.
        -11    1    3    3    0    0  0.15110625335E+01 -0.49189025569E+01 -0.99099144422E+01  0.11166257961E+02  0.51100000000E-03 0.  1.
        -12    1    3    3    0    0  0.16398224794E+02  0.89155168654E+01 -0.68625074342E+01  0.19886734917E+02  0.00000000000E+00 0.  1.
</event>
<event>
 7    1  0.5634483E-012  0.5930201E+02  0.7816164E-02  0.1266605E+00
        -11   -1    0    0    0    0  0.00000000000E+00  0.00000000000E+00  0.45593999997E+02  0.45594000000E+02  0.51100000000E-03 0.  1.
         11   -1    0    0    0    0 -0.00000000000E+00 -0.00000000000E+00 -0.45593999997E+02  0.45594000000E+02  0.51100000000E-03 0. -1.
    9900012    2    1    2    0    0  0.30626854155E+02  0.32818825715E+00 -0.88659027627E+01  0.59302013505E+02  0.50000126709E+02 0.  0.
         12    1    1    2    0    0 -0.30626854155E+02 -0.32818825715E+00  0.88659027627E+01  0.31885986495E+02  0.00000000000E+00 0. -1.
         11    1    3    3    0    0 -0.12558040632E+02  0.43418419296E+01 -0.56677096872E+01  0.14445722869E+02  0.51100000000E-03 0. -1.
        -11    1    3    3    0    0  0.18631854497E+02 -0.39539366082E+01 -0.64045126794E+01  0.20094710737E+02  0.51100000000E-03 0.  1.
        -12    1    3    3    0    0  0.24553040290E+02 -0.59717064294E-01  0.32063196038E+01  0.24761579898E+02  0.00000000000E+00 0.  1.
</event>
<event>
 7    1  0.5634483E-012  0.5930186E+02  0.7816164E-02  0.1266605E+00
        -11   -1    0    0    0    0  0.00000000000E+00  0.00000000000E+00  0.45593999997E+02  0.45594000000E+02  0.51100000000E-03 0. -1.
         11   -1    0    0    0    0 -0.00000000000E+00 -0.00000000000E+00 -0.45593999997E+02  0.45594000000E+02  0.51100000000E-03 0.  1.
    9900012    2    1    2    0    0  0.17115226219E+02 -0.15607502911E+02 -0.21913487195E+02  0.59301858234E+02  0.49999843533E+02 0.  0.
         12    1    1    2    0    0 -0.17115226219E+02  0.15607502911E+02  0.21913487195E+02  0.31886141766E+02  0.00000000000E+00 0. -1.
         11    1    3    3    0    0 -0.10188911759E+01 -0.10052174591E+02 -0.10855798162E+02  0.14830128362E+02  0.51100000000E-03 0. -1.
        -11    1    3    3    0    0  0.45352594234E+01  0.16068473527E+02 -0.86777127180E+01  0.18816671273E+02  0.51100000000E-03 0.  1.
         12    1    3    3    0    0  0.13598857971E+02 -0.21623801848E+02 -0.23799763144E+01  0.25655058599E+02  0.00000000000E+00 0. -1.
</event>
<event>
 7    1  0.5634483E-012  0.5930193E+02  0.7816164E-02  0.1266605E+00
        -11   -1    0    0    0    0  0.00000000000E+00  0.00000000000E+00  0.45593999997E+02  0.45594000000E+02  0.51100000000E-03 0.  1.
         11   -1    0    0    0    0 -0.00000000000E+00 -0.00000000000E+00 -0.45593999997E+02  0.45594000000E+02  0.51100000000E-03 0. -1.
    9900012    2    1    2    0    0 -0.80754877774E+01  0.94310103445E+01  0.29369440928E+02  0.59301929070E+02  0.49999972720E+02 0.  0.
         12    1    1    2    0    0  0.80754877774E+01 -0.94310103445E+01 -0.29369440928E+02  0.31886070930E+02  0.00000000000E+00 0. -1.
         11    1    3    3    0    0  0.84104641992E+01 -0.52038061896E+01  0.31652001266E+00  0.98952358277E+01  0.51100000000E-03 0. -1.
        -11    1    3    3    0    0  0.32869469669E+01  0.14314705502E+02  0.52724705306E+00  0.14696693631E+02  0.51100000000E-03 0.  1.
        -12    1    3    3    0    0 -0.19772898944E+02  0.32011103242E+00  0.28525673862E+02  0.34709999611E+02  0.00000000000E+00 0.  1.
</event>
<event>
 7    1  0.5634483E-012  0.5930194E+02  0.7816164E-02  0.1266605E+00
        -11   -1    0    0    0    0  0.00000000000E+00  0.00000000000E+00  0.45593999997E+02  0.45594000000E+02  0.51100000000E-03 0.  1.
         11   -1    0    0    0    0 -0.00000000000E+00 -0.00000000000E+00 -0.45593999997E+02  0.45594000000E+02  0.51100000000E-03 0. -1.
    9900012    2    1    2    0    0 -0.11154204184E+02  0.11563518779E+01  0.29849081684E+02  0.59301935677E+02  0.49999984770E+02 0.  0.
         12    1    1    2    0    0  0.11154204184E+02 -0.11563518779E+01 -0.29849081684E+02  0.31886064323E+02  0.00000000000E+00 0. -1.
         11    1    3    3    0    0 -0.15774191785E+02  0.15313780961E+02  0.10639224556E+01  0.22010655261E+02  0.51100000000E-03 0. -1.
        -11    1    3    3    0    0  0.11050533217E+02 -0.60849958843E+01  0.11043190249E+02  0.16765843564E+02  0.51100000000E-03 0.  1.
        -12    1    3    3    0    0 -0.64305456157E+01 -0.80724331984E+01  0.17741968980E+02  0.20525436851E+02  0.00000000000E+00 0.  1.
</event>
<event>
 7    1  0.5634483E-012  0.5930196E+02  0.7816164E-02  0.1266605E+00
        -11   -1    0    0    0    0  0.00000000000E+00  0.00000000000E+00  0.45593999997E+02  0.45594000000E+02  0.51100000000E-03 0. -1.
         11   -1    0    0    0    0 -0.00000000000E+00 -0.00000000000E+00 -0.45593999997E+02  0.45594000000E+02  0.51100000000E-03 0.  1.
    9900012    2    1    2    0    0  0.18908611013E+02 -0.25132073377E+02  0.52500451407E+01  0.59301958279E+02  0.50000025991E+02 0.  0.
         12    1    1    2    0    0 -0.18908611013E+02  0.25132073377E+02 -0.52500451407E+01  0.31886041721E+02  0.00000000000E+00 0. -1.
         11    1    3    3    0    0  0.99406927625E+01  0.89405038131E+00  0.15213826003E+02  0.18195526939E+02  0.51100000000E-03 0. -1.
        -11    1    3    3    0    0  0.50954017294E+01  0.18218077928E+01 -0.11747609543E+02  0.12934002963E+02  0.51100000000E-03 0.  1.
        -12    1    3    3    0    0  0.38725165210E+01 -0.27847931551E+02  0.17838286808E+01  0.28172428376E+02  0.00000000000E+00 0.  1.
</event>
<event>
 7    1  0.5634483E-012  0.5930198E+02  0.7816164E-02  0.1266605E+00
        -11   -1    0    0    0    0  0.00000000000E+00  0.00000000000E+00  0.45593999997E+02  0.45594000000E+02  0.51100000000E-03 0.  1.
         11   -1    0    0    0    0 -0.00000000000E+00 -0.00000000000E+00 -0.45593999997E+02  0.45594000000E+02  0.51100000000E-03 0. -1.
    9900012    2    1    2    0    0  0.60665121075E+01 -0.23833903753E+02  0.20294354067E+02  0.59301978858E+02  0.50000063522E+02 0.  0.
         12    1    1    2    0    0 -0.60665121075E+01  0.23833903753E+02 -0.20294354067E+02  0.31886021142E+02  0.00000000000E+00 0. -1.
         11    1    3    3    0    0 -0.13287086679E+02 -0.14810588213E+02  0.14275819333E+02  0.24488756880E+02  0.51100000000E-03 0. -1.
        -11    1    3    3    0    0  0.10780369090E+02 -0.38099114871E+01  0.16647803490E+02  0.20196067552E+02  0.51100000000E-03 0.  1.
        -12    1    3    3    0    0  0.85732296964E+01 -0.52134040529E+01 -0.10629268756E+02  0.14617154427E+02  0.00000000000E+00 0.  1.
</event>
<event>
 7    1  0.5634483E-012  0.5930196E+02  0.7816164E-02  0.1266605E+00
        -11   -1    0    0    0    0  0.00000000000E+00  0.00000000000E+00  0.45593999997E+02  0.45594000000E+02  0.51100000000E-03 0.  1.
         11   -1    0    0    0    0 -0.00000000000E+00 -0.00000000000E+00 -0.45593999997E+02  0.45594000000E+02  0.51100000000E-03 0. -1.
    9900012    2    1    2    0    0  0.12574518071E+02  0.28194345692E+02 -0.79799875293E+01  0.59301955487E+02  0.50000020899E+02 0.  0.
         12    1    1    2    0    0 -0.12574518071E+02 -0.28194345692E+02  0.79799875293E+01  0.31886044513E+02  0.00000000000E+00 0. -1.
         11    1    3    3    0    0  0.27896671435E+01  0.25920978156E+02 -0.23526197715E+02  0.35116396890E+02  0.51100000000E-03 0. -1.
        -11    1    3    3    0    0  0.16940053782E+01  0.63247310259E+01  0.42202498764E+00  0.65612485186E+01  0.51100000000E-03 0.  1.
        -12    1    3    3    0    0  0.80908455496E+01 -0.40513634895E+01  0.15124185198E+02  0.17624310079E+02  0.00000000000E+00 0.  1.
</event>
<event>
 7    1  0.5634483E-012  0.5930198E+02  0.7816164E-02  0.1266605E+00
        -11   -1    0    0    0    0  0.00000000000E+00  0.00000000000E+00  0.45593999997E+02  0.45594000000E+02  0.51100000000E-03 0.  1.
         11   -1    0    0    0    0 -0.00000000000E+00 -0.00000000000E+00 -0.45593999997E+02  0.45594000000E+02  0.51100000000E-03 0. -1.
    9900012    2    1    2    0    0  0.21604510277E+02 -0.16117652730E+02 -0.17034815492E+02  0.59301975903E+02  0.50000058133E+02 0.  0.
         12    1    1    2    0    0 -0.21604510277E+02  0.16117652730E+02  0.17034815492E+02  0.31886024097E+02  0.00000000000E+00 0. -1.
         11    1    3    3    0    0 -0.43228095277E+01  0.12794395710E+02 -0.73748858120E+01  0.15387403445E+02  0.51100000000E-03 0. -1.
        -11    1    3    3    0    0  0.12706225545E+02 -0.20370901505E+02 -0.13729173913E+02  0.27657042726E+02  0.51100000000E-03 0.  1.
        -12    1    3    3    0    0  0.13221094259E+02 -0.85411469340E+01  0.40692442328E+01  0.16257529732E+02  0.00000000000E+00 0.  1.
</event>
<event>
 7    1  0.5634483E-012  0.5930194E+02  0.7816164E-02  0.1266605E+00
        -11   -1    0    0    0    0  0.00000000000E+00  0.00000000000E+00  0.45593999997E+02  0.45594000000E+02  0.51100000000E-03 0.  1.
         11   -1    0    0    0    0 -0.00000000000E+00 -0.00000000000E+00 -0.45593999997E+02  0.45594000000E+02  0.51100000000E-03 0. -1.
    9900012    2    1    2    0    0 -0.28190986673E+02  0.10317645267E+02  0.10748724588E+02  0.59301943271E+02  0.49999998620E+02 0.  0.
         12    1    1    2    0    0  0.28190986673E+02 -0.10317645267E+02 -0.10748724588E+02  0.31886056729E+02  0.00000000000E+00 0. -1.
         11    1    3    3    0    0 -0.21450242995E+02 -0.15788087075E+01  0.11975519129E+02  0.24617445443E+02  0.51100000000E-03 0. -1.
        -11    1    3    3    0    0 -0.88684214758E+01  0.42315466777E+01  0.14234601125E+02  0.17296784562E+02  0.51100000000E-03 0.  1.
         12    1    3    3    0    0  0.21276777975E+01  0.76649072967E+01 -0.15461395665E+02  0.17387713265E+02  0.00000000000E+00 0. -1.
</event>
<event>
 7    1  0.5634483E-012  0.5930190E+02  0.7816164E-02  0.1266605E+00
        -11   -1    0    0    0    0  0.00000000000E+00  0.00000000000E+00  0.45593999997E+02  0.45594000000E+02  0.51100000000E-03 0.  1.
         11   -1    0    0    0    0 -0.00000000000E+00 -0.00000000000E+00 -0.45593999997E+02  0.45594000000E+02  0.51100000000E-03 0. -1.
    9900012    2    1    2    0    0  0.15144265961E+02  0.93007187266E+01  0.26473972581E+02  0.59301899823E+02  0.49999919381E+02 0.  0.
         12    1    1    2    0    0 -0.15144265961E+02 -0.93007187266E+01 -0.26473972581E+02  0.31886100177E+02  0.00000000000E+00 0. -1.
         11    1    3    3    0    0  0.12701357671E+02  0.13091551162E+02  0.14664818318E+02  0.23404488781E+02  0.51100000000E-03 0. -1.
        -11    1    3    3    0    0  0.14486856190E+02 -0.52767077192E+01  0.16776228129E+02  0.22784961644E+02  0.51100000000E-03 0.  1.
         12    1    3    3    0    0 -0.12043947901E+02  0.14858752839E+01 -0.49670738672E+01  0.13112449397E+02  0.00000000000E+00 0. -1.
</event>
<event>
 7    1  0.5634483E-012  0.5930190E+02  0.7816164E-02  0.1266605E+00
        -11   -1    0    0    0    0  0.00000000000E+00  0.00000000000E+00  0.45593999997E+02  0.45594000000E+02  0.51100000000E-03 0. -1.
         11   -1    0    0    0    0 -0.00000000000E+00 -0.00000000000E+00 -0.45593999997E+02  0.45594000000E+02  0.51100000000E-03 0.  1.
    9900012    2    1    2    0    0  0.21258850441E+02  0.91358887347E+01 -0.21939016706E+02  0.59301895831E+02  0.49999912102E+02 0.  0.
         12    1    1    2    0    0 -0.21258850441E+02 -0.91358887347E+01  0.21939016706E+02  0.31886104169E+02  0.00000000000E+00 0. -1.
         11    1    3    3    0    0  0.78917765174E+01 -0.66253350831E+01  0.69953795875E+01  0.12454338096E+02  0.51100000000E-03 0. -1.
        -11    1    3    3    0    0  0.18262851566E+02 -0.18749762377E+01 -0.12162213842E+02  0.22021960154E+02  0.51100000000E-03 0.  1.
         12    1    3    3    0    0 -0.48957776431E+01  0.17636200055E+02 -0.16772182451E+02  0.24825597582E+02  0.00000000000E+00 0. -1.
</event>
<event>
 7    1  0.5634483E-012  0.5930196E+02  0.7816164E-02  0.1266605E+00
        -11   -1    0    0    0    0  0.00000000000E+00  0.00000000000E+00  0.45593999997E+02  0.45594000000E+02  0.51100000000E-03 0.  1.
         11   -1    0    0    0    0 -0.00000000000E+00 -0.00000000000E+00 -0.45593999997E+02  0.45594000000E+02  0.51100000000E-03 0. -1.
    9900012    2    1    2    0    0 -0.16077189012E+02  0.21725575066E+02  0.16918713550E+02  0.59301960944E+02  0.50000030851E+02 0.  0.
         12    1    1    2    0    0  0.16077189012E+02 -0.21725575066E+02 -0.16918713550E+02  0.31886039056E+02  0.00000000000E+00 0. -1.
         11    1    3    3    0    0 -0.93545107374E+01  0.70754120097E+01 -0.42222041130E+01  0.12465766486E+02  0.51100000000E-03 0. -1.
        -11    1    3    3    0    0 -0.22601916302E+01  0.14062601383E+01 -0.11249085907E+02  0.11559756390E+02  0.51100000000E-03 0.  1.
        -12    1    3    3    0    0 -0.44624866442E+01  0.13243902918E+02  0.32390003570E+02  0.35276438069E+02  0.00000000000E+00 0.  1.
</event>
<event>
 7    1  0.5634483E-012  0.5930196E+02  0.7816164E-02  0.1266605E+00
        -11   -1    0    0    0    0  0.00000000000E+00  0.00000000000E+00  0.45593999997E+02  0.45594000000E+02  0.51100000000E-03 0.  1.
         11   -1    0    0    0    0 -0.00000000000E+00 -0.00000000000E+00 -0.45593999997E+02  0.45594000000E+02  0.51100000000E-03 0. -1.
    9900012    2    1    2    0    0 -0.60294250659E+01 -0.61513313720E+00  0.31304750943E+02  0.59301956234E+02  0.50000022262E+02 0.  0.
         12    1    1    2    0    0  0.60294250659E+01  0.61513313720E+00 -0.31304750943E+02  0.31886043766E+02  0.00000000000E+00 0. -1.
         11    1    3    3    0    0  0.14565460951E+02  0.36360114888E+01  0.75465297787E+01  0.16802480300E+02  0.51100000000E-03 0. -1.
        -11    1    3    3    0    0  0.25505077162E+01  0.73424469705E+01  0.65130969942E+00  0.78000526736E+01  0.51100000000E-03 0.  1.
        -12    1    3    3    0    0 -0.23145393733E+02 -0.11593591596E+02  0.23106911465E+02  0.34699423261E+02  0.00000000000E+00 0.  1.
</event>
<event>
 7    1  0.5634483E-012  0.5930192E+02  0.7816164E-02  0.1266605E+00
        -11   -1    0    0    0    0  0.00000000000E+00  0.00000000000E+00  0.45593999997E+02  0.45594000000E+02  0.51100000000E-03 0. -1.
         11   -1    0    0    0    0 -0.00000000000E+00 -0.00000000000E+00 -0.45593999997E+02  0.45594000000E+02  0.51100000000E-03 0.  1.
    9900012    2    1    2    0    0 -0.30502792376E+02 -0.88078346117E+01  0.29536463338E+01  0.59301916516E+02  0.49999949825E+02 0.  0.
         12    1    1    2    0    0  0.30502792376E+02  0.88078346117E+01 -0.29536463338E+01  0.31886083484E+02  0.00000000000E+00 0. -1.
         11    1    3    3    0    0  0.60017441974E+01 -0.35290390724E+01 -0.29354889671E+01  0.75559344837E+01  0.51100000000E-03 0. -1.
        -11    1    3    3    0    0 -0.88608624284E+01  0.48094045410E+01  0.17430873935E+02  0.20136549392E+02  0.51100000000E-03 0.  1.
         12    1    3    3    0    0 -0.27643674145E+02 -0.10088200080E+02 -0.11541738634E+02  0.31609432640E+02  0.00000000000E+00 0. -1.
</event>
<event>
 7    1  0.5634483E-012  0.5930195E+02  0.7816164E-02  0.1266605E+00
        -11   -1    0    0    0    0  0.00000000000E+00  0.00000000000E+00  0.45593999997E+02  0.45594000000E+02  0.51100000000E-03 0.  1.
         11   -1    0    0    0    0 -0.00000000000E+00 -0.00000000000E+00 -0.45593999997E+02  0.45594000000E+02  0.51100000000E-03 0. -1.
    9900012    2    1    2    0    0 -0.13048707342E+02 -0.23899698879E+02  0.16590841244E+02  0.59301946889E+02  0.50000005219E+02 0.  0.
         12    1    1    2    0    0  0.13048707342E+02  0.23899698879E+02 -0.16590841244E+02  0.31886053111E+02  0.00000000000E+00 0. -1.
         11    1    3    3    0    0 -0.15637516265E+00 -0.11998401067E+02 -0.14492618924E+02  0.18815474613E+02  0.51100000000E-03 0.  1.
        -11    1    3    3    0    0 -0.68325789250E+01  0.32797151646E+01  0.33323421106E+01  0.82792010804E+01  0.51100000000E-03 0. -1.
        -12    1    3    3    0    0 -0.60597532541E+01 -0.15181012976E+02  0.27751118058E+02  0.32207271196E+02  0.00000000000E+00 0.  1.
</event>
<event>
 7    1  0.5634483E-012  0.5930195E+02  0.7816164E-02  0.1266605E+00
        -11   -1    0    0    0    0  0.00000000000E+00  0.00000000000E+00  0.45593999997E+02  0.45594000000E+02  0.51100000000E-03 0. -1.
         11   -1    0    0    0    0 -0.00000000000E+00 -0.00000000000E+00 -0.45593999997E+02  0.45594000000E+02  0.51100000000E-03 0.  1.
    9900012    2    1    2    0    0 -0.45500842082E+00  0.14561236380E+02 -0.28363420347E+02  0.59301948953E+02  0.50000008982E+02 0.  0.
         12    1    1    2    0    0  0.45500842082E+00 -0.14561236380E+02  0.28363420347E+02  0.31886051047E+02  0.00000000000E+00 0. -1.
         11    1    3    3    0    0 -0.10263859017E+01  0.31761655269E+01  0.45599889864E+01  0.56511056698E+01  0.51100000000E-03 0. -1.
        -11    1    3    3    0    0  0.14575494188E+02  0.10036151240E+02  0.16313266271E+00  0.17697343729E+02  0.51100000000E-03 0.  1.
        -12    1    3    3    0    0 -0.14004116708E+02  0.13489196131E+01 -0.33086541996E+02  0.35953499554E+02  0.00000000000E+00 0.  1.
</event>
<event>
 7    1  0.5634483E-012  0.5930195E+02  0.7816164E-02  0.1266605E+00
        -11   -1    0    0    0    0  0.00000000000E+00  0.00000000000E+00  0.45593999997E+02  0.45594000000E+02  0.51100000000E-03 0.  1.
         11   -1    0    0    0    0 -0.00000000000E+00 -0.00000000000E+00 -0.45593999997E+02  0.45594000000E+02  0.51100000000E-03 0. -1.
    9900012    2    1    2    0    0 -0.13493707451E+02 -0.15675695167E+02  0.24267522667E+02  0.59301949505E+02  0.50000009990E+02 0.  0.
         12    1    1    2    0    0  0.13493707451E+02  0.15675695167E+02 -0.24267522667E+02  0.31886050495E+02  0.00000000000E+00 0. -1.
         11    1    3    3    0    0 -0.13305451932E+02 -0.18291857291E+01  0.32954513380E+01  0.13828990250E+02  0.51100000000E-03 0. -1.
        -11    1    3    3    0    0 -0.32612762538E+01  0.46388996199E+01  0.25559124770E+02  0.26180606787E+02  0.51100000000E-03 0.  1.
        -12    1    3    3    0    0  0.30730207349E+01 -0.18485409058E+02 -0.45870534408E+01  0.19292352468E+02  0.00000000000E+00 0.  1.
</event>
<event>
 7    1  0.5634483E-012  0.5930191E+02  0.7816164E-02  0.1266605E+00
        -11   -1    0    0    0    0  0.00000000000E+00  0.00000000000E+00  0.45593999997E+02  0.45594000000E+02  0.51100000000E-03 0.  1.
         11   -1    0    0    0    0 -0.00000000000E+00 -0.00000000000E+00 -0.45593999997E+02  0.45594000000E+02  0.51100000000E-03 0. -1.
    9900012    2    1    2    0    0 -0.20204542743E+02 -0.43306697447E+01  0.24284653258E+02  0.59301911626E+02  0.49999940907E+02 0.  0.
         12    1    1    2    0    0  0.20204542743E+02  0.43306697447E+01 -0.24284653258E+02  0.31886088374E+02  0.00000000000E+00 0. -1.
         11    1    3    3    0    0 -0.12892828078E+02  0.52096294220E+01 -0.72910214575E+01  0.15701090685E+02  0.51100000000E-03 0. -1.
        -11    1    3    3    0    0 -0.33943011897E+00 -0.38202036220E+01 -0.47884859980E+01  0.61350441672E+01  0.51100000000E-03 0.  1.
        -12    1    3    3    0    0 -0.69722845467E+01 -0.57200955447E+01  0.36364160714E+02  0.37465776774E+02  0.00000000000E+00 0.  1.
</event>
<event>
 7    1  0.5634483E-012  0.5930194E+02  0.7816164E-02  0.1266605E+00
        -11   -1    0    0    0    0  0.00000000000E+00  0.00000000000E+00  0.45593999997E+02  0.45594000000E+02  0.51100000000E-03 0. -1.
         11   -1    0    0    0    0 -0.00000000000E+00 -0.00000000000E+00 -0.45593999997E+02  0.45594000000E+02  0.51100000000E-03 0.  1.
    9900012    2    1    2    0    0 -0.18787865275E+02 -0.63325340130E+01 -0.24972703498E+02  0.59301940529E+02  0.49999993619E+02 0.  0.
         12    1    1    2    0    0  0.18787865275E+02  0.63325340130E+01  0.24972703498E+02  0.31886059471E+02  0.00000000000E+00 0. -1.
         11    1    3    3    0    0 -0.47902588962E+01  0.60426038276E+01 -0.69199232154E+01  0.10360742197E+02  0.51100000000E-03 0. -1.
        -11    1    3    3    0    0 -0.10066490642E+00  0.50877830099E+01 -0.25042701229E+02  0.25554501649E+02  0.51100000000E-03 0.  1.
         12    1    3    3    0    0 -0.13896941472E+02 -0.17462920851E+02  0.69899209470E+01  0.23386696683E+02  0.00000000000E+00 0. -1.
</event>
<event>
 7    1  0.5634483E-012  0.5930193E+02  0.7816164E-02  0.1266605E+00
        -11   -1    0    0    0    0  0.00000000000E+00  0.00000000000E+00  0.45593999997E+02  0.45594000000E+02  0.51100000000E-03 0.  1.
         11   -1    0    0    0    0 -0.00000000000E+00 -0.00000000000E+00 -0.45593999997E+02  0.45594000000E+02  0.51100000000E-03 0. -1.
    9900012    2    1    2    0    0 -0.10773108725E+02  0.17692100885E+02  0.24241517086E+02  0.59301930064E+02  0.49999974534E+02 0.  0.
         12    1    1    2    0    0  0.10773108725E+02 -0.17692100885E+02 -0.24241517086E+02  0.31886069936E+02  0.00000000000E+00 0. -1.
         11    1    3    3    0    0 -0.21723921411E+02 -0.86342817987E+01  0.59787933340E+01  0.24129350460E+02  0.51100000000E-03 0.  1.
        -11    1    3    3    0    0  0.12281477855E+01 -0.64440166841E+00  0.94853732866E+00  0.16802749234E+01  0.51100000000E-03 0. -1.
         12    1    3    3    0    0  0.97226649003E+01  0.26970784352E+02  0.17314186423E+02  0.33492304681E+02  0.00000000000E+00 0. -1.
</event>
<event>
 7    1  0.5634483E-012  0.5930195E+02  0.7816164E-02  0.1266605E+00
        -11   -1    0    0    0    0  0.00000000000E+00  0.00000000000E+00  0.45593999997E+02  0.45594000000E+02  0.51100000000E-03 0.  1.
         11   -1    0    0    0    0 -0.00000000000E+00 -0.00000000000E+00 -0.45593999997E+02  0.45594000000E+02  0.51100000000E-03 0. -1.
    9900012    2    1    2    0    0  0.11218736893E+02 -0.84913452052E+01  0.28613928095E+02  0.59301954746E+02  0.50000019548E+02 0.  0.
         12    1    1    2    0    0 -0.11218736893E+02  0.84913452052E+01 -0.28613928095E+02  0.31886045254E+02  0.00000000000E+00 0. -1.
         11    1    3    3    0    0 -0.26559380692E+01 -0.22908128166E+02  0.20684042562E+02  0.30978475754E+02  0.51100000000E-03 0. -1.
        -11    1    3    3    0    0  0.14441824310E+02  0.19693820692E+01  0.27665137452E+01  0.14835712107E+02  0.51100000000E-03 0.  1.
        -12    1    3    3    0    0 -0.56714934782E+00  0.12447400891E+02  0.51633717883E+01  0.13487766885E+02  0.00000000000E+00 0.  1.
</event>
<event>
 7    1  0.5634483E-012  0.5930194E+02  0.7816164E-02  0.1266605E+00
        -11   -1    0    0    0    0  0.00000000000E+00  0.00000000000E+00  0.45593999997E+02  0.45594000000E+02  0.51100000000E-03 0. -1.
         11   -1    0    0    0    0 -0.00000000000E+00 -0.00000000000E+00 -0.45593999997E+02  0.45594000000E+02  0.51100000000E-03 0.  1.
    9900012    2    1    2    0    0  0.55216452841E+01  0.30819225713E+02  0.60338666651E+01  0.59301940552E+02  0.49999993661E+02 0.  0.
         12    1    1    2    0    0 -0.55216452841E+01 -0.30819225713E+02 -0.60338666651E+01  0.31886059448E+02  0.00000000000E+00 0. -1.
         11    1    3    3    0    0 -0.25074855023E+01  0.12384316652E+02  0.10555841554E+02  0.16464646175E+02  0.51100000000E-03 0. -1.
        -11    1    3    3    0    0 -0.12581362944E+02 -0.50679338359E-01  0.50303422122E+01  0.13549819370E+02  0.51100000000E-03 0.  1.
         12    1    3    3    0    0  0.20610493730E+02  0.18485588400E+02 -0.95523171013E+01  0.29287475007E+02  0.00000000000E+00 0. -1.
</event>
<event>
 7    1  0.5634483E-012  0.5930196E+02  0.7816164E-02  0.1266605E+00
        -11   -1    0    0    0    0  0.00000000000E+00  0.00000000000E+00  0.45593999997E+02  0.45594000000E+02  0.51100000000E-03 0.  1.
         11   -1    0    0    0    0 -0.00000000000E+00 -0.00000000000E+00 -0.45593999997E+02  0.45594000000E+02  0.51100000000E-03 0. -1.
    9900012    2    1    2    0    0 -0.49892605817E+01  0.24930159197E+02  0.19243545294E+02  0.59301959257E+02  0.50000027775E+02 0.  0.
         12    1    1    2    0    0  0.49892605817E+01 -0.24930159197E+02 -0.19243545294E+02  0.31886040743E+02  0.00000000000E+00 0. -1.
         11    1    3    3    0    0 -0.99058483734E+01 -0.68565872359E+01 -0.45893704628E+01  0.12891894431E+02  0.51100000000E-03 0. -1.
        -11    1    3    3    0    0  0.68463424339E+01 -0.10527403138E+01  0.42069500268E+01  0.81042640430E+01  0.51100000000E-03 0.  1.
         12    1    3    3    0    0 -0.19297546421E+01  0.32839486747E+02  0.19625965730E+02  0.38305800783E+02  0.00000000000E+00 0. -1.
</event>
<event>
 7    1  0.5634483E-012  0.5930195E+02  0.7816164E-02  0.1266605E+00
        -11   -1    0    0    0    0  0.00000000000E+00  0.00000000000E+00  0.45593999997E+02  0.45594000000E+02  0.51100000000E-03 0.  1.
         11   -1    0    0    0    0 -0.00000000000E+00 -0.00000000000E+00 -0.45593999997E+02  0.45594000000E+02  0.51100000000E-03 0. -1.
    9900012    2    1    2    0    0  0.19819488722E+02  0.20810101326E+02  0.13814761058E+02  0.59301951742E+02  0.50000014069E+02 0.  0.
         12    1    1    2    0    0 -0.19819488722E+02 -0.20810101326E+02 -0.13814761058E+02  0.31886048258E+02  0.00000000000E+00 0. -1.
         11    1    3    3    0    0  0.11838758310E+02  0.14638780634E+02 -0.11910602550E+02  0.22278073304E+02  0.51100000000E-03 0. -1.
        -11    1    3    3    0    0  0.64618999575E+00  0.10782348790E+02  0.10273517261E+01  0.10850440487E+02  0.51100000000E-03 0.  1.
        -12    1    3    3    0    0  0.73345404166E+01 -0.46110280972E+01  0.24698011882E+02  0.26173437951E+02  0.00000000000E+00 0.  1.
</event>
<event>
 7    1  0.5634483E-012  0.5930202E+02  0.7816164E-02  0.1266604E+00
        -11   -1    0    0    0    0  0.00000000000E+00  0.00000000000E+00  0.45593999997E+02  0.45594000000E+02  0.51100000000E-03 0.  1.
         11   -1    0    0    0    0 -0.00000000000E+00 -0.00000000000E+00 -0.45593999997E+02  0.45594000000E+02  0.51100000000E-03 0. -1.
    9900012    2    1    2    0    0  0.40896826843E+01  0.26036976782E+02  0.17946194393E+02  0.59302022556E+02  0.50000143216E+02 0.  0.
         12    1    1    2    0    0 -0.40896826843E+01 -0.26036976782E+02 -0.17946194393E+02  0.31885977444E+02  0.00000000000E+00 0. -1.
         11    1    3    3    0    0 -0.29159950591E+01  0.52162847428E+00 -0.19740904851E+00  0.29688539949E+01  0.51100000000E-03 0. -1.
        -11    1    3    3    0    0 -0.68351821833E+01 -0.49317257221E+01  0.21135585352E+02  0.22754221641E+02  0.51100000000E-03 0.  1.
         12    1    3    3    0    0  0.13840859927E+02  0.30447074030E+02 -0.29919819105E+01  0.33578946920E+02  0.00000000000E+00 0. -1.
</event>
<event>
 7    1  0.5634483E-012  0.5930196E+02  0.7816164E-02  0.1266605E+00
        -11   -1    0    0    0    0  0.00000000000E+00  0.00000000000E+00  0.45593999997E+02  0.45594000000E+02  0.51100000000E-03 0. -1.
         11   -1    0    0    0    0 -0.00000000000E+00 -0.00000000000E+00 -0.45593999997E+02  0.45594000000E+02  0.51100000000E-03 0.  1.
    9900012    2    1    2    0    0  0.23338497320E+00  0.24942333387E+02 -0.19863157178E+02  0.59301961105E+02  0.50000031145E+02 0.  0.
         12    1    1    2    0    0 -0.23338497320E+00 -0.24942333387E+02  0.19863157178E+02  0.31886038895E+02  0.00000000000E+00 0. -1.
         11    1    3    3    0    0 -0.16933358453E+01 -0.91664718498E+01 -0.77577578608E+01  0.12127423459E+02  0.51100000000E-03 0. -1.
        -11    1    3    3    0    0 -0.88943044513E+01  0.87185057158E+01 -0.14915570114E+02  0.19431809634E+02  0.51100000000E-03 0.  1.
         12    1    3    3    0    0  0.10821025270E+02  0.25390299521E+02  0.28101707959E+01  0.27742728012E+02  0.00000000000E+00 0. -1.
</event>
<event>
 7    1  0.5634483E-012  0.5930207E+02  0.7816164E-02  0.1266604E+00
        -11   -1    0    0    0    0  0.00000000000E+00  0.00000000000E+00  0.45593999997E+02  0.45594000000E+02  0.51100000000E-03 0.  1.
         11   -1    0    0    0    0 -0.00000000000E+00 -0.00000000000E+00 -0.45593999997E+02  0.45594000000E+02  0.51100000000E-03 0. -1.
    9900012    2    1    2    0    0 -0.31603039306E+02 -0.41389965863E+01  0.91074584377E+00  0.59302065105E+02  0.50000220816E+02 0.  0.
         12    1    1    2    0    0  0.31603039306E+02  0.41389965863E+01 -0.91074584377E+00  0.31885934895E+02  0.00000000000E+00 0. -1.
         11    1    3    3    0    0  0.49998754865E+01  0.43042695822E+01  0.90571688048E+01  0.11205257629E+02  0.51100000000E-03 0.  1.
        -11    1    3    3    0    0 -0.17302843130E+01 -0.13904738734E+01 -0.12097456260E+02  0.12299420702E+02  0.51100000000E-03 0. -1.
        -12    1    3    3    0    0 -0.34872630479E+02 -0.70527922951E+01  0.39510332987E+01  0.35797386774E+02  0.00000000000E+00 0.  1.
</event>
<event>
 7    1  0.5634483E-012  0.5930194E+02  0.7816164E-02  0.1266605E+00
        -11   -1    0    0    0    0  0.00000000000E+00  0.00000000000E+00  0.45593999997E+02  0.45594000000E+02  0.51100000000E-03 0. -1.
         11   -1    0    0    0    0 -0.00000000000E+00 -0.00000000000E+00 -0.45593999997E+02  0.45594000000E+02  0.51100000000E-03 0.  1.
    9900012    2    1    2    0    0 -0.20290114153E+02 -0.23479028939E+02 -0.73325996499E+01  0.59301944272E+02  0.50000000445E+02 0.  0.
         12    1    1    2    0    0  0.20290114153E+02  0.23479028939E+02  0.73325996499E+01  0.31886055728E+02  0.00000000000E+00 0. -1.
         11    1    3    3    0    0 -0.20391386139E+02 -0.82524737931E+01 -0.11965163720E+02  0.25041507452E+02  0.51100000000E-03 0. -1.
        -11    1    3    3    0    0  0.10459861436E+02 -0.16097129290E+02 -0.52661497915E+01  0.19906245415E+02  0.51100000000E-03 0.  1.
         12    1    3    3    0    0 -0.10358589451E+02  0.87057414415E+00  0.98987138618E+01  0.14354191404E+02  0.00000000000E+00 0. -1.
</event>
<event>
 7    1  0.5634483E-012  0.5930194E+02  0.7816164E-02  0.1266605E+00
        -11   -1    0    0    0    0  0.00000000000E+00  0.00000000000E+00  0.45593999997E+02  0.45594000000E+02  0.51100000000E-03 0.  1.
         11   -1    0    0    0    0 -0.00000000000E+00 -0.00000000000E+00 -0.45593999997E+02  0.45594000000E+02  0.51100000000E-03 0. -1.
    9900012    2    1    2    0    0 -0.17630776702E+02  0.20105528569E+02  0.17367902159E+02  0.59301943619E+02  0.49999999254E+02 0.  0.
         12    1    1    2    0    0  0.17630776702E+02 -0.20105528569E+02 -0.17367902159E+02  0.31886056381E+02  0.00000000000E+00 0. -1.
         11    1    3    3    0    0  0.15609001438E+01 -0.44734089937E+01 -0.40264939591E+01  0.62177529018E+01  0.51100000000E-03 0. -1.
        -11    1    3    3    0    0 -0.16694495953E+02 -0.36488143024E+01  0.17534970770E+02  0.24484591912E+02  0.51100000000E-03 0.  1.
         12    1    3    3    0    0 -0.24971808929E+01  0.28227751865E+02  0.38594253482E+01  0.28599598805E+02  0.00000000000E+00 0. -1.
</event>
<event>
 7    1  0.5634483E-012  0.5930198E+02  0.7816164E-02  0.1266605E+00
        -11   -1    0    0    0    0  0.00000000000E+00  0.00000000000E+00  0.45593999997E+02  0.45594000000E+02  0.51100000000E-03 0. -1.
         11   -1    0    0    0    0 -0.00000000000E+00 -0.00000000000E+00 -0.45593999997E+02  0.45594000000E+02  0.51100000000E-03 0.  1.
    9900012    2    1    2    0    0 -0.18232620742E+02 -0.23989550845E+02 -0.10430304292E+02  0.59301980235E+02  0.50000066033E+02 0.  0.
         12    1    1    2    0    0  0.18232620742E+02  0.23989550845E+02  0.10430304292E+02  0.31886019765E+02  0.00000000000E+00 0. -1.
         11    1    3    3    0    0 -0.21012785784E+02 -0.84554849953E+01 -0.21934906382E+02  0.31530501283E+02  0.51100000000E-03 0. -1.
        -11    1    3    3    0    0  0.28158477583E+01 -0.15301546875E+02 -0.69079886962E+00  0.15573809384E+02  0.51100000000E-03 0.  1.
         12    1    3    3    0    0 -0.35682716150E-01 -0.23251897410E+00  0.12195400960E+02  0.12197669569E+02  0.00000000000E+00 0. -1.
</event>
<event>
 7    1  0.5634483E-012  0.5930194E+02  0.7816164E-02  0.1266605E+00
        -11   -1    0    0    0    0  0.00000000000E+00  0.00000000000E+00  0.45593999997E+02  0.45594000000E+02  0.51100000000E-03 0. -1.
         11   -1    0    0    0    0 -0.00000000000E+00 -0.00000000000E+00 -0.45593999997E+02  0.45594000000E+02  0.51100000000E-03 0.  1.
    9900012    2    1    2    0    0 -0.14456481654E+02  0.69554966250E+01 -0.27556348230E+02  0.59301935287E+02  0.49999984059E+02 0.  0.
         12    1    1    2    0    0  0.14456481654E+02 -0.69554966250E+01  0.27556348230E+02  0.31886064713E+02  0.00000000000E+00 0. -1.
         11    1    3    3    0    0  0.73560647376E+01 -0.92413315705E+01 -0.50244237938E+01  0.12835837812E+02  0.51100000000E-03 0. -1.
        -11    1    3    3    0    0  0.69055025688E+01  0.32305505685E+01 -0.99558298519E+01  0.12539576189E+02  0.51100000000E-03 0.  1.
         12    1    3    3    0    0 -0.28718048960E+02  0.12966277627E+02 -0.12576094584E+02  0.33926521286E+02  0.00000000000E+00 0. -1.
</event>
<event>
 7    1  0.5634483E-012  0.5930188E+02  0.7816164E-02  0.1266605E+00
        -11   -1    0    0    0    0  0.00000000000E+00  0.00000000000E+00  0.45593999997E+02  0.45594000000E+02  0.51100000000E-03 0. -1.
         11   -1    0    0    0    0 -0.00000000000E+00 -0.00000000000E+00 -0.45593999997E+02  0.45594000000E+02  0.51100000000E-03 0.  1.
    9900012    2    1    2    0    0  0.28398953483E+02  0.10183607703E+02 -0.10320757889E+02  0.59301882830E+02  0.49999888390E+02 0.  0.
         12    1    1    2    0    0 -0.28398953483E+02 -0.10183607703E+02  0.10320757889E+02  0.31886117170E+02  0.00000000000E+00 0. -1.
         11    1    3    3    0    0 -0.15670410653E+01 -0.62700545496E+01  0.13979761968E+02  0.15401394310E+02  0.51100000000E-03 0. -1.
        -11    1    3    3    0    0  0.12745227351E+01  0.16099365639E+01 -0.69191449655E+01  0.72174005886E+01  0.51100000000E-03 0.  1.
        -12    1    3    3    0    0  0.28691471813E+02  0.14843725688E+02 -0.17381374891E+02  0.36683087932E+02  0.00000000000E+00 0.  1.
</event>
<event>
 7    1  0.5634483E-012  0.5930196E+02  0.7816164E-02  0.1266605E+00
        -11   -1    0    0    0    0  0.00000000000E+00  0.00000000000E+00  0.45593999997E+02  0.45594000000E+02  0.51100000000E-03 0.  1.
         11   -1    0    0    0    0 -0.00000000000E+00 -0.00000000000E+00 -0.45593999997E+02  0.45594000000E+02  0.51100000000E-03 0. -1.
    9900012    2    1    2    0    0 -0.30192171091E+01 -0.12973704831E+02  0.28970449834E+02  0.59301958343E+02  0.50000026107E+02 0.  0.
         12    1    1    2    0    0  0.30192171091E+01  0.12973704831E+02 -0.28970449834E+02  0.31886041657E+02  0.00000000000E+00 0. -1.
         11    1    3    3    0    0  0.45843733048E+01 -0.48151399499E+01 -0.10897419419E+02  0.12765414275E+02  0.51100000000E-03 0. -1.
        -11    1    3    3    0    0 -0.95944823852E+01 -0.22191419506E+01  0.48767878838E+01  0.10989164825E+02  0.51100000000E-03 0.  1.
        -12    1    3    3    0    0  0.19908919714E+01 -0.59394229309E+01  0.34991081370E+02  0.35547379243E+02  0.00000000000E+00 0.  1.
</event>
<event>
 7    1  0.5634483E-012  0.5930171E+02  0.7816164E-02  0.1266606E+00
        -11   -1    0    0    0    0  0.00000000000E+00  0.00000000000E+00  0.45593999997E+02  0.45594000000E+02  0.51100000000E-03 0.  1.
         11   -1    0    0    0    0 -0.00000000000E+00 -0.00000000000E+00 -0.45593999997E+02  0.45594000000E+02  0.51100000000E-03 0. -1.
    9900012    2    1    2    0    0 -0.11842327364E+02  0.27569435500E+02 -0.10789856107E+02  0.59301710063E+02  0.49999573302E+02 0.  0.
         12    1    1    2    0    0  0.11842327364E+02 -0.27569435500E+02  0.10789856107E+02  0.31886289937E+02  0.00000000000E+00 0. -1.
         11    1    3    3    0    0  0.49432048183E+01  0.78791301933E+00 -0.15061579123E+02  0.15871586145E+02  0.51100000000E-03 0. -1.
        -11    1    3    3    0    0 -0.74103931521E+01 -0.56465494309E+01 -0.54338457136E+00  0.93323477324E+01  0.51100000000E-03 0.  1.
         12    1    3    3    0    0 -0.93751390298E+01  0.32428071911E+02  0.48151075879E+01  0.34097776186E+02  0.00000000000E+00 0. -1.
</event>
<event>
 7    1  0.5634483E-012  0.5930193E+02  0.7816164E-02  0.1266605E+00
        -11   -1    0    0    0    0  0.00000000000E+00  0.00000000000E+00  0.45593999997E+02  0.45594000000E+02  0.51100000000E-03 0. -1.
         11   -1    0    0    0    0 -0.00000000000E+00 -0.00000000000E+00 -0.45593999997E+02  0.45594000000E+02  0.51100000000E-03 0.  1.
    9900012    2    1    2    0    0  0.35305395493E+01  0.23983244693E+02 -0.20713779279E+02  0.59301931137E+02  0.49999976491E+02 0.  0.
         12    1    1    2    0    0 -0.35305395493E+01 -0.23983244693E+02  0.20713779279E+02  0.31886068863E+02  0.00000000000E+00 0. -1.
         11    1    3    3    0    0 -0.85346760130E+01  0.10112253945E+02  0.97436137675E+01  0.16432783818E+02  0.51100000000E-03 0. -1.
        -11    1    3    3    0    0  0.13715788604E+02  0.14358676090E+02 -0.98059891286E+01  0.22146147726E+02  0.51100000000E-03 0.  1.
        -12    1    3    3    0    0 -0.16505730412E+01 -0.48768534241E+00 -0.20651403918E+02  0.20722999593E+02  0.00000000000E+00 0.  1.
</event>
<event>
 7    1  0.5634483E-012  0.5930198E+02  0.7816164E-02  0.1266605E+00
        -11   -1    0    0    0    0  0.00000000000E+00  0.00000000000E+00  0.45593999997E+02  0.45594000000E+02  0.51100000000E-03 0.  1.
         11   -1    0    0    0    0 -0.00000000000E+00 -0.00000000000E+00 -0.45593999997E+02  0.45594000000E+02  0.51100000000E-03 0. -1.
    9900012    2    1    2    0    0  0.35525177376E+01  0.29506817286E+02  0.11551865182E+02  0.59301980527E+02  0.50000066566E+02 0.  0.
         12    1    1    2    0    0 -0.35525177376E+01 -0.29506817286E+02 -0.11551865182E+02  0.31886019473E+02  0.00000000000E+00 0. -1.
         11    1    3    3    0    0  0.11082832302E+02 -0.43032582988E+01  0.37143733986E+01  0.12455672355E+02  0.51100000000E-03 0. -1.
        -11    1    3    3    0    0 -0.15262095555E+01 -0.19317214437E+01 -0.71989870859E+01  0.76083032712E+01  0.51100000000E-03 0.  1.
        -12    1    3    3    0    0 -0.60041050087E+01  0.35741797029E+02  0.15036478869E+02  0.39238004901E+02  0.00000000000E+00 0.  1.
</event>
<event>
 7    1  0.5634483E-012  0.5930195E+02  0.7816164E-02  0.1266605E+00
        -11   -1    0    0    0    0  0.00000000000E+00  0.00000000000E+00  0.45593999997E+02  0.45594000000E+02  0.51100000000E-03 0.  1.
         11   -1    0    0    0    0 -0.00000000000E+00 -0.00000000000E+00 -0.45593999997E+02  0.45594000000E+02  0.51100000000E-03 0. -1.
    9900012    2    1    2    0    0  0.11447374958E+02 -0.27469837580E+02  0.11449274234E+02  0.59301948965E+02  0.50000009005E+02 0.  0.
         12    1    1    2    0    0 -0.11447374958E+02  0.27469837580E+02 -0.11449274234E+02  0.31886051035E+02  0.00000000000E+00 0. -1.
         11    1    3    3    0    0 -0.67702836976E+01  0.31378494956E+01  0.21869902009E+01  0.77759737141E+01  0.51100000000E-03 0. -1.
        -11    1    3    3    0    0  0.11839537117E+02  0.57218709264E+01  0.61291359041E+01  0.14507954826E+02  0.51100000000E-03 0.  1.
        -12    1    3    3    0    0  0.63781215384E+01 -0.36329558002E+02  0.31331481292E+01  0.37018020425E+02  0.00000000000E+00 0.  1.
</event>
<event>
 7    1  0.5634483E-012  0.5930207E+02  0.7816164E-02  0.1266604E+00
        -11   -1    0    0    0    0  0.00000000000E+00  0.00000000000E+00  0.45593999997E+02  0.45594000000E+02  0.51100000000E-03 0. -1.
         11   -1    0    0    0    0 -0.00000000000E+00 -0.00000000000E+00 -0.45593999997E+02  0.45594000000E+02  0.51100000000E-03 0.  1.
    9900012    2    1    2    0    0 -0.11249639421E+02  0.75316797431E+00 -0.29826010857E+02  0.59302069361E+02  0.50000228577E+02 0.  0.
         12    1    1    2    0    0  0.11249639421E+02 -0.75316797431E+00  0.29826010857E+02  0.31885930639E+02  0.00000000000E+00 0. -1.
         11    1    3    3    0    0 -0.52596299970E+01 -0.40085159514E+01  0.36389514276E+01  0.75481041057E+01  0.51100000000E-03 0. -1.
        -11    1    3    3    0    0  0.82566293762E+01 -0.11339836798E+02 -0.28013749572E+01  0.14304248641E+02  0.51100000000E-03 0.  1.
        -12    1    3    3    0    0 -0.14246638800E+02  0.16101520724E+02 -0.30663587327E+02  0.37449716614E+02  0.00000000000E+00 0.  1.
</event>
<event>
 7    1  0.5634483E-012  0.5930196E+02  0.7816164E-02  0.1266605E+00
        -11   -1    0    0    0    0  0.00000000000E+00  0.00000000000E+00  0.45593999997E+02  0.45594000000E+02  0.51100000000E-03 0. -1.
         11   -1    0    0    0    0 -0.00000000000E+00 -0.00000000000E+00 -0.45593999997E+02  0.45594000000E+02  0.51100000000E-03 0.  1.
    9900012    2    1    2    0    0 -0.84650858540E+01 -0.24498289942E+02 -0.18571374885E+02  0.59301955188E+02  0.50000020354E+02 0.  0.
         12    1    1    2    0    0  0.84650858540E+01  0.24498289942E+02  0.18571374885E+02  0.31886044812E+02  0.00000000000E+00 0. -1.
         11    1    3    3    0    0 -0.16472957173E+02 -0.18640466402E+02 -0.87261177358E+01  0.26362291947E+02  0.51100000000E-03 0. -1.
        -11    1    3    3    0    0  0.19016507077E+01 -0.73879510119E+01 -0.19767785486E+02  0.21188757369E+02  0.51100000000E-03 0.  1.
         12    1    3    3    0    0  0.61062206116E+01  0.15301274718E+01  0.99225283362E+01  0.11750905872E+02  0.00000000000E+00 0. -1.
</event>
<event>
 7    1  0.5634483E-012  0.5930198E+02  0.7816164E-02  0.1266605E+00
        -11   -1    0    0    0    0  0.00000000000E+00  0.00000000000E+00  0.45593999997E+02  0.45594000000E+02  0.51100000000E-03 0. -1.
         11   -1    0    0    0    0 -0.00000000000E+00 -0.00000000000E+00 -0.45593999997E+02  0.45594000000E+02  0.51100000000E-03 0.  1.
    9900012    2    1    2    0    0 -0.17521416537E+02  0.20984810256E+02 -0.16412066595E+02  0.59301980668E+02  0.50000066823E+02 0.  0.
         12    1    1    2    0    0  0.17521416537E+02 -0.20984810256E+02  0.16412066595E+02  0.31886019332E+02  0.00000000000E+00 0. -1.
         11    1    3    3    0    0 -0.72766058708E+01  0.12363975362E+02  0.94714337657E+01  0.17190838769E+02  0.51100000000E-03 0. -1.
        -11    1    3    3    0    0  0.14471617480E+01  0.15302463098E+02 -0.31526360014E+01  0.15690722355E+02  0.51100000000E-03 0.  1.
         12    1    3    3    0    0 -0.11691972414E+02 -0.66816282038E+01 -0.22730864359E+02  0.26420419544E+02  0.00000000000E+00 0. -1.
</event>
<event>
 7    1  0.5634483E-012  0.5930194E+02  0.7816164E-02  0.1266605E+00
        -11   -1    0    0    0    0  0.00000000000E+00  0.00000000000E+00  0.45593999997E+02  0.45594000000E+02  0.51100000000E-03 0. -1.
         11   -1    0    0    0    0 -0.00000000000E+00 -0.00000000000E+00 -0.45593999997E+02  0.45594000000E+02  0.51100000000E-03 0.  1.
    9900012    2    1    2    0    0 -0.20253155791E+02  0.14273271953E+02 -0.20069984167E+02  0.59301939155E+02  0.49999991114E+02 0.  0.
         12    1    1    2    0    0  0.20253155791E+02 -0.14273271953E+02  0.20069984167E+02  0.31886060845E+02  0.00000000000E+00 0. -1.
         11    1    3    3    0    0 -0.22120078330E+02  0.10562281027E+02 -0.66852353668E+01  0.25407715717E+02  0.51100000000E-03 0. -1.
        -11    1    3    3    0    0 -0.65753698971E+01  0.11601113038E+02 -0.17165114373E+02  0.21736201708E+02  0.51100000000E-03 0.  1.
        -12    1    3    3    0    0  0.84422924359E+01 -0.78901221112E+01  0.37803655734E+01  0.12158021729E+02  0.00000000000E+00 0.  1.
</event>
<event>
 7    1  0.5634483E-012  0.5930193E+02  0.7816164E-02  0.1266605E+00
        -11   -1    0    0    0    0  0.00000000000E+00  0.00000000000E+00  0.45593999997E+02  0.45594000000E+02  0.51100000000E-03 0.  1.
         11   -1    0    0    0    0 -0.00000000000E+00 -0.00000000000E+00 -0.45593999997E+02  0.45594000000E+02  0.51100000000E-03 0. -1.
    9900012    2    1    2    0    0 -0.11767209479E+02 -0.17131593035E+02  0.24181866532E+02  0.59301931446E+02  0.49999977054E+02 0.  0.
         12    1    1    2    0    0  0.11767209479E+02  0.17131593035E+02 -0.24181866532E+02  0.31886068554E+02  0.00000000000E+00 0. -1.
         11    1    3    3    0    0 -0.53924817655E+01 -0.16533234172E+02  0.11828805993E+02  0.21032055137E+02  0.51100000000E-03 0. -1.
        -11    1    3    3    0    0 -0.20477814766E+02 -0.77245989579E+00  0.12794912860E+02  0.24158795236E+02  0.51100000000E-03 0.  1.
         12    1    3    3    0    0  0.14103087053E+02  0.17410103290E+00 -0.44185232057E+00  0.14111081073E+02  0.00000000000E+00 0. -1.
</event>
<event>
 7    1  0.5634483E-012  0.5930195E+02  0.7816164E-02  0.1266605E+00
        -11   -1    0    0    0    0  0.00000000000E+00  0.00000000000E+00  0.45593999997E+02  0.45594000000E+02  0.51100000000E-03 0.  1.
         11   -1    0    0    0    0 -0.00000000000E+00 -0.00000000000E+00 -0.45593999997E+02  0.45594000000E+02  0.51100000000E-03 0. -1.
    9900012    2    1    2    0    0  0.60825731950E+01  0.24882172403E+02  0.18989475676E+02  0.59301946832E+02  0.50000005115E+02 0.  0.
         12    1    1    2    0    0 -0.60825731950E+01 -0.24882172403E+02 -0.18989475676E+02  0.31886053168E+02  0.00000000000E+00 0. -1.
         11    1    3    3    0    0  0.85916307090E+01 -0.69850700193E+01  0.17317047281E+02  0.20554499464E+02  0.51100000000E-03 0. -1.
        -11    1    3    3    0    0 -0.10996081355E+00  0.36049723107E+01  0.87925456417E+01  0.95035138693E+01  0.51100000000E-03 0.  1.
         12    1    3    3    0    0 -0.23990967005E+01  0.28262270112E+02 -0.71201172473E+01  0.29243933499E+02  0.00000000000E+00 0. -1.
</event>
<event>
 7    1  0.5634483E-012  0.5930194E+02  0.7816164E-02  0.1266605E+00
        -11   -1    0    0    0    0  0.00000000000E+00  0.00000000000E+00  0.45593999997E+02  0.45594000000E+02  0.51100000000E-03 0. -1.
         11   -1    0    0    0    0 -0.00000000000E+00 -0.00000000000E+00 -0.45593999997E+02  0.45594000000E+02  0.51100000000E-03 0.  1.
    9900012    2    1    2    0    0  0.79522963759E+01  0.30177866928E+02  0.65404772107E+01  0.59301944864E+02  0.50000001525E+02 0.  0.
         12    1    1    2    0    0 -0.79522963759E+01 -0.30177866928E+02 -0.65404772107E+01  0.31886055136E+02  0.00000000000E+00 0. -1.
         11    1    3    3    0    0 -0.13780090012E+02  0.16736501765E+02  0.55320050814E+00  0.21686571954E+02  0.51100000000E-03 0.  1.
        -11    1    3    3    0    0  0.10003594201E+02  0.65352174415E+01 -0.10728720789E+02  0.16058842236E+02  0.51100000000E-03 0. -1.
         12    1    3    3    0    0  0.11728792187E+02  0.69061477219E+01  0.16715997492E+02  0.21556530673E+02  0.00000000000E+00 0. -1.
</event>
<event>
 7    1  0.5634483E-012  0.5930183E+02  0.7816164E-02  0.1266605E+00
        -11   -1    0    0    0    0  0.00000000000E+00  0.00000000000E+00  0.45593999997E+02  0.45594000000E+02  0.51100000000E-03 0. -1.
         11   -1    0    0    0    0 -0.00000000000E+00 -0.00000000000E+00 -0.45593999997E+02  0.45594000000E+02  0.51100000000E-03 0.  1.
    9900012    2    1    2    0    0 -0.11285552050E+02 -0.79940475886E+01 -0.28730813647E+02  0.59301825335E+02  0.49999783533E+02 0.  0.
         12    1    1    2    0    0  0.11285552050E+02  0.79940475886E+01  0.28730813647E+02  0.31886174665E+02  0.00000000000E+00 0. -1.
         11    1    3    3    0    0 -0.80976087200E+01 -0.15000706082E+02 -0.51762718935E+01  0.17815337239E+02  0.51100000000E-03 0. -1.
        -11    1    3    3    0    0 -0.14111073229E+02 -0.74607678244E+01 -0.12272508850E+02  0.20134545387E+02  0.51100000000E-03 0.  1.
         12    1    3    3    0    0  0.10923129898E+02  0.14467426318E+02 -0.11282032903E+02  0.21351942710E+02  0.00000000000E+00 0. -1.
</event>
<event>
 7    1  0.5634483E-012  0.5930198E+02  0.7816164E-02  0.1266605E+00
        -11   -1    0    0    0    0  0.00000000000E+00  0.00000000000E+00  0.45593999997E+02  0.45594000000E+02  0.51100000000E-03 0.  1.
         11   -1    0    0    0    0 -0.00000000000E+00 -0.00000000000E+00 -0.45593999997E+02  0.45594000000E+02  0.51100000000E-03 0. -1.
    9900012    2    1    2    0    0  0.28135187253E+02  0.24392518238E+00 -0.15002325735E+02  0.59301983649E+02  0.50000072259E+02 0.  0.
         12    1    1    2    0    0 -0.28135187253E+02 -0.24392518238E+00  0.15002325735E+02  0.31886016351E+02  0.00000000000E+00 0. -1.
         11    1    3    3    0    0 -0.61673366932E+01  0.21133115558E+01 -0.21746444884E+02  0.22702642863E+02  0.51100000000E-03 0. -1.
        -11    1    3    3    0    0  0.16765276525E+02  0.33421184331E+00 -0.19858933625E+01  0.16885791874E+02  0.51100000000E-03 0.  1.
        -12    1    3    3    0    0  0.17537247422E+02 -0.22035982167E+01  0.87300125111E+01  0.19713548911E+02  0.00000000000E+00 0.  1.
</event>
<event>
 7    1  0.5634483E-012  0.5930195E+02  0.7816164E-02  0.1266605E+00
        -11   -1    0    0    0    0  0.00000000000E+00  0.00000000000E+00  0.45593999997E+02  0.45594000000E+02  0.51100000000E-03 0.  1.
         11   -1    0    0    0    0 -0.00000000000E+00 -0.00000000000E+00 -0.45593999997E+02  0.45594000000E+02  0.51100000000E-03 0. -1.
    9900012    2    1    2    0    0 -0.28707860371E+02  0.10238975546E+02  0.93670962920E+01  0.59301947245E+02  0.50000005868E+02 0.  0.
         12    1    1    2    0    0  0.28707860371E+02 -0.10238975546E+02 -0.93670962920E+01  0.31886052755E+02  0.00000000000E+00 0. -1.
         11    1    3    3    0    0  0.52387280554E+01  0.70820534567E+01  0.75645081798E+01  0.11611267677E+02  0.51100000000E-03 0. -1.
        -11    1    3    3    0    0 -0.51219062444E+01  0.15412788062E+02 -0.79608849645E+00  0.16261049062E+02  0.51100000000E-03 0.  1.
         12    1    3    3    0    0 -0.28824682182E+02 -0.12255865973E+02  0.25986766087E+01  0.31429630507E+02  0.00000000000E+00 0. -1.
</event>
<event>
 7    1  0.5634483E-012  0.5930194E+02  0.7816164E-02  0.1266605E+00
        -11   -1    0    0    0    0  0.00000000000E+00  0.00000000000E+00  0.45593999997E+02  0.45594000000E+02  0.51100000000E-03 0.  1.
         11   -1    0    0    0    0 -0.00000000000E+00 -0.00000000000E+00 -0.45593999997E+02  0.45594000000E+02  0.51100000000E-03 0. -1.
    9900012    2    1    2    0    0  0.40915450700E+01  0.16214666406E+02  0.27148940210E+02  0.59301935611E+02  0.49999984650E+02 0.  0.
         12    1    1    2    0    0 -0.40915450700E+01 -0.16214666406E+02 -0.27148940210E+02  0.31886064389E+02  0.00000000000E+00 0. -1.
         11    1    3    3    0    0  0.51409373739E+01  0.10487712109E+02  0.18947326940E+02  0.22258089334E+02  0.51100000000E-03 0. -1.
        -11    1    3    3    0    0 -0.16891714783E+01 -0.58781112599E+01  0.19740384596E+02  0.20666114210E+02  0.51100000000E-03 0.  1.
         12    1    3    3    0    0  0.63977917438E+00  0.11605065557E+02 -0.11538771326E+02  0.16377732068E+02  0.00000000000E+00 0. -1.
</event>
<event>
 7    1  0.5634483E-012  0.5930194E+02  0.7816164E-02  0.1266605E+00
        -11   -1    0    0    0    0  0.00000000000E+00  0.00000000000E+00  0.45593999997E+02  0.45594000000E+02  0.51100000000E-03 0. -1.
         11   -1    0    0    0    0 -0.00000000000E+00 -0.00000000000E+00 -0.45593999997E+02  0.45594000000E+02  0.51100000000E-03 0.  1.
    9900012    2    1    2    0    0  0.78841372473E+01  0.28456160677E+02 -0.12033613475E+02  0.59301944210E+02  0.50000000332E+02 0.  0.
         12    1    1    2    0    0 -0.78841372473E+01 -0.28456160677E+02  0.12033613475E+02  0.31886055790E+02  0.00000000000E+00 0. -1.
         11    1    3    3    0    0 -0.17823561793E+01  0.24023416255E+02 -0.17903014992E+02  0.30013651364E+02  0.51100000000E-03 0. -1.
        -11    1    3    3    0    0  0.74639526833E+01 -0.28931419414E+01 -0.93172184630E+01  0.12283786879E+02  0.51100000000E-03 0.  1.
         12    1    3    3    0    0  0.22025407433E+01  0.73258863627E+01  0.15186619980E+02  0.17004505966E+02  0.00000000000E+00 0. -1.
</event>
<event>
 7    1  0.5634483E-012  0.5930195E+02  0.7816164E-02  0.1266605E+00
        -11   -1    0    0    0    0  0.00000000000E+00  0.00000000000E+00  0.45593999997E+02  0.45594000000E+02  0.51100000000E-03 0. -1.
         11   -1    0    0    0    0 -0.00000000000E+00 -0.00000000000E+00 -0.45593999997E+02  0.45594000000E+02  0.51100000000E-03 0.  1.
    9900012    2    1    2    0    0  0.25586884139E+02 -0.13914819074E+02 -0.12977271139E+02  0.59301946685E+02  0.50000004846E+02 0.  0.
         12    1    1    2    0    0 -0.25586884139E+02  0.13914819074E+02  0.12977271139E+02  0.31886053315E+02  0.00000000000E+00 0. -1.
         11    1    3    3    0    0 -0.30189021308E+01  0.18230579719E+00 -0.49790607162E+01  0.58256374206E+01  0.51100000000E-03 0. -1.
        -11    1    3    3    0    0  0.13221058161E+02 -0.16285948462E+02 -0.23518054718E+02  0.31513923815E+02  0.51100000000E-03 0.  1.
         12    1    3    3    0    0  0.15384728108E+02  0.21888235911E+01  0.15519844295E+02  0.21962385449E+02  0.00000000000E+00 0. -1.
</event>
<event>
 7    1  0.5634483E-012  0.5930195E+02  0.7816164E-02  0.1266605E+00
        -11   -1    0    0    0    0  0.00000000000E+00  0.00000000000E+00  0.45593999997E+02  0.45594000000E+02  0.51100000000E-03 0.  1.
         11   -1    0    0    0    0 -0.00000000000E+00 -0.00000000000E+00 -0.45593999997E+02  0.45594000000E+02  0.51100000000E-03 0. -1.
    9900012    2    1    2    0    0 -0.31084756820E+02 -0.46474370029E+01  0.53720826174E+01  0.59301952128E+02  0.50000014773E+02 0.  0.
         12    1    1    2    0    0  0.31084756820E+02  0.46474370029E+01 -0.53720826174E+01  0.31886047872E+02  0.00000000000E+00 0. -1.
         11    1    3    3    0    0  0.84156808721E+01 -0.11030230919E+01  0.11596560646E+01  0.85665131140E+01  0.51100000000E-03 0. -1.
        -11    1    3    3    0    0 -0.76723393584E+01 -0.39730405935E+00 -0.12482308597E+02  0.14657103053E+02  0.51100000000E-03 0.  1.
        -12    1    3    3    0    0 -0.31828098334E+02 -0.31471098517E+01  0.16694735150E+02  0.36078335961E+02  0.00000000000E+00 0.  1.
</event>
<event>
 7    1  0.5634483E-012  0.5930195E+02  0.7816164E-02  0.1266605E+00
        -11   -1    0    0    0    0  0.00000000000E+00  0.00000000000E+00  0.45593999997E+02  0.45594000000E+02  0.51100000000E-03 0.  1.
         11   -1    0    0    0    0 -0.00000000000E+00 -0.00000000000E+00 -0.45593999997E+02  0.45594000000E+02  0.51100000000E-03 0. -1.
    9900012    2    1    2    0    0  0.25100755492E+02 -0.12773174339E+02 -0.14950532127E+02  0.59301947880E+02  0.50000007025E+02 0.  0.
         12    1    1    2    0    0 -0.25100755492E+02  0.12773174339E+02  0.14950532127E+02  0.31886052120E+02  0.00000000000E+00 0. -1.
         11    1    3    3    0    0 -0.90427693823E+01 -0.11716011054E+02 -0.60995021768E+01  0.16007514491E+02  0.51100000000E-03 0. -1.
        -11    1    3    3    0    0  0.13547580458E+02 -0.68161429021E+01  0.69718152517E+01  0.16691403431E+02  0.51100000000E-03 0.  1.
         12    1    3    3    0    0  0.20595944416E+02  0.57589796178E+01 -0.15822845202E+02  0.26603029957E+02  0.00000000000E+00 0. -1.
</event>
<event>
 7    1  0.5634483E-012  0.5930201E+02  0.7816164E-02  0.1266605E+00
        -11   -1    0    0    0    0  0.00000000000E+00  0.00000000000E+00  0.45593999997E+02  0.45594000000E+02  0.51100000000E-03 0.  1.
         11   -1    0    0    0    0 -0.00000000000E+00 -0.00000000000E+00 -0.45593999997E+02  0.45594000000E+02  0.51100000000E-03 0. -1.
    9900012    2    1    2    0    0  0.22942847581E+02 -0.16285694598E+02 -0.15003949424E+02  0.59302006179E+02  0.50000113349E+02 0.  0.
         12    1    1    2    0    0 -0.22942847581E+02  0.16285694598E+02  0.15003949424E+02  0.31885993821E+02  0.00000000000E+00 0. -1.
         11    1    3    3    0    0  0.19453199668E+02 -0.23423909487E+01  0.46734906704E+01  0.20143368338E+02  0.51100000000E-03 0. -1.
        -11    1    3    3    0    0  0.44930591166E+01 -0.12579157707E+02  0.51187432354E+01  0.14304695782E+02  0.51100000000E-03 0.  1.
         12    1    3    3    0    0 -0.10034112038E+01 -0.13641459424E+01 -0.24796183329E+02  0.24853942060E+02  0.00000000000E+00 0. -1.
</event>
<event>
 7    1  0.5634483E-012  0.5930181E+02  0.7816164E-02  0.1266605E+00
        -11   -1    0    0    0    0  0.00000000000E+00  0.00000000000E+00  0.45593999997E+02  0.45594000000E+02  0.51100000000E-03 0. -1.
         11   -1    0    0    0    0 -0.00000000000E+00 -0.00000000000E+00 -0.45593999997E+02  0.45594000000E+02  0.51100000000E-03 0.  1.
    9900012    2    1    2    0    0 -0.30773377504E+02  0.79683601622E+01 -0.24967457323E+01  0.59301807597E+02  0.49999751183E+02 0.  0.
         12    1    1    2    0    0  0.30773377504E+02 -0.79683601622E+01  0.24967457323E+01  0.31886192403E+02  0.00000000000E+00 0. -1.
         11    1    3    3    0    0  0.32082134808E+00  0.87120489483E+01  0.49935194379E+01  0.10046788534E+02  0.51100000000E-03 0. -1.
        -11    1    3    3    0    0 -0.38541836083E+02  0.11449724722E+01 -0.48944416043E-01  0.38558870399E+02  0.51100000000E-03 0.  1.
         12    1    3    3    0    0  0.74476372307E+01 -0.18886612583E+01 -0.74413207541E+01  0.10696148664E+02  0.00000000000E+00 0. -1.
</event>
<event>
 7    1  0.5634483E-012  0.5930194E+02  0.7816164E-02  0.1266605E+00
        -11   -1    0    0    0    0  0.00000000000E+00  0.00000000000E+00  0.45593999997E+02  0.45594000000E+02  0.51100000000E-03 0. -1.
         11   -1    0    0    0    0 -0.00000000000E+00 -0.00000000000E+00 -0.45593999997E+02  0.45594000000E+02  0.51100000000E-03 0.  1.
    9900012    2    1    2    0    0 -0.11030934869E+02 -0.23415558596E+02  0.18621241973E+02  0.59301944097E+02  0.50000000126E+02 0.  0.
         12    1    1    2    0    0  0.11030934869E+02  0.23415558596E+02 -0.18621241973E+02  0.31886055903E+02  0.00000000000E+00 0. -1.
         11    1    3    3    0    0  0.82130559798E+00 -0.19547531587E+02  0.16218909396E+02  0.25413255523E+02  0.51100000000E-03 0. -1.
        -11    1    3    3    0    0  0.33202096588E+01  0.11155858638E+01  0.13820036964E+02  0.14256989372E+02  0.51100000000E-03 0.  1.
        -12    1    3    3    0    0 -0.15172450126E+02 -0.49836128727E+01 -0.11417704387E+02  0.19631699202E+02  0.00000000000E+00 0.  1.
</event>
<event>
 7    1  0.5634483E-012  0.5930195E+02  0.7816164E-02  0.1266605E+00
        -11   -1    0    0    0    0  0.00000000000E+00  0.00000000000E+00  0.45593999997E+02  0.45594000000E+02  0.51100000000E-03 0. -1.
         11   -1    0    0    0    0 -0.00000000000E+00 -0.00000000000E+00 -0.45593999997E+02  0.45594000000E+02  0.51100000000E-03 0.  1.
    9900012    2    1    2    0    0  0.27380804996E+02  0.13611918716E+02 -0.90403260677E+01  0.59301948053E+02  0.50000007341E+02 0.  0.
         12    1    1    2    0    0 -0.27380804996E+02 -0.13611918716E+02  0.90403260677E+01  0.31886051947E+02  0.00000000000E+00 0. -1.
         11    1    3    3    0    0  0.17735662518E+02  0.11967008820E+02 -0.14158944145E+02  0.25656163482E+02  0.51100000000E-03 0. -1.
        -11    1    3    3    0    0  0.12689880169E+02 -0.45115302513E+01 -0.10175812827E+02  0.16879992028E+02  0.51100000000E-03 0.  1.
         12    1    3    3    0    0 -0.30447376901E+01  0.61564401475E+01  0.15294430905E+02  0.16765792543E+02  0.00000000000E+00 0. -1.
</event>
<event>
 7    1  0.5634483E-012  0.5930194E+02  0.7816164E-02  0.1266605E+00
        -11   -1    0    0    0    0  0.00000000000E+00  0.00000000000E+00  0.45593999997E+02  0.45594000000E+02  0.51100000000E-03 0. -1.
         11   -1    0    0    0    0 -0.00000000000E+00 -0.00000000000E+00 -0.45593999997E+02  0.45594000000E+02  0.51100000000E-03 0.  1.
    9900012    2    1    2    0    0 -0.28899401651E+02  0.13273035988E+01 -0.13408351836E+02  0.59301936437E+02  0.49999986156E+02 0.  0.
         12    1    1    2    0    0  0.28899401651E+02 -0.13273035988E+01  0.13408351836E+02  0.31886063563E+02  0.00000000000E+00 0. -1.
         11    1    3    3    0    0  0.64707529182E+01  0.98664331718E+01 -0.11160629230E+01  0.11851697919E+02  0.51100000000E-03 0. -1.
        -11    1    3    3    0    0 -0.14725723688E+01  0.45420136485E+00 -0.12283649051E+02  0.12379935482E+02  0.51100000000E-03 0.  1.
         12    1    3    3    0    0 -0.33897582200E+02 -0.89933309379E+01 -0.86398616052E-02  0.35070303036E+02  0.00000000000E+00 0. -1.
</event>
<event>
 7    1  0.5634483E-012  0.5930198E+02  0.7816164E-02  0.1266605E+00
        -11   -1    0    0    0    0  0.00000000000E+00  0.00000000000E+00  0.45593999997E+02  0.45594000000E+02  0.51100000000E-03 0.  1.
         11   -1    0    0    0    0 -0.00000000000E+00 -0.00000000000E+00 -0.45593999997E+02  0.45594000000E+02  0.51100000000E-03 0. -1.
    9900012    2    1    2    0    0  0.24779699103E+02 -0.13963300979E+02  0.14412180215E+02  0.59301981113E+02  0.50000067635E+02 0.  0.
         12    1    1    2    0    0 -0.24779699103E+02  0.13963300979E+02 -0.14412180215E+02  0.31886018887E+02  0.00000000000E+00 0. -1.
         11    1    3    3    0    0  0.42523019751E+01 -0.86830067593E+00 -0.11531045117E+02  0.12320755655E+02  0.51100000000E-03 0. -1.
        -11    1    3    3    0    0  0.54989566671E+01  0.23881191340E+01  0.24646285840E+02  0.25364956996E+02  0.51100000000E-03 0.  1.
         12    1    3    3    0    0  0.15028440461E+02 -0.15483119437E+02  0.12969394924E+01  0.21616268463E+02  0.00000000000E+00 0. -1.
</event>
<event>
 7    1  0.5634483E-012  0.5930196E+02  0.7816164E-02  0.1266605E+00
        -11   -1    0    0    0    0  0.00000000000E+00  0.00000000000E+00  0.45593999997E+02  0.45594000000E+02  0.51100000000E-03 0.  1.
         11   -1    0    0    0    0 -0.00000000000E+00 -0.00000000000E+00 -0.45593999997E+02  0.45594000000E+02  0.51100000000E-03 0. -1.
    9900012    2    1    2    0    0  0.69669540258E+01  0.21983252508E+01  0.31037854385E+02  0.59301960937E+02  0.50000030838E+02 0.  0.
         12    1    1    2    0    0 -0.69669540258E+01 -0.21983252508E+01 -0.31037854385E+02  0.31886039063E+02  0.00000000000E+00 0. -1.
         11    1    3    3    0    0 -0.16383784731E+02 -0.14279482243E+01  0.90459330154E+01  0.18769558935E+02  0.51100000000E-03 0. -1.
        -11    1    3    3    0    0 -0.90119221785E+00 -0.72299363567E+01  0.65677078597E+01  0.98091240142E+01  0.51100000000E-03 0.  1.
         12    1    3    3    0    0  0.24251930974E+02  0.10856209832E+02  0.15424213510E+02  0.30723277988E+02  0.00000000000E+00 0. -1.
</event>
<event>
 7    1  0.5634483E-012  0.5930190E+02  0.7816164E-02  0.1266605E+00
        -11   -1    0    0    0    0  0.00000000000E+00  0.00000000000E+00  0.45593999997E+02  0.45594000000E+02  0.51100000000E-03 0.  1.
         11   -1    0    0    0    0 -0.00000000000E+00 -0.00000000000E+00 -0.45593999997E+02  0.45594000000E+02  0.51100000000E-03 0. -1.
    9900012    2    1    2    0    0 -0.28542720888E+02  0.75145574694E+01 -0.12065160273E+02  0.59301896725E+02  0.49999913732E+02 0.  0.
         12    1    1    2    0    0  0.28542720888E+02 -0.75145574694E+01  0.12065160273E+02  0.31886103275E+02  0.00000000000E+00 0. -1.
         11    1    3    3    0    0  0.72792887552E+01  0.42687504464E+01  0.55381058309E+01  0.10093606472E+02  0.51100000000E-03 0. -1.
        -11    1    3    3    0    0  0.36988798665E+00  0.22351854486E+01 -0.12429737953E+02  0.12634526385E+02  0.51100000000E-03 0.  1.
        -12    1    3    3    0    0 -0.36191897629E+02  0.10106215743E+01 -0.51735281506E+01  0.36573763869E+02  0.00000000000E+00 0.  1.
</event>
<event>
 7    1  0.5634483E-012  0.5930194E+02  0.7816164E-02  0.1266605E+00
        -11   -1    0    0    0    0  0.00000000000E+00  0.00000000000E+00  0.45593999997E+02  0.45594000000E+02  0.51100000000E-03 0.  1.
         11   -1    0    0    0    0 -0.00000000000E+00 -0.00000000000E+00 -0.45593999997E+02  0.45594000000E+02  0.51100000000E-03 0. -1.
    9900012    2    1    2    0    0 -0.29447131387E+02 -0.59201682804E+01  0.10702272584E+02  0.59301943834E+02  0.49999999646E+02 0.  0.
         12    1    1    2    0    0  0.29447131387E+02  0.59201682804E+01 -0.10702272584E+02  0.31886056166E+02  0.00000000000E+00 0. -1.
         11    1    3    3    0    0 -0.69770659133E+01 -0.14895181031E+02 -0.58708098099E+01  0.17464600619E+02  0.51100000000E-03 0. -1.
        -11    1    3    3    0    0 -0.12559505738E+02 -0.10606117461E+02  0.79146365239E+01  0.18244790586E+02  0.51100000000E-03 0.  1.
        -12    1    3    3    0    0 -0.99105597355E+01  0.19581130211E+02  0.86584458698E+01  0.23592552628E+02  0.00000000000E+00 0.  1.
</event>
<event>
 7    1  0.5634483E-012  0.5930196E+02  0.7816164E-02  0.1266605E+00
        -11   -1    0    0    0    0  0.00000000000E+00  0.00000000000E+00  0.45593999997E+02  0.45594000000E+02  0.51100000000E-03 0. -1.
         11   -1    0    0    0    0 -0.00000000000E+00 -0.00000000000E+00 -0.45593999997E+02  0.45594000000E+02  0.51100000000E-03 0.  1.
    9900012    2    1    2    0    0 -0.12704002469E+02 -0.29197238228E+02 -0.16879747547E+01  0.59301958263E+02  0.50000025961E+02 0.  0.
         12    1    1    2    0    0  0.12704002469E+02  0.29197238228E+02  0.16879747547E+01  0.31886041737E+02  0.00000000000E+00 0. -1.
         11    1    3    3    0    0 -0.20753580070E+02 -0.92999433652E+01  0.62877226304E+01  0.23595242920E+02  0.51100000000E-03 0. -1.
        -11    1    3    3    0    0 -0.10070331836E+02 -0.73974848454E+01 -0.51418705025E+01  0.13511964989E+02  0.51100000000E-03 0.  1.
        -12    1    3    3    0    0  0.18119909437E+02 -0.12499810018E+02 -0.28338268826E+01  0.22194750354E+02  0.00000000000E+00 0.  1.
</event>
<event>
 7    1  0.5634483E-012  0.5930207E+02  0.7816164E-02  0.1266604E+00
        -11   -1    0    0    0    0  0.00000000000E+00  0.00000000000E+00  0.45593999997E+02  0.45594000000E+02  0.51100000000E-03 0.  1.
         11   -1    0    0    0    0 -0.00000000000E+00 -0.00000000000E+00 -0.45593999997E+02  0.45594000000E+02  0.51100000000E-03 0. -1.
    9900012    2    1    2    0    0  0.23660104941E+02  0.19938248347E+02  0.77057459060E+01  0.59302065280E+02  0.50000221135E+02 0.  0.
         12    1    1    2    0    0 -0.23660104941E+02 -0.19938248347E+02 -0.77057459060E+01  0.31885934720E+02  0.00000000000E+00 0. -1.
         11    1    3    3    0    0  0.18207000704E+02  0.13285252312E+02  0.25931315889E+02  0.34357327422E+02  0.51100000000E-03 0.  1.
        -11    1    3    3    0    0 -0.33474138857E+01 -0.67384520835E+00  0.67194939259E-02  0.34145706172E+01  0.51100000000E-03 0. -1.
        -12    1    3    3    0    0  0.88005181229E+01  0.73268412436E+01 -0.18232289477E+02  0.21530167240E+02  0.00000000000E+00 0.  1.
</event>
<event>
 7    1  0.5634483E-012  0.5930214E+02  0.7816164E-02  0.1266604E+00
        -11   -1    0    0    0    0  0.00000000000E+00  0.00000000000E+00  0.45593999997E+02  0.45594000000E+02  0.51100000000E-03 0. -1.
         11   -1    0    0    0    0 -0.00000000000E+00 -0.00000000000E+00 -0.45593999997E+02  0.45594000000E+02  0.51100000000E-03 0.  1.
    9900012    2    1    2    0    0  0.35093117556E+00  0.31866656090E+02 -0.10492837448E+01  0.59302142329E+02  0.50000361653E+02 0.  0.
         12    1    1    2    0    0 -0.35093117556E+00 -0.31866656090E+02  0.10492837448E+01  0.31885857671E+02  0.00000000000E+00 0. -1.
         11    1    3    3    0    0  0.73045414526E+01  0.17657855016E+02 -0.22889227758E+01  0.19245657623E+02  0.51100000000E-03 0. -1.
        -11    1    3    3    0    0  0.48836765588E+01  0.20616649155E+02  0.10571064024E+02  0.23677920389E+02  0.51100000000E-03 0.  1.
        -12    1    3    3    0    0 -0.11837286836E+02 -0.64078480813E+01 -0.93314249933E+01  0.16378564317E+02  0.00000000000E+00 0.  1.
</event>
<event>
 7    1  0.5634483E-012  0.5930195E+02  0.7816164E-02  0.1266605E+00
        -11   -1    0    0    0    0  0.00000000000E+00  0.00000000000E+00  0.45593999997E+02  0.45594000000E+02  0.51100000000E-03 0.  1.
         11   -1    0    0    0    0 -0.00000000000E+00 -0.00000000000E+00 -0.45593999997E+02  0.45594000000E+02  0.51100000000E-03 0. -1.
    9900012    2    1    2    0    0  0.15180518030E+02 -0.28831047553E+01  0.27891926516E+02  0.59301953122E+02  0.50000016586E+02 0.  0.
         12    1    1    2    0    0 -0.15180518030E+02  0.28831047553E+01 -0.27891926516E+02  0.31886046878E+02  0.00000000000E+00 0. -1.
         11    1    3    3    0    0  0.50412196385E+01 -0.12640790762E+02 -0.50079189945E+01  0.14501128902E+02  0.51100000000E-03 0.  1.
        -11    1    3    3    0    0  0.96942699604E+01  0.84642441437E+01  0.10397363554E+01  0.12911365185E+02  0.51100000000E-03 0. -1.
         12    1    3    3    0    0  0.44502843143E+00  0.12934418625E+01  0.31860109155E+02  0.31889459035E+02  0.00000000000E+00 0. -1.
</event>
<event>
 7    1  0.5634483E-012  0.5930194E+02  0.7816164E-02  0.1266605E+00
        -11   -1    0    0    0    0  0.00000000000E+00  0.00000000000E+00  0.45593999997E+02  0.45594000000E+02  0.51100000000E-03 0.  1.
         11   -1    0    0    0    0 -0.00000000000E+00 -0.00000000000E+00 -0.45593999997E+02  0.45594000000E+02  0.51100000000E-03 0. -1.
    9900012    2    1    2    0    0 -0.12728294055E+02 -0.74551225219E+01  0.28268933958E+02  0.59301938022E+02  0.49999989046E+02 0.  0.
         12    1    1    2    0    0  0.12728294055E+02  0.74551225219E+01 -0.28268933958E+02  0.31886061978E+02  0.00000000000E+00 0. -1.
         11    1    3    3    0    0  0.57363896519E+01  0.69745247077E+00 -0.21217657331E+01  0.61558505729E+01  0.51100000000E-03 0. -1.
        -11    1    3    3    0    0 -0.16378247623E+02  0.10138928707E+02  0.20781358474E+01  0.19374300488E+02  0.51100000000E-03 0.  1.
        -12    1    3    3    0    0 -0.20864360839E+01 -0.18291503700E+02  0.28312563844E+02  0.33771786961E+02  0.00000000000E+00 0.  1.
</event>
<event>
 7    1  0.5634483E-012  0.5930193E+02  0.7816164E-02  0.1266605E+00
        -11   -1    0    0    0    0  0.00000000000E+00  0.00000000000E+00  0.45593999997E+02  0.45594000000E+02  0.51100000000E-03 0. -1.
         11   -1    0    0    0    0 -0.00000000000E+00 -0.00000000000E+00 -0.45593999997E+02  0.45594000000E+02  0.51100000000E-03 0.  1.
    9900012    2    1    2    0    0 -0.14350899003E+02  0.15406710839E+02 -0.23945905644E+02  0.59301930343E+02  0.49999975042E+02 0.  0.
         12    1    1    2    0    0  0.14350899003E+02 -0.15406710839E+02  0.23945905644E+02  0.31886069657E+02  0.00000000000E+00 0. -1.
         11    1    3    3    0    0 -0.51542776962E+01  0.25382468059E+01  0.10521261734E+02  0.11987753090E+02  0.51100000000E-03 0. -1.
        -11    1    3    3    0    0 -0.15159178358E+02  0.13577331740E+02 -0.11085812491E+02  0.23174120576E+02  0.51100000000E-03 0.  1.
        -12    1    3    3    0    0  0.59625570507E+01 -0.70886770687E+00 -0.23381354887E+02  0.24140056677E+02  0.00000000000E+00 0.  1.
</event>
<event>
 7    1  0.5634483E-012  0.5930195E+02  0.7816164E-02  0.1266605E+00
        -11   -1    0    0    0    0  0.00000000000E+00  0.00000000000E+00  0.45593999997E+02  0.45594000000E+02  0.51100000000E-03 0.  1.
         11   -1    0    0    0    0 -0.00000000000E+00 -0.00000000000E+00 -0.45593999997E+02  0.45594000000E+02  0.51100000000E-03 0. -1.
    9900012    2    1    2    0    0  0.22385565964E+02  0.15498697315E+02  0.16595097952E+02  0.59301945712E+02  0.50000003071E+02 0.  0.
         12    1    1    2    0    0 -0.22385565964E+02 -0.15498697315E+02 -0.16595097952E+02  0.31886054288E+02  0.00000000000E+00 0. -1.
         11    1    3    3    0    0  0.80004018457E+01  0.44744851075E+01 -0.80409425272E+01  0.12193613232E+02  0.51100000000E-03 0. -1.
        -11    1    3    3    0    0 -0.41385128051E+01 -0.97931862276E+01  0.12030194292E+01  0.10699581335E+02  0.51100000000E-03 0.  1.
        -12    1    3    3    0    0  0.18523676924E+02  0.20817398435E+02  0.23433021050E+02  0.36408751145E+02  0.00000000000E+00 0.  1.
</event>
<event>
 7    1  0.5634483E-012  0.5930193E+02  0.7816164E-02  0.1266605E+00
        -11   -1    0    0    0    0  0.00000000000E+00  0.00000000000E+00  0.45593999997E+02  0.45594000000E+02  0.51100000000E-03 0.  1.
         11   -1    0    0    0    0 -0.00000000000E+00 -0.00000000000E+00 -0.45593999997E+02  0.45594000000E+02  0.51100000000E-03 0. -1.
    9900012    2    1    2    0    0 -0.11151522907E+02 -0.29402711698E+02  0.52769140688E+01  0.59301925603E+02  0.49999966398E+02 0.  0.
         12    1    1    2    0    0  0.11151522907E+02  0.29402711698E+02 -0.52769140688E+01  0.31886074397E+02  0.00000000000E+00 0. -1.
         11    1    3    3    0    0  0.74459251014E+01  0.10205118770E+02  0.15523370030E+01  0.12727764931E+02  0.51100000000E-03 0. -1.
        -11    1    3    3    0    0 -0.65613218277E+01 -0.73234574612E+01 -0.50009197928E+01  0.11031462838E+02  0.51100000000E-03 0.  1.
        -12    1    3    3    0    0 -0.12036126181E+02 -0.32284373007E+02  0.87254968586E+01  0.35542697834E+02  0.00000000000E+00 0.  1.
</event>
<event>
 7    1  0.5634483E-012  0.5930196E+02  0.7816164E-02  0.1266605E+00
        -11   -1    0    0    0    0  0.00000000000E+00  0.00000000000E+00  0.45593999997E+02  0.45594000000E+02  0.51100000000E-03 0. -1.
         11   -1    0    0    0    0 -0.00000000000E+00 -0.00000000000E+00 -0.45593999997E+02  0.45594000000E+02  0.51100000000E-03 0.  1.
    9900012    2    1    2    0    0 -0.28164240557E+02 -0.63195727849E+01 -0.13548365811E+02  0.59301958187E+02  0.50000025823E+02 0.  0.
         12    1    1    2    0    0  0.28164240557E+02  0.63195727849E+01  0.13548365811E+02  0.31886041813E+02  0.00000000000E+00 0. -1.
         11    1    3    3    0    0 -0.22806228772E+02  0.10132148094E+02 -0.41844412003E+01  0.25304032173E+02  0.51100000000E-03 0. -1.
        -11    1    3    3    0    0 -0.14965696306E+02 -0.36830889762E+01 -0.93340328843E+01  0.18018362314E+02  0.51100000000E-03 0.  1.
         12    1    3    3    0    0  0.96076845206E+01 -0.12768631903E+02 -0.29891726896E-01  0.15979563700E+02  0.00000000000E+00 0. -1.
</event>
<event>
 7    1  0.5634483E-012  0.5930195E+02  0.7816164E-02  0.1266605E+00
        -11   -1    0    0    0    0  0.00000000000E+00  0.00000000000E+00  0.45593999997E+02  0.45594000000E+02  0.51100000000E-03 0.  1.
         11   -1    0    0    0    0 -0.00000000000E+00 -0.00000000000E+00 -0.45593999997E+02  0.45594000000E+02  0.51100000000E-03 0. -1.
    9900012    2    1    2    0    0  0.25882155154E+02 -0.56278019641E+01  0.17752799431E+02  0.59301952926E+02  0.50000016229E+02 0.  0.
         12    1    1    2    0    0 -0.25882155154E+02  0.56278019641E+01 -0.17752799431E+02  0.31886047074E+02  0.00000000000E+00 0. -1.
         11    1    3    3    0    0 -0.19544148182E+01 -0.93430064379E+01  0.10062093937E+00  0.95457651037E+01  0.51100000000E-03 0. -1.
        -11    1    3    3    0    0  0.69215813345E+01 -0.77143930519E+01 -0.91953287898E+01  0.13855476179E+02  0.51100000000E-03 0.  1.
        -12    1    3    3    0    0  0.20914988638E+02  0.11429597526E+02  0.26847507281E+02  0.35900711644E+02  0.00000000000E+00 0.  1.
</event>
<event>
 7    1  0.5634483E-012  0.5930196E+02  0.7816164E-02  0.1266605E+00
        -11   -1    0    0    0    0  0.00000000000E+00  0.00000000000E+00  0.45593999997E+02  0.45594000000E+02  0.51100000000E-03 0. -1.
         11   -1    0    0    0    0 -0.00000000000E+00 -0.00000000000E+00 -0.45593999997E+02  0.45594000000E+02  0.51100000000E-03 0.  1.
    9900012    2    1    2    0    0 -0.14687271550E+02 -0.25001492419E+02 -0.13263824489E+02  0.59301959029E+02  0.50000027359E+02 0.  0.
         12    1    1    2    0    0  0.14687271550E+02  0.25001492419E+02  0.13263824489E+02  0.31886040971E+02  0.00000000000E+00 0. -1.
         11    1    3    3    0    0  0.82238223499E+01  0.62665728513E+01 -0.60611595294E+01  0.11984942405E+02  0.51100000000E-03 0. -1.
        -11    1    3    3    0    0 -0.20569075489E+02 -0.92151235220E+01 -0.10555178053E+02  0.24888092575E+02  0.51100000000E-03 0.  1.
        -12    1    3    3    0    0 -0.23420184103E+01 -0.22052941748E+02  0.33525130936E+01  0.22428924050E+02  0.00000000000E+00 0.  1.
</event>
<event>
 7    1  0.5634483E-012  0.5930192E+02  0.7816164E-02  0.1266605E+00
        -11   -1    0    0    0    0  0.00000000000E+00  0.00000000000E+00  0.45593999997E+02  0.45594000000E+02  0.51100000000E-03 0.  1.
         11   -1    0    0    0    0 -0.00000000000E+00 -0.00000000000E+00 -0.45593999997E+02  0.45594000000E+02  0.51100000000E-03 0. -1.
    9900012    2    1    2    0    0 -0.17231906662E+02  0.13514520500E+02  0.23176308043E+02  0.59301919557E+02  0.49999955371E+02 0.  0.
         12    1    1    2    0    0  0.17231906662E+02 -0.13514520500E+02 -0.23176308043E+02  0.31886080443E+02  0.00000000000E+00 0. -1.
         11    1    3    3    0    0  0.11801060413E+02  0.40070424778E+01  0.89150394767E+01  0.15323163689E+02  0.51100000000E-03 0. -1.
        -11    1    3    3    0    0  0.16627174350E+01  0.91477521980E+01  0.87944526857E+01  0.12797984132E+02  0.51100000000E-03 0.  1.
        -12    1    3    3    0    0 -0.30695684510E+02  0.35972582416E+00  0.54668158803E+01  0.31180771736E+02  0.00000000000E+00 0.  1.
</event>
<event>
 7    1  0.5634483E-012  0.5930192E+02  0.7816164E-02  0.1266605E+00
        -11   -1    0    0    0    0  0.00000000000E+00  0.00000000000E+00  0.45593999997E+02  0.45594000000E+02  0.51100000000E-03 0. -1.
         11   -1    0    0    0    0 -0.00000000000E+00 -0.00000000000E+00 -0.45593999997E+02  0.45594000000E+02  0.51100000000E-03 0.  1.
    9900012    2    1    2    0    0  0.91176756430E+01 -0.28140088346E+02 -0.11904864754E+02  0.59301915480E+02  0.49999947935E+02 0.  0.
         12    1    1    2    0    0 -0.91176756430E+01  0.28140088346E+02  0.11904864754E+02  0.31886084520E+02  0.00000000000E+00 0. -1.
         11    1    3    3    0    0 -0.22906251176E+00 -0.11797788161E+02 -0.18222272006E+02  0.21709248547E+02  0.51100000000E-03 0. -1.
        -11    1    3    3    0    0  0.11728685529E+02 -0.12089594228E+02 -0.10657055579E+02  0.19932214797E+02  0.51100000000E-03 0.  1.
         12    1    3    3    0    0 -0.23819473739E+01 -0.42527059569E+01  0.16974462831E+02  0.17660452136E+02  0.00000000000E+00 0. -1.
</event>
<event>
 7    1  0.5634483E-012  0.5930194E+02  0.7816164E-02  0.1266605E+00
        -11   -1    0    0    0    0  0.00000000000E+00  0.00000000000E+00  0.45593999997E+02  0.45594000000E+02  0.51100000000E-03 0.  1.
         11   -1    0    0    0    0 -0.00000000000E+00 -0.00000000000E+00 -0.45593999997E+02  0.45594000000E+02  0.51100000000E-03 0. -1.
    9900012    2    1    2    0    0  0.29607576663E+02 -0.54919793511E+01  0.10485731423E+02  0.59301937268E+02  0.49999987672E+02 0.  0.
         12    1    1    2    0    0 -0.29607576663E+02  0.54919793511E+01 -0.10485731423E+02  0.31886062732E+02  0.00000000000E+00 0. -1.
         11    1    3    3    0    0 -0.46780154297E+01 -0.73044544885E+00 -0.47349266930E+01  0.66960368849E+01  0.51100000000E-03 0. -1.
        -11    1    3    3    0    0  0.24927647735E+02 -0.19977566515E+02  0.60019075494E+01  0.32504056362E+02  0.51100000000E-03 0.  1.
         12    1    3    3    0    0  0.93579443575E+01  0.15216032613E+02  0.92187505663E+01  0.20101844022E+02  0.00000000000E+00 0. -1.
</event>
<event>
 7    1  0.5634483E-012  0.5930195E+02  0.7816164E-02  0.1266605E+00
        -11   -1    0    0    0    0  0.00000000000E+00  0.00000000000E+00  0.45593999997E+02  0.45594000000E+02  0.51100000000E-03 0. -1.
         11   -1    0    0    0    0 -0.00000000000E+00 -0.00000000000E+00 -0.45593999997E+02  0.45594000000E+02  0.51100000000E-03 0.  1.
    9900012    2    1    2    0    0 -0.15511970899E+01 -0.10711417929E+00 -0.31848115192E+02  0.59301950901E+02  0.50000012535E+02 0.  0.
         12    1    1    2    0    0  0.15511970899E+01  0.10711417929E+00  0.31848115192E+02  0.31886049099E+02  0.00000000000E+00 0. -1.
         11    1    3    3    0    0  0.29265665310E+01  0.13742636899E+02 -0.61467960442E+00  0.14064234493E+02  0.51100000000E-03 0. -1.
        -11    1    3    3    0    0 -0.67382631289E+01  0.42866879788E+01 -0.24485570068E+02  0.25755058253E+02  0.51100000000E-03 0.  1.
         12    1    3    3    0    0  0.22604995080E+01 -0.18136439057E+02 -0.67478655203E+01  0.19482658155E+02  0.00000000000E+00 0. -1.
</event>
<event>
 7    1  0.5634483E-012  0.5930195E+02  0.7816164E-02  0.1266605E+00
        -11   -1    0    0    0    0  0.00000000000E+00  0.00000000000E+00  0.45593999997E+02  0.45594000000E+02  0.51100000000E-03 0. -1.
         11   -1    0    0    0    0 -0.00000000000E+00 -0.00000000000E+00 -0.45593999997E+02  0.45594000000E+02  0.51100000000E-03 0.  1.
    9900012    2    1    2    0    0  0.80474439499E+01 -0.30624421079E+02 -0.37555120283E+01  0.59301946761E+02  0.50000004985E+02 0.  0.
         12    1    1    2    0    0 -0.80474439499E+01  0.30624421079E+02  0.37555120283E+01  0.31886053239E+02  0.00000000000E+00 0. -1.
         11    1    3    3    0    0 -0.22377834029E+00  0.56017726565E+01 -0.22543948441E+01  0.60425350652E+01  0.51100000000E-03 0. -1.
        -11    1    3    3    0    0  0.21286601586E+02 -0.24898035252E+02 -0.96896367414E+01  0.34160219949E+02  0.51100000000E-03 0.  1.
        -12    1    3    3    0    0 -0.13015379296E+02 -0.11328158483E+02  0.81885195572E+01  0.19099191747E+02  0.00000000000E+00 0.  1.
</event>
<event>
 7    1  0.5634483E-012  0.5930200E+02  0.7816164E-02  0.1266605E+00
        -11   -1    0    0    0    0  0.00000000000E+00  0.00000000000E+00  0.45593999997E+02  0.45594000000E+02  0.51100000000E-03 0.  1.
         11   -1    0    0    0    0 -0.00000000000E+00 -0.00000000000E+00 -0.45593999997E+02  0.45594000000E+02  0.51100000000E-03 0. -1.
    9900012    2    1    2    0    0  0.31414975397E+01  0.31508264590E+02 -0.37519281096E+01  0.59302004503E+02  0.50000110293E+02 0.  0.
         12    1    1    2    0    0 -0.31414975397E+01 -0.31508264590E+02  0.37519281096E+01  0.31885995497E+02  0.00000000000E+00 0. -1.
         11    1    3    3    0    0 -0.26029080017E+01  0.69233154063E+01 -0.17227429949E+02  0.18748113750E+02  0.51100000000E-03 0. -1.
        -11    1    3    3    0    0  0.46915305531E+01  0.17376382422E+02 -0.66209504783E+01  0.19177750403E+02  0.51100000000E-03 0.  1.
        -12    1    3    3    0    0  0.10528749883E+01  0.72085667616E+01  0.20096452318E+02  0.21376140350E+02  0.00000000000E+00 0.  1.
</event>
<event>
 7    1  0.5634483E-012  0.5930219E+02  0.7816164E-02  0.1266604E+00
        -11   -1    0    0    0    0  0.00000000000E+00  0.00000000000E+00  0.45593999997E+02  0.45594000000E+02  0.51100000000E-03 0. -1.
         11   -1    0    0    0    0 -0.00000000000E+00 -0.00000000000E+00 -0.45593999997E+02  0.45594000000E+02  0.51100000000E-03 0.  1.
    9900012    2    1    2    0    0 -0.11594245494E+02  0.15434284636E+02 -0.25378364640E+02  0.59302187126E+02  0.50000443352E+02 0.  0.
         12    1    1    2    0    0  0.11594245494E+02 -0.15434284636E+02  0.25378364640E+02  0.31885812874E+02  0.00000000000E+00 0. -1.
         11    1    3    3    0    0 -0.12922778249E+01  0.12714101006E+02  0.97030875918E+01  0.16045817382E+02  0.51100000000E-03 0. -1.
        -11    1    3    3    0    0  0.73632834642E+01 -0.26398179721E+00 -0.94041897109E+01  0.11946816067E+02  0.51100000000E-03 0.  1.
        -12    1    3    3    0    0 -0.17665251133E+02  0.29841654266E+01 -0.25677262521E+02  0.31309553677E+02  0.00000000000E+00 0.  1.
</event>
<event>
 7    1  0.5634483E-012  0.5930199E+02  0.7816164E-02  0.1266605E+00
        -11   -1    0    0    0    0  0.00000000000E+00  0.00000000000E+00  0.45593999997E+02  0.45594000000E+02  0.51100000000E-03 0.  1.
         11   -1    0    0    0    0 -0.00000000000E+00 -0.00000000000E+00 -0.45593999997E+02  0.45594000000E+02  0.51100000000E-03 0. -1.
    9900012    2    1    2    0    0  0.17209620042E+02 -0.10151926133E+02  0.24849251551E+02  0.59301985373E+02  0.50000075403E+02 0.  0.
         12    1    1    2    0    0 -0.17209620042E+02  0.10151926133E+02 -0.24849251551E+02  0.31886014627E+02  0.00000000000E+00 0. -1.
         11    1    3    3    0    0  0.88805691298E+01 -0.67031463431E+01  0.45114744902E+01  0.12006251759E+02  0.51100000000E-03 0. -1.
        -11    1    3    3    0    0 -0.12210327197E+02 -0.14826576811E+02  0.85897298869E+01  0.21040506885E+02  0.51100000000E-03 0.  1.
        -12    1    3    3    0    0  0.20539378109E+02  0.11377797022E+02  0.11748047173E+02  0.26255226728E+02  0.00000000000E+00 0.  1.
</event>
<event>
 7    1  0.5634483E-012  0.5930165E+02  0.7816164E-02  0.1266606E+00
        -11   -1    0    0    0    0  0.00000000000E+00  0.00000000000E+00  0.45593999997E+02  0.45594000000E+02  0.51100000000E-03 0. -1.
         11   -1    0    0    0    0 -0.00000000000E+00 -0.00000000000E+00 -0.45593999997E+02  0.45594000000E+02  0.51100000000E-03 0.  1.
    9900012    2    1    2    0    0 -0.17093964867E+02 -0.18347897572E+02  0.19694929990E+02  0.59301651080E+02  0.49999465730E+02 0.  0.
         12    1    1    2    0    0  0.17093964867E+02  0.18347897572E+02 -0.19694929990E+02  0.31886348920E+02  0.00000000000E+00 0. -1.
         11    1    3    3    0    0 -0.52899555609E+01  0.12106794796E+02 -0.75070749223E-01  0.13212257413E+02  0.51100000000E-03 0. -1.
        -11    1    3    3    0    0  0.36876261663E+01 -0.24809228996E+01 -0.42084214532E+01  0.61208150245E+01  0.51100000000E-03 0.  1.
        -12    1    3    3    0    0 -0.15491635472E+02 -0.27973769468E+02  0.23978422192E+02  0.39968578642E+02  0.00000000000E+00 0.  1.
</event>
<event>
 7    1  0.5634483E-012  0.5930193E+02  0.7816164E-02  0.1266605E+00
        -11   -1    0    0    0    0  0.00000000000E+00  0.00000000000E+00  0.45593999997E+02  0.45594000000E+02  0.51100000000E-03 0.  1.
         11   -1    0    0    0    0 -0.00000000000E+00 -0.00000000000E+00 -0.45593999997E+02  0.45594000000E+02  0.51100000000E-03 0. -1.
    9900012    2    1    2    0    0  0.31085823754E+01  0.89926228181E+01  0.30433385611E+02  0.59301929228E+02  0.49999973009E+02 0.  0.
         12    1    1    2    0    0 -0.31085823754E+01 -0.89926228181E+01 -0.30433385611E+02  0.31886070772E+02  0.00000000000E+00 0. -1.
         11    1    3    3    0    0 -0.93767154134E+01  0.21209350559E+00  0.16935995811E+02  0.19359641783E+02  0.51100000000E-03 0. -1.
        -11    1    3    3    0    0 -0.51851481998E+01 -0.28603862142E+01  0.17439938611E+02  0.18417899722E+02  0.51100000000E-03 0.  1.
        -12    1    3    3    0    0  0.17670445989E+02  0.11640915527E+02 -0.39425488108E+01  0.21524387723E+02  0.00000000000E+00 0.  1.
</event>
<event>
 7    1  0.5634483E-012  0.5930193E+02  0.7816164E-02  0.1266605E+00
        -11   -1    0    0    0    0  0.00000000000E+00  0.00000000000E+00  0.45593999997E+02  0.45594000000E+02  0.51100000000E-03 0.  1.
         11   -1    0    0    0    0 -0.00000000000E+00 -0.00000000000E+00 -0.45593999997E+02  0.45594000000E+02  0.51100000000E-03 0. -1.
    9900012    2    1    2    0    0 -0.29814315931E+02  0.10723199928E+02  0.35834290858E+01  0.59301930704E+02  0.49999975701E+02 0.  0.
         12    1    1    2    0    0  0.29814315931E+02 -0.10723199928E+02 -0.35834290858E+01  0.31886069296E+02  0.00000000000E+00 0. -1.
         11    1    3    3    0    0 -0.10558243550E+01  0.17596613380E+02  0.89394207336E+01  0.19765343681E+02  0.51100000000E-03 0. -1.
        -11    1    3    3    0    0 -0.79026027999E+01  0.30496245183E+01  0.89864917485E+01  0.12349428121E+02  0.51100000000E-03 0.  1.
        -12    1    3    3    0    0 -0.20855888776E+02 -0.99230379706E+01 -0.14342483396E+02  0.27187158902E+02  0.00000000000E+00 0.  1.
</event>
<event>
 7    1  0.5634483E-012  0.5930199E+02  0.7816164E-02  0.1266605E+00
        -11   -1    0    0    0    0  0.00000000000E+00  0.00000000000E+00  0.45593999997E+02  0.45594000000E+02  0.51100000000E-03 0.  1.
         11   -1    0    0    0    0 -0.00000000000E+00 -0.00000000000E+00 -0.45593999997E+02  0.45594000000E+02  0.51100000000E-03 0. -1.
    9900012    2    1    2    0    0 -0.25855900176E+02 -0.16341134953E+02  0.90087552930E+01  0.59301985238E+02  0.50000075158E+02 0.  0.
         12    1    1    2    0    0  0.25855900176E+02  0.16341134953E+02 -0.90087552930E+01  0.31886014762E+02  0.00000000000E+00 0. -1.
         11    1    3    3    0    0 -0.51716856719E+01  0.58046728305E+01  0.22229062415E+01  0.80859057487E+01  0.51100000000E-03 0. -1.
        -11    1    3    3    0    0 -0.26395566196E+02 -0.24946155617E+02 -0.61173982427E+01  0.36830139240E+02  0.51100000000E-03 0.  1.
         12    1    3    3    0    0  0.57113516918E+01  0.28003478335E+01  0.12903247294E+02  0.14385940250E+02  0.00000000000E+00 0. -1.
</event>
<event>
 7    1  0.5634483E-012  0.5930195E+02  0.7816164E-02  0.1266605E+00
        -11   -1    0    0    0    0  0.00000000000E+00  0.00000000000E+00  0.45593999997E+02  0.45594000000E+02  0.51100000000E-03 0. -1.
         11   -1    0    0    0    0 -0.00000000000E+00 -0.00000000000E+00 -0.45593999997E+02  0.45594000000E+02  0.51100000000E-03 0.  1.
    9900012    2    1    2    0    0  0.23183620417E+02 -0.18973321367E+02 -0.10920303761E+02  0.59301949546E+02  0.50000010064E+02 0.  0.
         12    1    1    2    0    0 -0.23183620417E+02  0.18973321367E+02  0.10920303761E+02  0.31886050454E+02  0.00000000000E+00 0. -1.
         11    1    3    3    0    0 -0.79388126336E+01  0.29706116570E+01 -0.88147451325E+01  0.12229023332E+02  0.51100000000E-03 0.  1.
        -11    1    3    3    0    0 -0.30661685318E+01 -0.96227448361E+01  0.25993489935E+01  0.10428577233E+02  0.51100000000E-03 0. -1.
         12    1    3    3    0    0  0.34188601582E+02 -0.12321188187E+02 -0.47049076220E+01  0.36644348981E+02  0.00000000000E+00 0. -1.
</event>
<event>
 7    1  0.5634483E-012  0.5930191E+02  0.7816164E-02  0.1266605E+00
        -11   -1    0    0    0    0  0.00000000000E+00  0.00000000000E+00  0.45593999997E+02  0.45594000000E+02  0.51100000000E-03 0.  1.
         11   -1    0    0    0    0 -0.00000000000E+00 -0.00000000000E+00 -0.45593999997E+02  0.45594000000E+02  0.51100000000E-03 0. -1.
    9900012    2    1    2    0    0 -0.59497297640E+00  0.28025697809E+02  0.15196349627E+02  0.59301909420E+02  0.49999936883E+02 0.  0.
         12    1    1    2    0    0  0.59497297640E+00 -0.28025697809E+02 -0.15196349627E+02  0.31886090580E+02  0.00000000000E+00 0. -1.
         11    1    3    3    0    0  0.59272109147E+01  0.12839918508E+02 -0.56288237432E+01  0.15221005010E+02  0.51100000000E-03 0. -1.
        -11    1    3    3    0    0 -0.26080524708E+01  0.25051039986E+02  0.21948846523E+02  0.33408208662E+02  0.51100000000E-03 0.  1.
         12    1    3    3    0    0 -0.39141314203E+01 -0.98652606851E+01 -0.11236731532E+01  0.10672695747E+02  0.00000000000E+00 0. -1.
</event>
<event>
 7    1  0.5634483E-012  0.5930192E+02  0.7816164E-02  0.1266605E+00
        -11   -1    0    0    0    0  0.00000000000E+00  0.00000000000E+00  0.45593999997E+02  0.45594000000E+02  0.51100000000E-03 0.  1.
         11   -1    0    0    0    0 -0.00000000000E+00 -0.00000000000E+00 -0.45593999997E+02  0.45594000000E+02  0.51100000000E-03 0. -1.
    9900012    2    1    2    0    0 -0.15866367349E+02  0.25123096524E+02 -0.11567638339E+02  0.59301923908E+02  0.49999963307E+02 0.  0.
         12    1    1    2    0    0  0.15866367349E+02 -0.25123096524E+02  0.11567638339E+02  0.31886076092E+02  0.00000000000E+00 0. -1.
         11    1    3    3    0    0  0.42580716187E+01 -0.64885199288E+01 -0.53169584078E+01  0.94075560985E+01  0.51100000000E-03 0. -1.
        -11    1    3    3    0    0 -0.59020274678E+01 -0.64732553304E+01  0.18542027249E-01  0.87599832689E+01  0.51100000000E-03 0.  1.
         12    1    3    3    0    0 -0.14222411499E+02  0.38084871783E+02 -0.62692219588E+01  0.41134384541E+02  0.00000000000E+00 0. -1.
</event>
<event>
 7    1  0.5634483E-012  0.5930195E+02  0.7816164E-02  0.1266605E+00
        -11   -1    0    0    0    0  0.00000000000E+00  0.00000000000E+00  0.45593999997E+02  0.45594000000E+02  0.51100000000E-03 0. -1.
         11   -1    0    0    0    0 -0.00000000000E+00 -0.00000000000E+00 -0.45593999997E+02  0.45594000000E+02  0.51100000000E-03 0.  1.
    9900012    2    1    2    0    0  0.78632392516E+01  0.25081261588E+02 -0.18050484462E+02  0.59301949701E+02  0.50000010346E+02 0.  0.
         12    1    1    2    0    0 -0.78632392516E+01 -0.25081261588E+02  0.18050484462E+02  0.31886050299E+02  0.00000000000E+00 0. -1.
         11    1    3    3    0    0 -0.51765674798E+01 -0.26954439521E+01  0.37933548714E+00  0.58486036492E+01  0.51100000000E-03 0. -1.
        -11    1    3    3    0    0  0.92737722530E+01 -0.70521075232E+01  0.34493959714E+01  0.12150448763E+02  0.51100000000E-03 0.  1.
         12    1    3    3    0    0  0.37660344784E+01  0.34828813063E+02 -0.21879215921E+02  0.41302897288E+02  0.00000000000E+00 0. -1.
</event>
<event>
 7    1  0.5634483E-012  0.5930195E+02  0.7816164E-02  0.1266605E+00
        -11   -1    0    0    0    0  0.00000000000E+00  0.00000000000E+00  0.45593999997E+02  0.45594000000E+02  0.51100000000E-03 0.  1.
         11   -1    0    0    0    0 -0.00000000000E+00 -0.00000000000E+00 -0.45593999997E+02  0.45594000000E+02  0.51100000000E-03 0. -1.
    9900012    2    1    2    0    0  0.72310734284E+01 -0.17811364201E+02  0.25439869352E+02  0.59301951793E+02  0.50000014161E+02 0.  0.
         12    1    1    2    0    0 -0.72310734284E+01  0.17811364201E+02 -0.25439869352E+02  0.31886048207E+02  0.00000000000E+00 0. -1.
         11    1    3    3    0    0 -0.13526876229E+01  0.88469886603E+01  0.66782325166E+01  0.11166815212E+02  0.51100000000E-03 0. -1.
        -11    1    3    3    0    0  0.20919537109E+02 -0.17237284062E+02  0.18110345710E+02  0.32599626020E+02  0.51100000000E-03 0.  1.
         12    1    3    3    0    0 -0.12335776057E+02 -0.94210687991E+01  0.65129112576E+00  0.15535510561E+02  0.00000000000E+00 0. -1.
</event>
<event>
 7    1  0.5634483E-012  0.5930185E+02  0.7816164E-02  0.1266605E+00
        -11   -1    0    0    0    0  0.00000000000E+00  0.00000000000E+00  0.45593999997E+02  0.45594000000E+02  0.51100000000E-03 0.  1.
         11   -1    0    0    0    0 -0.00000000000E+00 -0.00000000000E+00 -0.45593999997E+02  0.45594000000E+02  0.51100000000E-03 0. -1.
    9900012    2    1    2    0    0  0.27492471287E+01 -0.23254647407E+02  0.21642309248E+02  0.59301850415E+02  0.49999829273E+02 0.  0.
         12    1    1    2    0    0 -0.27492471287E+01  0.23254647407E+02 -0.21642309248E+02  0.31886149585E+02  0.00000000000E+00 0. -1.
         11    1    3    3    0    0 -0.10432598707E+02 -0.29670583864E+01 -0.10035188082E+02  0.14776587947E+02  0.51100000000E-03 0. -1.
        -11    1    3    3    0    0  0.11718691645E+02 -0.37575761649E+01  0.53831355317E+01  0.13432247054E+02  0.51100000000E-03 0.  1.
        -12    1    3    3    0    0  0.14631541903E+01 -0.16530012855E+02  0.26294361798E+02  0.31093015414E+02  0.00000000000E+00 0.  1.
</event>
<event>
 7    1  0.5634483E-012  0.5930195E+02  0.7816164E-02  0.1266605E+00
        -11   -1    0    0    0    0  0.00000000000E+00  0.00000000000E+00  0.45593999997E+02  0.45594000000E+02  0.51100000000E-03 0. -1.
         11   -1    0    0    0    0 -0.00000000000E+00 -0.00000000000E+00 -0.45593999997E+02  0.45594000000E+02  0.51100000000E-03 0.  1.
    9900012    2    1    2    0    0  0.20159033821E+02 -0.10493166664E+02 -0.22365751319E+02  0.59301952529E+02  0.50000015504E+02 0.  0.
         12    1    1    2    0    0 -0.20159033821E+02  0.10493166664E+02  0.22365751319E+02  0.31886047471E+02  0.00000000000E+00 0. -1.
         11    1    3    3    0    0  0.88900271336E+00  0.74877974392E+01  0.31110589731E+01  0.81569678502E+01  0.51100000000E-03 0. -1.
        -11    1    3    3    0    0 -0.48924640613E+01  0.38187004262E+01  0.38782051694E+01  0.73184119269E+01  0.51100000000E-03 0.  1.
        -12    1    3    3    0    0  0.24162495169E+02 -0.21799664529E+02 -0.29355015462E+02  0.43826572752E+02  0.00000000000E+00 0.  1.
</event>
<event>
 7    1  0.5634483E-012  0.5930195E+02  0.7816164E-02  0.1266605E+00
        -11   -1    0    0    0    0  0.00000000000E+00  0.00000000000E+00  0.45593999997E+02  0.45594000000E+02  0.51100000000E-03 0.  1.
         11   -1    0    0    0    0 -0.00000000000E+00 -0.00000000000E+00 -0.45593999997E+02  0.45594000000E+02  0.51100000000E-03 0. -1.
    9900012    2    1    2    0    0  0.66528572749E+01 -0.11332231969E+02  0.29052366483E+02  0.59301953058E+02  0.50000016469E+02 0.  0.
         12    1    1    2    0    0 -0.66528572749E+01  0.11332231969E+02 -0.29052366483E+02  0.31886046942E+02  0.00000000000E+00 0. -1.
         11    1    3    3    0    0  0.77341507128E+01  0.41532572280E+01 -0.74925283171E+01  0.11541430314E+02  0.51100000000E-03 0. -1.
        -11    1    3    3    0    0  0.59327109696E+01  0.57467021451E+01  0.79847441661E+01  0.11488158453E+02  0.51100000000E-03 0.  1.
        -12    1    3    3    0    0 -0.70140044075E+01 -0.21232191342E+02  0.28560150634E+02  0.36272364291E+02  0.00000000000E+00 0.  1.
</event>
<event>
 7    1  0.5634483E-012  0.5930196E+02  0.7816164E-02  0.1266605E+00
        -11   -1    0    0    0    0  0.00000000000E+00  0.00000000000E+00  0.45593999997E+02  0.45594000000E+02  0.51100000000E-03 0.  1.
         11   -1    0    0    0    0 -0.00000000000E+00 -0.00000000000E+00 -0.45593999997E+02  0.45594000000E+02  0.51100000000E-03 0. -1.
    9900012    2    1    2    0    0  0.29685509383E+02 -0.11330592171E+02  0.26660781941E+01  0.59301956670E+02  0.50000023057E+02 0.  0.
         12    1    1    2    0    0 -0.29685509383E+02  0.11330592171E+02 -0.26660781941E+01  0.31886043330E+02  0.00000000000E+00 0. -1.
         11    1    3    3    0    0 -0.30147110030E+01 -0.93904828411E+01 -0.10671855470E+02  0.14531281769E+02  0.51100000000E-03 0. -1.
        -11    1    3    3    0    0 -0.36048863001E+01 -0.45960263654E+01  0.43287782094E+01  0.72702809186E+01  0.51100000000E-03 0.  1.
        -12    1    3    3    0    0  0.36305106687E+02  0.26559170358E+01  0.90091554549E+01  0.37500393982E+02  0.00000000000E+00 0.  1.
</event>
<event>
 7    1  0.5634483E-012  0.5930196E+02  0.7816164E-02  0.1266605E+00
        -11   -1    0    0    0    0  0.00000000000E+00  0.00000000000E+00  0.45593999997E+02  0.45594000000E+02  0.51100000000E-03 0. -1.
         11   -1    0    0    0    0 -0.00000000000E+00 -0.00000000000E+00 -0.45593999997E+02  0.45594000000E+02  0.51100000000E-03 0.  1.
    9900012    2    1    2    0    0 -0.28234439013E+02 -0.85365143760E+01  0.12110497698E+02  0.59301956367E+02  0.50000022504E+02 0.  0.
         12    1    1    2    0    0  0.28234439013E+02  0.85365143760E+01 -0.12110497698E+02  0.31886043633E+02  0.00000000000E+00 0. -1.
         11    1    3    3    0    0 -0.20142435213E+02 -0.18090087942E+02  0.18010646255E+02  0.32516954913E+02  0.51100000000E-03 0. -1.
        -11    1    3    3    0    0 -0.14062072971E+02  0.20691411627E+01  0.20244019470E+01  0.14356930204E+02  0.51100000000E-03 0.  1.
         12    1    3    3    0    0  0.59700691711E+01  0.74844324029E+01 -0.79245505033E+01  0.12428071249E+02  0.00000000000E+00 0. -1.
</event>
<event>
 7    1  0.5634483E-012  0.5930193E+02  0.7816164E-02  0.1266605E+00
        -11   -1    0    0    0    0  0.00000000000E+00  0.00000000000E+00  0.45593999997E+02  0.45594000000E+02  0.51100000000E-03 0.  1.
         11   -1    0    0    0    0 -0.00000000000E+00 -0.00000000000E+00 -0.45593999997E+02  0.45594000000E+02  0.51100000000E-03 0. -1.
    9900012    2    1    2    0    0  0.14555348224E+02  0.21450864609E+02  0.18566729375E+02  0.59301934171E+02  0.49999982023E+02 0.  0.
         12    1    1    2    0    0 -0.14555348224E+02 -0.21450864609E+02 -0.18566729375E+02  0.31886065829E+02  0.00000000000E+00 0. -1.
         11    1    3    3    0    0  0.23821427809E+02  0.38522632253E+01 -0.32390163410E+01  0.24347311595E+02  0.51100000000E-03 0. -1.
        -11    1    3    3    0    0  0.45144573702E+01  0.35420875946E+01  0.11224540243E+02  0.12606229167E+02  0.51100000000E-03 0.  1.
         12    1    3    3    0    0 -0.13780536955E+02  0.14056513790E+02  0.10581205472E+02  0.22348393409E+02  0.00000000000E+00 0. -1.
</event>
<event>
 7    1  0.5634483E-012  0.5930196E+02  0.7816164E-02  0.1266605E+00
        -11   -1    0    0    0    0  0.00000000000E+00  0.00000000000E+00  0.45593999997E+02  0.45594000000E+02  0.51100000000E-03 0.  1.
         11   -1    0    0    0    0 -0.00000000000E+00 -0.00000000000E+00 -0.45593999997E+02  0.45594000000E+02  0.51100000000E-03 0. -1.
    9900012    2    1    2    0    0 -0.50089809578E+01 -0.31310331053E+02  0.33604770616E+01  0.59301960313E+02  0.50000029700E+02 0.  0.
         12    1    1    2    0    0  0.50089809578E+01  0.31310331053E+02 -0.33604770616E+01  0.31886039687E+02  0.00000000000E+00 0. -1.
         11    1    3    3    0    0 -0.65026032650E+01 -0.57118699741E+00 -0.22215130650E+00  0.65314206167E+01  0.51100000000E-03 0. -1.
        -11    1    3    3    0    0 -0.65916474852E+01  0.91895858448E+01 -0.24933994482E+01  0.11580818004E+02  0.51100000000E-03 0.  1.
        -12    1    3    3    0    0  0.80852697925E+01 -0.39928729900E+02  0.60760278163E+01  0.41189721692E+02  0.00000000000E+00 0.  1.
</event>
<event>
 7    1  0.5634483E-012  0.5930195E+02  0.7816164E-02  0.1266605E+00
        -11   -1    0    0    0    0  0.00000000000E+00  0.00000000000E+00  0.45593999997E+02  0.45594000000E+02  0.51100000000E-03 0.  1.
         11   -1    0    0    0    0 -0.00000000000E+00 -0.00000000000E+00 -0.45593999997E+02  0.45594000000E+02  0.51100000000E-03 0. -1.
    9900012    2    1    2    0    0 -0.80786175523E+01 -0.22979251793E+02  0.20576935435E+02  0.59301947462E+02  0.50000006264E+02 0.  0.
         12    1    1    2    0    0  0.80786175523E+01  0.22979251793E+02 -0.20576935435E+02  0.31886052538E+02  0.00000000000E+00 0. -1.
         11    1    3    3    0    0 -0.71773332654E+01 -0.20147734172E+01 -0.16957787246E+00  0.74566870419E+01  0.51100000000E-03 0. -1.
        -11    1    3    3    0    0 -0.63807714389E+01 -0.32857318840E+02  0.19387077848E+02  0.38680439931E+02  0.51100000000E-03 0.  1.
         12    1    3    3    0    0  0.54794871521E+01  0.11892840464E+02  0.13594354593E+01  0.13164820489E+02  0.00000000000E+00 0. -1.
</event>
<event>
 7    1  0.5634483E-012  0.5930194E+02  0.7816164E-02  0.1266605E+00
        -11   -1    0    0    0    0  0.00000000000E+00  0.00000000000E+00  0.45593999997E+02  0.45594000000E+02  0.51100000000E-03 0. -1.
         11   -1    0    0    0    0 -0.00000000000E+00 -0.00000000000E+00 -0.45593999997E+02  0.45594000000E+02  0.51100000000E-03 0.  1.
    9900012    2    1    2    0    0 -0.12236261471E+02 -0.14571283715E+02 -0.25586565629E+02  0.59301941219E+02  0.49999994878E+02 0.  0.
         12    1    1    2    0    0  0.12236261471E+02  0.14571283715E+02  0.25586565629E+02  0.31886058781E+02  0.00000000000E+00 0. -1.
         11    1    3    3    0    0 -0.12528869877E+02  0.12958795091E+02 -0.64417856448E+01  0.19141566111E+02  0.51100000000E-03 0. -1.
        -11    1    3    3    0    0 -0.25935337094E+01 -0.12575677390E+02 -0.21206681423E+02  0.24791075333E+02  0.51100000000E-03 0.  1.
        -12    1    3    3    0    0  0.28861421162E+01 -0.14954401416E+02  0.20619014392E+01  0.15369299775E+02  0.00000000000E+00 0.  1.
</event>
<event>
 7    1  0.5634483E-012  0.5930194E+02  0.7816164E-02  0.1266605E+00
        -11   -1    0    0    0    0  0.00000000000E+00  0.00000000000E+00  0.45593999997E+02  0.45594000000E+02  0.51100000000E-03 0. -1.
         11   -1    0    0    0    0 -0.00000000000E+00 -0.00000000000E+00 -0.45593999997E+02  0.45594000000E+02  0.51100000000E-03 0.  1.
    9900012    2    1    2    0    0  0.30713967288E+00 -0.11390355434E+02 -0.29780640778E+02  0.59301935696E+02  0.49999984804E+02 0.  0.
         12    1    1    2    0    0 -0.30713967288E+00  0.11390355434E+02  0.29780640778E+02  0.31886064304E+02  0.00000000000E+00 0. -1.
         11    1    3    3    0    0 -0.31019186828E+01  0.68226238673E+01  0.14758751857E+01  0.76386061408E+01  0.51100000000E-03 0. -1.
        -11    1    3    3    0    0  0.61011233843E+01  0.10408229249E+02 -0.63851223909E+01  0.13650081716E+02  0.51100000000E-03 0.  1.
         12    1    3    3    0    0 -0.26920650286E+01 -0.28621208551E+02 -0.24871393572E+02  0.38013247839E+02  0.00000000000E+00 0. -1.
</event>
<event>
 7    1  0.5634483E-012  0.5930184E+02  0.7816164E-02  0.1266605E+00
        -11   -1    0    0    0    0  0.00000000000E+00  0.00000000000E+00  0.45593999997E+02  0.45594000000E+02  0.51100000000E-03 0.  1.
         11   -1    0    0    0    0 -0.00000000000E+00 -0.00000000000E+00 -0.45593999997E+02  0.45594000000E+02  0.51100000000E-03 0. -1.
    9900012    2    1    2    0    0 -0.17922146997E+02  0.81273988943E+01  0.25089224059E+02  0.59301841096E+02  0.49999812277E+02 0.  0.
         12    1    1    2    0    0  0.17922146997E+02 -0.81273988943E+01 -0.25089224059E+02  0.31886158904E+02  0.00000000000E+00 0. -1.
         11    1    3    3    0    0  0.74231775783E+01  0.66773738160E+01  0.85519144935E+00  0.10021089717E+02  0.51100000000E-03 0. -1.
        -11    1    3    3    0    0 -0.71286653226E+01  0.97660759326E+01  0.26499825897E+02  0.29127905542E+02  0.51100000000E-03 0.  1.
         12    1    3    3    0    0 -0.18216659253E+02 -0.83160508542E+01 -0.22657932878E+01  0.20152845838E+02  0.00000000000E+00 0. -1.
</event>
<event>
 7    1  0.6600048E-012  0.5930193E+02  0.7816164E-02  0.1266605E+00
        -11   -1    0    0    0    0  0.00000000000E+00  0.00000000000E+00  0.45593999997E+02  0.45594000000E+02  0.51100000000E-03 0. -1.
         11   -1    0    0    0    0 -0.00000000000E+00 -0.00000000000E+00 -0.45593999997E+02  0.45594000000E+02  0.51100000000E-03 0.  1.
    9900012    2    1    2    0    0  0.12692507064E+02  0.39645183065E+01 -0.28981103966E+02  0.59301928933E+02  0.49999972471E+02 0.  0.
         12    1    1    2    0    0 -0.12692507064E+02 -0.39645183065E+01  0.28981103966E+02  0.31886071067E+02  0.00000000000E+00 0. -1.
         11    1    3    3    0    0  0.41348670984E+01  0.61818990289E+01 -0.18617152855E+02  0.20047727607E+02  0.51100000000E-03 0. -1.
        -11    1    3    3    0    0  0.15462158956E+02  0.95259137412E+01 -0.16291834692E+02  0.24397648863E+02  0.51100000000E-03 0.  1.
         12    1    3    3    0    0 -0.69045189903E+01 -0.11743294464E+02  0.59278835802E+01  0.14856552463E+02  0.00000000000E+00 0. -1.
</event>
<event>
 7    1  0.5634483E-012  0.5930195E+02  0.7816164E-02  0.1266605E+00
        -11   -1    0    0    0    0  0.00000000000E+00  0.00000000000E+00  0.45593999997E+02  0.45594000000E+02  0.51100000000E-03 0. -1.
         11   -1    0    0    0    0 -0.00000000000E+00 -0.00000000000E+00 -0.45593999997E+02  0.45594000000E+02  0.51100000000E-03 0.  1.
    9900012    2    1    2    0    0 -0.25035144182E+02  0.40505886435E+01 -0.19327549687E+02  0.59301954628E+02  0.50000019333E+02 0.  0.
         12    1    1    2    0    0  0.25035144182E+02 -0.40505886435E+01  0.19327549687E+02  0.31886045372E+02  0.00000000000E+00 0. -1.
         11    1    3    3    0    0  0.18745421456E+01  0.20947067809E+02 -0.23485538553E+00  0.21032087756E+02  0.51100000000E-03 0. -1.
        -11    1    3    3    0    0 -0.88920095437E+01 -0.71639384606E+01 -0.12083451740E+02  0.16625271553E+02  0.51100000000E-03 0.  1.
        -12    1    3    3    0    0 -0.18017676784E+02 -0.97325407051E+01 -0.70092425607E+01  0.21644595319E+02  0.00000000000E+00 0.  1.
</event>
<event>
 7    1  0.5634483E-012  0.5930196E+02  0.7816164E-02  0.1266605E+00
        -11   -1    0    0    0    0  0.00000000000E+00  0.00000000000E+00  0.45593999997E+02  0.45594000000E+02  0.51100000000E-03 0. -1.
         11   -1    0    0    0    0 -0.00000000000E+00 -0.00000000000E+00 -0.45593999997E+02  0.45594000000E+02  0.51100000000E-03 0.  1.
    9900012    2    1    2    0    0 -0.21807670941E+01 -0.17732791494E+02 -0.26410451341E+02  0.59301959491E+02  0.50000028202E+02 0.  0.
         12    1    1    2    0    0  0.21807670941E+01  0.17732791494E+02  0.26410451341E+02  0.31886040509E+02  0.00000000000E+00 0. -1.
         11    1    3    3    0    0  0.41351818011E+01 -0.90478334522E+01 -0.40278954143E+01  0.10732518830E+02  0.51100000000E-03 0. -1.
        -11    1    3    3    0    0  0.11635061918E+02 -0.31585384718E+01 -0.26701249437E+02  0.29296889815E+02  0.51100000000E-03 0.  1.
        -12    1    3    3    0    0 -0.17951010813E+02 -0.55264195702E+01  0.43186935102E+01  0.19272550846E+02  0.00000000000E+00 0.  1.
</event>
<event>
 7    1  0.5634483E-012  0.5930195E+02  0.7816164E-02  0.1266605E+00
        -11   -1    0    0    0    0  0.00000000000E+00  0.00000000000E+00  0.45593999997E+02  0.45594000000E+02  0.51100000000E-03 0. -1.
         11   -1    0    0    0    0 -0.00000000000E+00 -0.00000000000E+00 -0.45593999997E+02  0.45594000000E+02  0.51100000000E-03 0.  1.
    9900012    2    1    2    0    0  0.49378124473E+01 -0.26389689965E+02 -0.17202396166E+02  0.59301950353E+02  0.50000011537E+02 0.  0.
         12    1    1    2    0    0 -0.49378124473E+01  0.26389689965E+02  0.17202396166E+02  0.31886049647E+02  0.00000000000E+00 0. -1.
         11    1    3    3    0    0 -0.61915552180E+01  0.10550884642E+01 -0.45903505077E+01  0.77794527911E+01  0.51100000000E-03 0. -1.
        -11    1    3    3    0    0  0.18093668236E+01 -0.12012729056E+02 -0.26244921740E+02  0.28920155343E+02  0.51100000000E-03 0.  1.
        -12    1    3    3    0    0  0.93200008417E+01 -0.15432049374E+02  0.13632876081E+02  0.22602342220E+02  0.00000000000E+00 0.  1.
</event>
<event>
 7    1  0.5634483E-012  0.5930189E+02  0.7816164E-02  0.1266605E+00
        -11   -1    0    0    0    0  0.00000000000E+00  0.00000000000E+00  0.45593999997E+02  0.45594000000E+02  0.51100000000E-03 0.  1.
         11   -1    0    0    0    0 -0.00000000000E+00 -0.00000000000E+00 -0.45593999997E+02  0.45594000000E+02  0.51100000000E-03 0. -1.
    9900012    2    1    2    0    0  0.18362430480E+02  0.31198196757E+01  0.25880722166E+02  0.59301891618E+02  0.49999904417E+02 0.  0.
         12    1    1    2    0    0 -0.18362430480E+02 -0.31198196757E+01 -0.25880722166E+02  0.31886108382E+02  0.00000000000E+00 0. -1.
         11    1    3    3    0    0  0.71658446581E+01  0.14931692768E+02  0.13218268230E+02  0.21190266488E+02  0.51100000000E-03 0. -1.
        -11    1    3    3    0    0  0.91939758020E+01 -0.35151942072E+01  0.22815251304E+02  0.24847967195E+02  0.51100000000E-03 0.  1.
        -12    1    3    3    0    0  0.20026100197E+01 -0.82966788848E+01 -0.10152797369E+02  0.13263657935E+02  0.00000000000E+00 0.  1.
</event>
<event>
 7    1  0.5634483E-012  0.5930193E+02  0.7816164E-02  0.1266605E+00
        -11   -1    0    0    0    0  0.00000000000E+00  0.00000000000E+00  0.45593999997E+02  0.45594000000E+02  0.51100000000E-03 0.  1.
         11   -1    0    0    0    0 -0.00000000000E+00 -0.00000000000E+00 -0.45593999997E+02  0.45594000000E+02  0.51100000000E-03 0. -1.
    9900012    2    1    2    0    0 -0.20560923084E+02  0.10901560364E+01  0.24347109621E+02  0.59301925529E+02  0.49999966263E+02 0.  0.
         12    1    1    2    0    0  0.20560923084E+02 -0.10901560364E+01 -0.24347109621E+02  0.31886074471E+02  0.00000000000E+00 0. -1.
         11    1    3    3    0    0 -0.13843929417E+01  0.10904048388E+01  0.11156286668E+02  0.11294611946E+02  0.51100000000E-03 0. -1.
        -11    1    3    3    0    0 -0.20983135151E+02  0.99599308654E+01  0.23861134291E+02  0.33299338035E+02  0.51100000000E-03 0.  1.
         12    1    3    3    0    0  0.18066050088E+01 -0.99601796678E+01 -0.10670311339E+02  0.14707975548E+02  0.00000000000E+00 0. -1.
</event>
<event>
 7    1  0.5634483E-012  0.5930193E+02  0.7816164E-02  0.1266605E+00
        -11   -1    0    0    0    0  0.00000000000E+00  0.00000000000E+00  0.45593999997E+02  0.45594000000E+02  0.51100000000E-03 0. -1.
         11   -1    0    0    0    0 -0.00000000000E+00 -0.00000000000E+00 -0.45593999997E+02  0.45594000000E+02  0.51100000000E-03 0.  1.
    9900012    2    1    2    0    0 -0.20898013500E+01 -0.61978002438E+01 -0.31208033702E+02  0.59301931489E+02  0.49999977133E+02 0.  0.
         12    1    1    2    0    0  0.20898013500E+01  0.61978002438E+01  0.31208033702E+02  0.31886068511E+02  0.00000000000E+00 0. -1.
         11    1    3    3    0    0  0.15035475298E+02  0.69846440114E+01 -0.28042664884E+02  0.32576706762E+02  0.51100000000E-03 0. -1.
        -11    1    3    3    0    0  0.23622222301E+01  0.49469573941E+00  0.89358835362E+00  0.25735808022E+01  0.51100000000E-03 0.  1.
        -12    1    3    3    0    0 -0.19487498878E+02 -0.13677139995E+02 -0.40589571712E+01  0.24151643925E+02  0.00000000000E+00 0.  1.
</event>
<event>
 7    1  0.5634483E-012  0.5930194E+02  0.7816164E-02  0.1266605E+00
        -11   -1    0    0    0    0  0.00000000000E+00  0.00000000000E+00  0.45593999997E+02  0.45594000000E+02  0.51100000000E-03 0. -1.
         11   -1    0    0    0    0 -0.00000000000E+00 -0.00000000000E+00 -0.45593999997E+02  0.45594000000E+02  0.51100000000E-03 0.  1.
    9900012    2    1    2    0    0 -0.16321059710E+02 -0.25367680644E+02 -0.10335593736E+02  0.59301941774E+02  0.49999995889E+02 0.  0.
         12    1    1    2    0    0  0.16321059710E+02  0.25367680644E+02  0.10335593736E+02  0.31886058226E+02  0.00000000000E+00 0. -1.
         11    1    3    3    0    0  0.64315595318E+01 -0.11628331532E+02 -0.51150331211E+01  0.14238912048E+02  0.51100000000E-03 0. -1.
        -11    1    3    3    0    0 -0.13912925195E+02 -0.11024181286E+02 -0.20553229314E+02  0.27157637895E+02  0.51100000000E-03 0.  1.
        -12    1    3    3    0    0 -0.88396940467E+01 -0.27151678255E+01  0.15332668699E+02  0.17905391830E+02  0.00000000000E+00 0.  1.
</event>
<event>
 7    1  0.5634483E-012  0.5930199E+02  0.7816164E-02  0.1266605E+00
        -11   -1    0    0    0    0  0.00000000000E+00  0.00000000000E+00  0.45593999997E+02  0.45594000000E+02  0.51100000000E-03 0. -1.
         11   -1    0    0    0    0 -0.00000000000E+00 -0.00000000000E+00 -0.45593999997E+02  0.45594000000E+02  0.51100000000E-03 0.  1.
    9900012    2    1    2    0    0 -0.18378903469E+02  0.53804412882E+01 -0.25494791604E+02  0.59301989900E+02  0.50000083660E+02 0.  0.
         12    1    1    2    0    0  0.18378903469E+02 -0.53804412882E+01  0.25494791604E+02  0.31886010100E+02  0.00000000000E+00 0. -1.
         11    1    3    3    0    0 -0.38421449649E+01 -0.13771575972E+02 -0.45808239918E+01  0.15013405056E+02  0.51100000000E-03 0. -1.
        -11    1    3    3    0    0 -0.83553595787E+01  0.11516763377E+02 -0.28514861163E+02  0.31867619612E+02  0.51100000000E-03 0.  1.
         12    1    3    3    0    0 -0.61813989249E+01  0.76352538825E+01  0.76008935507E+01  0.12420965232E+02  0.00000000000E+00 0. -1.
</event>
<event>
 7    1  0.5634483E-012  0.5930193E+02  0.7816164E-02  0.1266605E+00
        -11   -1    0    0    0    0  0.00000000000E+00  0.00000000000E+00  0.45593999997E+02  0.45594000000E+02  0.51100000000E-03 0.  1.
         11   -1    0    0    0    0 -0.00000000000E+00 -0.00000000000E+00 -0.45593999997E+02  0.45594000000E+02  0.51100000000E-03 0. -1.
    9900012    2    1    2    0    0 -0.31113634536E+02 -0.60315529422E+01 -0.35048076693E+01  0.59301928405E+02  0.49999971508E+02 0.  0.
         12    1    1    2    0    0  0.31113634536E+02  0.60315529422E+01  0.35048076693E+01  0.31886071595E+02  0.00000000000E+00 0. -1.
         11    1    3    3    0    0  0.93610390418E+01  0.25388292613E+01  0.82013502176E+00  0.97338238978E+01  0.51100000000E-03 0. -1.
        -11    1    3    3    0    0 -0.12829450995E+02  0.54119597160E+01 -0.11158098521E+02  0.17843410091E+02  0.51100000000E-03 0.  1.
        -12    1    3    3    0    0 -0.27645222583E+02 -0.13982341919E+02  0.68331558302E+01  0.31724694417E+02  0.00000000000E+00 0.  1.
</event>
<event>
 7    1  0.5634483E-012  0.5930196E+02  0.7816164E-02  0.1266605E+00
        -11   -1    0    0    0    0  0.00000000000E+00  0.00000000000E+00  0.45593999997E+02  0.45594000000E+02  0.51100000000E-03 0.  1.
         11   -1    0    0    0    0 -0.00000000000E+00 -0.00000000000E+00 -0.45593999997E+02  0.45594000000E+02  0.51100000000E-03 0. -1.
    9900012    2    1    2    0    0 -0.16900657171E+01 -0.28906887362E+02  0.13351209063E+02  0.59301964773E+02  0.50000037833E+02 0.  0.
         12    1    1    2    0    0  0.16900657171E+01  0.28906887362E+02 -0.13351209063E+02  0.31886035227E+02  0.00000000000E+00 0. -1.
         11    1    3    3    0    0 -0.80191841838E+01 -0.48708794232E+01 -0.11471472454E+02  0.14819833395E+02  0.51100000000E-03 0. -1.
        -11    1    3    3    0    0  0.43858949690E+01  0.75063016352E+00 -0.43015040176E+01  0.61888979145E+01  0.51100000000E-03 0.  1.
        -12    1    3    3    0    0  0.19432234977E+01 -0.24786638102E+02  0.29124185535E+02  0.38293233463E+02  0.00000000000E+00 0.  1.
</event>
<event>
 7    1  0.5634483E-012  0.5930195E+02  0.7816164E-02  0.1266605E+00
        -11   -1    0    0    0    0  0.00000000000E+00  0.00000000000E+00  0.45593999997E+02  0.45594000000E+02  0.51100000000E-03 0. -1.
         11   -1    0    0    0    0 -0.00000000000E+00 -0.00000000000E+00 -0.45593999997E+02  0.45594000000E+02  0.51100000000E-03 0.  1.
    9900012    2    1    2    0    0 -0.79463800008E+01  0.27991079834E+02 -0.13041270091E+02  0.59301949273E+02  0.50000009566E+02 0.  0.
         12    1    1    2    0    0  0.79463800008E+01 -0.27991079834E+02  0.13041270091E+02  0.31886050727E+02  0.00000000000E+00 0. -1.
         11    1    3    3    0    0  0.21072671432E+01  0.59787953002E+01  0.12832365211E+02  0.14312797254E+02  0.51100000000E-03 0. -1.
        -11    1    3    3    0    0  0.14778622503E+01 -0.38574620022E+01  0.25567061193E+01  0.48580692020E+01  0.51100000000E-03 0.  1.
         12    1    3    3    0    0 -0.11531509394E+02  0.25869746536E+02 -0.28430341421E+02  0.40131082817E+02  0.00000000000E+00 0. -1.
</event>
<event>
 7    1  0.5634483E-012  0.5930195E+02  0.7816164E-02  0.1266605E+00
        -11   -1    0    0    0    0  0.00000000000E+00  0.00000000000E+00  0.45593999997E+02  0.45594000000E+02  0.51100000000E-03 0. -1.
         11   -1    0    0    0    0 -0.00000000000E+00 -0.00000000000E+00 -0.45593999997E+02  0.45594000000E+02  0.51100000000E-03 0.  1.
    9900012    2    1    2    0    0 -0.43106612313E+01  0.31443706658E+02  0.30711584412E+01  0.59301945010E+02  0.50000001791E+02 0.  0.
         12    1    1    2    0    0  0.43106612313E+01 -0.31443706658E+02 -0.30711584412E+01  0.31886054990E+02  0.00000000000E+00 0. -1.
         11    1    3    3    0    0 -0.93803035495E+01  0.17579962378E+01  0.50464400084E+01  0.10795702963E+02  0.51100000000E-03 0. -1.
        -11    1    3    3    0    0  0.18876373530E+02  0.12994583312E+02  0.85032260069E+01  0.24443435231E+02  0.51100000000E-03 0.  1.
         12    1    3    3    0    0 -0.13806731211E+02  0.16691127108E+02 -0.10478507574E+02  0.24062806816E+02  0.00000000000E+00 0. -1.
</event>
<event>
 7    1  0.5634483E-012  0.5930182E+02  0.7816164E-02  0.1266605E+00
        -11   -1    0    0    0    0  0.00000000000E+00  0.00000000000E+00  0.45593999997E+02  0.45594000000E+02  0.51100000000E-03 0. -1.
         11   -1    0    0    0    0 -0.00000000000E+00 -0.00000000000E+00 -0.45593999997E+02  0.45594000000E+02  0.51100000000E-03 0.  1.
    9900012    2    1    2    0    0  0.87687265006E+00 -0.19875448933E+02 -0.24918388990E+02  0.59301819831E+02  0.49999773494E+02 0.  0.
         12    1    1    2    0    0 -0.87687265006E+00  0.19875448933E+02  0.24918388990E+02  0.31886180169E+02  0.00000000000E+00 0. -1.
         11    1    3    3    0    0  0.29063150433E+01  0.70026189672E+00  0.39188140526E+01  0.49289083675E+01  0.51100000000E-03 0. -1.
        -11    1    3    3    0    0 -0.72879282163E+01 -0.22433880057E+02  0.13963336209E+01  0.23629274639E+02  0.51100000000E-03 0.  1.
         12    1    3    3    0    0  0.52584858230E+01  0.18581692269E+01 -0.30233536663E+02  0.30743636825E+02  0.00000000000E+00 0. -1.
</event>
<event>
 7    1  0.5634483E-012  0.5930195E+02  0.7816164E-02  0.1266605E+00
        -11   -1    0    0    0    0  0.00000000000E+00  0.00000000000E+00  0.45593999997E+02  0.45594000000E+02  0.51100000000E-03 0. -1.
         11   -1    0    0    0    0 -0.00000000000E+00 -0.00000000000E+00 -0.45593999997E+02  0.45594000000E+02  0.51100000000E-03 0.  1.
    9900012    2    1    2    0    0  0.19153944644E+02  0.24998528242E+02 -0.49920214886E+01  0.59301948375E+02  0.50000007928E+02 0.  0.
         12    1    1    2    0    0 -0.19153944644E+02 -0.24998528242E+02  0.49920214886E+01  0.31886051625E+02  0.00000000000E+00 0. -1.
         11    1    3    3    0    0  0.72629922393E+01  0.18335737311E+02 -0.64512358670E+00  0.19732371974E+02  0.51100000000E-03 0. -1.
        -11    1    3    3    0    0 -0.26077890198E+01  0.16744658312E+02 -0.11538664351E+02  0.20501827256E+02  0.51100000000E-03 0.  1.
         12    1    3    3    0    0  0.14498741425E+02 -0.10081867381E+02  0.71917664495E+01  0.19067749145E+02  0.00000000000E+00 0. -1.
</event>
<event>
 7    1  0.5634483E-012  0.5930193E+02  0.7816164E-02  0.1266605E+00
        -11   -1    0    0    0    0  0.00000000000E+00  0.00000000000E+00  0.45593999997E+02  0.45594000000E+02  0.51100000000E-03 0.  1.
         11   -1    0    0    0    0 -0.00000000000E+00 -0.00000000000E+00 -0.45593999997E+02  0.45594000000E+02  0.51100000000E-03 0. -1.
    9900012    2    1    2    0    0  0.10959584435E+02  0.18461655286E+02  0.23574903259E+02  0.59301932971E+02  0.49999979835E+02 0.  0.
         12    1    1    2    0    0 -0.10959584435E+02 -0.18461655286E+02 -0.23574903259E+02  0.31886067029E+02  0.00000000000E+00 0. -1.
         11    1    3    3    0    0 -0.15477163472E+02  0.91843060816E+01 -0.10176941801E+01  0.18025808416E+02  0.51100000000E-03 0. -1.
        -11    1    3    3    0    0  0.12547698060E+01 -0.26798454300E+00  0.11064890226E+02  0.11139033125E+02  0.51100000000E-03 0.  1.
        -12    1    3    3    0    0  0.25181978101E+02  0.95453337474E+01  0.13527707214E+02  0.30137091430E+02  0.00000000000E+00 0.  1.
</event>
<event>
 7    1  0.5634483E-012  0.5930193E+02  0.7816164E-02  0.1266605E+00
        -11   -1    0    0    0    0  0.00000000000E+00  0.00000000000E+00  0.45593999997E+02  0.45594000000E+02  0.51100000000E-03 0.  1.
         11   -1    0    0    0    0 -0.00000000000E+00 -0.00000000000E+00 -0.45593999997E+02  0.45594000000E+02  0.51100000000E-03 0. -1.
    9900012    2    1    2    0    0  0.36595959691E+01  0.20144753021E+02  0.24444182293E+02  0.59301925219E+02  0.49999965698E+02 0.  0.
         12    1    1    2    0    0 -0.36595959691E+01 -0.20144753021E+02 -0.24444182293E+02  0.31886074781E+02  0.00000000000E+00 0. -1.
         11    1    3    3    0    0  0.12367015192E+02 -0.66701025948E+01  0.43704494087E+01  0.14715099785E+02  0.51100000000E-03 0.  1.
        -11    1    3    3    0    0  0.62034657771E+01 -0.26552730651E+01  0.26961628030E+01  0.72665505447E+01  0.51100000000E-03 0. -1.
        -12    1    3    3    0    0 -0.14910885000E+02  0.29470128681E+02  0.17377570081E+02  0.37320274890E+02  0.00000000000E+00 0.  1.
</event>
<event>
 7    1  0.5634483E-012  0.5930194E+02  0.7816164E-02  0.1266605E+00
        -11   -1    0    0    0    0  0.00000000000E+00  0.00000000000E+00  0.45593999997E+02  0.45594000000E+02  0.51100000000E-03 0.  1.
         11   -1    0    0    0    0 -0.00000000000E+00 -0.00000000000E+00 -0.45593999997E+02  0.45594000000E+02  0.51100000000E-03 0. -1.
    9900012    2    1    2    0    0 -0.15682346773E+01 -0.97806639011E+01  0.30308418302E+02  0.59301937742E+02  0.49999988536E+02 0.  0.
         12    1    1    2    0    0  0.15682346773E+01  0.97806639011E+01 -0.30308418302E+02  0.31886062258E+02  0.00000000000E+00 0. -1.
         11    1    3    3    0    0 -0.14448340608E+01 -0.11411053803E+02  0.60977187839E+01  0.13018520230E+02  0.51100000000E-03 0. -1.
        -11    1    3    3    0    0 -0.97649790363E+01 -0.10310217063E+02  0.27166516186E+02  0.30654118702E+02  0.51100000000E-03 0.  1.
         12    1    3    3    0    0  0.96415784197E+01  0.11940606965E+02 -0.29558166672E+01  0.15629298809E+02  0.00000000000E+00 0. -1.
</event>
<event>
 7    1  0.5634483E-012  0.5930201E+02  0.7816164E-02  0.1266605E+00
        -11   -1    0    0    0    0  0.00000000000E+00  0.00000000000E+00  0.45593999997E+02  0.45594000000E+02  0.51100000000E-03 0. -1.
         11   -1    0    0    0    0 -0.00000000000E+00 -0.00000000000E+00 -0.45593999997E+02  0.45594000000E+02  0.51100000000E-03 0.  1.
    9900012    2    1    2    0    0 -0.16020598832E+02  0.22424019210E+02 -0.16038078546E+02  0.59302012672E+02  0.50000125190E+02 0.  0.
         12    1    1    2    0    0  0.16020598832E+02 -0.22424019210E+02  0.16038078546E+02  0.31885987328E+02  0.00000000000E+00 0. -1.
         11    1    3    3    0    0  0.61769889856E+01  0.19800761092E+01 -0.63244335101E+01  0.90594897103E+01  0.51100000000E-03 0. -1.
        -11    1    3    3    0    0 -0.32976040398E+01  0.12350960503E+02 -0.22609332471E+02  0.25973107877E+02  0.51100000000E-03 0.  1.
        -12    1    3    3    0    0 -0.18899983778E+02  0.80929825977E+01  0.12895687435E+02  0.24269415085E+02  0.00000000000E+00 0.  1.
</event>
<event>
 7    1  0.5634483E-012  0.5930193E+02  0.7816164E-02  0.1266605E+00
        -11   -1    0    0    0    0  0.00000000000E+00  0.00000000000E+00  0.45593999997E+02  0.45594000000E+02  0.51100000000E-03 0.  1.
         11   -1    0    0    0    0 -0.00000000000E+00 -0.00000000000E+00 -0.45593999997E+02  0.45594000000E+02  0.51100000000E-03 0. -1.
    9900012    2    1    2    0    0  0.15856935719E+02 -0.13086848197E+02  0.24372391115E+02  0.59301930083E+02  0.49999974567E+02 0.  0.
         12    1    1    2    0    0 -0.15856935719E+02  0.13086848197E+02 -0.24372391115E+02  0.31886069917E+02  0.00000000000E+00 0. -1.
         11    1    3    3    0    0  0.17750230846E+02 -0.59578339429E+01  0.28566356491E+02  0.34155573540E+02  0.51100000000E-03 0. -1.
        -11    1    3    3    0    0  0.98662126841E+00  0.24244364379E+01  0.85609814900E+01  0.89521906761E+01  0.51100000000E-03 0.  1.
         12    1    3    3    0    0 -0.28799163954E+01 -0.95534506917E+01 -0.12754946866E+02  0.16194165867E+02  0.00000000000E+00 0. -1.
</event>
<event>
 7    1  0.5634483E-012  0.5930193E+02  0.7816164E-02  0.1266605E+00
        -11   -1    0    0    0    0  0.00000000000E+00  0.00000000000E+00  0.45593999997E+02  0.45594000000E+02  0.51100000000E-03 0.  1.
         11   -1    0    0    0    0 -0.00000000000E+00 -0.00000000000E+00 -0.45593999997E+02  0.45594000000E+02  0.51100000000E-03 0. -1.
    9900012    2    1    2    0    0  0.12912371255E+02 -0.73696591244E+01  0.28207806762E+02  0.59301928286E+02  0.49999971291E+02 0.  0.
         12    1    1    2    0    0 -0.12912371255E+02  0.73696591244E+01 -0.28207806762E+02  0.31886071714E+02  0.00000000000E+00 0. -1.
         11    1    3    3    0    0 -0.12772350593E+01  0.79098815565E+01  0.60225756838E+01  0.10023421260E+02  0.51100000000E-03 0. -1.
        -11    1    3    3    0    0 -0.11077625774E+02  0.35663172171E+00 -0.16246804772E+01  0.11201810831E+02  0.51100000000E-03 0.  1.
        -12    1    3    3    0    0  0.25267232088E+02 -0.15636172403E+02  0.23809911555E+02  0.38076696194E+02  0.00000000000E+00 0.  1.
</event>
<event>
 7    1  0.5634483E-012  0.5930195E+02  0.7816164E-02  0.1266605E+00
        -11   -1    0    0    0    0  0.00000000000E+00  0.00000000000E+00  0.45593999997E+02  0.45594000000E+02  0.51100000000E-03 0. -1.
         11   -1    0    0    0    0 -0.00000000000E+00 -0.00000000000E+00 -0.45593999997E+02  0.45594000000E+02  0.51100000000E-03 0.  1.
    9900012    2    1    2    0    0  0.22936270960E+02  0.22083725639E+02  0.17195110213E+01  0.59301950044E+02  0.50000010973E+02 0.  0.
         12    1    1    2    0    0 -0.22936270960E+02 -0.22083725639E+02 -0.17195110213E+01  0.31886049956E+02  0.00000000000E+00 0. -1.
         11    1    3    3    0    0 -0.31720796420E+01 -0.67824308407E+01  0.76018273455E+01  0.10670109494E+02  0.51100000000E-03 0. -1.
        -11    1    3    3    0    0 -0.49504059827E+01  0.71937188583E+01  0.38271844675E+01  0.95343301609E+01  0.51100000000E-03 0.  1.
        -12    1    3    3    0    0  0.31058756584E+02  0.21672437621E+02 -0.97095007917E+01  0.39097510389E+02  0.00000000000E+00 0.  1.
</event>
<event>
 7    1  0.5634483E-012  0.5930196E+02  0.7816164E-02  0.1266605E+00
        -11   -1    0    0    0    0  0.00000000000E+00  0.00000000000E+00  0.45593999997E+02  0.45594000000E+02  0.51100000000E-03 0.  1.
         11   -1    0    0    0    0 -0.00000000000E+00 -0.00000000000E+00 -0.45593999997E+02  0.45594000000E+02  0.51100000000E-03 0. -1.
    9900012    2    1    2    0    0 -0.66395766349E+01  0.52931926444E+01  0.30734628919E+02  0.59301964169E+02  0.50000036733E+02 0.  0.
         12    1    1    2    0    0  0.66395766349E+01 -0.52931926444E+01 -0.30734628919E+02  0.31886035831E+02  0.00000000000E+00 0. -1.
         11    1    3    3    0    0  0.77143448266E+01  0.50828003967E+01  0.18438481476E+02  0.20623374490E+02  0.51100000000E-03 0. -1.
        -11    1    3    3    0    0 -0.44549932867E+00  0.12037896078E+02  0.16021559568E+02  0.20044944073E+02  0.51100000000E-03 0.  1.
         12    1    3    3    0    0 -0.13908422133E+02 -0.11827503830E+02 -0.37254121247E+01  0.18633645606E+02  0.00000000000E+00 0. -1.
</event>
<event>
 7    1  0.5634483E-012  0.5930194E+02  0.7816164E-02  0.1266605E+00
        -11   -1    0    0    0    0  0.00000000000E+00  0.00000000000E+00  0.45593999997E+02  0.45594000000E+02  0.51100000000E-03 0. -1.
         11   -1    0    0    0    0 -0.00000000000E+00 -0.00000000000E+00 -0.45593999997E+02  0.45594000000E+02  0.51100000000E-03 0.  1.
    9900012    2    1    2    0    0  0.15614770963E+02  0.27671641468E+02  0.26795305127E+01  0.59301941957E+02  0.49999996223E+02 0.  0.
         12    1    1    2    0    0 -0.15614770963E+02 -0.27671641468E+02 -0.26795305127E+01  0.31886058043E+02  0.00000000000E+00 0. -1.
         11    1    3    3    0    0  0.23842910765E+02  0.97315420711E+01  0.17456709876E+02  0.31111477380E+02  0.51100000000E-03 0.  1.
        -11    1    3    3    0    0 -0.68287289644E+00 -0.22392252959E+01 -0.23610038691E+01  0.33248736592E+01  0.51100000000E-03 0. -1.
        -12    1    3    3    0    0 -0.75452669053E+01  0.20179324693E+02 -0.12416175495E+02  0.24865590917E+02  0.00000000000E+00 0.  1.
</event>
<event>
 7    1  0.5634483E-012  0.5930195E+02  0.7816164E-02  0.1266605E+00
        -11   -1    0    0    0    0  0.00000000000E+00  0.00000000000E+00  0.45593999997E+02  0.45594000000E+02  0.51100000000E-03 0.  1.
         11   -1    0    0    0    0 -0.00000000000E+00 -0.00000000000E+00 -0.45593999997E+02  0.45594000000E+02  0.51100000000E-03 0. -1.
    9900012    2    1    2    0    0  0.26238238882E+02 -0.11843616415E+02  0.13711451453E+02  0.59301947715E+02  0.50000006724E+02 0.  0.
         12    1    1    2    0    0 -0.26238238882E+02  0.11843616415E+02 -0.13711451453E+02  0.31886052285E+02  0.00000000000E+00 0. -1.
         11    1    3    3    0    0  0.90585689384E+01  0.13048011090E+02  0.57276806914E+00  0.15894537682E+02  0.51100000000E-03 0. -1.
        -11    1    3    3    0    0  0.29958057586E+01 -0.41849932851E+01  0.17225647645E+02  0.17978096617E+02  0.51100000000E-03 0.  1.
        -12    1    3    3    0    0  0.14183864185E+02 -0.20706634219E+02 -0.40869642605E+01  0.25429313415E+02  0.00000000000E+00 0.  1.
</event>
<event>
 7    1  0.5634483E-012  0.5930196E+02  0.7816164E-02  0.1266605E+00
        -11   -1    0    0    0    0  0.00000000000E+00  0.00000000000E+00  0.45593999997E+02  0.45594000000E+02  0.51100000000E-03 0. -1.
         11   -1    0    0    0    0 -0.00000000000E+00 -0.00000000000E+00 -0.45593999997E+02  0.45594000000E+02  0.51100000000E-03 0.  1.
    9900012    2    1    2    0    0  0.26531233191E+02 -0.14131824005E+02 -0.10635077771E+02  0.59301958171E+02  0.50000025794E+02 0.  0.
         12    1    1    2    0    0 -0.26531233191E+02  0.14131824005E+02  0.10635077771E+02  0.31886041829E+02  0.00000000000E+00 0. -1.
         11    1    3    3    0    0  0.99536933977E+01  0.54133241880E+01  0.62748715960E+01  0.12951992311E+02  0.51100000000E-03 0.  1.
        -11    1    3    3    0    0 -0.69383085850E+01  0.44090272071E+01  0.10367276821E+01  0.82857981801E+01  0.51100000000E-03 0. -1.
        -12    1    3    3    0    0  0.23515848378E+02 -0.23954175400E+02 -0.17946677049E+02  0.38064167680E+02  0.00000000000E+00 0.  1.
</event>
<event>
 7    1  0.5634483E-012  0.5930196E+02  0.7816164E-02  0.1266605E+00
        -11   -1    0    0    0    0  0.00000000000E+00  0.00000000000E+00  0.45593999997E+02  0.45594000000E+02  0.51100000000E-03 0.  1.
         11   -1    0    0    0    0 -0.00000000000E+00 -0.00000000000E+00 -0.45593999997E+02  0.45594000000E+02  0.51100000000E-03 0. -1.
    9900012    2    1    2    0    0 -0.21892314389E+02 -0.47401415714E+01  0.22693115109E+02  0.59301955329E+02  0.50000020611E+02 0.  0.
         12    1    1    2    0    0  0.21892314389E+02  0.47401415714E+01 -0.22693115109E+02  0.31886044671E+02  0.00000000000E+00 0. -1.
         11    1    3    3    0    0 -0.89489873003E+00  0.12493945422E+02  0.95112651344E+01  0.15727799613E+02  0.51100000000E-03 0. -1.
        -11    1    3    3    0    0  0.56552294969E+01  0.91851578815E+00 -0.40456058670E+01  0.70137164904E+01  0.51100000000E-03 0.  1.
        -12    1    3    3    0    0 -0.26652645156E+02 -0.18152602782E+02  0.17227455841E+02  0.36560439225E+02  0.00000000000E+00 0.  1.
</event>
<event>
 7    1  0.5634483E-012  0.5930196E+02  0.7816164E-02  0.1266605E+00
        -11   -1    0    0    0    0  0.00000000000E+00  0.00000000000E+00  0.45593999997E+02  0.45594000000E+02  0.51100000000E-03 0. -1.
         11   -1    0    0    0    0 -0.00000000000E+00 -0.00000000000E+00 -0.45593999997E+02  0.45594000000E+02  0.51100000000E-03 0.  1.
    9900012    2    1    2    0    0 -0.80833479242E+01  0.30120320391E+02 -0.66442132895E+01  0.59301956276E+02  0.50000022338E+02 0.  0.
         12    1    1    2    0    0  0.80833479242E+01 -0.30120320391E+02  0.66442132895E+01  0.31886043724E+02  0.00000000000E+00 0. -1.
         11    1    3    3    0    0 -0.17477325087E+02  0.43175211829E+01 -0.16188892995E+02  0.24211116001E+02  0.51100000000E-03 0. -1.
        -11    1    3    3    0    0  0.41788065179E+01 -0.21935644736E+01  0.37531176622E+01  0.60299288106E+01  0.51100000000E-03 0.  1.
         12    1    3    3    0    0  0.52151706445E+01  0.27996363682E+02  0.57915620434E+01  0.29060911465E+02  0.00000000000E+00 0. -1.
</event>
<event>
 7    1  0.5634483E-012  0.5930191E+02  0.7816164E-02  0.1266605E+00
        -11   -1    0    0    0    0  0.00000000000E+00  0.00000000000E+00  0.45593999997E+02  0.45594000000E+02  0.51100000000E-03 0.  1.
         11   -1    0    0    0    0 -0.00000000000E+00 -0.00000000000E+00 -0.45593999997E+02  0.45594000000E+02  0.51100000000E-03 0. -1.
    9900012    2    1    2    0    0 -0.17573116118E+02  0.77847175872E+01  0.25442215647E+02  0.59301912517E+02  0.49999942531E+02 0.  0.
         12    1    1    2    0    0  0.17573116118E+02 -0.77847175872E+01 -0.25442215647E+02  0.31886087483E+02  0.00000000000E+00 0. -1.
         11    1    3    3    0    0  0.19050262799E+01 -0.59662849611E+01 -0.30895683910E+01  0.69836318967E+01  0.51100000000E-03 0. -1.
        -11    1    3    3    0    0  0.73239812426E+01 -0.60443812956E+01  0.11448737116E+02  0.14874435394E+02  0.51100000000E-03 0.  1.
        -12    1    3    3    0    0 -0.26802123640E+02  0.19795383844E+02  0.17083046922E+02  0.37443845226E+02  0.00000000000E+00 0.  1.
</event>
<event>
 7    1  0.5634483E-012  0.5930195E+02  0.7816164E-02  0.1266605E+00
        -11   -1    0    0    0    0  0.00000000000E+00  0.00000000000E+00  0.45593999997E+02  0.45594000000E+02  0.51100000000E-03 0.  1.
         11   -1    0    0    0    0 -0.00000000000E+00 -0.00000000000E+00 -0.45593999997E+02  0.45594000000E+02  0.51100000000E-03 0. -1.
    9900012    2    1    2    0    0 -0.15118078853E+02  0.21933531254E+02  0.17523810055E+02  0.59301952577E+02  0.50000015591E+02 0.  0.
         12    1    1    2    0    0  0.15118078853E+02 -0.21933531254E+02 -0.17523810055E+02  0.31886047423E+02  0.00000000000E+00 0. -1.
         11    1    3    3    0    0 -0.13484254353E+02  0.12435122485E+02  0.28332635486E+02  0.33751972098E+02  0.51100000000E-03 0. -1.
        -11    1    3    3    0    0 -0.61532552059E+01 -0.64605306440E+00  0.37531346781E+01  0.72364324335E+01  0.51100000000E-03 0.  1.
         12    1    3    3    0    0  0.45194307066E+01  0.10144461833E+02 -0.14561960109E+02  0.18313548045E+02  0.00000000000E+00 0. -1.
</event>
<event>
 7    1  0.5634483E-012  0.5930210E+02  0.7816164E-02  0.1266604E+00
        -11   -1    0    0    0    0  0.00000000000E+00  0.00000000000E+00  0.45593999997E+02  0.45594000000E+02  0.51100000000E-03 0. -1.
         11   -1    0    0    0    0 -0.00000000000E+00 -0.00000000000E+00 -0.45593999997E+02  0.45594000000E+02  0.51100000000E-03 0.  1.
    9900012    2    1    2    0    0 -0.69429896016E+01 -0.12712650887E+02 -0.28405878474E+02  0.59302101407E+02  0.50000287022E+02 0.  0.
         12    1    1    2    0    0  0.69429896016E+01  0.12712650887E+02  0.28405878474E+02  0.31885898593E+02  0.00000000000E+00 0. -1.
         11    1    3    3    0    0 -0.26406236584E+01 -0.26490423263E+01  0.11924407530E+00  0.37422637484E+01  0.51100000000E-03 0. -1.
        -11    1    3    3    0    0  0.10923295365E+02 -0.21507797899E+02 -0.27362217195E+02  0.36477317366E+02  0.51100000000E-03 0.  1.
         12    1    3    3    0    0 -0.15225661308E+02  0.11444189338E+02 -0.11629053543E+01  0.19082520293E+02  0.00000000000E+00 0. -1.
</event>
<event>
 7    1  0.5634483E-012  0.5930198E+02  0.7816164E-02  0.1266605E+00
        -11   -1    0    0    0    0  0.00000000000E+00  0.00000000000E+00  0.45593999997E+02  0.45594000000E+02  0.51100000000E-03 0. -1.
         11   -1    0    0    0    0 -0.00000000000E+00 -0.00000000000E+00 -0.45593999997E+02  0.45594000000E+02  0.51100000000E-03 0.  1.
    9900012    2    1    2    0    0 -0.29996886920E+02 -0.83091625901E+01  0.69182936925E+01  0.59301981192E+02  0.50000067778E+02 0.  0.
         12    1    1    2    0    0  0.29996886920E+02  0.83091625901E+01 -0.69182936925E+01  0.31886018808E+02  0.00000000000E+00 0. -1.
         11    1    3    3    0    0  0.36551103896E+00 -0.17072129811E+02 -0.33090012584E+01  0.17393697255E+02  0.51100000000E-03 0. -1.
        -11    1    3    3    0    0 -0.27175569740E+02 -0.39019585907E+01  0.53699445596E+01  0.27974509404E+02  0.51100000000E-03 0.  1.
        -12    1    3    3    0    0 -0.31868282183E+01  0.12664925812E+02  0.48573503912E+01  0.13933774533E+02  0.00000000000E+00 0.  1.
</event>
<event>
 7    1  0.5634483E-012  0.5930196E+02  0.7816164E-02  0.1266605E+00
        -11   -1    0    0    0    0  0.00000000000E+00  0.00000000000E+00  0.45593999997E+02  0.45594000000E+02  0.51100000000E-03 0.  1.
         11   -1    0    0    0    0 -0.00000000000E+00 -0.00000000000E+00 -0.45593999997E+02  0.45594000000E+02  0.51100000000E-03 0. -1.
    9900012    2    1    2    0    0 -0.33258959821E+01  0.29084420073E+02  0.12639391463E+02  0.59301964003E+02  0.50000036430E+02 0.  0.
         12    1    1    2    0    0  0.33258959821E+01 -0.29084420073E+02 -0.12639391463E+02  0.31886035997E+02  0.00000000000E+00 0. -1.
         11    1    3    3    0    0 -0.38444548793E+01  0.74354106303E+01 -0.13239162729E+02  0.15663351959E+02  0.51100000000E-03 0. -1.
        -11    1    3    3    0    0 -0.10873602854E+02  0.19407796941E+02  0.11150347261E+02  0.24884293549E+02  0.51100000000E-03 0.  1.
         12    1    3    3    0    0  0.11392161751E+02  0.22412125016E+01  0.14728206930E+02  0.18754318495E+02  0.00000000000E+00 0. -1.
</event>
<event>
 7    1  0.5634483E-012  0.5930197E+02  0.7816164E-02  0.1266605E+00
        -11   -1    0    0    0    0  0.00000000000E+00  0.00000000000E+00  0.45593999997E+02  0.45594000000E+02  0.51100000000E-03 0.  1.
         11   -1    0    0    0    0 -0.00000000000E+00 -0.00000000000E+00 -0.45593999997E+02  0.45594000000E+02  0.51100000000E-03 0. -1.
    9900012    2    1    2    0    0  0.73989680563E+01 -0.97311536774E+01  0.29449601251E+02  0.59301967101E+02  0.50000042080E+02 0.  0.
         12    1    1    2    0    0 -0.73989680563E+01  0.97311536774E+01 -0.29449601251E+02  0.31886032899E+02  0.00000000000E+00 0. -1.
         11    1    3    3    0    0  0.10571625470E+02  0.12681004707E+02  0.16137813031E+02  0.23086709492E+02  0.51100000000E-03 0. -1.
        -11    1    3    3    0    0  0.61804706935E+01 -0.66054705030E+01  0.15266085495E+02  0.17744966193E+02  0.51100000000E-03 0.  1.
        -12    1    3    3    0    0 -0.93531281072E+01 -0.15806687882E+02 -0.19542972759E+01  0.18470291417E+02  0.00000000000E+00 0.  1.
</event>
<event>
 7    1  0.5634483E-012  0.5930155E+02  0.7816164E-02  0.1266606E+00
        -11   -1    0    0    0    0  0.00000000000E+00  0.00000000000E+00  0.45593999997E+02  0.45594000000E+02  0.51100000000E-03 0.  1.
         11   -1    0    0    0    0 -0.00000000000E+00 -0.00000000000E+00 -0.45593999997E+02  0.45594000000E+02  0.51100000000E-03 0. -1.
    9900012    2    1    2    0    0  0.29174177604E+02 -0.31830376929E+01  0.12469211788E+02  0.59301551304E+02  0.49999283761E+02 0.  0.
         12    1    1    2    0    0 -0.29174177604E+02  0.31830376929E+01 -0.12469211788E+02  0.31886448696E+02  0.00000000000E+00 0. -1.
         11    1    3    3    0    0  0.22605049418E+01 -0.14257205116E+02  0.10954663407E+02  0.18121325308E+02  0.51100000000E-03 0. -1.
        -11    1    3    3    0    0  0.99061269295E+01  0.18499452841E+02  0.64928547787E+01  0.21966298496E+02  0.51100000000E-03 0.  1.
         12    1    3    3    0    0  0.17007545733E+02 -0.74252854187E+01 -0.49783063974E+01  0.19213927500E+02  0.00000000000E+00 0. -1.
</event>
<event>
 7    1  0.5634483E-012  0.5930192E+02  0.7816164E-02  0.1266605E+00
        -11   -1    0    0    0    0  0.00000000000E+00  0.00000000000E+00  0.45593999997E+02  0.45594000000E+02  0.51100000000E-03 0.  1.
         11   -1    0    0    0    0 -0.00000000000E+00 -0.00000000000E+00 -0.45593999997E+02  0.45594000000E+02  0.51100000000E-03 0. -1.
    9900012    2    1    2    0    0  0.19744541922E+02 -0.13403252746E+02  0.21147768530E+02  0.59301917868E+02  0.49999952291E+02 0.  0.
         12    1    1    2    0    0 -0.19744541922E+02  0.13403252746E+02 -0.21147768530E+02  0.31886082132E+02  0.00000000000E+00 0. -1.
         11    1    3    3    0    0  0.11131815370E+01 -0.14532869836E+02 -0.65178461004E+01  0.15966395863E+02  0.51100000000E-03 0. -1.
        -11    1    3    3    0    0  0.62964973697E+01 -0.22836192963E+01 -0.49304906970E+01  0.83168825284E+01  0.51100000000E-03 0.  1.
        -12    1    3    3    0    0  0.12334863016E+02  0.34132363863E+01  0.32596105328E+02  0.35018639477E+02  0.00000000000E+00 0.  1.
</event>
<event>
 7    1  0.5634483E-012  0.5930195E+02  0.7816164E-02  0.1266605E+00
        -11   -1    0    0    0    0  0.00000000000E+00  0.00000000000E+00  0.45593999997E+02  0.45594000000E+02  0.51100000000E-03 0.  1.
         11   -1    0    0    0    0 -0.00000000000E+00 -0.00000000000E+00 -0.45593999997E+02  0.45594000000E+02  0.51100000000E-03 0. -1.
    9900012    2    1    2    0    0 -0.18038686840E+02  0.20688478353E+02  0.16226918312E+02  0.59301949172E+02  0.50000009382E+02 0.  0.
         12    1    1    2    0    0  0.18038686840E+02 -0.20688478353E+02 -0.16226918312E+02  0.31886050828E+02  0.00000000000E+00 0. -1.
         11    1    3    3    0    0 -0.16804386392E+02  0.19400507718E+01  0.21416719009E+02  0.27291519789E+02  0.51100000000E-03 0. -1.
        -11    1    3    3    0    0 -0.10289511252E+02  0.41672471270E+01 -0.91606391486E+01  0.14392960095E+02  0.51100000000E-03 0.  1.
        -12    1    3    3    0    0  0.90552108036E+01  0.14581180454E+02  0.39708384519E+01  0.17617469289E+02  0.00000000000E+00 0.  1.
</event>
<event>
 7    1  0.5634483E-012  0.5930195E+02  0.7816164E-02  0.1266605E+00
        -11   -1    0    0    0    0  0.00000000000E+00  0.00000000000E+00  0.45593999997E+02  0.45594000000E+02  0.51100000000E-03 0. -1.
         11   -1    0    0    0    0 -0.00000000000E+00 -0.00000000000E+00 -0.45593999997E+02  0.45594000000E+02  0.51100000000E-03 0.  1.
    9900012    2    1    2    0    0 -0.64981946806E+01 -0.69673162881E+01 -0.30429424082E+02  0.59301954771E+02  0.50000019593E+02 0.  0.
         12    1    1    2    0    0  0.64981946806E+01  0.69673162881E+01  0.30429424082E+02  0.31886045229E+02  0.00000000000E+00 0. -1.
         11    1    3    3    0    0 -0.21675500373E+01  0.10715769504E+02  0.31631532126E+01  0.11381191841E+02  0.51100000000E-03 0. -1.
        -11    1    3    3    0    0  0.12093788946E+01  0.78480667825E+01 -0.62677578239E+01  0.10116300605E+02  0.51100000000E-03 0.  1.
        -12    1    3    3    0    0 -0.55400235378E+01 -0.25531152574E+02 -0.27324819471E+02  0.37804462325E+02  0.00000000000E+00 0.  1.
</event>
<event>
 7    1  0.5634483E-012  0.5930199E+02  0.7816164E-02  0.1266605E+00
        -11   -1    0    0    0    0  0.00000000000E+00  0.00000000000E+00  0.45593999997E+02  0.45594000000E+02  0.51100000000E-03 0. -1.
         11   -1    0    0    0    0 -0.00000000000E+00 -0.00000000000E+00 -0.45593999997E+02  0.45594000000E+02  0.51100000000E-03 0.  1.
    9900012    2    1    2    0    0  0.17467700312E+01 -0.24987410029E+02 -0.19730576043E+02  0.59301992152E+02  0.50000087768E+02 0.  0.
         12    1    1    2    0    0 -0.17467700312E+01  0.24987410029E+02  0.19730576043E+02  0.31886007848E+02  0.00000000000E+00 0. -1.
         11    1    3    3    0    0 -0.49474776902E+01 -0.25049212716E+02 -0.16574602679E+02  0.30441058579E+02  0.51100000000E-03 0. -1.
        -11    1    3    3    0    0 -0.50757576228E-01 -0.10478874002E+01 -0.15080037516E+02  0.15116486896E+02  0.51100000000E-03 0.  1.
         12    1    3    3    0    0  0.67450052977E+01  0.11096900877E+01  0.11924064152E+02  0.13744446677E+02  0.00000000000E+00 0. -1.
</event>
<event>
 7    1  0.5634483E-012  0.5930196E+02  0.7816164E-02  0.1266605E+00
        -11   -1    0    0    0    0  0.00000000000E+00  0.00000000000E+00  0.45593999997E+02  0.45594000000E+02  0.51100000000E-03 0.  1.
         11   -1    0    0    0    0 -0.00000000000E+00 -0.00000000000E+00 -0.45593999997E+02  0.45594000000E+02  0.51100000000E-03 0. -1.
    9900012    2    1    2    0    0 -0.27108969484E+02 -0.10243888458E+02  0.13299864053E+02  0.59301955074E+02  0.50000020145E+02 0.  0.
         12    1    1    2    0    0  0.27108969484E+02  0.10243888458E+02 -0.13299864053E+02  0.31886044926E+02  0.00000000000E+00 0. -1.
         11    1    3    3    0    0 -0.22552025866E+01  0.58871437416E+01  0.63973537516E+01  0.89816777623E+01  0.51100000000E-03 0. -1.
        -11    1    3    3    0    0 -0.27762983141E+02  0.43821984718E+01  0.89588936697E+01  0.29499977498E+02  0.51100000000E-03 0.  1.
         12    1    3    3    0    0  0.29092162442E+01 -0.20513230672E+02 -0.20563833679E+01  0.20820299813E+02  0.00000000000E+00 0. -1.
</event>
<event>
 7    1  0.5634483E-012  0.5930194E+02  0.7816164E-02  0.1266605E+00
        -11   -1    0    0    0    0  0.00000000000E+00  0.00000000000E+00  0.45593999997E+02  0.45594000000E+02  0.51100000000E-03 0.  1.
         11   -1    0    0    0    0 -0.00000000000E+00 -0.00000000000E+00 -0.45593999997E+02  0.45594000000E+02  0.51100000000E-03 0. -1.
    9900012    2    1    2    0    0  0.53217705104E+00 -0.38629977932E+01  0.31646720556E+02  0.59301938997E+02  0.49999990824E+02 0.  0.
         12    1    1    2    0    0 -0.53217705104E+00  0.38629977932E+01 -0.31646720556E+02  0.31886061003E+02  0.00000000000E+00 0. -1.
         11    1    3    3    0    0  0.14562488968E+02 -0.74195247581E+01  0.20109612087E+02  0.25913547251E+02  0.51100000000E-03 0. -1.
        -11    1    3    3    0    0 -0.70527135067E+00 -0.10199708225E+02  0.97927945768E+01  0.14157340197E+02  0.51100000000E-03 0.  1.
        -12    1    3    3    0    0 -0.13325040567E+02  0.13756235190E+02  0.17443138923E+01  0.19231051549E+02  0.00000000000E+00 0.  1.
</event>
<event>
 7    1  0.5634483E-012  0.5930195E+02  0.7816164E-02  0.1266605E+00
        -11   -1    0    0    0    0  0.00000000000E+00  0.00000000000E+00  0.45593999997E+02  0.45594000000E+02  0.51100000000E-03 0. -1.
         11   -1    0    0    0    0 -0.00000000000E+00 -0.00000000000E+00 -0.45593999997E+02  0.45594000000E+02  0.51100000000E-03 0.  1.
    9900012    2    1    2    0    0  0.27199370696E+02 -0.87669524859E+01 -0.14144086219E+02  0.59301946667E+02  0.50000004814E+02 0.  0.
         12    1    1    2    0    0 -0.27199370696E+02  0.87669524859E+01  0.14144086219E+02  0.31886053333E+02  0.00000000000E+00 0. -1.
         11    1    3    3    0    0  0.21412972985E+02  0.17245236166E+02 -0.33323891807E+01  0.27695097046E+02  0.51100000000E-03 0. -1.
        -11    1    3    3    0    0  0.53414689317E+01 -0.21772316045E+01 -0.11357602361E+01  0.58789097104E+01  0.51100000000E-03 0.  1.
         12    1    3    3    0    0  0.44492877951E+00 -0.23834957047E+02 -0.96759368026E+01  0.25727939911E+02  0.00000000000E+00 0. -1.
</event>
<event>
 7    1  0.5634483E-012  0.5930191E+02  0.7816164E-02  0.1266605E+00
        -11   -1    0    0    0    0  0.00000000000E+00  0.00000000000E+00  0.45593999997E+02  0.45594000000E+02  0.51100000000E-03 0. -1.
         11   -1    0    0    0    0 -0.00000000000E+00 -0.00000000000E+00 -0.45593999997E+02  0.45594000000E+02  0.51100000000E-03 0.  1.
    9900012    2    1    2    0    0 -0.93577420956E+01  0.21813340891E+02 -0.21291634138E+02  0.59301908013E+02  0.49999934317E+02 0.  0.
         12    1    1    2    0    0  0.93577420956E+01 -0.21813340891E+02  0.21291634138E+02  0.31886091987E+02  0.00000000000E+00 0. -1.
         11    1    3    3    0    0 -0.60824277157E+01 -0.11244479788E+02  0.12817436430E+01  0.12848234107E+02  0.51100000000E-03 0. -1.
        -11    1    3    3    0    0 -0.74938913313E+01  0.12975220692E+02  0.12200280983E+01  0.15033403744E+02  0.51100000000E-03 0.  1.
         12    1    3    3    0    0  0.42185769514E+01  0.20082599987E+02 -0.23793405880E+02  0.31420270162E+02  0.00000000000E+00 0. -1.
</event>
<event>
 7    1  0.5634483E-012  0.5930191E+02  0.7816164E-02  0.1266605E+00
        -11   -1    0    0    0    0  0.00000000000E+00  0.00000000000E+00  0.45593999997E+02  0.45594000000E+02  0.51100000000E-03 0. -1.
         11   -1    0    0    0    0 -0.00000000000E+00 -0.00000000000E+00 -0.45593999997E+02  0.45594000000E+02  0.51100000000E-03 0.  1.
    9900012    2    1    2    0    0 -0.62582199621E+01 -0.69432969843E+01  0.30485207567E+02  0.59301912587E+02  0.49999942660E+02 0.  0.
         12    1    1    2    0    0  0.62582199621E+01  0.69432969843E+01 -0.30485207567E+02  0.31886087413E+02  0.00000000000E+00 0. -1.
         11    1    3    3    0    0 -0.21503996049E+01 -0.36920378730E+01  0.65399597234E+01  0.78119418560E+01  0.51100000000E-03 0. -1.
        -11    1    3    3    0    0 -0.23669813658E+02  0.10594781264E+01  0.20148145025E+02  0.31101934356E+02  0.51100000000E-03 0.  1.
         12    1    3    3    0    0  0.19561993300E+02 -0.43107372377E+01  0.37971028190E+01  0.20388036375E+02  0.00000000000E+00 0. -1.
</event>
<event>
 7    1  0.5634483E-012  0.5930198E+02  0.7816164E-02  0.1266605E+00
        -11   -1    0    0    0    0  0.00000000000E+00  0.00000000000E+00  0.45593999997E+02  0.45594000000E+02  0.51100000000E-03 0.  1.
         11   -1    0    0    0    0 -0.00000000000E+00 -0.00000000000E+00 -0.45593999997E+02  0.45594000000E+02  0.51100000000E-03 0. -1.
    9900012    2    1    2    0    0  0.19622584903E+01 -0.39986603869E+01  0.31573384817E+02  0.59301978422E+02  0.50000062726E+02 0.  0.
         12    1    1    2    0    0 -0.19622584903E+01  0.39986603869E+01 -0.31573384817E+02  0.31886021578E+02  0.00000000000E+00 0. -1.
         11    1    3    3    0    0  0.43979066939E+01 -0.97740424535E+01 -0.90283831067E+01  0.14013750068E+02  0.51100000000E-03 0. -1.
        -11    1    3    3    0    0  0.76414490326E+01  0.63952403383E+01  0.20509059905E+02  0.22801587242E+02  0.51100000000E-03 0.  1.
        -12    1    3    3    0    0 -0.10077097236E+02 -0.61985827169E+00  0.20092708019E+02  0.22486641112E+02  0.00000000000E+00 0.  1.
</event>
<event>
 7    1  0.5634483E-012  0.5930195E+02  0.7816164E-02  0.1266605E+00
        -11   -1    0    0    0    0  0.00000000000E+00  0.00000000000E+00  0.45593999997E+02  0.45594000000E+02  0.51100000000E-03 0.  1.
         11   -1    0    0    0    0 -0.00000000000E+00 -0.00000000000E+00 -0.45593999997E+02  0.45594000000E+02  0.51100000000E-03 0. -1.
    9900012    2    1    2    0    0  0.13828559036E+02  0.11989180005E+02  0.26110357974E+02  0.59301948571E+02  0.50000008286E+02 0.  0.
         12    1    1    2    0    0 -0.13828559036E+02 -0.11989180005E+02 -0.26110357974E+02  0.31886051429E+02  0.00000000000E+00 0. -1.
         11    1    3    3    0    0  0.87627581700E+01  0.12487765432E+02  0.10875131241E+01  0.15294211365E+02  0.51100000000E-03 0. -1.
        -11    1    3    3    0    0  0.18576459717E+02  0.78080356565E+01  0.16226305882E+02  0.25871669433E+02  0.51100000000E-03 0.  1.
         12    1    3    3    0    0 -0.13510658851E+02 -0.83066210835E+01  0.87965389677E+01  0.18136067772E+02  0.00000000000E+00 0. -1.
</event>
<event>
 7    1  0.5634483E-012  0.5930212E+02  0.7816164E-02  0.1266604E+00
        -11   -1    0    0    0    0  0.00000000000E+00  0.00000000000E+00  0.45593999997E+02  0.45594000000E+02  0.51100000000E-03 0. -1.
         11   -1    0    0    0    0 -0.00000000000E+00 -0.00000000000E+00 -0.45593999997E+02  0.45594000000E+02  0.51100000000E-03 0.  1.
    9900012    2    1    2    0    0  0.31577688539E+02  0.35858234619E+01  0.25886084967E+01  0.59302118527E+02  0.50000318244E+02 0.  0.
         12    1    1    2    0    0 -0.31577688539E+02 -0.35858234619E+01 -0.25886084967E+01  0.31885881473E+02  0.00000000000E+00 0. -1.
         11    1    3    3    0    0 -0.52106572210E+01 -0.43989384257E+01  0.55642476664E+01  0.88012760610E+01  0.51100000000E-03 0. -1.
        -11    1    3    3    0    0  0.11836461649E+02 -0.12012097329E+02 -0.70264332024E+01  0.18269183627E+02  0.51100000000E-03 0.  1.
        -12    1    3    3    0    0  0.24951884111E+02  0.19996859216E+02  0.40507940327E+01  0.32231658839E+02  0.00000000000E+00 0.  1.
</event>
<event>
 7    1  0.5634483E-012  0.5930208E+02  0.7816164E-02  0.1266604E+00
        -11   -1    0    0    0    0  0.00000000000E+00  0.00000000000E+00  0.45593999997E+02  0.45594000000E+02  0.51100000000E-03 0.  1.
         11   -1    0    0    0    0 -0.00000000000E+00 -0.00000000000E+00 -0.45593999997E+02  0.45594000000E+02  0.51100000000E-03 0. -1.
    9900012    2    1    2    0    0  0.28359596828E+02 -0.14041439941E+02 -0.39093500984E+01  0.59302081696E+02  0.50000251074E+02 0.  0.
         12    1    1    2    0    0 -0.28359596828E+02  0.14041439941E+02  0.39093500984E+01  0.31885918304E+02  0.00000000000E+00 0. -1.
         11    1    3    3    0    0  0.14867615889E+02 -0.99529624089E+01 -0.89022474766E+01  0.19983930377E+02  0.51100000000E-03 0. -1.
        -11    1    3    3    0    0  0.15578921472E+02 -0.18458426505E+02  0.55626612528E+01  0.24786276521E+02  0.51100000000E-03 0.  1.
         12    1    3    3    0    0 -0.20869405328E+01  0.14369948973E+02 -0.56976387461E+00  0.14531874798E+02  0.00000000000E+00 0. -1.
</event>
<event>
 7    1  0.5634483E-012  0.5930193E+02  0.7816164E-02  0.1266605E+00
        -11   -1    0    0    0    0  0.00000000000E+00  0.00000000000E+00  0.45593999997E+02  0.45594000000E+02  0.51100000000E-03 0.  1.
         11   -1    0    0    0    0 -0.00000000000E+00 -0.00000000000E+00 -0.45593999997E+02  0.45594000000E+02  0.51100000000E-03 0. -1.
    9900012    2    1    2    0    0  0.28837059876E+02 -0.13513715322E+02 -0.15889085485E+01  0.59301934792E+02  0.49999983156E+02 0.  0.
         12    1    1    2    0    0 -0.28837059876E+02  0.13513715322E+02  0.15889085485E+01  0.31886065208E+02  0.00000000000E+00 0. -1.
         11    1    3    3    0    0 -0.73466753980E+01 -0.58155419514E+01  0.15276438784E+01  0.94935695959E+01  0.51100000000E-03 0. -1.
        -11    1    3    3    0    0  0.47804939947E+01 -0.14947381924E+02 -0.73015929458E+01  0.17308685942E+02  0.51100000000E-03 0.  1.
        -12    1    3    3    0    0  0.31403241279E+02  0.72492085539E+01  0.41850405190E+01  0.32499679254E+02  0.00000000000E+00 0.  1.
</event>
<event>
 7    1  0.5634483E-012  0.5930197E+02  0.7816164E-02  0.1266605E+00
        -11   -1    0    0    0    0  0.00000000000E+00  0.00000000000E+00  0.45593999997E+02  0.45594000000E+02  0.51100000000E-03 0. -1.
         11   -1    0    0    0    0 -0.00000000000E+00 -0.00000000000E+00 -0.45593999997E+02  0.45594000000E+02  0.51100000000E-03 0.  1.
    9900012    2    1    2    0    0  0.31047616822E+01  0.28742554269E+02 -0.13451570373E+02  0.59301973021E+02  0.50000052878E+02 0.  0.
         12    1    1    2    0    0 -0.31047616822E+01 -0.28742554269E+02  0.13451570373E+02  0.31886026979E+02  0.00000000000E+00 0. -1.
         11    1    3    3    0    0  0.15323226568E+02  0.14720886534E+01  0.29873789169E+01  0.15680967780E+02  0.51100000000E-03 0. -1.
        -11    1    3    3    0    0  0.61035602878E-01  0.14877133800E+02 -0.20861254074E+02  0.25622739066E+02  0.51100000000E-03 0.  1.
         12    1    3    3    0    0 -0.12279500489E+02  0.12393331815E+02  0.44223047840E+01  0.17998266176E+02  0.00000000000E+00 0. -1.
</event>
<event>
 7    1  0.5634483E-012  0.5930196E+02  0.7816164E-02  0.1266605E+00
        -11   -1    0    0    0    0  0.00000000000E+00  0.00000000000E+00  0.45593999997E+02  0.45594000000E+02  0.51100000000E-03 0.  1.
         11   -1    0    0    0    0 -0.00000000000E+00 -0.00000000000E+00 -0.45593999997E+02  0.45594000000E+02  0.51100000000E-03 0. -1.
    9900012    2    1    2    0    0  0.22555915670E+02  0.19947879234E+02  0.10489642550E+02  0.59301955741E+02  0.50000021363E+02 0.  0.
         12    1    1    2    0    0 -0.22555915670E+02 -0.19947879234E+02 -0.10489642550E+02  0.31886044259E+02  0.00000000000E+00 0. -1.
         11    1    3    3    0    0 -0.11931232744E+00 -0.51502473915E+01 -0.30407806556E+01  0.59821092335E+01  0.51100000000E-03 0. -1.
        -11    1    3    3    0    0 -0.10247040618E+02  0.88929254692E+00  0.55342929845E+01  0.11679943569E+02  0.51100000000E-03 0.  1.
        -12    1    3    3    0    0  0.32922268616E+02  0.24208834078E+02  0.79961302208E+01  0.41639902939E+02  0.00000000000E+00 0.  1.
</event>
<event>
 7    1  0.5634483E-012  0.5930194E+02  0.7816164E-02  0.1266605E+00
        -11   -1    0    0    0    0  0.00000000000E+00  0.00000000000E+00  0.45593999997E+02  0.45594000000E+02  0.51100000000E-03 0.  1.
         11   -1    0    0    0    0 -0.00000000000E+00 -0.00000000000E+00 -0.45593999997E+02  0.45594000000E+02  0.51100000000E-03 0. -1.
    9900012    2    1    2    0    0  0.87989024494E+01  0.17496029205E+02  0.25163244513E+02  0.59301943538E+02  0.49999999108E+02 0.  0.
         12    1    1    2    0    0 -0.87989024494E+01 -0.17496029205E+02 -0.25163244513E+02  0.31886056462E+02  0.00000000000E+00 0. -1.
         11    1    3    3    0    0 -0.65126617097E+01  0.29110268154E+02  0.63627879014E+01  0.30500943341E+02  0.51100000000E-03 0. -1.
        -11    1    3    3    0    0  0.29950940835E+00 -0.56499949667E+01  0.45606501130E+01  0.72671644212E+01  0.51100000000E-03 0.  1.
        -12    1    3    3    0    0  0.15012054751E+02 -0.59642439827E+01  0.14239806499E+02  0.21533835776E+02  0.00000000000E+00 0.  1.
</event>
<event>
 7    1  0.5634483E-012  0.5930192E+02  0.7816164E-02  0.1266605E+00
        -11   -1    0    0    0    0  0.00000000000E+00  0.00000000000E+00  0.45593999997E+02  0.45594000000E+02  0.51100000000E-03 0. -1.
         11   -1    0    0    0    0 -0.00000000000E+00 -0.00000000000E+00 -0.45593999997E+02  0.45594000000E+02  0.51100000000E-03 0.  1.
    9900012    2    1    2    0    0 -0.24893501390E+02  0.12110770573E+02 -0.15822919616E+02  0.59301922152E+02  0.49999960104E+02 0.  0.
         12    1    1    2    0    0  0.24893501390E+02 -0.12110770573E+02  0.15822919616E+02  0.31886077848E+02  0.00000000000E+00 0. -1.
         11    1    3    3    0    0 -0.19286008149E+02  0.17630176359E+01 -0.17219325422E+02  0.25914542437E+02  0.51100000000E-03 0. -1.
        -11    1    3    3    0    0 -0.23855324494E+01  0.17669197976E+02 -0.92378280193E+01  0.20080557486E+02  0.51100000000E-03 0.  1.
         12    1    3    3    0    0 -0.32219607921E+01 -0.73214450382E+01  0.10634233825E+02  0.13306822229E+02  0.00000000000E+00 0. -1.
</event>
<event>
 7    1  0.5634483E-012  0.5930193E+02  0.7816164E-02  0.1266605E+00
        -11   -1    0    0    0    0  0.00000000000E+00  0.00000000000E+00  0.45593999997E+02  0.45594000000E+02  0.51100000000E-03 0.  1.
         11   -1    0    0    0    0 -0.00000000000E+00 -0.00000000000E+00 -0.45593999997E+02  0.45594000000E+02  0.51100000000E-03 0. -1.
    9900012    2    1    2    0    0 -0.22427752356E+01 -0.24257500861E+02  0.20573403134E+02  0.59301932427E+02  0.49999978843E+02 0.  0.
         12    1    1    2    0    0  0.22427752356E+01  0.24257500861E+02 -0.20573403134E+02  0.31886067573E+02  0.00000000000E+00 0. -1.
         11    1    3    3    0    0  0.88519406893E+01  0.42261859875E+01  0.50283592490E+01  0.11022789981E+02  0.51100000000E-03 0. -1.
        -11    1    3    3    0    0  0.86907175333E+01 -0.94555311970E+01  0.16381777191E+02  0.20815817679E+02  0.51100000000E-03 0.  1.
        -12    1    3    3    0    0 -0.19785433458E+02 -0.19028155651E+02 -0.83673330599E+00  0.27463324767E+02  0.00000000000E+00 0.  1.
</event>
<event>
 7    1  0.5634483E-012  0.5930195E+02  0.7816164E-02  0.1266605E+00
        -11   -1    0    0    0    0  0.00000000000E+00  0.00000000000E+00  0.45593999997E+02  0.45594000000E+02  0.51100000000E-03 0. -1.
         11   -1    0    0    0    0 -0.00000000000E+00 -0.00000000000E+00 -0.45593999997E+02  0.45594000000E+02  0.51100000000E-03 0.  1.
    9900012    2    1    2    0    0 -0.39193353818E+01 -0.26861525113E+02 -0.16727750351E+02  0.59301947359E+02  0.50000006075E+02 0.  0.
         12    1    1    2    0    0  0.39193353818E+01  0.26861525113E+02  0.16727750351E+02  0.31886052641E+02  0.00000000000E+00 0. -1.
         11    1    3    3    0    0 -0.21239907841E+02 -0.26297017468E+02 -0.11932127388E+02  0.35847489132E+02  0.51100000000E-03 0.  1.
        -11    1    3    3    0    0  0.83187049672E+01 -0.22439649348E+01  0.50675120300E+01  0.99957945855E+01  0.51100000000E-03 0. -1.
        -12    1    3    3    0    0  0.90018674917E+01  0.16794572902E+01 -0.98631349929E+01  0.13458663642E+02  0.00000000000E+00 0.  1.
</event>
<event>
 7    1  0.5634483E-012  0.5930195E+02  0.7816164E-02  0.1266605E+00
        -11   -1    0    0    0    0  0.00000000000E+00  0.00000000000E+00  0.45593999997E+02  0.45594000000E+02  0.51100000000E-03 0. -1.
         11   -1    0    0    0    0 -0.00000000000E+00 -0.00000000000E+00 -0.45593999997E+02  0.45594000000E+02  0.51100000000E-03 0.  1.
    9900012    2    1    2    0    0  0.16142309143E+02 -0.27355269839E+02 -0.27992035869E+01  0.59301945476E+02  0.50000002640E+02 0.  0.
         12    1    1    2    0    0 -0.16142309143E+02  0.27355269839E+02  0.27992035869E+01  0.31886054524E+02  0.00000000000E+00 0. -1.
         11    1    3    3    0    0  0.37886485507E+01 -0.10633697283E+01  0.49417542405E+01  0.63170838410E+01  0.51100000000E-03 0. -1.
        -11    1    3    3    0    0 -0.22948678880E+01  0.11108121159E+02  0.23200914363E+01  0.11577547186E+02  0.51100000000E-03 0.  1.
        -12    1    3    3    0    0  0.14648528481E+02 -0.37400021269E+02 -0.10061049264E+02  0.41407314449E+02  0.00000000000E+00 0.  1.
</event>
<event>
 7    1  0.5634483E-012  0.5930209E+02  0.7816164E-02  0.1266604E+00
        -11   -1    0    0    0    0  0.00000000000E+00  0.00000000000E+00  0.45593999997E+02  0.45594000000E+02  0.51100000000E-03 0.  1.
         11   -1    0    0    0    0 -0.00000000000E+00 -0.00000000000E+00 -0.45593999997E+02  0.45594000000E+02  0.51100000000E-03 0. -1.
    9900012    2    1    2    0    0 -0.28786649139E+02 -0.10812412028E+02  0.84339538111E+01  0.59302094032E+02  0.50000273571E+02 0.  0.
         12    1    1    2    0    0  0.28786649139E+02  0.10812412028E+02 -0.84339538111E+01  0.31885905968E+02  0.00000000000E+00 0. -1.
         11    1    3    3    0    0  0.79924355194E+00 -0.18168174309E+02  0.10153301625E+02  0.20828127188E+02  0.51100000000E-03 0. -1.
        -11    1    3    3    0    0 -0.19905951609E+02 -0.48838447218E+01 -0.75108173116E+01  0.21829137081E+02  0.51100000000E-03 0.  1.
        -12    1    3    3    0    0 -0.96799410812E+01  0.12239607003E+02  0.57914694979E+01  0.16644829764E+02  0.00000000000E+00 0.  1.
</event>
<event>
 7    1  0.5634483E-012  0.5930194E+02  0.7816164E-02  0.1266605E+00
        -11   -1    0    0    0    0  0.00000000000E+00  0.00000000000E+00  0.45593999997E+02  0.45594000000E+02  0.51100000000E-03 0.  1.
         11   -1    0    0    0    0 -0.00000000000E+00 -0.00000000000E+00 -0.45593999997E+02  0.45594000000E+02  0.51100000000E-03 0. -1.
    9900012    2    1    2    0    0  0.10196957442E+02 -0.21886030278E+01  0.30132251643E+02  0.59301944845E+02  0.50000001490E+02 0.  0.
         12    1    1    2    0    0 -0.10196957442E+02  0.21886030278E+01 -0.30132251643E+02  0.31886055155E+02  0.00000000000E+00 0. -1.
         11    1    3    3    0    0 -0.19050210737E+00  0.37501970086E+01  0.29557729826E+02  0.29795295960E+02  0.51100000000E-03 0. -1.
        -11    1    3    3    0    0  0.29796879669E+01 -0.14883084415E+02  0.64492525677E+01  0.16491743420E+02  0.51100000000E-03 0.  1.
         12    1    3    3    0    0  0.74077715826E+01  0.89442843784E+01 -0.58747307506E+01  0.13014905465E+02  0.00000000000E+00 0. -1.
</event>
<event>
 7    1  0.5634483E-012  0.5930194E+02  0.7816164E-02  0.1266605E+00
        -11   -1    0    0    0    0  0.00000000000E+00  0.00000000000E+00  0.45593999997E+02  0.45594000000E+02  0.51100000000E-03 0.  1.
         11   -1    0    0    0    0 -0.00000000000E+00 -0.00000000000E+00 -0.45593999997E+02  0.45594000000E+02  0.51100000000E-03 0. -1.
    9900012    2    1    2    0    0 -0.29275010785E+02 -0.10555381549E+02  0.69482660118E+01  0.59301941343E+02  0.49999995103E+02 0.  0.
         12    1    1    2    0    0  0.29275010785E+02  0.10555381549E+02 -0.69482660118E+01  0.31886058657E+02  0.00000000000E+00 0. -1.
         11    1    3    3    0    0 -0.10686124259E+02  0.56621382810E+01 -0.62009437097E+00  0.12109400434E+02  0.51100000000E-03 0. -1.
        -11    1    3    3    0    0 -0.28862926668E+02 -0.18567180354E+01  0.45100286881E+01  0.29272107829E+02  0.51100000000E-03 0.  1.
        -12    1    3    3    0    0  0.10274040141E+02 -0.14360801795E+02  0.30583316946E+01  0.17920433080E+02  0.00000000000E+00 0.  1.
</event>
<event>
 7    1  0.5634483E-012  0.5930194E+02  0.7816164E-02  0.1266605E+00
        -11   -1    0    0    0    0  0.00000000000E+00  0.00000000000E+00  0.45593999997E+02  0.45594000000E+02  0.51100000000E-03 0. -1.
         11   -1    0    0    0    0 -0.00000000000E+00 -0.00000000000E+00 -0.45593999997E+02  0.45594000000E+02  0.51100000000E-03 0.  1.
    9900012    2    1    2    0    0  0.18403300052E+02 -0.50276988665E+01 -0.25549205841E+02  0.59301935210E+02  0.49999983919E+02 0.  0.
         12    1    1    2    0    0 -0.18403300052E+02  0.50276988665E+01  0.25549205841E+02  0.31886064790E+02  0.00000000000E+00 0. -1.
         11    1    3    3    0    0  0.73140721731E+01 -0.52860442254E+01 -0.85182539824E+00  0.90644096375E+01  0.51100000000E-03 0. -1.
        -11    1    3    3    0    0  0.26458393980E+02 -0.35625273880E+01 -0.21020253755E+02  0.33979247807E+02  0.51100000000E-03 0.  1.
        -12    1    3    3    0    0 -0.15369166102E+02  0.38208727469E+01 -0.36771266881E+01  0.16258277765E+02  0.00000000000E+00 0.  1.
</event>
<event>
 7    1  0.5634483E-012  0.5930179E+02  0.7816164E-02  0.1266605E+00
        -11   -1    0    0    0    0  0.00000000000E+00  0.00000000000E+00  0.45593999997E+02  0.45594000000E+02  0.51100000000E-03 0.  1.
         11   -1    0    0    0    0 -0.00000000000E+00 -0.00000000000E+00 -0.45593999997E+02  0.45594000000E+02  0.51100000000E-03 0. -1.
    9900012    2    1    2    0    0  0.55164960491E+01 -0.13406604351E+01  0.31376760305E+02  0.59301793165E+02  0.49999724862E+02 0.  0.
         12    1    1    2    0    0 -0.55164960491E+01  0.13406604351E+01 -0.31376760305E+02  0.31886206835E+02  0.00000000000E+00 0. -1.
         11    1    3    3    0    0  0.39903054977E+01  0.58675184887E+00  0.36519117441E+00  0.40497136383E+01  0.51100000000E-03 0. -1.
        -11    1    3    3    0    0  0.15454482997E+02 -0.16191702193E+02  0.26724305344E+02  0.34859729789E+02  0.51100000000E-03 0.  1.
         12    1    3    3    0    0 -0.13928292445E+02  0.14264289909E+02  0.42872637873E+01  0.20392349738E+02  0.00000000000E+00 0. -1.
</event>
<event>
 7    1  0.5634483E-012  0.5930196E+02  0.7816164E-02  0.1266605E+00
        -11   -1    0    0    0    0  0.00000000000E+00  0.00000000000E+00  0.45593999997E+02  0.45594000000E+02  0.51100000000E-03 0.  1.
         11   -1    0    0    0    0 -0.00000000000E+00 -0.00000000000E+00 -0.45593999997E+02  0.45594000000E+02  0.51100000000E-03 0. -1.
    9900012    2    1    2    0    0 -0.17475592652E+02  0.24107013935E+02  0.11409432184E+02  0.59301959133E+02  0.50000027549E+02 0.  0.
         12    1    1    2    0    0  0.17475592652E+02 -0.24107013935E+02 -0.11409432184E+02  0.31886040867E+02  0.00000000000E+00 0. -1.
         11    1    3    3    0    0  0.10281097910E+02 -0.14312383900E+01  0.12664942001E+02  0.16375291561E+02  0.51100000000E-03 0.  1.
        -11    1    3    3    0    0 -0.64940731920E+01 -0.17546939994E+01 -0.46276281875E+01  0.81649789073E+01  0.51100000000E-03 0. -1.
        -12    1    3    3    0    0 -0.21262617370E+02  0.27292946324E+02  0.33721183701E+01  0.34761688665E+02  0.00000000000E+00 0.  1.
</event>
<event>
 7    1  0.5634483E-012  0.5930195E+02  0.7816164E-02  0.1266605E+00
        -11   -1    0    0    0    0  0.00000000000E+00  0.00000000000E+00  0.45593999997E+02  0.45594000000E+02  0.51100000000E-03 0.  1.
         11   -1    0    0    0    0 -0.00000000000E+00 -0.00000000000E+00 -0.45593999997E+02  0.45594000000E+02  0.51100000000E-03 0. -1.
    9900012    2    1    2    0    0 -0.60579647196E+01  0.31230756558E+02  0.21589559707E+01  0.59301950031E+02  0.50000010949E+02 0.  0.
         12    1    1    2    0    0  0.60579647196E+01 -0.31230756558E+02 -0.21589559707E+01  0.31886049969E+02  0.00000000000E+00 0. -1.
         11    1    3    3    0    0 -0.13751117602E+02  0.39938678171E+01 -0.63622397656E+00  0.14333492131E+02  0.51100000000E-03 0. -1.
        -11    1    3    3    0    0 -0.61436452194E+01  0.66941833906E+01 -0.12801870712E+02  0.15698546488E+02  0.51100000000E-03 0.  1.
         12    1    3    3    0    0  0.13836798102E+02  0.20542705351E+02  0.15597050659E+02  0.29269911412E+02  0.00000000000E+00 0. -1.
</event>
<event>
 7    1  0.5634483E-012  0.5930192E+02  0.7816164E-02  0.1266605E+00
        -11   -1    0    0    0    0  0.00000000000E+00  0.00000000000E+00  0.45593999997E+02  0.45594000000E+02  0.51100000000E-03 0. -1.
         11   -1    0    0    0    0 -0.00000000000E+00 -0.00000000000E+00 -0.45593999997E+02  0.45594000000E+02  0.51100000000E-03 0.  1.
    9900012    2    1    2    0    0  0.80855325405E+01  0.86038133759E+01 -0.29619597338E+02  0.59301921728E+02  0.49999959331E+02 0.  0.
         12    1    1    2    0    0 -0.80855325405E+01 -0.86038133759E+01  0.29619597338E+02  0.31886078272E+02  0.00000000000E+00 0. -1.
         11    1    3    3    0    0  0.13291872964E+02  0.22780954408E+01 -0.11209818671E+02  0.17536351976E+02  0.51100000000E-03 0. -1.
        -11    1    3    3    0    0  0.90962591798E+01  0.17030531644E+02 -0.12262854453E+02  0.22872659197E+02  0.51100000000E-03 0.  1.
        -12    1    3    3    0    0 -0.14302599603E+02 -0.10704813709E+02 -0.61469242144E+01  0.18892910555E+02  0.00000000000E+00 0.  1.
</event>
<event>
 7    1  0.5634483E-012  0.5930198E+02  0.7816164E-02  0.1266605E+00
        -11   -1    0    0    0    0  0.00000000000E+00  0.00000000000E+00  0.45593999997E+02  0.45594000000E+02  0.51100000000E-03 0.  1.
         11   -1    0    0    0    0 -0.00000000000E+00 -0.00000000000E+00 -0.45593999997E+02  0.45594000000E+02  0.51100000000E-03 0. -1.
    9900012    2    1    2    0    0 -0.20804853688E+02 -0.21752531326E+02  0.10521574776E+02  0.59301982816E+02  0.50000070741E+02 0.  0.
         12    1    1    2    0    0  0.20804853688E+02  0.21752531326E+02 -0.10521574776E+02  0.31886017184E+02  0.00000000000E+00 0. -1.
         11    1    3    3    0    0  0.45061864528E+01 -0.19257206944E+02  0.21814873579E+02  0.29445448633E+02  0.51100000000E-03 0.  1.
        -11    1    3    3    0    0 -0.14049960225E+02 -0.56166722215E+01 -0.27450580945E+01  0.15378027617E+02  0.51100000000E-03 0. -1.
        -12    1    3    3    0    0 -0.11261079915E+02  0.31213478396E+01 -0.85482407085E+01  0.14478506567E+02  0.00000000000E+00 0.  1.
</event>
<event>
 7    1  0.5634483E-012  0.5930196E+02  0.7816164E-02  0.1266605E+00
        -11   -1    0    0    0    0  0.00000000000E+00  0.00000000000E+00  0.45593999997E+02  0.45594000000E+02  0.51100000000E-03 0.  1.
         11   -1    0    0    0    0 -0.00000000000E+00 -0.00000000000E+00 -0.45593999997E+02  0.45594000000E+02  0.51100000000E-03 0. -1.
    9900012    2    1    2    0    0  0.17363643417E+02 -0.93722556414E+01  0.25047634309E+02  0.59301964295E+02  0.50000036963E+02 0.  0.
         12    1    1    2    0    0 -0.17363643417E+02  0.93722556414E+01 -0.25047634309E+02  0.31886035705E+02  0.00000000000E+00 0. -1.
         11    1    3    3    0    0  0.51946414502E+01 -0.46561609689E+01  0.16552160467E+02  0.17962131030E+02  0.51100000000E-03 0. -1.
        -11    1    3    3    0    0 -0.66371858043E+01 -0.51089303674E+01  0.18301445554E+02  0.20127004609E+02  0.51100000000E-03 0.  1.
         12    1    3    3    0    0  0.18806187771E+02  0.39283569497E+00 -0.98059717128E+01  0.21212828656E+02  0.00000000000E+00 0. -1.
</event>
<event>
 7    1  0.5634483E-012  0.5930195E+02  0.7816164E-02  0.1266605E+00
        -11   -1    0    0    0    0  0.00000000000E+00  0.00000000000E+00  0.45593999997E+02  0.45594000000E+02  0.51100000000E-03 0.  1.
         11   -1    0    0    0    0 -0.00000000000E+00 -0.00000000000E+00 -0.45593999997E+02  0.45594000000E+02  0.51100000000E-03 0. -1.
    9900012    2    1    2    0    0 -0.22675406068E+01 -0.23125798116E+02  0.21835192085E+02  0.59301954584E+02  0.50000019252E+02 0.  0.
         12    1    1    2    0    0  0.22675406068E+01  0.23125798116E+02 -0.21835192085E+02  0.31886045416E+02  0.00000000000E+00 0. -1.
         11    1    3    3    0    0  0.10168436834E+02 -0.53712457877E+01  0.10682785533E+02  0.15696155452E+02  0.51100000000E-03 0. -1.
        -11    1    3    3    0    0  0.10594417929E+02  0.26747943398E+01  0.19608761707E+00  0.10928616867E+02  0.51100000000E-03 0.  1.
         12    1    3    3    0    0 -0.23030395370E+02 -0.20429346668E+02  0.10956318935E+02  0.32677182265E+02  0.00000000000E+00 0. -1.
</event>
<event>
 7    1  0.5634483E-012  0.5930198E+02  0.7816164E-02  0.1266605E+00
        -11   -1    0    0    0    0  0.00000000000E+00  0.00000000000E+00  0.45593999997E+02  0.45594000000E+02  0.51100000000E-03 0.  1.
         11   -1    0    0    0    0 -0.00000000000E+00 -0.00000000000E+00 -0.45593999997E+02  0.45594000000E+02  0.51100000000E-03 0. -1.
    9900012    2    1    2    0    0 -0.99090783418E+01  0.28587644641E+02  0.10063533315E+02  0.59301984845E+02  0.50000074440E+02 0.  0.
         12    1    1    2    0    0  0.99090783418E+01 -0.28587644641E+02 -0.10063533315E+02  0.31886015155E+02  0.00000000000E+00 0. -1.
         11    1    3    3    0    0  0.14934951002E+02  0.22453875384E+02  0.59072597137E+01  0.27606611505E+02  0.51100000000E-03 0.  1.
        -11    1    3    3    0    0  0.13796116445E+01 -0.96251659469E+00 -0.31431534758E+01  0.35649937613E+01  0.51100000000E-03 0. -1.
         12    1    3    3    0    0 -0.26223640988E+02  0.70962858513E+01  0.72994270768E+01  0.28130379578E+02  0.00000000000E+00 0. -1.
</event>
<event>
 7    1  0.5634483E-012  0.5930193E+02  0.7816164E-02  0.1266605E+00
        -11   -1    0    0    0    0  0.00000000000E+00  0.00000000000E+00  0.45593999997E+02  0.45594000000E+02  0.51100000000E-03 0.  1.
         11   -1    0    0    0    0 -0.00000000000E+00 -0.00000000000E+00 -0.45593999997E+02  0.45594000000E+02  0.51100000000E-03 0. -1.
    9900012    2    1    2    0    0 -0.21331631032E+02 -0.61124313783E+01  0.22898059412E+02  0.59301930554E+02  0.49999975428E+02 0.  0.
         12    1    1    2    0    0  0.21331631032E+02  0.61124313783E+01 -0.22898059412E+02  0.31886069446E+02  0.00000000000E+00 0. -1.
         11    1    3    3    0    0 -0.20574740105E+02  0.21525267415E+01 -0.56886928693E+00  0.20694852362E+02  0.51100000000E-03 0. -1.
        -11    1    3    3    0    0 -0.20917254370E+01  0.88095291881E+01 -0.59322025049E+00  0.90738652374E+01  0.51100000000E-03 0.  1.
         12    1    3    3    0    0  0.13348345093E+01 -0.17074487308E+02  0.24060148949E+02  0.29533212955E+02  0.00000000000E+00 0. -1.
</event>
<event>
 7    1  0.5634483E-012  0.5930193E+02  0.7816164E-02  0.1266605E+00
        -11   -1    0    0    0    0  0.00000000000E+00  0.00000000000E+00  0.45593999997E+02  0.45594000000E+02  0.51100000000E-03 0. -1.
         11   -1    0    0    0    0 -0.00000000000E+00 -0.00000000000E+00 -0.45593999997E+02  0.45594000000E+02  0.51100000000E-03 0.  1.
    9900012    2    1    2    0    0 -0.22854715937E+02 -0.11846480530E+02 -0.18816059505E+02  0.59301933501E+02  0.49999980801E+02 0.  0.
         12    1    1    2    0    0  0.22854715937E+02  0.11846480530E+02  0.18816059505E+02  0.31886066499E+02  0.00000000000E+00 0. -1.
         11    1    3    3    0    0 -0.34296378691E+01 -0.39566895846E+01  0.37429274047E+01  0.64364053788E+01  0.51100000000E-03 0. -1.
        -11    1    3    3    0    0  0.51154817088E+01 -0.19840158739E+02 -0.88119076626E+01  0.22303581973E+02  0.51100000000E-03 0.  1.
         12    1    3    3    0    0 -0.24540559777E+02  0.11950367794E+02 -0.13747079247E+02  0.30561946149E+02  0.00000000000E+00 0. -1.
</event>
<event>
 7    1  0.5634483E-012  0.5930196E+02  0.7816164E-02  0.1266605E+00
        -11   -1    0    0    0    0  0.00000000000E+00  0.00000000000E+00  0.45593999997E+02  0.45594000000E+02  0.51100000000E-03 0.  1.
         11   -1    0    0    0    0 -0.00000000000E+00 -0.00000000000E+00 -0.45593999997E+02  0.45594000000E+02  0.51100000000E-03 0. -1.
    9900012    2    1    2    0    0 -0.17034865142E+02  0.16934092712E+02  0.20970687488E+02  0.59301955089E+02  0.50000020172E+02 0.  0.
         12    1    1    2    0    0  0.17034865142E+02 -0.16934092712E+02 -0.20970687488E+02  0.31886044911E+02  0.00000000000E+00 0. -1.
         11    1    3    3    0    0 -0.62123111527E+01 -0.97182704048E+01  0.54521332889E+01  0.12757873929E+02  0.51100000000E-03 0. -1.
        -11    1    3    3    0    0  0.67066589812E+01 -0.19008240454E+01 -0.37277899943E+01  0.79049873652E+01  0.51100000000E-03 0.  1.
        -12    1    3    3    0    0 -0.17529212970E+02  0.28553187162E+02  0.19246344193E+02  0.38639093795E+02  0.00000000000E+00 0.  1.
</event>
<event>
 7    1  0.5634483E-012  0.5930196E+02  0.7816164E-02  0.1266605E+00
        -11   -1    0    0    0    0  0.00000000000E+00  0.00000000000E+00  0.45593999997E+02  0.45594000000E+02  0.51100000000E-03 0. -1.
         11   -1    0    0    0    0 -0.00000000000E+00 -0.00000000000E+00 -0.45593999997E+02  0.45594000000E+02  0.51100000000E-03 0.  1.
    9900012    2    1    2    0    0  0.20563140819E+02 -0.24225908301E+02 -0.26423693767E+01  0.59301960590E+02  0.50000030205E+02 0.  0.
         12    1    1    2    0    0 -0.20563140819E+02  0.24225908301E+02  0.26423693767E+01  0.31886039410E+02  0.00000000000E+00 0. -1.
         11    1    3    3    0    0 -0.92315686410E+01 -0.24561751310E+01  0.51652558995E+01  0.10859766324E+02  0.51100000000E-03 0. -1.
        -11    1    3    3    0    0 -0.42184799793E+01 -0.62304170006E+01 -0.80875940813E+01  0.11046395232E+02  0.51100000000E-03 0.  1.
        -12    1    3    3    0    0  0.34013189439E+02 -0.15539316169E+02  0.27996880518E+00  0.37395799034E+02  0.00000000000E+00 0.  1.
</event>
<event>
 7    1  0.5634483E-012  0.5930203E+02  0.7816164E-02  0.1266604E+00
        -11   -1    0    0    0    0  0.00000000000E+00  0.00000000000E+00  0.45593999997E+02  0.45594000000E+02  0.51100000000E-03 0. -1.
         11   -1    0    0    0    0 -0.00000000000E+00 -0.00000000000E+00 -0.45593999997E+02  0.45594000000E+02  0.51100000000E-03 0.  1.
    9900012    2    1    2    0    0  0.24131478760E+02 -0.12247316809E+02 -0.16863859736E+02  0.59302034415E+02  0.50000164844E+02 0.  0.
         12    1    1    2    0    0 -0.24131478760E+02  0.12247316809E+02  0.16863859736E+02  0.31885965585E+02  0.00000000000E+00 0. -1.
         11    1    3    3    0    0  0.11903799159E+02 -0.93785795808E+01 -0.10200298805E+02  0.18267574698E+02  0.51100000000E-03 0. -1.
        -11    1    3    3    0    0  0.47913997193E+01 -0.16643201221E+01 -0.22730296892E+02  0.23289350996E+02  0.51100000000E-03 0.  1.
         12    1    3    3    0    0  0.74362798812E+01 -0.12044171057E+01  0.16066735962E+02  0.17745108721E+02  0.00000000000E+00 0. -1.
</event>
<event>
 7    1  0.5634483E-012  0.5930195E+02  0.7816164E-02  0.1266605E+00
        -11   -1    0    0    0    0  0.00000000000E+00  0.00000000000E+00  0.45593999997E+02  0.45594000000E+02  0.51100000000E-03 0. -1.
         11   -1    0    0    0    0 -0.00000000000E+00 -0.00000000000E+00 -0.45593999997E+02  0.45594000000E+02  0.51100000000E-03 0.  1.
    9900012    2    1    2    0    0 -0.19016463486E+02 -0.15756790424E+02 -0.20169722169E+02  0.59301952576E+02  0.50000015590E+02 0.  0.
         12    1    1    2    0    0  0.19016463486E+02  0.15756790424E+02  0.20169722169E+02  0.31886047424E+02  0.00000000000E+00 0. -1.
         11    1    3    3    0    0  0.19202046447E+01  0.22333945822E+01 -0.42145023422E+00  0.29753752366E+01  0.51100000000E-03 0. -1.
        -11    1    3    3    0    0 -0.18168921481E+02 -0.26259723869E+02 -0.29338828649E+02  0.43364151925E+02  0.51100000000E-03 0.  1.
         12    1    3    3    0    0 -0.27677466496E+01  0.82695388635E+01  0.95905567140E+01  0.12962425414E+02  0.00000000000E+00 0. -1.
</event>
<event>
 7    1  0.5634483E-012  0.5930193E+02  0.7816164E-02  0.1266605E+00
        -11   -1    0    0    0    0  0.00000000000E+00  0.00000000000E+00  0.45593999997E+02  0.45594000000E+02  0.51100000000E-03 0. -1.
         11   -1    0    0    0    0 -0.00000000000E+00 -0.00000000000E+00 -0.45593999997E+02  0.45594000000E+02  0.51100000000E-03 0.  1.
    9900012    2    1    2    0    0  0.11343809039E+02  0.19218806436E+02 -0.22774480098E+02  0.59301929875E+02  0.49999974188E+02 0.  0.
         12    1    1    2    0    0 -0.11343809039E+02 -0.19218806436E+02  0.22774480098E+02  0.31886070125E+02  0.00000000000E+00 0. -1.
         11    1    3    3    0    0  0.17547628224E+01 -0.31357017758E+01  0.15955341796E+01  0.39316088016E+01  0.51100000000E-03 0. -1.
        -11    1    3    3    0    0  0.26365442610E+02  0.77843374866E+01 -0.13975449482E+02  0.30839028238E+02  0.51100000000E-03 0.  1.
        -12    1    3    3    0    0 -0.16776396393E+02  0.14570170725E+02 -0.10394564795E+02  0.24531292835E+02  0.00000000000E+00 0.  1.
</event>
<event>
 7    1  0.5634483E-012  0.5930196E+02  0.7816164E-02  0.1266605E+00
        -11   -1    0    0    0    0  0.00000000000E+00  0.00000000000E+00  0.45593999997E+02  0.45594000000E+02  0.51100000000E-03 0.  1.
         11   -1    0    0    0    0 -0.00000000000E+00 -0.00000000000E+00 -0.45593999997E+02  0.45594000000E+02  0.51100000000E-03 0. -1.
    9900012    2    1    2    0    0 -0.16930873168E+02  0.17508284327E+02  0.20579728662E+02  0.59301957315E+02  0.50000024233E+02 0.  0.
         12    1    1    2    0    0  0.16930873168E+02 -0.17508284327E+02 -0.20579728662E+02  0.31886042685E+02  0.00000000000E+00 0. -1.
         11    1    3    3    0    0  0.53956105447E+01  0.13586476715E+01 -0.72247940161E+01  0.91190013424E+01  0.51100000000E-03 0. -1.
        -11    1    3    3    0    0 -0.20858374179E+01  0.18148437281E+02  0.36909254913E+01  0.18637044420E+02  0.51100000000E-03 0.  1.
        -12    1    3    3    0    0 -0.20240646294E+02 -0.19988006257E+01  0.24113597187E+02  0.31545911552E+02  0.00000000000E+00 0.  1.
</event>
<event>
 7    1  0.5634483E-012  0.5930194E+02  0.7816164E-02  0.1266605E+00
        -11   -1    0    0    0    0  0.00000000000E+00  0.00000000000E+00  0.45593999997E+02  0.45594000000E+02  0.51100000000E-03 0. -1.
         11   -1    0    0    0    0 -0.00000000000E+00 -0.00000000000E+00 -0.45593999997E+02  0.45594000000E+02  0.51100000000E-03 0.  1.
    9900012    2    1    2    0    0 -0.27122445432E+02  0.16526371795E+02 -0.28235629913E+01  0.59301944758E+02  0.50000001331E+02 0.  0.
         12    1    1    2    0    0  0.27122445432E+02 -0.16526371795E+02  0.28235629913E+01  0.31886055242E+02  0.00000000000E+00 0. -1.
         11    1    3    3    0    0 -0.23136505311E+02  0.11549893022E+01  0.14850551697E+01  0.23212868574E+02  0.51100000000E-03 0. -1.
        -11    1    3    3    0    0  0.22185817889E+01 -0.70097183671E+01 -0.97728441662E+01  0.12229748162E+02  0.51100000000E-03 0.  1.
        -12    1    3    3    0    0 -0.62045219103E+01  0.22381100860E+02  0.54642260052E+01  0.23859328022E+02  0.00000000000E+00 0.  1.
</event>
<event>
 7    1  0.5634483E-012  0.5930169E+02  0.7816164E-02  0.1266606E+00
        -11   -1    0    0    0    0  0.00000000000E+00  0.00000000000E+00  0.45593999997E+02  0.45594000000E+02  0.51100000000E-03 0.  1.
         11   -1    0    0    0    0 -0.00000000000E+00 -0.00000000000E+00 -0.45593999997E+02  0.45594000000E+02  0.51100000000E-03 0. -1.
    9900012    2    1    2    0    0 -0.12673250030E+02  0.29245309270E+02 -0.91498882304E+00  0.59301692827E+02  0.49999541868E+02 0.  0.
         12    1    1    2    0    0  0.12673250030E+02 -0.29245309270E+02  0.91498882304E+00  0.31886307173E+02  0.00000000000E+00 0. -1.
         11    1    3    3    0    0 -0.36596180435E+01 -0.48835563945E+01 -0.71787658154E+01  0.94221338441E+01  0.51100000000E-03 0. -1.
        -11    1    3    3    0    0  0.32232668284E+01  0.47927559350E+01  0.15694907465E+02  0.16723937308E+02  0.51100000000E-03 0.  1.
         12    1    3    3    0    0 -0.12236898815E+02  0.29336109729E+02 -0.94311304722E+01  0.33155621675E+02  0.00000000000E+00 0. -1.
</event>
<event>
 7    1  0.5634483E-012  0.5930207E+02  0.7816164E-02  0.1266604E+00
        -11   -1    0    0    0    0  0.00000000000E+00  0.00000000000E+00  0.45593999997E+02  0.45594000000E+02  0.51100000000E-03 0. -1.
         11   -1    0    0    0    0 -0.00000000000E+00 -0.00000000000E+00 -0.45593999997E+02  0.45594000000E+02  0.51100000000E-03 0.  1.
    9900012    2    1    2    0    0  0.45102189035E+01 -0.21019357151E+02 -0.23549041441E+02  0.59302065760E+02  0.50000222010E+02 0.  0.
         12    1    1    2    0    0 -0.45102189035E+01  0.21019357151E+02  0.23549041441E+02  0.31885934240E+02  0.00000000000E+00 0. -1.
         11    1    3    3    0    0  0.10114481346E+02  0.26045177170E+01 -0.26248601508E+01  0.10769221722E+02  0.51100000000E-03 0. -1.
        -11    1    3    3    0    0 -0.81534867254E+01  0.65252448321E+01  0.19233894087E+01  0.10618737824E+02  0.51100000000E-03 0.  1.
        -12    1    3    3    0    0  0.25492242832E+01 -0.30149119700E+02 -0.22847570699E+02  0.37914106213E+02  0.00000000000E+00 0.  1.
</event>
<event>
 7    1  0.5634483E-012  0.5930196E+02  0.7816164E-02  0.1266605E+00
        -11   -1    0    0    0    0  0.00000000000E+00  0.00000000000E+00  0.45593999997E+02  0.45594000000E+02  0.51100000000E-03 0.  1.
         11   -1    0    0    0    0 -0.00000000000E+00 -0.00000000000E+00 -0.45593999997E+02  0.45594000000E+02  0.51100000000E-03 0. -1.
    9900012    2    1    2    0    0  0.86152830606E+01  0.18447253482E+02  0.24539673853E+02  0.59301955152E+02  0.50000020288E+02 0.  0.
         12    1    1    2    0    0 -0.86152830606E+01 -0.18447253482E+02 -0.24539673853E+02  0.31886044848E+02  0.00000000000E+00 0. -1.
         11    1    3    3    0    0 -0.55951692448E+01  0.10468324049E+02 -0.48536383190E+01  0.12823787758E+02  0.51100000000E-03 0. -1.
        -11    1    3    3    0    0 -0.32543053811E+01  0.15128416165E+02  0.64348401201E+01  0.16759076550E+02  0.51100000000E-03 0.  1.
         12    1    3    3    0    0  0.17464757686E+02 -0.71494867323E+01  0.22958472052E+02  0.29719090843E+02  0.00000000000E+00 0. -1.
</event>
<event>
 7    1  0.5634483E-012  0.5930193E+02  0.7816164E-02  0.1266605E+00
        -11   -1    0    0    0    0  0.00000000000E+00  0.00000000000E+00  0.45593999997E+02  0.45594000000E+02  0.51100000000E-03 0. -1.
         11   -1    0    0    0    0 -0.00000000000E+00 -0.00000000000E+00 -0.45593999997E+02  0.45594000000E+02  0.51100000000E-03 0.  1.
    9900012    2    1    2    0    0 -0.24477093237E+02 -0.78478636348E+01 -0.18868073953E+02  0.59301932954E+02  0.49999979805E+02 0.  0.
         12    1    1    2    0    0  0.24477093237E+02  0.78478636348E+01  0.18868073953E+02  0.31886067046E+02  0.00000000000E+00 0. -1.
         11    1    3    3    0    0 -0.15640696934E+02  0.12941222029E+02  0.31449694148E+01  0.20542576788E+02  0.51100000000E-03 0. -1.
        -11    1    3    3    0    0  0.28153167812E+01 -0.46700376577E+00  0.32377363988E+01  0.43159052753E+01  0.51100000000E-03 0.  1.
        -12    1    3    3    0    0 -0.11651713084E+02 -0.20322081898E+02 -0.25250779766E+02  0.34443450891E+02  0.00000000000E+00 0.  1.
</event>
<event>
 7    1  0.5634483E-012  0.5930194E+02  0.7816164E-02  0.1266605E+00
        -11   -1    0    0    0    0  0.00000000000E+00  0.00000000000E+00  0.45593999997E+02  0.45594000000E+02  0.51100000000E-03 0. -1.
         11   -1    0    0    0    0 -0.00000000000E+00 -0.00000000000E+00 -0.45593999997E+02  0.45594000000E+02  0.51100000000E-03 0.  1.
    9900012    2    1    2    0    0 -0.18850282102E+02 -0.25670670862E+02 -0.15504937081E+01  0.59301944920E+02  0.50000001628E+02 0.  0.
         12    1    1    2    0    0  0.18850282102E+02  0.25670670862E+02  0.15504937081E+01  0.31886055080E+02  0.00000000000E+00 0. -1.
         11    1    3    3    0    0 -0.97914179161E+01  0.50894156277E+01  0.22659955686E+01  0.11265378485E+02  0.51100000000E-03 0. -1.
        -11    1    3    3    0    0 -0.17736568265E+02 -0.23659898566E+02 -0.14156891050E+02  0.32784054332E+02  0.51100000000E-03 0.  1.
         12    1    3    3    0    0  0.86777040794E+01 -0.71001879229E+01  0.10340401773E+02  0.15252512103E+02  0.00000000000E+00 0. -1.
</event>
<event>
 7    1  0.5634483E-012  0.5930195E+02  0.7816164E-02  0.1266605E+00
        -11   -1    0    0    0    0  0.00000000000E+00  0.00000000000E+00  0.45593999997E+02  0.45594000000E+02  0.51100000000E-03 0. -1.
         11   -1    0    0    0    0 -0.00000000000E+00 -0.00000000000E+00 -0.45593999997E+02  0.45594000000E+02  0.51100000000E-03 0.  1.
    9900012    2    1    2    0    0 -0.27466481095E+02  0.14767665154E+01 -0.16128607592E+02  0.59301946530E+02  0.50000004563E+02 0.  0.
         12    1    1    2    0    0  0.27466481095E+02 -0.14767665154E+01  0.16128607592E+02  0.31886053470E+02  0.00000000000E+00 0. -1.
         11    1    3    3    0    0 -0.12416184630E+02 -0.50189377891E+01 -0.53788725669E+01  0.14432035465E+02  0.51100000000E-03 0. -1.
        -11    1    3    3    0    0 -0.27827909540E+02  0.10944870950E+02 -0.57824410771E+01  0.30456844462E+02  0.51100000000E-03 0.  1.
         12    1    3    3    0    0  0.12777613076E+02 -0.44491666450E+01 -0.49672939480E+01  0.14413066603E+02  0.00000000000E+00 0. -1.
</event>
<event>
 7    1  0.5634483E-012  0.5930193E+02  0.7816164E-02  0.1266605E+00
        -11   -1    0    0    0    0  0.00000000000E+00  0.00000000000E+00  0.45593999997E+02  0.45594000000E+02  0.51100000000E-03 0. -1.
         11   -1    0    0    0    0 -0.00000000000E+00 -0.00000000000E+00 -0.45593999997E+02  0.45594000000E+02  0.51100000000E-03 0.  1.
    9900012    2    1    2    0    0 -0.12552009949E+02  0.48834744627E+01 -0.28901901707E+02  0.59301934095E+02  0.49999981886E+02 0.  0.
         12    1    1    2    0    0  0.12552009949E+02 -0.48834744627E+01  0.28901901707E+02  0.31886065905E+02  0.00000000000E+00 0. -1.
         11    1    3    3    0    0 -0.89261884751E+01  0.54241885739E+01 -0.12327924694E+02  0.16157858456E+02  0.51100000000E-03 0. -1.
        -11    1    3    3    0    0 -0.61153240324E+00  0.32096715064E+01 -0.29329646572E+02  0.29511084890E+02  0.51100000000E-03 0.  1.
         12    1    3    3    0    0 -0.30142890704E+01 -0.37503856176E+01  0.12755669559E+02  0.13632990749E+02  0.00000000000E+00 0. -1.
</event>
<event>
 7    1  0.5634483E-012  0.5930193E+02  0.7816164E-02  0.1266605E+00
        -11   -1    0    0    0    0  0.00000000000E+00  0.00000000000E+00  0.45593999997E+02  0.45594000000E+02  0.51100000000E-03 0.  1.
         11   -1    0    0    0    0 -0.00000000000E+00 -0.00000000000E+00 -0.45593999997E+02  0.45594000000E+02  0.51100000000E-03 0. -1.
    9900012    2    1    2    0    0 -0.17960456237E+02 -0.30729130324E+01  0.26166790611E+02  0.59301926024E+02  0.49999967165E+02 0.  0.
         12    1    1    2    0    0  0.17960456237E+02  0.30729130324E+01 -0.26166790611E+02  0.31886073976E+02  0.00000000000E+00 0. -1.
         11    1    3    3    0    0  0.33017264620E+01 -0.60414865476E+01 -0.73891232927E+01  0.10099509920E+02  0.51100000000E-03 0. -1.
        -11    1    3    3    0    0 -0.45424024120E+01  0.14726348675E+02  0.16537062382E+02  0.22604716265E+02  0.51100000000E-03 0.  1.
        -12    1    3    3    0    0 -0.16719780287E+02 -0.11757775160E+02  0.17018851522E+02  0.26597699838E+02  0.00000000000E+00 0.  1.
</event>
<event>
 7    1  0.5634483E-012  0.5930194E+02  0.7816164E-02  0.1266605E+00
        -11   -1    0    0    0    0  0.00000000000E+00  0.00000000000E+00  0.45593999997E+02  0.45594000000E+02  0.51100000000E-03 0. -1.
         11   -1    0    0    0    0 -0.00000000000E+00 -0.00000000000E+00 -0.45593999997E+02  0.45594000000E+02  0.51100000000E-03 0.  1.
    9900012    2    1    2    0    0 -0.14713685161E+02 -0.80605550147E+01 -0.27115601465E+02  0.59301938453E+02  0.49999989832E+02 0.  0.
         12    1    1    2    0    0  0.14713685161E+02  0.80605550147E+01  0.27115601465E+02  0.31886061547E+02  0.00000000000E+00 0. -1.
         11    1    3    3    0    0 -0.60165810687E+00 -0.21104627697E+02 -0.12514653393E+02  0.24543509377E+02  0.51100000000E-03 0. -1.
        -11    1    3    3    0    0 -0.17245824790E+02 -0.58963692441E+00 -0.10419291247E+02  0.20157573632E+02  0.51100000000E-03 0.  1.
         12    1    3    3    0    0  0.31337977356E+01  0.13633709607E+02 -0.41816568256E+01  0.14600855444E+02  0.00000000000E+00 0. -1.
</event>
<event>
 7    1  0.5634483E-012  0.5930196E+02  0.7816164E-02  0.1266605E+00
        -11   -1    0    0    0    0  0.00000000000E+00  0.00000000000E+00  0.45593999997E+02  0.45594000000E+02  0.51100000000E-03 0. -1.
         11   -1    0    0    0    0 -0.00000000000E+00 -0.00000000000E+00 -0.45593999997E+02  0.45594000000E+02  0.51100000000E-03 0.  1.
    9900012    2    1    2    0    0  0.28910457661E+02  0.11891770785E+02 -0.62841456160E+01  0.59301964488E+02  0.50000037314E+02 0.  0.
         12    1    1    2    0    0 -0.28910457661E+02 -0.11891770785E+02  0.62841456160E+01  0.31886035512E+02  0.00000000000E+00 0. -1.
         11    1    3    3    0    0 -0.37992785580E+01  0.69062315695E+01 -0.96209355848E+01  0.12437562215E+02  0.51100000000E-03 0. -1.
        -11    1    3    3    0    0  0.38589582276E+02  0.44298872634E+01 -0.20136547910E+01  0.38895174088E+02  0.51100000000E-03 0.  1.
         12    1    3    3    0    0 -0.58798460572E+01  0.55565195162E+00  0.53504447598E+01  0.79692281857E+01  0.00000000000E+00 0. -1.
</event>
<event>
 7    1  0.5634483E-012  0.5930198E+02  0.7816164E-02  0.1266605E+00
        -11   -1    0    0    0    0  0.00000000000E+00  0.00000000000E+00  0.45593999997E+02  0.45594000000E+02  0.51100000000E-03 0. -1.
         11   -1    0    0    0    0 -0.00000000000E+00 -0.00000000000E+00 -0.45593999997E+02  0.45594000000E+02  0.51100000000E-03 0.  1.
    9900012    2    1    2    0    0 -0.21484446638E+02 -0.22104935264E+02  0.81552712441E+01  0.59301983325E+02  0.50000071668E+02 0.  0.
         12    1    1    2    0    0  0.21484446638E+02  0.22104935264E+02 -0.81552712441E+01  0.31886016675E+02  0.00000000000E+00 0. -1.
         11    1    3    3    0    0  0.25547183645E+01 -0.36613245702E+01  0.64449907870E+01  0.78402672171E+01  0.51100000000E-03 0. -1.
        -11    1    3    3    0    0 -0.69732250924E+01 -0.28136884252E+02  0.92628180173E+01  0.30432054178E+02  0.51100000000E-03 0.  1.
         12    1    3    3    0    0 -0.17065939910E+02  0.96932735581E+01 -0.75525375602E+01  0.21029661930E+02  0.00000000000E+00 0. -1.
</event>
<event>
 7    1  0.5634483E-012  0.5930196E+02  0.7816164E-02  0.1266605E+00
        -11   -1    0    0    0    0  0.00000000000E+00  0.00000000000E+00  0.45593999997E+02  0.45594000000E+02  0.51100000000E-03 0. -1.
         11   -1    0    0    0    0 -0.00000000000E+00 -0.00000000000E+00 -0.45593999997E+02  0.45594000000E+02  0.51100000000E-03 0.  1.
    9900012    2    1    2    0    0  0.23116623094E+02  0.16559310449E+02  0.14426730597E+02  0.59301959457E+02  0.50000028138E+02 0.  0.
         12    1    1    2    0    0 -0.23116623094E+02 -0.16559310449E+02 -0.14426730597E+02  0.31886040543E+02  0.00000000000E+00 0. -1.
         11    1    3    3    0    0  0.22714012934E+01 -0.64479913740E+01 -0.80224616381E+01  0.10540196753E+02  0.51100000000E-03 0. -1.
        -11    1    3    3    0    0  0.15396431642E+02  0.25589661229E+02  0.49742729629E+01  0.30275803225E+02  0.51100000000E-03 0.  1.
         12    1    3    3    0    0  0.54487901585E+01 -0.25823594059E+01  0.17474919272E+02  0.18485959479E+02  0.00000000000E+00 0. -1.
</event>
<event>
 7    1  0.5634483E-012  0.5930193E+02  0.7816164E-02  0.1266605E+00
        -11   -1    0    0    0    0  0.00000000000E+00  0.00000000000E+00  0.45593999997E+02  0.45594000000E+02  0.51100000000E-03 0.  1.
         11   -1    0    0    0    0 -0.00000000000E+00 -0.00000000000E+00 -0.45593999997E+02  0.45594000000E+02  0.51100000000E-03 0. -1.
    9900012    2    1    2    0    0  0.96089722800E+01 -0.22925370076E+02  0.19970383656E+02  0.59301934630E+02  0.49999982860E+02 0.  0.
         12    1    1    2    0    0 -0.96089722800E+01  0.22925370076E+02 -0.19970383656E+02  0.31886065370E+02  0.00000000000E+00 0. -1.
         11    1    3    3    0    0 -0.18553077708E+02 -0.84374631049E+01  0.12847133031E+02  0.24092660780E+02  0.51100000000E-03 0. -1.
        -11    1    3    3    0    0  0.48187444737E+01 -0.84652530789E+01 -0.94704398698E+00  0.97866082259E+01  0.51100000000E-03 0.  1.
        -12    1    3    3    0    0  0.23343305515E+02 -0.60226538928E+01  0.80702946126E+01  0.25422665623E+02  0.00000000000E+00 0.  1.
</event>
<event>
 7    1  0.5634483E-012  0.5930202E+02  0.7816164E-02  0.1266605E+00
        -11   -1    0    0    0    0  0.00000000000E+00  0.00000000000E+00  0.45593999997E+02  0.45594000000E+02  0.51100000000E-03 0. -1.
         11   -1    0    0    0    0 -0.00000000000E+00 -0.00000000000E+00 -0.45593999997E+02  0.45594000000E+02  0.51100000000E-03 0.  1.
    9900012    2    1    2    0    0  0.10879070337E+02 -0.34628170709E+01 -0.29771975212E+02  0.59302019045E+02  0.50000136813E+02 0.  0.
         12    1    1    2    0    0 -0.10879070337E+02  0.34628170709E+01  0.29771975212E+02  0.31885980955E+02  0.00000000000E+00 0. -1.
         11    1    3    3    0    0  0.14380520794E+02 -0.29934730780E+01  0.23739389091E+01  0.14879376519E+02  0.51100000000E-03 0. -1.
        -11    1    3    3    0    0 -0.42004568351E+01  0.25695578402E+01  0.50750711363E+01  0.70712666770E+01  0.51100000000E-03 0.  1.
        -12    1    3    3    0    0  0.69900637784E+00 -0.30389018331E+01 -0.37220985257E+02  0.37351375849E+02  0.00000000000E+00 0.  1.
</event>
<event>
 7    1  0.5634483E-012  0.5930193E+02  0.7816164E-02  0.1266605E+00
        -11   -1    0    0    0    0  0.00000000000E+00  0.00000000000E+00  0.45593999997E+02  0.45594000000E+02  0.51100000000E-03 0.  1.
         11   -1    0    0    0    0 -0.00000000000E+00 -0.00000000000E+00 -0.45593999997E+02  0.45594000000E+02  0.51100000000E-03 0. -1.
    9900012    2    1    2    0    0 -0.25026508916E+02  0.19686248705E+02 -0.16872762783E+01  0.59301930348E+02  0.49999975051E+02 0.  0.
         12    1    1    2    0    0  0.25026508916E+02 -0.19686248705E+02  0.16872762783E+01  0.31886069652E+02  0.00000000000E+00 0. -1.
         11    1    3    3    0    0 -0.16200811940E+02 -0.53308906438E+01 -0.98264361586E+01  0.19683585812E+02  0.51100000000E-03 0. -1.
        -11    1    3    3    0    0 -0.12897838674E+02  0.21622647672E+02 -0.48040881355E+01  0.25631472800E+02  0.51100000000E-03 0.  1.
        -12    1    3    3    0    0  0.40721416985E+01  0.33944916772E+01  0.12943248016E+02  0.13986871736E+02  0.00000000000E+00 0.  1.
</event>
<event>
 7    1  0.5634483E-012  0.5930194E+02  0.7816164E-02  0.1266605E+00
        -11   -1    0    0    0    0  0.00000000000E+00  0.00000000000E+00  0.45593999997E+02  0.45594000000E+02  0.51100000000E-03 0. -1.
         11   -1    0    0    0    0 -0.00000000000E+00 -0.00000000000E+00 -0.45593999997E+02  0.45594000000E+02  0.51100000000E-03 0.  1.
    9900012    2    1    2    0    0 -0.17414684699E+02  0.18516175305E+02 -0.19250994927E+02  0.59301940401E+02  0.49999993385E+02 0.  0.
         12    1    1    2    0    0  0.17414684699E+02 -0.18516175305E+02  0.19250994927E+02  0.31886059599E+02  0.00000000000E+00 0. -1.
         11    1    3    3    0    0 -0.11083583018E+02 -0.11589853268E+02 -0.30640704874E+01  0.16326635890E+02  0.51100000000E-03 0. -1.
        -11    1    3    3    0    0  0.69153027712E+01  0.14035936660E+02  0.14101884390E+01  0.15710428449E+02  0.51100000000E-03 0.  1.
        -12    1    3    3    0    0 -0.13246404452E+02  0.16070091913E+02 -0.17597112879E+02  0.27264876062E+02  0.00000000000E+00 0.  1.
</event>
<event>
 7    1  0.5634483E-012  0.5930194E+02  0.7816164E-02  0.1266605E+00
        -11   -1    0    0    0    0  0.00000000000E+00  0.00000000000E+00  0.45593999997E+02  0.45594000000E+02  0.51100000000E-03 0.  1.
         11   -1    0    0    0    0 -0.00000000000E+00 -0.00000000000E+00 -0.45593999997E+02  0.45594000000E+02  0.51100000000E-03 0. -1.
    9900012    2    1    2    0    0 -0.25650162009E+02 -0.50556432946E+01  0.18254598466E+02  0.59301941834E+02  0.49999995999E+02 0.  0.
         12    1    1    2    0    0  0.25650162009E+02  0.50556432946E+01 -0.18254598466E+02  0.31886058166E+02  0.00000000000E+00 0. -1.
         11    1    3    3    0    0 -0.57330655438E+01  0.91816081698E+01  0.36428306862E+00  0.10830635786E+02  0.51100000000E-03 0. -1.
        -11    1    3    3    0    0  0.40314457709E+01 -0.12992780681E+02  0.20227790817E+02  0.24376800988E+02  0.51100000000E-03 0.  1.
         12    1    3    3    0    0 -0.23948542236E+02 -0.12444707836E+01 -0.23374754193E+01  0.24094505060E+02  0.00000000000E+00 0. -1.
</event>
<event>
 7    1  0.5634483E-012  0.5930191E+02  0.7816164E-02  0.1266605E+00
        -11   -1    0    0    0    0  0.00000000000E+00  0.00000000000E+00  0.45593999997E+02  0.45594000000E+02  0.51100000000E-03 0.  1.
         11   -1    0    0    0    0 -0.00000000000E+00 -0.00000000000E+00 -0.45593999997E+02  0.45594000000E+02  0.51100000000E-03 0. -1.
    9900012    2    1    2    0    0 -0.11193394617E+02  0.11922034883E+02  0.27373265357E+02  0.59301911260E+02  0.49999940240E+02 0.  0.
         12    1    1    2    0    0  0.11193394617E+02 -0.11922034883E+02 -0.27373265357E+02  0.31886088740E+02  0.00000000000E+00 0. -1.
         11    1    3    3    0    0 -0.62987895485E+01 -0.44141010070E+01 -0.37653961474E+01  0.85637168265E+01  0.51100000000E-03 0. -1.
        -11    1    3    3    0    0  0.83855957418E+01 -0.45321138549E+01 -0.16417972740E+01  0.96723198090E+01  0.51100000000E-03 0.  1.
        -12    1    3    3    0    0 -0.13280200810E+02  0.20868249745E+02  0.32780458779E+02  0.41065874625E+02  0.00000000000E+00 0.  1.
</event>
<event>
 7    1  0.5634483E-012  0.5930195E+02  0.7816164E-02  0.1266605E+00
        -11   -1    0    0    0    0  0.00000000000E+00  0.00000000000E+00  0.45593999997E+02  0.45594000000E+02  0.51100000000E-03 0.  1.
         11   -1    0    0    0    0 -0.00000000000E+00 -0.00000000000E+00 -0.45593999997E+02  0.45594000000E+02  0.51100000000E-03 0. -1.
    9900012    2    1    2    0    0 -0.19929596955E+02  0.22727107754E+02  0.10149391512E+02  0.59301946470E+02  0.50000004454E+02 0.  0.
         12    1    1    2    0    0  0.19929596955E+02 -0.22727107754E+02 -0.10149391512E+02  0.31886053530E+02  0.00000000000E+00 0. -1.
         11    1    3    3    0    0 -0.86362110460E+01  0.19500349392E+02  0.11014136558E+02  0.24003311689E+02  0.51100000000E-03 0. -1.
        -11    1    3    3    0    0 -0.19227730877E+02  0.12606394837E+02 -0.97840718669E+00  0.23012694461E+02  0.51100000000E-03 0.  1.
         12    1    3    3    0    0  0.79343449676E+01 -0.93796364751E+01  0.11366214033E+00  0.12285940320E+02  0.00000000000E+00 0. -1.
</event>
<event>
 7    1  0.5634483E-012  0.5930189E+02  0.7816164E-02  0.1266605E+00
        -11   -1    0    0    0    0  0.00000000000E+00  0.00000000000E+00  0.45593999997E+02  0.45594000000E+02  0.51100000000E-03 0. -1.
         11   -1    0    0    0    0 -0.00000000000E+00 -0.00000000000E+00 -0.45593999997E+02  0.45594000000E+02  0.51100000000E-03 0.  1.
    9900012    2    1    2    0    0  0.13571579879E+02 -0.28353692424E+02 -0.53483307251E+01  0.59301885529E+02  0.49999893312E+02 0.  0.
         12    1    1    2    0    0 -0.13571579879E+02  0.28353692424E+02  0.53483307251E+01  0.31886114471E+02  0.00000000000E+00 0. -1.
         11    1    3    3    0    0  0.52358185034E+01 -0.13080523931E+02 -0.10988943668E+02  0.17868150014E+02  0.51100000000E-03 0. -1.
        -11    1    3    3    0    0 -0.85747408883E+01 -0.21405211200E+02  0.30111963847E+01  0.23254602807E+02  0.51100000000E-03 0.  1.
         12    1    3    3    0    0  0.16910502264E+02  0.61320427063E+01  0.26294165585E+01  0.18179132708E+02  0.00000000000E+00 0. -1.
</event>
<event>
 7    1  0.5634483E-012  0.5930193E+02  0.7816164E-02  0.1266605E+00
        -11   -1    0    0    0    0  0.00000000000E+00  0.00000000000E+00  0.45593999997E+02  0.45594000000E+02  0.51100000000E-03 0.  1.
         11   -1    0    0    0    0 -0.00000000000E+00 -0.00000000000E+00 -0.45593999997E+02  0.45594000000E+02  0.51100000000E-03 0. -1.
    9900012    2    1    2    0    0 -0.81525416112E+01 -0.16765983833E+02  0.25868112976E+02  0.59301930666E+02  0.49999975632E+02 0.  0.
         12    1    1    2    0    0  0.81525416112E+01  0.16765983833E+02 -0.25868112976E+02  0.31886069334E+02  0.00000000000E+00 0. -1.
         11    1    3    3    0    0  0.10011812435E+02  0.13785334414E+01  0.82879889942E+01  0.13070099637E+02  0.51100000000E-03 0. -1.
        -11    1    3    3    0    0  0.25107118969E+01 -0.21413735283E+02  0.63418454982E+01  0.22473778890E+02  0.51100000000E-03 0.  1.
        -12    1    3    3    0    0 -0.20675065944E+02  0.32692180093E+01  0.11238278484E+02  0.23758052139E+02  0.00000000000E+00 0.  1.
</event>
<event>
 7    1  0.5634483E-012  0.5930196E+02  0.7816164E-02  0.1266605E+00
        -11   -1    0    0    0    0  0.00000000000E+00  0.00000000000E+00  0.45593999997E+02  0.45594000000E+02  0.51100000000E-03 0.  1.
         11   -1    0    0    0    0 -0.00000000000E+00 -0.00000000000E+00 -0.45593999997E+02  0.45594000000E+02  0.51100000000E-03 0. -1.
    9900012    2    1    2    0    0  0.14274593452E+02  0.25418511145E+02 -0.12917223015E+02  0.59301962657E+02  0.50000033975E+02 0.  0.
         12    1    1    2    0    0 -0.14274593452E+02 -0.25418511145E+02  0.12917223015E+02  0.31886037343E+02  0.00000000000E+00 0. -1.
         11    1    3    3    0    0 -0.13309935352E+01  0.19507859335E+02  0.16707559871E+01  0.19624462935E+02  0.51100000000E-03 0. -1.
        -11    1    3    3    0    0  0.64375739781E+01 -0.26755935613E+01  0.99278786588E+01  0.12131114316E+02  0.51100000000E-03 0.  1.
         12    1    3    3    0    0  0.91680130086E+01  0.85862453713E+01 -0.24515857660E+02  0.27546385406E+02  0.00000000000E+00 0. -1.
</event>
<event>
 7    1  0.5634483E-012  0.5930191E+02  0.7816164E-02  0.1266605E+00
        -11   -1    0    0    0    0  0.00000000000E+00  0.00000000000E+00  0.45593999997E+02  0.45594000000E+02  0.51100000000E-03 0.  1.
         11   -1    0    0    0    0 -0.00000000000E+00 -0.00000000000E+00 -0.45593999997E+02  0.45594000000E+02  0.51100000000E-03 0. -1.
    9900012    2    1    2    0    0  0.48579139261E+01 -0.18118641029E+02 -0.25784452843E+02  0.59301913868E+02  0.49999944995E+02 0.  0.
         12    1    1    2    0    0 -0.48579139261E+01  0.18118641029E+02  0.25784452843E+02  0.31886086132E+02  0.00000000000E+00 0. -1.
         11    1    3    3    0    0  0.95808750880E+01  0.31054446530E+01 -0.12542827203E+02  0.16086002252E+02  0.51100000000E-03 0. -1.
        -11    1    3    3    0    0  0.95667257792E+01 -0.22725867722E+00 -0.14961059652E+02  0.17759707059E+02  0.51100000000E-03 0.  1.
        -12    1    3    3    0    0 -0.14289686941E+02 -0.20996827004E+02  0.17194340122E+01  0.25456204557E+02  0.00000000000E+00 0.  1.
</event>
<event>
 7    1  0.5634483E-012  0.5930195E+02  0.7816164E-02  0.1266605E+00
        -11   -1    0    0    0    0  0.00000000000E+00  0.00000000000E+00  0.45593999997E+02  0.45594000000E+02  0.51100000000E-03 0. -1.
         11   -1    0    0    0    0 -0.00000000000E+00 -0.00000000000E+00 -0.45593999997E+02  0.45594000000E+02  0.51100000000E-03 0.  1.
    9900012    2    1    2    0    0  0.25687497363E+02  0.18568424086E+02 -0.34765703533E+01  0.59301946070E+02  0.50000003725E+02 0.  0.
         12    1    1    2    0    0 -0.25687497363E+02 -0.18568424086E+02  0.34765703533E+01  0.31886053930E+02  0.00000000000E+00 0. -1.
         11    1    3    3    0    0  0.21839797213E+02  0.28939875946E+01 -0.11818215827E+02  0.25000442638E+02  0.51100000000E-03 0. -1.
        -11    1    3    3    0    0  0.71424615751E+01  0.20108606104E+02 -0.31312235970E+01  0.21567924293E+02  0.51100000000E-03 0.  1.
         12    1    3    3    0    0 -0.32947614254E+01 -0.44341696127E+01  0.11472869070E+02  0.12733579140E+02  0.00000000000E+00 0. -1.
</event>
<event>
 7    1  0.5634483E-012  0.5930194E+02  0.7816164E-02  0.1266605E+00
        -11   -1    0    0    0    0  0.00000000000E+00  0.00000000000E+00  0.45593999997E+02  0.45594000000E+02  0.51100000000E-03 0.  1.
         11   -1    0    0    0    0 -0.00000000000E+00 -0.00000000000E+00 -0.45593999997E+02  0.45594000000E+02  0.51100000000E-03 0. -1.
    9900012    2    1    2    0    0 -0.25104797497E+02 -0.19472980527E+02  0.26968530030E+01  0.59301939659E+02  0.49999992032E+02 0.  0.
         12    1    1    2    0    0  0.25104797497E+02  0.19472980527E+02 -0.26968530030E+01  0.31886060341E+02  0.00000000000E+00 0. -1.
         11    1    3    3    0    0 -0.10829066625E+01 -0.71241088044E+01 -0.55518166758E+01  0.90966082558E+01  0.51100000000E-03 0.  1.
        -11    1    3    3    0    0 -0.17546535455E+02 -0.24874063500E+02 -0.50112182604E+01  0.30849833876E+02  0.51100000000E-03 0. -1.
         12    1    3    3    0    0 -0.64753553801E+01  0.12525191777E+02  0.13259887939E+02  0.19355497527E+02  0.00000000000E+00 0. -1.
</event>
<event>
 7    1  0.5634483E-012  0.5930202E+02  0.7816164E-02  0.1266604E+00
        -11   -1    0    0    0    0  0.00000000000E+00  0.00000000000E+00  0.45593999997E+02  0.45594000000E+02  0.51100000000E-03 0.  1.
         11   -1    0    0    0    0 -0.00000000000E+00 -0.00000000000E+00 -0.45593999997E+02  0.45594000000E+02  0.51100000000E-03 0. -1.
    9900012    2    1    2    0    0 -0.82157649355E+01  0.23572770374E+02  0.19837872999E+02  0.59302023432E+02  0.50000144814E+02 0.  0.
         12    1    1    2    0    0  0.82157649355E+01 -0.23572770374E+02 -0.19837872999E+02  0.31885976568E+02  0.00000000000E+00 0. -1.
         11    1    3    3    0    0  0.53825233159E+01  0.15675544597E+02 -0.11504391266E+02  0.20175363053E+02  0.51100000000E-03 0. -1.
        -11    1    3    3    0    0  0.36435942895E+01 -0.11539253963E-01  0.96241850233E+01  0.10290813871E+02  0.51100000000E-03 0.  1.
        -12    1    3    3    0    0 -0.17241882541E+02  0.79087650309E+01  0.21718079242E+02  0.28835846508E+02  0.00000000000E+00 0.  1.
</event>
<event>
 7    1  0.5634483E-012  0.5930194E+02  0.7816164E-02  0.1266605E+00
        -11   -1    0    0    0    0  0.00000000000E+00  0.00000000000E+00  0.45593999997E+02  0.45594000000E+02  0.51100000000E-03 0.  1.
         11   -1    0    0    0    0 -0.00000000000E+00 -0.00000000000E+00 -0.45593999997E+02  0.45594000000E+02  0.51100000000E-03 0. -1.
    9900012    2    1    2    0    0  0.21839071371E+02 -0.20840833828E+02  0.10268168667E+02  0.59301942220E+02  0.49999996704E+02 0.  0.
         12    1    1    2    0    0 -0.21839071371E+02  0.20840833828E+02 -0.10268168667E+02  0.31886057780E+02  0.00000000000E+00 0. -1.
         11    1    3    3    0    0 -0.71111003184E+01 -0.86356435325E+01 -0.13983786041E+02  0.17907773710E+02  0.51100000000E-03 0. -1.
        -11    1    3    3    0    0  0.19101304795E+02 -0.69266704220E+01  0.83694584595E+01  0.21974677317E+02  0.51100000000E-03 0.  1.
        -12    1    3    3    0    0  0.98488668942E+01 -0.52785198730E+01  0.15882496248E+02  0.19419491194E+02  0.00000000000E+00 0.  1.
</event>
<event>
 7    1  0.5634483E-012  0.5930194E+02  0.7816164E-02  0.1266605E+00
        -11   -1    0    0    0    0  0.00000000000E+00  0.00000000000E+00  0.45593999997E+02  0.45594000000E+02  0.51100000000E-03 0. -1.
         11   -1    0    0    0    0 -0.00000000000E+00 -0.00000000000E+00 -0.45593999997E+02  0.45594000000E+02  0.51100000000E-03 0.  1.
    9900012    2    1    2    0    0  0.17530737540E+02  0.89601384529E+00 -0.26619371800E+02  0.59301944199E+02  0.50000000313E+02 0.  0.
         12    1    1    2    0    0 -0.17530737540E+02 -0.89601384529E+00  0.26619371800E+02  0.31886055801E+02  0.00000000000E+00 0. -1.
         11    1    3    3    0    0 -0.75661275921E+01  0.16713142452E+01 -0.67153764554E+01  0.10253577875E+02  0.51100000000E-03 0. -1.
        -11    1    3    3    0    0 -0.48329278985E+01 -0.11918647785E+02 -0.65332823066E+01  0.14425502939E+02  0.51100000000E-03 0.  1.
        -12    1    3    3    0    0  0.29929793031E+02  0.11143347385E+02 -0.13370713038E+02  0.34622863385E+02  0.00000000000E+00 0.  1.
</event>
<event>
 7    1  0.5634483E-012  0.5930182E+02  0.7816164E-02  0.1266605E+00
        -11   -1    0    0    0    0  0.00000000000E+00  0.00000000000E+00  0.45593999997E+02  0.45594000000E+02  0.51100000000E-03 0.  1.
         11   -1    0    0    0    0 -0.00000000000E+00 -0.00000000000E+00 -0.45593999997E+02  0.45594000000E+02  0.51100000000E-03 0. -1.
    9900012    2    1    2    0    0 -0.43969815267E+01  0.96436438553E+01  0.30073159154E+02  0.59301824079E+02  0.49999781242E+02 0.  0.
         12    1    1    2    0    0  0.43969815267E+01 -0.96436438553E+01 -0.30073159154E+02  0.31886175921E+02  0.00000000000E+00 0. -1.
         11    1    3    3    0    0  0.62502849383E+00 -0.51407491297E+01  0.27943128973E+01  0.58843986152E+01  0.51100000000E-03 0. -1.
        -11    1    3    3    0    0  0.23922842789E+01  0.28652022900E+02  0.11001025254E+02  0.30784476562E+02  0.51100000000E-03 0.  1.
         12    1    3    3    0    0 -0.74142942995E+01 -0.13867629915E+02  0.16277821002E+02  0.22632948902E+02  0.00000000000E+00 0. -1.
</event>
<event>
 7    1  0.5634483E-012  0.5930194E+02  0.7816164E-02  0.1266605E+00
        -11   -1    0    0    0    0  0.00000000000E+00  0.00000000000E+00  0.45593999997E+02  0.45594000000E+02  0.51100000000E-03 0.  1.
         11   -1    0    0    0    0 -0.00000000000E+00 -0.00000000000E+00 -0.45593999997E+02  0.45594000000E+02  0.51100000000E-03 0. -1.
    9900012    2    1    2    0    0 -0.20890614036E+02  0.19583149883E+02 -0.14028658027E+02  0.59301940974E+02  0.49999994431E+02 0.  0.
         12    1    1    2    0    0  0.20890614036E+02 -0.19583149883E+02  0.14028658027E+02  0.31886059026E+02  0.00000000000E+00 0. -1.
         11    1    3    3    0    0 -0.55981457088E-02  0.33764974708E+01 -0.79067653931E+01  0.85975406805E+01  0.51100000000E-03 0. -1.
        -11    1    3    3    0    0  0.17647677776E+01  0.18831628089E+02  0.11278941909E+02  0.22021788134E+02  0.51100000000E-03 0.  1.
         12    1    3    3    0    0 -0.22649783668E+02 -0.26249756769E+01 -0.17400834543E+02  0.28682612160E+02  0.00000000000E+00 0. -1.
</event>
<event>
 7    1  0.5634483E-012  0.5930195E+02  0.7816164E-02  0.1266605E+00
        -11   -1    0    0    0    0  0.00000000000E+00  0.00000000000E+00  0.45593999997E+02  0.45594000000E+02  0.51100000000E-03 0.  1.
         11   -1    0    0    0    0 -0.00000000000E+00 -0.00000000000E+00 -0.45593999997E+02  0.45594000000E+02  0.51100000000E-03 0. -1.
    9900012    2    1    2    0    0  0.74297684850E+01  0.28861747725E+02 -0.11336590162E+02  0.59301949477E+02  0.50000009938E+02 0.  0.
         12    1    1    2    0    0 -0.74297684850E+01 -0.28861747725E+02  0.11336590162E+02  0.31886050523E+02  0.00000000000E+00 0. -1.
         11    1    3    3    0    0  0.43323441384E+01  0.50620178989E+01  0.45512512149E+01  0.80688982411E+01  0.51100000000E-03 0. -1.
        -11    1    3    3    0    0 -0.10446395593E+02  0.31232257117E+02 -0.13534402344E+02  0.35605633158E+02  0.51100000000E-03 0.  1.
         12    1    3    3    0    0  0.13543819940E+02 -0.74325272908E+01 -0.23534390326E+01  0.15627418078E+02  0.00000000000E+00 0. -1.
</event>
<event>
 7    1  0.5634483E-012  0.5930204E+02  0.7816164E-02  0.1266604E+00
        -11   -1    0    0    0    0  0.00000000000E+00  0.00000000000E+00  0.45593999997E+02  0.45594000000E+02  0.51100000000E-03 0.  1.
         11   -1    0    0    0    0 -0.00000000000E+00 -0.00000000000E+00 -0.45593999997E+02  0.45594000000E+02  0.51100000000E-03 0. -1.
    9900012    2    1    2    0    0  0.14126819322E+02  0.17037901529E+02  0.22953374986E+02  0.59302038576E+02  0.50000172434E+02 0.  0.
         12    1    1    2    0    0 -0.14126819322E+02 -0.17037901529E+02 -0.22953374986E+02  0.31885961424E+02  0.00000000000E+00 0. -1.
         11    1    3    3    0    0  0.26729184848E+00 -0.34674301745E+01 -0.52471412006E+01  0.62949986487E+01  0.51100000000E-03 0. -1.
        -11    1    3    3    0    0 -0.11404421007E+02  0.12945588901E+02  0.17421069642E+02  0.24518212786E+02  0.51100000000E-03 0.  1.
         12    1    3    3    0    0  0.25263948481E+02  0.75597428019E+01  0.10779446545E+02  0.28488827141E+02  0.00000000000E+00 0. -1.
</event>
<event>
 7    1  0.5634483E-012  0.5930194E+02  0.7816164E-02  0.1266605E+00
        -11   -1    0    0    0    0  0.00000000000E+00  0.00000000000E+00  0.45593999997E+02  0.45594000000E+02  0.51100000000E-03 0. -1.
         11   -1    0    0    0    0 -0.00000000000E+00 -0.00000000000E+00 -0.45593999997E+02  0.45594000000E+02  0.51100000000E-03 0.  1.
    9900012    2    1    2    0    0  0.88836687957E+01  0.29206028339E+02  0.92091855516E+01  0.59301940959E+02  0.49999994404E+02 0.  0.
         12    1    1    2    0    0 -0.88836687957E+01 -0.29206028339E+02 -0.92091855516E+01  0.31886059041E+02  0.00000000000E+00 0. -1.
         11    1    3    3    0    0  0.16242507928E+02 -0.10581378667E+01  0.18213211038E+02  0.24426620235E+02  0.51100000000E-03 0. -1.
        -11    1    3    3    0    0  0.29519563079E+01  0.27748839621E+01 -0.26353678599E+01  0.48331347038E+01  0.51100000000E-03 0.  1.
        -12    1    3    3    0    0 -0.10310795440E+02  0.27489282244E+02 -0.63686576269E+01  0.30042186020E+02  0.00000000000E+00 0.  1.
</event>
<event>
 7    1  0.5634483E-012  0.5930190E+02  0.7816164E-02  0.1266605E+00
        -11   -1    0    0    0    0  0.00000000000E+00  0.00000000000E+00  0.45593999997E+02  0.45594000000E+02  0.51100000000E-03 0. -1.
         11   -1    0    0    0    0 -0.00000000000E+00 -0.00000000000E+00 -0.45593999997E+02  0.45594000000E+02  0.51100000000E-03 0.  1.
    9900012    2    1    2    0    0  0.21271084492E+02 -0.85725257722E+01 -0.22153463186E+02  0.59301903269E+02  0.49999925665E+02 0.  0.
         12    1    1    2    0    0 -0.21271084492E+02  0.85725257722E+01  0.22153463186E+02  0.31886096731E+02  0.00000000000E+00 0. -1.
         11    1    3    3    0    0  0.34251453666E+01 -0.16654862208E+01 -0.16514064248E+01  0.41512177219E+01  0.51100000000E-03 0. -1.
        -11    1    3    3    0    0 -0.36243701681E+01 -0.83356180223E+01 -0.30207489506E+02  0.31545380160E+02  0.51100000000E-03 0.  1.
         12    1    3    3    0    0  0.21470309294E+02  0.14285784709E+01  0.97054327447E+01  0.23605305386E+02  0.00000000000E+00 0. -1.
</event>
<event>
 7    1  0.5634483E-012  0.5930195E+02  0.7816164E-02  0.1266605E+00
        -11   -1    0    0    0    0  0.00000000000E+00  0.00000000000E+00  0.45593999997E+02  0.45594000000E+02  0.51100000000E-03 0.  1.
         11   -1    0    0    0    0 -0.00000000000E+00 -0.00000000000E+00 -0.45593999997E+02  0.45594000000E+02  0.51100000000E-03 0. -1.
    9900012    2    1    2    0    0  0.75734638352E+00  0.12050175948E+02  0.29511693333E+02  0.59301947292E+02  0.50000005953E+02 0.  0.
         12    1    1    2    0    0 -0.75734638352E+00 -0.12050175948E+02 -0.29511693333E+02  0.31886052708E+02  0.00000000000E+00 0. -1.
         11    1    3    3    0    0  0.10229283644E+02  0.14931453154E+00  0.53323179459E+01  0.11536643951E+02  0.51100000000E-03 0. -1.
        -11    1    3    3    0    0  0.86706463618E+01  0.15208938547E+01 -0.62873722654E+01  0.10817775960E+02  0.51100000000E-03 0.  1.
        -12    1    3    3    0    0 -0.18142583623E+02  0.10379967562E+02  0.30466747653E+02  0.36947527382E+02  0.00000000000E+00 0.  1.
</event>
<event>
 7    1  0.5634483E-012  0.5930198E+02  0.7816164E-02  0.1266605E+00
        -11   -1    0    0    0    0  0.00000000000E+00  0.00000000000E+00  0.45593999997E+02  0.45594000000E+02  0.51100000000E-03 0.  1.
         11   -1    0    0    0    0 -0.00000000000E+00 -0.00000000000E+00 -0.45593999997E+02  0.45594000000E+02  0.51100000000E-03 0. -1.
    9900012    2    1    2    0    0  0.41560770678E+01 -0.29929160362E+02  0.10182870955E+02  0.59301976770E+02  0.50000059713E+02 0.  0.
         12    1    1    2    0    0 -0.41560770678E+01  0.29929160362E+02 -0.10182870955E+02  0.31886023230E+02  0.00000000000E+00 0. -1.
         11    1    3    3    0    0  0.12304614831E+02  0.54525270381E+01 -0.27926641922E+01  0.13745274490E+02  0.51100000000E-03 0. -1.
        -11    1    3    3    0    0 -0.20471968464E+01 -0.49778984850E+01 -0.68795812510E+01  0.87349371323E+01  0.51100000000E-03 0.  1.
        -12    1    3    3    0    0 -0.61013409173E+01 -0.30403788915E+02  0.19855116399E+02  0.36821765147E+02  0.00000000000E+00 0.  1.
</event>
<event>
 7    1  0.5634483E-012  0.5930201E+02  0.7816164E-02  0.1266605E+00
        -11   -1    0    0    0    0  0.00000000000E+00  0.00000000000E+00  0.45593999997E+02  0.45594000000E+02  0.51100000000E-03 0.  1.
         11   -1    0    0    0    0 -0.00000000000E+00 -0.00000000000E+00 -0.45593999997E+02  0.45594000000E+02  0.51100000000E-03 0. -1.
    9900012    2    1    2    0    0  0.26367441550E+02 -0.17013576420E+02  0.56579849324E+01  0.59302006994E+02  0.50000114835E+02 0.  0.
         12    1    1    2    0    0 -0.26367441550E+02  0.17013576420E+02 -0.56579849324E+01  0.31885993006E+02  0.00000000000E+00 0. -1.
         11    1    3    3    0    0  0.48268185442E+01 -0.15987059440E+02 -0.12011885938E+01  0.16742971692E+02  0.51100000000E-03 0. -1.
        -11    1    3    3    0    0  0.19199531773E+02 -0.17790959566E+01  0.20823603826E+02  0.28379740648E+02  0.51100000000E-03 0.  1.
         12    1    3    3    0    0  0.23410912333E+01  0.75257897680E+00 -0.13964430299E+02  0.14179294653E+02  0.00000000000E+00 0. -1.
</event>
<event>
 7    1  0.5634483E-012  0.5930199E+02  0.7816164E-02  0.1266605E+00
        -11   -1    0    0    0    0  0.00000000000E+00  0.00000000000E+00  0.45593999997E+02  0.45594000000E+02  0.51100000000E-03 0. -1.
         11   -1    0    0    0    0 -0.00000000000E+00 -0.00000000000E+00 -0.45593999997E+02  0.45594000000E+02  0.51100000000E-03 0.  1.
    9900012    2    1    2    0    0 -0.31323365234E+02 -0.44787314299E+01 -0.39376620590E+01  0.59301993237E+02  0.50000089745E+02 0.  0.
         12    1    1    2    0    0  0.31323365234E+02  0.44787314299E+01  0.39376620590E+01  0.31886006763E+02  0.00000000000E+00 0. -1.
         11    1    3    3    0    0 -0.94867737566E+01  0.14107355119E+02 -0.96057952851E+01  0.19526588234E+02  0.51100000000E-03 0. -1.
        -11    1    3    3    0    0  0.29732272039E+01 -0.13593393395E+02  0.37059413948E+00  0.13919689806E+02  0.51100000000E-03 0.  1.
         12    1    3    3    0    0 -0.24809818682E+02 -0.49926931533E+01  0.52975390866E+01  0.25855715196E+02  0.00000000000E+00 0. -1.
</event>
<event>
 7    1  0.5634483E-012  0.5930200E+02  0.7816164E-02  0.1266605E+00
        -11   -1    0    0    0    0  0.00000000000E+00  0.00000000000E+00  0.45593999997E+02  0.45594000000E+02  0.51100000000E-03 0.  1.
         11   -1    0    0    0    0 -0.00000000000E+00 -0.00000000000E+00 -0.45593999997E+02  0.45594000000E+02  0.51100000000E-03 0. -1.
    9900012    2    1    2    0    0 -0.20242239641E+02  0.20394333522E+02  0.13821722138E+02  0.59301998238E+02  0.50000098866E+02 0.  0.
         12    1    1    2    0    0  0.20242239641E+02 -0.20394333522E+02 -0.13821722138E+02  0.31886001762E+02  0.00000000000E+00 0. -1.
         11    1    3    3    0    0  0.85485389717E+01 -0.49084003344E+01 -0.55606214462E+01  0.11317703986E+02  0.51100000000E-03 0. -1.
        -11    1    3    3    0    0 -0.25528237068E+01  0.10077359843E+02 -0.23619464367E+01  0.10660622942E+02  0.51100000000E-03 0.  1.
         12    1    3    3    0    0 -0.26237954906E+02  0.15225374014E+02  0.21744290021E+02  0.37323671309E+02  0.00000000000E+00 0. -1.
</event>
<event>
 7    1  0.5634483E-012  0.5930190E+02  0.7816164E-02  0.1266605E+00
        -11   -1    0    0    0    0  0.00000000000E+00  0.00000000000E+00  0.45593999997E+02  0.45594000000E+02  0.51100000000E-03 0.  1.
         11   -1    0    0    0    0 -0.00000000000E+00 -0.00000000000E+00 -0.45593999997E+02  0.45594000000E+02  0.51100000000E-03 0. -1.
    9900012    2    1    2    0    0  0.11923903960E+02 -0.14530571057E+02  0.25756680417E+02  0.59301896961E+02  0.49999914162E+02 0.  0.
         12    1    1    2    0    0 -0.11923903960E+02  0.14530571057E+02 -0.25756680417E+02  0.31886103039E+02  0.00000000000E+00 0. -1.
         11    1    3    3    0    0  0.64327568018E+01  0.60037759620E+01  0.12409179757E+02  0.15212278868E+02  0.51100000000E-03 0. -1.
        -11    1    3    3    0    0  0.25241159295E+01 -0.20224965163E+01  0.22845178633E+02  0.23073011083E+02  0.51100000000E-03 0.  1.
         12    1    3    3    0    0  0.29670312291E+01 -0.18511850503E+02 -0.94976779731E+01  0.21016607010E+02  0.00000000000E+00 0. -1.
</event>
<event>
 7    1  0.5634483E-012  0.5930194E+02  0.7816164E-02  0.1266605E+00
        -11   -1    0    0    0    0  0.00000000000E+00  0.00000000000E+00  0.45593999997E+02  0.45594000000E+02  0.51100000000E-03 0.  1.
         11   -1    0    0    0    0 -0.00000000000E+00 -0.00000000000E+00 -0.45593999997E+02  0.45594000000E+02  0.51100000000E-03 0. -1.
    9900012    2    1    2    0    0  0.34829555497E+01  0.16923538691E+01  0.31650052257E+02  0.59301939584E+02  0.49999991895E+02 0.  0.
         12    1    1    2    0    0 -0.34829555497E+01 -0.16923538691E+01 -0.31650052257E+02  0.31886060416E+02  0.00000000000E+00 0. -1.
         11    1    3    3    0    0  0.78640182724E+01 -0.11673134592E+02 -0.74436556863E+00  0.14094642066E+02  0.51100000000E-03 0. -1.
        -11    1    3    3    0    0  0.90663032436E+01  0.12322969012E+02  0.26256953072E+02  0.30388830262E+02  0.51100000000E-03 0.  1.
         12    1    3    3    0    0 -0.13447365966E+02  0.10425194493E+01  0.61374647537E+01  0.14818467257E+02  0.00000000000E+00 0. -1.
</event>
<event>
 7    1  0.5634483E-012  0.5930196E+02  0.7816164E-02  0.1266605E+00
        -11   -1    0    0    0    0  0.00000000000E+00  0.00000000000E+00  0.45593999997E+02  0.45594000000E+02  0.51100000000E-03 0. -1.
         11   -1    0    0    0    0 -0.00000000000E+00 -0.00000000000E+00 -0.45593999997E+02  0.45594000000E+02  0.51100000000E-03 0.  1.
    9900012    2    1    2    0    0  0.30238568867E+02 -0.10046020672E+02  0.11941243748E+01  0.59301960555E+02  0.50000030143E+02 0.  0.
         12    1    1    2    0    0 -0.30238568867E+02  0.10046020672E+02 -0.11941243748E+01  0.31886039445E+02  0.00000000000E+00 0. -1.
         11    1    3    3    0    0 -0.22000551799E+01  0.99015546708E+01 -0.44361981049E+01  0.11070721818E+02  0.51100000000E-03 0. -1.
        -11    1    3    3    0    0  0.56207351010E+01  0.64498933468E-01  0.12826851026E+02  0.14004461100E+02  0.51100000000E-03 0.  1.
        -12    1    3    3    0    0  0.26817888945E+02 -0.20012074276E+02 -0.71965285462E+01  0.34226777637E+02  0.00000000000E+00 0.  1.
</event>
<event>
 7    1  0.5634483E-012  0.5930195E+02  0.7816164E-02  0.1266605E+00
        -11   -1    0    0    0    0  0.00000000000E+00  0.00000000000E+00  0.45593999997E+02  0.45594000000E+02  0.51100000000E-03 0.  1.
         11   -1    0    0    0    0 -0.00000000000E+00 -0.00000000000E+00 -0.45593999997E+02  0.45594000000E+02  0.51100000000E-03 0. -1.
    9900012    2    1    2    0    0 -0.15034323490E+02 -0.20364868981E+02  0.19389722449E+02  0.59301951200E+02  0.50000013080E+02 0.  0.
         12    1    1    2    0    0  0.15034323490E+02  0.20364868981E+02 -0.19389722449E+02  0.31886048800E+02  0.00000000000E+00 0. -1.
         11    1    3    3    0    0  0.68853226104E+01  0.30358371171E+01 -0.34415955668E+01  0.82745727840E+01  0.51100000000E-03 0. -1.
        -11    1    3    3    0    0 -0.10368227670E+02  0.72601357439E+01  0.86176051596E+01  0.15312505836E+02  0.51100000000E-03 0.  1.
        -12    1    3    3    0    0 -0.11551418431E+02 -0.30660841842E+02  0.14213712856E+02  0.35714872580E+02  0.00000000000E+00 0.  1.
</event>
<event>
 7    1  0.5634483E-012  0.5930195E+02  0.7816164E-02  0.1266605E+00
        -11   -1    0    0    0    0  0.00000000000E+00  0.00000000000E+00  0.45593999997E+02  0.45594000000E+02  0.51100000000E-03 0. -1.
         11   -1    0    0    0    0 -0.00000000000E+00 -0.00000000000E+00 -0.45593999997E+02  0.45594000000E+02  0.51100000000E-03 0.  1.
    9900012    2    1    2    0    0 -0.19038117612E+02 -0.16942721408E+02 -0.19162847668E+02  0.59301945656E+02  0.50000002969E+02 0.  0.
         12    1    1    2    0    0  0.19038117612E+02  0.16942721408E+02  0.19162847668E+02  0.31886054344E+02  0.00000000000E+00 0. -1.
         11    1    3    3    0    0  0.38112491870E+01 -0.11429235801E+02 -0.10970810313E+02  0.16294530695E+02  0.51100000000E-03 0. -1.
        -11    1    3    3    0    0 -0.12862031250E+02 -0.13581052567E+02 -0.18675692887E+02  0.26432145993E+02  0.51100000000E-03 0.  1.
        -12    1    3    3    0    0 -0.99873355494E+01  0.80675669609E+01  0.10483655533E+02  0.16575268968E+02  0.00000000000E+00 0.  1.
</event>
<event>
 7    1  0.5634483E-012  0.5930234E+02  0.7816164E-02  0.1266603E+00
        -11   -1    0    0    0    0  0.00000000000E+00  0.00000000000E+00  0.45593999997E+02  0.45594000000E+02  0.51100000000E-03 0.  1.
         11   -1    0    0    0    0 -0.00000000000E+00 -0.00000000000E+00 -0.45593999997E+02  0.45594000000E+02  0.51100000000E-03 0. -1.
    9900012    2    1    2    0    0  0.27914065963E+02  0.87664370242E+01  0.12674759024E+02  0.59302344714E+02  0.50000730750E+02 0.  0.
         12    1    1    2    0    0 -0.27914065963E+02 -0.87664370242E+01 -0.12674759024E+02  0.31885655286E+02  0.00000000000E+00 0. -1.
         11    1    3    3    0    0 -0.77504446511E+01 -0.14173982889E+00  0.27121348595E+01  0.82125001203E+01  0.51100000000E-03 0. -1.
        -11    1    3    3    0    0  0.56184806540E+01  0.51215458605E+01  0.18184629594E+02  0.19709853135E+02  0.51100000000E-03 0.  1.
         12    1    3    3    0    0  0.30046029960E+02  0.37866309926E+01 -0.82220054295E+01  0.31379991458E+02  0.00000000000E+00 0. -1.
</event>
<event>
 7    1  0.5634483E-012  0.5930194E+02  0.7816164E-02  0.1266605E+00
        -11   -1    0    0    0    0  0.00000000000E+00  0.00000000000E+00  0.45593999997E+02  0.45594000000E+02  0.51100000000E-03 0. -1.
         11   -1    0    0    0    0 -0.00000000000E+00 -0.00000000000E+00 -0.45593999997E+02  0.45594000000E+02  0.51100000000E-03 0.  1.
    9900012    2    1    2    0    0 -0.28352065167E+02  0.11617164219E+02  0.88273676690E+01  0.59301944683E+02  0.50000001196E+02 0.  0.
         12    1    1    2    0    0  0.28352065167E+02 -0.11617164219E+02 -0.88273676690E+01  0.31886055317E+02  0.00000000000E+00 0. -1.
         11    1    3    3    0    0 -0.76098154632E+01  0.13499648192E+02  0.17825300869E+02  0.23619719389E+02  0.51100000000E-03 0. -1.
        -11    1    3    3    0    0 -0.21060769221E+02  0.30724214501E+01  0.40998052880E+01  0.21674966607E+02  0.51100000000E-03 0.  1.
        -12    1    3    3    0    0  0.31851951794E+00 -0.49549054233E+01 -0.13097738488E+02  0.14007258687E+02  0.00000000000E+00 0.  1.
</event>
<event>
 7    1  0.5634483E-012  0.5930166E+02  0.7816164E-02  0.1266606E+00
        -11   -1    0    0    0    0  0.00000000000E+00  0.00000000000E+00  0.45593999997E+02  0.45594000000E+02  0.51100000000E-03 0. -1.
         11   -1    0    0    0    0 -0.00000000000E+00 -0.00000000000E+00 -0.45593999997E+02  0.45594000000E+02  0.51100000000E-03 0.  1.
    9900012    2    1    2    0    0  0.21384570760E+01  0.79601858563E+01 -0.30802615828E+02  0.59301659674E+02  0.49999481405E+02 0.  0.
         12    1    1    2    0    0 -0.21384570760E+01 -0.79601858563E+01  0.30802615828E+02  0.31886340326E+02  0.00000000000E+00 0. -1.
         11    1    3    3    0    0  0.15508008204E+02 -0.65021787535E+01 -0.10290285435E+02  0.19714629633E+02  0.51100000000E-03 0. -1.
        -11    1    3    3    0    0  0.82571358468E+01  0.72499333087E+01 -0.78980928409E+01  0.13532246530E+02  0.51100000000E-03 0.  1.
        -12    1    3    3    0    0 -0.21626686974E+02  0.72124313011E+01 -0.12614237552E+02  0.26054783511E+02  0.00000000000E+00 0.  1.
</event>
<event>
 7    1  0.5634483E-012  0.5930198E+02  0.7816164E-02  0.1266605E+00
        -11   -1    0    0    0    0  0.00000000000E+00  0.00000000000E+00  0.45593999997E+02  0.45594000000E+02  0.51100000000E-03 0.  1.
         11   -1    0    0    0    0 -0.00000000000E+00 -0.00000000000E+00 -0.45593999997E+02  0.45594000000E+02  0.51100000000E-03 0. -1.
    9900012    2    1    2    0    0  0.73657194184E+01  0.29502143389E+02  0.95962605620E+01  0.59301976355E+02  0.50000058958E+02 0.  0.
         12    1    1    2    0    0 -0.73657194184E+01 -0.29502143389E+02 -0.95962605620E+01  0.31886023645E+02  0.00000000000E+00 0. -1.
         11    1    3    3    0    0 -0.32442210291E+01 -0.54257302348E+01  0.10931569645E+02  0.12627855473E+02  0.51100000000E-03 0. -1.
        -11    1    3    3    0    0 -0.20905061435E+01 -0.32055969840E+01 -0.50203935524E+01  0.63127188787E+01  0.51100000000E-03 0.  1.
        -12    1    3    3    0    0  0.12700446591E+02  0.38133470608E+02  0.36850844690E+01  0.40361402004E+02  0.00000000000E+00 0.  1.
</event>
<event>
 7    1  0.5634483E-012  0.5930194E+02  0.7816164E-02  0.1266605E+00
        -11   -1    0    0    0    0  0.00000000000E+00  0.00000000000E+00  0.45593999997E+02  0.45594000000E+02  0.51100000000E-03 0. -1.
         11   -1    0    0    0    0 -0.00000000000E+00 -0.00000000000E+00 -0.45593999997E+02  0.45594000000E+02  0.51100000000E-03 0.  1.
    9900012    2    1    2    0    0 -0.32301502523E+00 -0.50827705100E+01 -0.31476688391E+02  0.59301940243E+02  0.49999993097E+02 0.  0.
         12    1    1    2    0    0  0.32301502523E+00  0.50827705100E+01  0.31476688391E+02  0.31886059757E+02  0.00000000000E+00 0. -1.
         11    1    3    3    0    0 -0.12234663845E+02  0.54311789744E+01  0.42456390224E+01  0.14043153329E+02  0.51100000000E-03 0. -1.
        -11    1    3    3    0    0  0.55968219545E+01  0.26756062121E+01  0.47257776109E+00  0.62214640234E+01  0.51100000000E-03 0.  1.
        -12    1    3    3    0    0  0.63148268652E+01 -0.13189555697E+02 -0.36194905175E+02  0.39037322890E+02  0.00000000000E+00 0.  1.
</event>
<event>
 7    1  0.5634483E-012  0.5930191E+02  0.7816164E-02  0.1266605E+00
        -11   -1    0    0    0    0  0.00000000000E+00  0.00000000000E+00  0.45593999997E+02  0.45594000000E+02  0.51100000000E-03 0.  1.
         11   -1    0    0    0    0 -0.00000000000E+00 -0.00000000000E+00 -0.45593999997E+02  0.45594000000E+02  0.51100000000E-03 0. -1.
    9900012    2    1    2    0    0 -0.55223342107E+01  0.11426939468E+02  0.29251527541E+02  0.59301906100E+02  0.49999930828E+02 0.  0.
         12    1    1    2    0    0  0.55223342107E+01 -0.11426939468E+02 -0.29251527541E+02  0.31886093900E+02  0.00000000000E+00 0. -1.
         11    1    3    3    0    0 -0.21837439532E+00  0.38236120502E+01  0.95690757480E-01  0.38310381712E+01  0.51100000000E-03 0. -1.
        -11    1    3    3    0    0 -0.22334739233E+02  0.15756526553E+02  0.22654357732E+02  0.35501107450E+02  0.51100000000E-03 0.  1.
         12    1    3    3    0    0  0.17030779418E+02 -0.81531991354E+01  0.65014790512E+01  0.19969760479E+02  0.00000000000E+00 0. -1.
</event>
<event>
 7    1  0.5634483E-012  0.5930193E+02  0.7816164E-02  0.1266605E+00
        -11   -1    0    0    0    0  0.00000000000E+00  0.00000000000E+00  0.45593999997E+02  0.45594000000E+02  0.51100000000E-03 0.  1.
         11   -1    0    0    0    0 -0.00000000000E+00 -0.00000000000E+00 -0.45593999997E+02  0.45594000000E+02  0.51100000000E-03 0. -1.
    9900012    2    1    2    0    0  0.40174759470E+01  0.31617961620E+02  0.94115227989E+00  0.59301931292E+02  0.49999976774E+02 0.  0.
         12    1    1    2    0    0 -0.40174759470E+01 -0.31617961620E+02 -0.94115227989E+00  0.31886068708E+02  0.00000000000E+00 0. -1.
         11    1    3    3    0    0  0.90649546400E+01 -0.49678405203E+01 -0.98009732920E+00  0.10383324761E+02  0.51100000000E-03 0. -1.
        -11    1    3    3    0    0 -0.43528885711E+01  0.16536113814E+02 -0.14944247455E+02  0.22709496499E+02  0.51100000000E-03 0.  1.
        -12    1    3    3    0    0 -0.69459012186E+00  0.20049688327E+02  0.16865497065E+02  0.26209110032E+02  0.00000000000E+00 0.  1.
</event>
<event>
 7    1  0.5634483E-012  0.5930193E+02  0.7816164E-02  0.1266605E+00
        -11   -1    0    0    0    0  0.00000000000E+00  0.00000000000E+00  0.45593999997E+02  0.45594000000E+02  0.51100000000E-03 0.  1.
         11   -1    0    0    0    0 -0.00000000000E+00 -0.00000000000E+00 -0.45593999997E+02  0.45594000000E+02  0.51100000000E-03 0. -1.
    9900012    2    1    2    0    0  0.22282427738E+02 -0.39919583801E+00  0.22804723686E+02  0.59301931481E+02  0.49999977117E+02 0.  0.
         12    1    1    2    0    0 -0.22282427738E+02  0.39919583801E+00 -0.22804723686E+02  0.31886068519E+02  0.00000000000E+00 0. -1.
         11    1    3    3    0    0  0.11255731704E+02 -0.63256746368E+01  0.92354381316E+01  0.15874475536E+02  0.51100000000E-03 0.  1.
        -11    1    3    3    0    0  0.25602232416E+02  0.50543432376E+01  0.52401036101E+01  0.26617275901E+02  0.51100000000E-03 0. -1.
         12    1    3    3    0    0 -0.14575536382E+02  0.87213556116E+00  0.83291819441E+01  0.16810180044E+02  0.00000000000E+00 0. -1.
</event>
<event>
 7    1  0.5634483E-012  0.5930193E+02  0.7816164E-02  0.1266605E+00
        -11   -1    0    0    0    0  0.00000000000E+00  0.00000000000E+00  0.45593999997E+02  0.45594000000E+02  0.51100000000E-03 0. -1.
         11   -1    0    0    0    0 -0.00000000000E+00 -0.00000000000E+00 -0.45593999997E+02  0.45594000000E+02  0.51100000000E-03 0.  1.
    9900012    2    1    2    0    0 -0.92983767172E+01  0.28193233874E+02  0.11636284692E+02  0.59301931455E+02  0.49999977070E+02 0.  0.
         12    1    1    2    0    0  0.92983767172E+01 -0.28193233874E+02 -0.11636284692E+02  0.31886068545E+02  0.00000000000E+00 0. -1.
         11    1    3    3    0    0 -0.18238994836E+02  0.26614754551E+02  0.16988573219E+01  0.32309320774E+02  0.51100000000E-03 0. -1.
        -11    1    3    3    0    0 -0.23882137839E+01  0.79002676249E+00 -0.65250733369E+01  0.69931602067E+01  0.51100000000E-03 0.  1.
         12    1    3    3    0    0  0.11328831902E+02  0.78845256020E+00  0.16462500707E+02  0.19999450474E+02  0.00000000000E+00 0. -1.
</event>
<event>
 7    1  0.5634483E-012  0.5930191E+02  0.7816164E-02  0.1266605E+00
        -11   -1    0    0    0    0  0.00000000000E+00  0.00000000000E+00  0.45593999997E+02  0.45594000000E+02  0.51100000000E-03 0.  1.
         11   -1    0    0    0    0 -0.00000000000E+00 -0.00000000000E+00 -0.45593999997E+02  0.45594000000E+02  0.51100000000E-03 0. -1.
    9900012    2    1    2    0    0 -0.28338134031E+02  0.90202685791E+01 -0.11502509029E+02  0.59301908995E+02  0.49999936109E+02 0.  0.
         12    1    1    2    0    0  0.28338134031E+02 -0.90202685791E+01  0.11502509029E+02  0.31886091005E+02  0.00000000000E+00 0. -1.
         11    1    3    3    0    0 -0.36030940412E+02  0.98836663814E+01 -0.48648829600E+01  0.37677348826E+02  0.51100000000E-03 0. -1.
        -11    1    3    3    0    0 -0.18001832775E+01  0.40031226234E+01  0.44415525897E+01  0.62444407467E+01  0.51100000000E-03 0.  1.
         12    1    3    3    0    0  0.94929896580E+01 -0.48665204257E+01 -0.11079178659E+02  0.15380119423E+02  0.00000000000E+00 0. -1.
</event>
<event>
 7    1  0.5634483E-012  0.5930191E+02  0.7816164E-02  0.1266605E+00
        -11   -1    0    0    0    0  0.00000000000E+00  0.00000000000E+00  0.45593999997E+02  0.45594000000E+02  0.51100000000E-03 0. -1.
         11   -1    0    0    0    0 -0.00000000000E+00 -0.00000000000E+00 -0.45593999997E+02  0.45594000000E+02  0.51100000000E-03 0.  1.
    9900012    2    1    2    0    0 -0.84733436684E+01  0.30715433124E+02 -0.12196437120E+01  0.59301907174E+02  0.49999932787E+02 0.  0.
         12    1    1    2    0    0  0.84733436684E+01 -0.30715433124E+02  0.12196437120E+01  0.31886092826E+02  0.00000000000E+00 0. -1.
         11    1    3    3    0    0 -0.17098728957E+02 -0.10484729263E+01 -0.42926777713E+00  0.17136221827E+02  0.51100000000E-03 0. -1.
        -11    1    3    3    0    0 -0.80141517608E+01  0.17445831293E+02 -0.49427910016E+01  0.19824601915E+02  0.51100000000E-03 0.  1.
        -12    1    3    3    0    0  0.16639537050E+02  0.14318074758E+02  0.41524150668E+01  0.22341083431E+02  0.00000000000E+00 0.  1.
</event>
<event>
 7    1  0.5634483E-012  0.5930195E+02  0.7816164E-02  0.1266605E+00
        -11   -1    0    0    0    0  0.00000000000E+00  0.00000000000E+00  0.45593999997E+02  0.45594000000E+02  0.51100000000E-03 0.  1.
         11   -1    0    0    0    0 -0.00000000000E+00 -0.00000000000E+00 -0.45593999997E+02  0.45594000000E+02  0.51100000000E-03 0. -1.
    9900012    2    1    2    0    0  0.19344650059E+02  0.20595846155E+02  0.14775519917E+02  0.59301947351E+02  0.50000006061E+02 0.  0.
         12    1    1    2    0    0 -0.19344650059E+02 -0.20595846155E+02 -0.14775519917E+02  0.31886052649E+02  0.00000000000E+00 0. -1.
         11    1    3    3    0    0  0.18169698924E+02  0.73712344689E+01 -0.12435405861E+02  0.23218793590E+02  0.51100000000E-03 0. -1.
        -11    1    3    3    0    0  0.81074747836E+01  0.14482416431E+02  0.17960717238E+02  0.24455242730E+02  0.51100000000E-03 0.  1.
        -12    1    3    3    0    0 -0.69325236485E+01 -0.12578047450E+01  0.92502085400E+01  0.11627911031E+02  0.00000000000E+00 0.  1.
</event>
<event>
 7    1  0.5634483E-012  0.5930194E+02  0.7816164E-02  0.1266605E+00
        -11   -1    0    0    0    0  0.00000000000E+00  0.00000000000E+00  0.45593999997E+02  0.45594000000E+02  0.51100000000E-03 0.  1.
         11   -1    0    0    0    0 -0.00000000000E+00 -0.00000000000E+00 -0.45593999997E+02  0.45594000000E+02  0.51100000000E-03 0. -1.
    9900012    2    1    2    0    0  0.49963048350E+01 -0.19655136050E+02  0.24605559515E+02  0.59301937305E+02  0.49999987740E+02 0.  0.
         12    1    1    2    0    0 -0.49963048350E+01  0.19655136050E+02 -0.24605559515E+02  0.31886062695E+02  0.00000000000E+00 0. -1.
         11    1    3    3    0    0  0.72190982638E+01 -0.10836028843E+02 -0.42071737489E+01  0.13683391832E+02  0.51100000000E-03 0. -1.
        -11    1    3    3    0    0  0.75925182302E+01 -0.19355646406E+02  0.14759912275E+02  0.25497889942E+02  0.51100000000E-03 0.  1.
         12    1    3    3    0    0 -0.98153116590E+01  0.10536539199E+02  0.14052820989E+02  0.20120655531E+02  0.00000000000E+00 0. -1.
</event>
<event>
 7    1  0.5634483E-012  0.5930199E+02  0.7816164E-02  0.1266605E+00
        -11   -1    0    0    0    0  0.00000000000E+00  0.00000000000E+00  0.45593999997E+02  0.45594000000E+02  0.51100000000E-03 0.  1.
         11   -1    0    0    0    0 -0.00000000000E+00 -0.00000000000E+00 -0.45593999997E+02  0.45594000000E+02  0.51100000000E-03 0. -1.
    9900012    2    1    2    0    0  0.13728923790E+02  0.15144635339E+01  0.28739183917E+02  0.59301989895E+02  0.50000083651E+02 0.  0.
         12    1    1    2    0    0 -0.13728923790E+02 -0.15144635339E+01 -0.28739183917E+02  0.31886010105E+02  0.00000000000E+00 0. -1.
         11    1    3    3    0    0 -0.10667135124E+01  0.12120016149E+02  0.23935033830E+02  0.26849925770E+02  0.51100000000E-03 0. -1.
        -11    1    3    3    0    0  0.10592681478E+02  0.75983957174E+01  0.44207052230E+01  0.13765287985E+02  0.51100000000E-03 0.  1.
         12    1    3    3    0    0  0.42029558240E+01 -0.18203948332E+02  0.38344486378E+00  0.18686776140E+02  0.00000000000E+00 0. -1.
</event>
<event>
 7    1  0.5634483E-012  0.5930196E+02  0.7816164E-02  0.1266605E+00
        -11   -1    0    0    0    0  0.00000000000E+00  0.00000000000E+00  0.45593999997E+02  0.45594000000E+02  0.51100000000E-03 0.  1.
         11   -1    0    0    0    0 -0.00000000000E+00 -0.00000000000E+00 -0.45593999997E+02  0.45594000000E+02  0.51100000000E-03 0. -1.
    9900012    2    1    2    0    0 -0.43137071524E+01  0.31338250939E+02  0.40031881353E+01  0.59301959848E+02  0.50000028852E+02 0.  0.
         12    1    1    2    0    0  0.43137071524E+01 -0.31338250939E+02 -0.40031881353E+01  0.31886040152E+02  0.00000000000E+00 0. -1.
         11    1    3    3    0    0 -0.88219367413E+01  0.76938040207E+01  0.33408444444E+01  0.12173020580E+02  0.51100000000E-03 0. -1.
        -11    1    3    3    0    0 -0.15171580114E+02  0.14026252169E+02 -0.97836979230E+01  0.22861175350E+02  0.51100000000E-03 0.  1.
        -12    1    3    3    0    0  0.19679809703E+02  0.96181947494E+01  0.10446041614E+02  0.24267763918E+02  0.00000000000E+00 0.  1.
</event>
<event>
 7    1  0.5634483E-012  0.5930192E+02  0.7816164E-02  0.1266605E+00
        -11   -1    0    0    0    0  0.00000000000E+00  0.00000000000E+00  0.45593999997E+02  0.45594000000E+02  0.51100000000E-03 0.  1.
         11   -1    0    0    0    0 -0.00000000000E+00 -0.00000000000E+00 -0.45593999997E+02  0.45594000000E+02  0.51100000000E-03 0. -1.
    9900012    2    1    2    0    0  0.23027455931E+02  0.76887795746E+01  0.20672235093E+02  0.59301915861E+02  0.49999948631E+02 0.  0.
         12    1    1    2    0    0 -0.23027455931E+02 -0.76887795746E+01 -0.20672235093E+02  0.31886084139E+02  0.00000000000E+00 0. -1.
         11    1    3    3    0    0 -0.80667939282E+01  0.14858346204E+01  0.53338052483E+01  0.97841886474E+01  0.51100000000E-03 0. -1.
        -11    1    3    3    0    0  0.14160129001E+01  0.19375881653E+01  0.19144151899E+02  0.19293985919E+02  0.51100000000E-03 0.  1.
         12    1    3    3    0    0  0.29678236959E+02  0.42653567889E+01 -0.38057220543E+01  0.30223741295E+02  0.00000000000E+00 0. -1.
</event>
<event>
 7    1  0.5634483E-012  0.5930197E+02  0.7816164E-02  0.1266605E+00
        -11   -1    0    0    0    0  0.00000000000E+00  0.00000000000E+00  0.45593999997E+02  0.45594000000E+02  0.51100000000E-03 0.  1.
         11   -1    0    0    0    0 -0.00000000000E+00 -0.00000000000E+00 -0.45593999997E+02  0.45594000000E+02  0.51100000000E-03 0. -1.
    9900012    2    1    2    0    0 -0.23432645596E+01  0.41999033936E+01  0.31521239132E+02  0.59301974946E+02  0.50000056388E+02 0.  0.
         12    1    1    2    0    0  0.23432645596E+01 -0.41999033936E+01 -0.31521239132E+02  0.31886025054E+02  0.00000000000E+00 0. -1.
         11    1    3    3    0    0  0.10894315585E+02  0.19523110695E+02  0.11453375080E+02  0.25120066964E+02  0.51100000000E-03 0. -1.
        -11    1    3    3    0    0 -0.11923004110E+01  0.23832621810E+01  0.10309306689E+02  0.10648160572E+02  0.51100000000E-03 0.  1.
         12    1    3    3    0    0 -0.12045279734E+02 -0.17706469482E+02  0.97585573631E+01  0.23533747411E+02  0.00000000000E+00 0. -1.
</event>
<event>
 7    1  0.5634483E-012  0.5930194E+02  0.7816164E-02  0.1266605E+00
        -11   -1    0    0    0    0  0.00000000000E+00  0.00000000000E+00  0.45593999997E+02  0.45594000000E+02  0.51100000000E-03 0.  1.
         11   -1    0    0    0    0 -0.00000000000E+00 -0.00000000000E+00 -0.45593999997E+02  0.45594000000E+02  0.51100000000E-03 0. -1.
    9900012    2    1    2    0    0  0.37327689603E+01  0.30901824214E+02  0.69183965792E+01  0.59301944817E+02  0.50000001440E+02 0.  0.
         12    1    1    2    0    0 -0.37327689603E+01 -0.30901824214E+02 -0.69183965792E+01  0.31886055183E+02  0.00000000000E+00 0. -1.
         11    1    3    3    0    0  0.22027936584E+01  0.87035998771E+01 -0.91238847793E+01  0.12800399386E+02  0.51100000000E-03 0. -1.
        -11    1    3    3    0    0  0.13482963914E+02  0.66558525101E+01 -0.67107805938E+01  0.16465881846E+02  0.51100000000E-03 0.  1.
         12    1    3    3    0    0 -0.11952988612E+02  0.15542371827E+02  0.22753061952E+02  0.30035663585E+02  0.00000000000E+00 0. -1.
</event>
<event>
 7    1  0.5634483E-012  0.5930202E+02  0.7816164E-02  0.1266605E+00
        -11   -1    0    0    0    0  0.00000000000E+00  0.00000000000E+00  0.45593999997E+02  0.45594000000E+02  0.51100000000E-03 0.  1.
         11   -1    0    0    0    0 -0.00000000000E+00 -0.00000000000E+00 -0.45593999997E+02  0.45594000000E+02  0.51100000000E-03 0. -1.
    9900012    2    1    2    0    0  0.12288358436E+02 -0.16568729166E+02  0.24314387952E+02  0.59302015607E+02  0.50000130542E+02 0.  0.
         12    1    1    2    0    0 -0.12288358436E+02  0.16568729166E+02 -0.24314387952E+02  0.31885984393E+02  0.00000000000E+00 0. -1.
         11    1    3    3    0    0 -0.12896049601E+01  0.47695038479E+01  0.13559101387E+01  0.51234500558E+01  0.51100000000E-03 0. -1.
        -11    1    3    3    0    0  0.23957171466E+02 -0.31849765843E+01  0.14971286521E+01  0.24214283697E+02  0.51100000000E-03 0.  1.
         12    1    3    3    0    0 -0.10379208070E+02 -0.18153256430E+02  0.21461349162E+02  0.29964281854E+02  0.00000000000E+00 0. -1.
</event>
<event>
 7    1  0.5634483E-012  0.5930196E+02  0.7816164E-02  0.1266605E+00
        -11   -1    0    0    0    0  0.00000000000E+00  0.00000000000E+00  0.45593999997E+02  0.45594000000E+02  0.51100000000E-03 0. -1.
         11   -1    0    0    0    0 -0.00000000000E+00 -0.00000000000E+00 -0.45593999997E+02  0.45594000000E+02  0.51100000000E-03 0.  1.
    9900012    2    1    2    0    0 -0.75323205760E+01 -0.12017385122E+01 -0.30960290769E+02  0.59301958646E+02  0.50000026660E+02 0.  0.
         12    1    1    2    0    0  0.75323205760E+01  0.12017385122E+01  0.30960290769E+02  0.31886041354E+02  0.00000000000E+00 0. -1.
         11    1    3    3    0    0 -0.52991266307E+01 -0.70521182406E+01  0.48833122417E+01  0.10082651112E+02  0.51100000000E-03 0. -1.
        -11    1    3    3    0    0  0.87770230419E+01 -0.10705031761E+02 -0.14278956138E+02  0.19887745652E+02  0.51100000000E-03 0.  1.
         12    1    3    3    0    0 -0.11010216987E+02  0.16555411489E+02 -0.21564646873E+02  0.29331561882E+02  0.00000000000E+00 0. -1.
</event>
<event>
 7    1  0.5634483E-012  0.5930184E+02  0.7816164E-02  0.1266605E+00
        -11   -1    0    0    0    0  0.00000000000E+00  0.00000000000E+00  0.45593999997E+02  0.45594000000E+02  0.51100000000E-03 0.  1.
         11   -1    0    0    0    0 -0.00000000000E+00 -0.00000000000E+00 -0.45593999997E+02  0.45594000000E+02  0.51100000000E-03 0. -1.
    9900012    2    1    2    0    0 -0.80182228805E+01 -0.16381252929E+02  0.26155109470E+02  0.59301841607E+02  0.49999813208E+02 0.  0.
         12    1    1    2    0    0  0.80182228805E+01  0.16381252929E+02 -0.26155109470E+02  0.31886158393E+02  0.00000000000E+00 0. -1.
         11    1    3    3    0    0  0.10985102482E+02 -0.16957673791E+02  0.21396506072E+01  0.20317807015E+02  0.51100000000E-03 0. -1.
        -11    1    3    3    0    0 -0.14750240787E+02 -0.51062433392E+01  0.18601945651E+01  0.15719530794E+02  0.51100000000E-03 0.  1.
        -12    1    3    3    0    0 -0.42530845761E+01  0.56826642005E+01  0.22155264298E+02  0.23264503797E+02  0.00000000000E+00 0.  1.
</event>
<event>
 7    1  0.5634483E-012  0.5930202E+02  0.7816164E-02  0.1266604E+00
        -11   -1    0    0    0    0  0.00000000000E+00  0.00000000000E+00  0.45593999997E+02  0.45594000000E+02  0.51100000000E-03 0.  1.
         11   -1    0    0    0    0 -0.00000000000E+00 -0.00000000000E+00 -0.45593999997E+02  0.45594000000E+02  0.51100000000E-03 0. -1.
    9900012    2    1    2    0    0 -0.19861666968E+02 -0.49013884984E+01  0.24458255573E+02  0.59302020485E+02  0.50000139440E+02 0.  0.
         12    1    1    2    0    0  0.19861666968E+02  0.49013884984E+01 -0.24458255573E+02  0.31885979515E+02  0.00000000000E+00 0. -1.
         11    1    3    3    0    0  0.53827546308E+01 -0.53438819063E+01 -0.91405032135E+01  0.11877706871E+02  0.51100000000E-03 0.  1.
        -11    1    3    3    0    0 -0.25616845614E+01 -0.61214376299E+01  0.35198750728E+00  0.66451577796E+01  0.51100000000E-03 0. -1.
        -12    1    3    3    0    0 -0.22682737037E+02  0.65639310379E+01  0.33246771279E+02  0.40779155835E+02  0.00000000000E+00 0.  1.
</event>
<event>
 7    1  0.5634483E-012  0.5930194E+02  0.7816164E-02  0.1266605E+00
        -11   -1    0    0    0    0  0.00000000000E+00  0.00000000000E+00  0.45593999997E+02  0.45594000000E+02  0.51100000000E-03 0.  1.
         11   -1    0    0    0    0 -0.00000000000E+00 -0.00000000000E+00 -0.45593999997E+02  0.45594000000E+02  0.51100000000E-03 0. -1.
    9900012    2    1    2    0    0  0.22165540642E+02 -0.22888473763E+02 -0.12359488122E+01  0.59301937329E+02  0.49999987784E+02 0.  0.
         12    1    1    2    0    0 -0.22165540642E+02  0.22888473763E+02  0.12359488122E+01  0.31886062671E+02  0.00000000000E+00 0. -1.
         11    1    3    3    0    0 -0.36669083082E+01 -0.36964116508E+01  0.67242688064E+01  0.85044380693E+01  0.51100000000E-03 0. -1.
        -11    1    3    3    0    0  0.94156161147E+01 -0.39182756982E+01  0.15365419420E+02  0.18441876951E+02  0.51100000000E-03 0.  1.
         12    1    3    3    0    0  0.16416832835E+02 -0.15273786414E+02 -0.23325637038E+02  0.32355622309E+02  0.00000000000E+00 0. -1.
</event>
<event>
 7    1  0.5634483E-012  0.5930196E+02  0.7816164E-02  0.1266605E+00
        -11   -1    0    0    0    0  0.00000000000E+00  0.00000000000E+00  0.45593999997E+02  0.45594000000E+02  0.51100000000E-03 0.  1.
         11   -1    0    0    0    0 -0.00000000000E+00 -0.00000000000E+00 -0.45593999997E+02  0.45594000000E+02  0.51100000000E-03 0. -1.
    9900012    2    1    2    0    0 -0.52047013325E+01  0.23148272774E+02  0.21302308599E+02  0.59301956030E+02  0.50000021890E+02 0.  0.
         12    1    1    2    0    0  0.52047013325E+01 -0.23148272774E+02 -0.21302308599E+02  0.31886043970E+02  0.00000000000E+00 0. -1.
         11    1    3    3    0    0  0.58858651420E+01 -0.43752687890E+01 -0.52457187297E+01  0.90168703383E+01  0.51100000000E-03 0. -1.
        -11    1    3    3    0    0  0.56659710708E+00  0.37506867544E+01  0.23303157682E+02  0.23609867463E+02  0.51100000000E-03 0.  1.
         12    1    3    3    0    0 -0.11657163582E+02  0.23772854809E+02  0.32448696470E+01  0.26675218229E+02  0.00000000000E+00 0. -1.
</event>
<event>
 7    1  0.5634483E-012  0.5930193E+02  0.7816164E-02  0.1266605E+00
        -11   -1    0    0    0    0  0.00000000000E+00  0.00000000000E+00  0.45593999997E+02  0.45594000000E+02  0.51100000000E-03 0.  1.
         11   -1    0    0    0    0 -0.00000000000E+00 -0.00000000000E+00 -0.45593999997E+02  0.45594000000E+02  0.51100000000E-03 0. -1.
    9900012    2    1    2    0    0  0.99412920302E+01  0.16952525401E+01  0.30249273288E+02  0.59301926193E+02  0.49999967473E+02 0.  0.
         12    1    1    2    0    0 -0.99412920302E+01 -0.16952525401E+01 -0.30249273288E+02  0.31886073807E+02  0.00000000000E+00 0. -1.
         11    1    3    3    0    0  0.75516898745E+01 -0.55014009926E+01 -0.70564438126E+01  0.11708408619E+02  0.51100000000E-03 0. -1.
        -11    1    3    3    0    0 -0.27178392611E+01 -0.59534737684E+01 -0.11384154080E+01  0.66427772853E+01  0.51100000000E-03 0.  1.
         12    1    3    3    0    0  0.51074414168E+01  0.13150127301E+02  0.38444132508E+02  0.40950740289E+02  0.00000000000E+00 0. -1.
</event>
<event>
 7    1  0.5634483E-012  0.5930194E+02  0.7816164E-02  0.1266605E+00
        -11   -1    0    0    0    0  0.00000000000E+00  0.00000000000E+00  0.45593999997E+02  0.45594000000E+02  0.51100000000E-03 0.  1.
         11   -1    0    0    0    0 -0.00000000000E+00 -0.00000000000E+00 -0.45593999997E+02  0.45594000000E+02  0.51100000000E-03 0. -1.
    9900012    2    1    2    0    0  0.10902209539E+02 -0.21732404731E+01  0.29885447619E+02  0.59301935232E+02  0.49999983960E+02 0.  0.
         12    1    1    2    0    0 -0.10902209539E+02  0.21732404731E+01 -0.29885447619E+02  0.31886064768E+02  0.00000000000E+00 0. -1.
         11    1    3    3    0    0 -0.27404254904E+01 -0.13820951394E+02 -0.50549667265E+01  0.14969345950E+02  0.51100000000E-03 0. -1.
        -11    1    3    3    0    0 -0.48513065209E+01  0.59443047253E+01  0.73025796309E+01  0.10592337002E+02  0.51100000000E-03 0.  1.
         12    1    3    3    0    0  0.18493941550E+02  0.57034061956E+01  0.27637834714E+02  0.33740252281E+02  0.00000000000E+00 0. -1.
</event>
<event>
 7    1  0.5634483E-012  0.5930196E+02  0.7816164E-02  0.1266605E+00
        -11   -1    0    0    0    0  0.00000000000E+00  0.00000000000E+00  0.45593999997E+02  0.45594000000E+02  0.51100000000E-03 0.  1.
         11   -1    0    0    0    0 -0.00000000000E+00 -0.00000000000E+00 -0.45593999997E+02  0.45594000000E+02  0.51100000000E-03 0. -1.
    9900012    2    1    2    0    0 -0.21231294296E+02 -0.16356856850E+02  0.17274400728E+02  0.59301960045E+02  0.50000029211E+02 0.  0.
         12    1    1    2    0    0  0.21231294296E+02  0.16356856850E+02 -0.17274400728E+02  0.31886039955E+02  0.00000000000E+00 0. -1.
         11    1    3    3    0    0 -0.18916434221E+02 -0.12766098735E+01  0.12832901183E+02  0.22894203839E+02  0.51100000000E-03 0. -1.
        -11    1    3    3    0    0 -0.39684200365E+00 -0.24796505434E+02 -0.15233883647E+01  0.24846425853E+02  0.51100000000E-03 0.  1.
         12    1    3    3    0    0 -0.19180180716E+01  0.97162584576E+01  0.59648879099E+01  0.11561330352E+02  0.00000000000E+00 0. -1.
</event>
<event>
 7    1  0.5634483E-012  0.5930195E+02  0.7816164E-02  0.1266605E+00
        -11   -1    0    0    0    0  0.00000000000E+00  0.00000000000E+00  0.45593999997E+02  0.45594000000E+02  0.51100000000E-03 0.  1.
         11   -1    0    0    0    0 -0.00000000000E+00 -0.00000000000E+00 -0.45593999997E+02  0.45594000000E+02  0.51100000000E-03 0. -1.
    9900012    2    1    2    0    0  0.13829003237E+01  0.20332692508E+02  0.24523240612E+02  0.59301950887E+02  0.50000012509E+02 0.  0.
         12    1    1    2    0    0 -0.13829003237E+01 -0.20332692508E+02 -0.24523240612E+02  0.31886049113E+02  0.00000000000E+00 0. -1.
         11    1    3    3    0    0 -0.64247023404E+01 -0.12329451463E+02  0.14341619752E+02  0.19974339311E+02  0.51100000000E-03 0. -1.
        -11    1    3    3    0    0  0.53716323574E+00  0.89043895166E+01  0.11372532750E+02  0.14453760701E+02  0.51100000000E-03 0.  1.
        -12    1    3    3    0    0  0.72704394284E+01  0.23757754454E+02 -0.11909118902E+01  0.24873850874E+02  0.00000000000E+00 0.  1.
</event>
<event>
 7    1  0.5634483E-012  0.5930194E+02  0.7816164E-02  0.1266605E+00
        -11   -1    0    0    0    0  0.00000000000E+00  0.00000000000E+00  0.45593999997E+02  0.45594000000E+02  0.51100000000E-03 0.  1.
         11   -1    0    0    0    0 -0.00000000000E+00 -0.00000000000E+00 -0.45593999997E+02  0.45594000000E+02  0.51100000000E-03 0. -1.
    9900012    2    1    2    0    0 -0.19458117752E+02 -0.25243663065E+02 -0.92716405897E+00  0.59301944983E+02  0.50000001741E+02 0.  0.
         12    1    1    2    0    0  0.19458117752E+02  0.25243663065E+02  0.92716405897E+00  0.31886055017E+02  0.00000000000E+00 0. -1.
         11    1    3    3    0    0  0.71491236183E+01 -0.35515931891E+01 -0.63286388986E+01  0.10187023769E+02  0.51100000000E-03 0. -1.
        -11    1    3    3    0    0  0.36508431741E+01  0.13377438481E+01 -0.79205706642E+01  0.88234717880E+01  0.51100000000E-03 0.  1.
        -12    1    3    3    0    0 -0.30258084544E+02 -0.23029813724E+02  0.13322045504E+02  0.40291449426E+02  0.00000000000E+00 0.  1.
</event>
<event>
 7    1  0.5634483E-012  0.5930192E+02  0.7816164E-02  0.1266605E+00
        -11   -1    0    0    0    0  0.00000000000E+00  0.00000000000E+00  0.45593999997E+02  0.45594000000E+02  0.51100000000E-03 0. -1.
         11   -1    0    0    0    0 -0.00000000000E+00 -0.00000000000E+00 -0.45593999997E+02  0.45594000000E+02  0.51100000000E-03 0.  1.
    9900012    2    1    2    0    0  0.28297806565E+02  0.14106986633E+02  0.41169527445E+01  0.59301917955E+02  0.49999952450E+02 0.  0.
         12    1    1    2    0    0 -0.28297806565E+02 -0.14106986633E+02 -0.41169527445E+01  0.31886082045E+02  0.00000000000E+00 0. -1.
         11    1    3    3    0    0  0.16418807198E+02  0.10411576886E+02 -0.21610323568E+01  0.19561396274E+02  0.51100000000E-03 0. -1.
        -11    1    3    3    0    0 -0.20611286426E+01  0.28827790060E+01 -0.14377540320E+02  0.14807846974E+02  0.51100000000E-03 0.  1.
        -12    1    3    3    0    0  0.13940128010E+02  0.81263074088E+00  0.20655525421E+02  0.24932674708E+02  0.00000000000E+00 0.  1.
</event>
<event>
 7    1  0.5634483E-012  0.5930191E+02  0.7816164E-02  0.1266605E+00
        -11   -1    0    0    0    0  0.00000000000E+00  0.00000000000E+00  0.45593999997E+02  0.45594000000E+02  0.51100000000E-03 0.  1.
         11   -1    0    0    0    0 -0.00000000000E+00 -0.00000000000E+00 -0.45593999997E+02  0.45594000000E+02  0.51100000000E-03 0. -1.
    9900012    2    1    2    0    0 -0.12114920656E+02  0.54542320124E+01  0.28986248913E+02  0.59301912510E+02  0.49999942520E+02 0.  0.
         12    1    1    2    0    0  0.12114920656E+02 -0.54542320124E+01 -0.28986248913E+02  0.31886087490E+02  0.00000000000E+00 0. -1.
         11    1    3    3    0    0 -0.10860176385E+02  0.10907454179E+02  0.16981110322E+02  0.22918858955E+02  0.51100000000E-03 0. -1.
        -11    1    3    3    0    0 -0.33586260381E+01  0.12750835301E+02 -0.19765446912E+01  0.13333075374E+02  0.51100000000E-03 0.  1.
        -12    1    3    3    0    0  0.21038817669E+01 -0.18204057467E+02  0.13981683282E+02  0.23049978182E+02  0.00000000000E+00 0.  1.
</event>
<event>
 7    1  0.5634483E-012  0.5930197E+02  0.7816164E-02  0.1266605E+00
        -11   -1    0    0    0    0  0.00000000000E+00  0.00000000000E+00  0.45593999997E+02  0.45594000000E+02  0.51100000000E-03 0. -1.
         11   -1    0    0    0    0 -0.00000000000E+00 -0.00000000000E+00 -0.45593999997E+02  0.45594000000E+02  0.51100000000E-03 0.  1.
    9900012    2    1    2    0    0 -0.94923396896E+01 -0.22782533223E+02 -0.20188375595E+02  0.59301971053E+02  0.50000049287E+02 0.  0.
         12    1    1    2    0    0  0.94923396896E+01  0.22782533223E+02  0.20188375595E+02  0.31886028947E+02  0.00000000000E+00 0. -1.
         11    1    3    3    0    0  0.63793725284E+01 -0.16214031736E+02 -0.10874526246E+02  0.20538903094E+02  0.51100000000E-03 0. -1.
        -11    1    3    3    0    0 -0.75402338294E+01 -0.13820989947E+02 -0.18574149630E+02  0.24349002527E+02  0.51100000000E-03 0.  1.
        -12    1    3    3    0    0 -0.83314783886E+01  0.72524884592E+01  0.92603002804E+01  0.14414065432E+02  0.00000000000E+00 0.  1.
</event>
<event>
 7    1  0.5634483E-012  0.5930192E+02  0.7816164E-02  0.1266605E+00
        -11   -1    0    0    0    0  0.00000000000E+00  0.00000000000E+00  0.45593999997E+02  0.45594000000E+02  0.51100000000E-03 0.  1.
         11   -1    0    0    0    0 -0.00000000000E+00 -0.00000000000E+00 -0.45593999997E+02  0.45594000000E+02  0.51100000000E-03 0. -1.
    9900012    2    1    2    0    0 -0.25242643686E+02 -0.13005695901E+02  0.14504587716E+02  0.59301917598E+02  0.49999951798E+02 0.  0.
         12    1    1    2    0    0  0.25242643686E+02  0.13005695901E+02 -0.14504587716E+02  0.31886082402E+02  0.00000000000E+00 0. -1.
         11    1    3    3    0    0 -0.18714718515E+01 -0.67989389404E+01 -0.34452146588E+01  0.78484063294E+01  0.51100000000E-03 0. -1.
        -11    1    3    3    0    0  0.43201810927E+01 -0.14457990646E+02  0.16734966135E+02  0.22533454018E+02  0.51100000000E-03 0.  1.
        -12    1    3    3    0    0 -0.27691352927E+02  0.82512336853E+01  0.12148362405E+01  0.28920057250E+02  0.00000000000E+00 0.  1.
</event>
<event>
 7    1  0.5634483E-012  0.5930200E+02  0.7816164E-02  0.1266605E+00
        -11   -1    0    0    0    0  0.00000000000E+00  0.00000000000E+00  0.45593999997E+02  0.45594000000E+02  0.51100000000E-03 0.  1.
         11   -1    0    0    0    0 -0.00000000000E+00 -0.00000000000E+00 -0.45593999997E+02  0.45594000000E+02  0.51100000000E-03 0. -1.
    9900012    2    1    2    0    0 -0.12027692516E+02  0.29406396633E+02  0.27047180271E+01  0.59301999156E+02  0.50000100541E+02 0.  0.
         12    1    1    2    0    0  0.12027692516E+02 -0.29406396633E+02 -0.27047180271E+01  0.31886000844E+02  0.00000000000E+00 0. -1.
         11    1    3    3    0    0 -0.12917510332E+02  0.13377116892E+02  0.19904458157E+02  0.27239617918E+02  0.51100000000E-03 0. -1.
        -11    1    3    3    0    0 -0.46107415162E+01  0.34894555264E+01 -0.17433271161E+02  0.18367203947E+02  0.51100000000E-03 0.  1.
        -12    1    3    3    0    0  0.55005593325E+01  0.12539824214E+02  0.23353103152E+00  0.13695177291E+02  0.00000000000E+00 0.  1.
</event>
<event>
 7    1  0.5634483E-012  0.5930196E+02  0.7816164E-02  0.1266605E+00
        -11   -1    0    0    0    0  0.00000000000E+00  0.00000000000E+00  0.45593999997E+02  0.45594000000E+02  0.51100000000E-03 0.  1.
         11   -1    0    0    0    0 -0.00000000000E+00 -0.00000000000E+00 -0.45593999997E+02  0.45594000000E+02  0.51100000000E-03 0. -1.
    9900012    2    1    2    0    0  0.68945640960E+00 -0.20774091125E+02  0.24180189742E+02  0.59301956216E+02  0.50000022229E+02 0.  0.
         12    1    1    2    0    0 -0.68945640960E+00  0.20774091125E+02 -0.24180189742E+02  0.31886043784E+02  0.00000000000E+00 0. -1.
         11    1    3    3    0    0 -0.26960649370E+01  0.63444353499E+01  0.20688939418E+02  0.21807174062E+02  0.51100000000E-03 0. -1.
        -11    1    3    3    0    0  0.10026765217E+02 -0.55863751178E+01  0.86576470903E+01  0.14377011549E+02  0.51100000000E-03 0.  1.
        -12    1    3    3    0    0 -0.66412438705E+01 -0.21532151357E+02 -0.51663967665E+01  0.23117770605E+02  0.00000000000E+00 0.  1.
</event>
<event>
 7    1  0.5634483E-012  0.5930196E+02  0.7816164E-02  0.1266605E+00
        -11   -1    0    0    0    0  0.00000000000E+00  0.00000000000E+00  0.45593999997E+02  0.45594000000E+02  0.51100000000E-03 0. -1.
         11   -1    0    0    0    0 -0.00000000000E+00 -0.00000000000E+00 -0.45593999997E+02  0.45594000000E+02  0.51100000000E-03 0.  1.
    9900012    2    1    2    0    0 -0.43962663449E+01  0.14618556212E+02 -0.27994469778E+02  0.59301957886E+02  0.50000025275E+02 0.  0.
         12    1    1    2    0    0  0.43962663449E+01 -0.14618556212E+02  0.27994469778E+02  0.31886042114E+02  0.00000000000E+00 0. -1.
         11    1    3    3    0    0 -0.13179907101E+02  0.22976450500E+02 -0.66606888677E+01  0.27312854212E+02  0.51100000000E-03 0. -1.
        -11    1    3    3    0    0 -0.57418697725E+00  0.62926437232E+01 -0.72399553098E+01  0.96095790158E+01  0.51100000000E-03 0.  1.
         12    1    3    3    0    0  0.93578277337E+01 -0.14650538010E+02 -0.14093825600E+02  0.22379524659E+02  0.00000000000E+00 0. -1.
</event>
<event>
 7    1  0.5634483E-012  0.5930195E+02  0.7816164E-02  0.1266605E+00
        -11   -1    0    0    0    0  0.00000000000E+00  0.00000000000E+00  0.45593999997E+02  0.45594000000E+02  0.51100000000E-03 0.  1.
         11   -1    0    0    0    0 -0.00000000000E+00 -0.00000000000E+00 -0.45593999997E+02  0.45594000000E+02  0.51100000000E-03 0. -1.
    9900012    2    1    2    0    0 -0.14303557358E+02  0.15893035753E+02  0.23654594587E+02  0.59301950015E+02  0.50000010920E+02 0.  0.
         12    1    1    2    0    0  0.14303557358E+02 -0.15893035753E+02 -0.23654594587E+02  0.31886049985E+02  0.00000000000E+00 0. -1.
         11    1    3    3    0    0 -0.87368410652E+01 -0.80385983164E+00 -0.46010672638E+01  0.99069875671E+01  0.51100000000E-03 0. -1.
        -11    1    3    3    0    0 -0.19459588555E+01  0.17697058702E+02 -0.28785816731E+01  0.18034934857E+02  0.51100000000E-03 0.  1.
        -12    1    3    3    0    0 -0.36207574372E+01 -0.10001631176E+01  0.31134243524E+02  0.31360027591E+02  0.00000000000E+00 0.  1.
</event>
<event>
 7    1  0.5634483E-012  0.5930195E+02  0.7816164E-02  0.1266605E+00
        -11   -1    0    0    0    0  0.00000000000E+00  0.00000000000E+00  0.45593999997E+02  0.45594000000E+02  0.51100000000E-03 0. -1.
         11   -1    0    0    0    0 -0.00000000000E+00 -0.00000000000E+00 -0.45593999997E+02  0.45594000000E+02  0.51100000000E-03 0.  1.
    9900012    2    1    2    0    0 -0.27562518854E+02 -0.83286112954E+01 -0.13698984633E+02  0.59301946753E+02  0.50000004971E+02 0.  0.
         12    1    1    2    0    0  0.27562518854E+02  0.83286112954E+01  0.13698984633E+02  0.31886053247E+02  0.00000000000E+00 0. -1.
         11    1    3    3    0    0 -0.79435667576E+01 -0.33002380535E+01  0.45809898302E+01  0.97456293859E+01  0.51100000000E-03 0. -1.
        -11    1    3    3    0    0 -0.14245786940E+02  0.17632624356E+02 -0.73531041204E+01  0.23831072735E+02  0.51100000000E-03 0.  1.
        -12    1    3    3    0    0 -0.53731651561E+01 -0.22660997598E+02 -0.10926870343E+02  0.25725244633E+02  0.00000000000E+00 0.  1.
</event>
<event>
 7    1  0.5634483E-012  0.5930194E+02  0.7816164E-02  0.1266605E+00
        -11   -1    0    0    0    0  0.00000000000E+00  0.00000000000E+00  0.45593999997E+02  0.45594000000E+02  0.51100000000E-03 0.  1.
         11   -1    0    0    0    0 -0.00000000000E+00 -0.00000000000E+00 -0.45593999997E+02  0.45594000000E+02  0.51100000000E-03 0. -1.
    9900012    2    1    2    0    0  0.20613786685E+02  0.21935106808E+02  0.10518723367E+02  0.59301942648E+02  0.49999997484E+02 0.  0.
         12    1    1    2    0    0 -0.20613786685E+02 -0.21935106808E+02 -0.10518723367E+02  0.31886057352E+02  0.00000000000E+00 0. -1.
         11    1    3    3    0    0 -0.19545269970E+01  0.49355754523E+01  0.48331643882E+01  0.71791057307E+01  0.51100000000E-03 0. -1.
        -11    1    3    3    0    0  0.22642427191E+02  0.66385195454E+01  0.22349715207E+02  0.32500141860E+02  0.51100000000E-03 0.  1.
         12    1    3    3    0    0 -0.74113509306E-01  0.10361011810E+02 -0.16664156228E+02  0.19622695057E+02  0.00000000000E+00 0. -1.
</event>
<event>
 7    1  0.5634483E-012  0.5930187E+02  0.7816164E-02  0.1266605E+00
        -11   -1    0    0    0    0  0.00000000000E+00  0.00000000000E+00  0.45593999997E+02  0.45594000000E+02  0.51100000000E-03 0.  1.
         11   -1    0    0    0    0 -0.00000000000E+00 -0.00000000000E+00 -0.45593999997E+02  0.45594000000E+02  0.51100000000E-03 0. -1.
    9900012    2    1    2    0    0 -0.15149987183E+02 -0.27815054553E+02 -0.36777640797E+01  0.59301869472E+02  0.49999864028E+02 0.  0.
         12    1    1    2    0    0  0.15149987183E+02  0.27815054553E+02  0.36777640797E+01  0.31886130528E+02  0.00000000000E+00 0. -1.
         11    1    3    3    0    0 -0.59416623130E+01  0.94008202368E+01  0.22117351344E+01  0.11338895217E+02  0.51100000000E-03 0. -1.
        -11    1    3    3    0    0 -0.10236565074E+02 -0.41709081232E+01 -0.96701150105E+01  0.14686553839E+02  0.51100000000E-03 0.  1.
        -12    1    3    3    0    0  0.10282402043E+01 -0.33044966667E+02  0.37806157964E+01  0.33276420416E+02  0.00000000000E+00 0.  1.
</event>
<event>
 7    1  0.5634483E-012  0.5930194E+02  0.7816164E-02  0.1266605E+00
        -11   -1    0    0    0    0  0.00000000000E+00  0.00000000000E+00  0.45593999997E+02  0.45594000000E+02  0.51100000000E-03 0.  1.
         11   -1    0    0    0    0 -0.00000000000E+00 -0.00000000000E+00 -0.45593999997E+02  0.45594000000E+02  0.51100000000E-03 0. -1.
    9900012    2    1    2    0    0  0.38129105364E+01 -0.13034066189E+02  0.28849532496E+02  0.59301942022E+02  0.49999996342E+02 0.  0.
         12    1    1    2    0    0 -0.38129105364E+01  0.13034066189E+02 -0.28849532496E+02  0.31886057978E+02  0.00000000000E+00 0. -1.
         11    1    3    3    0    0  0.60566709292E+01 -0.19101105234E+01  0.71525556775E+01  0.95650843141E+01  0.51100000000E-03 0. -1.
        -11    1    3    3    0    0 -0.12494846962E+02 -0.12220820621E+02  0.31170161981E+02  0.35735817543E+02  0.51100000000E-03 0.  1.
         12    1    3    3    0    0  0.10251086569E+02  0.10968649558E+01 -0.94731851631E+01  0.14001040165E+02  0.00000000000E+00 0. -1.
</event>
<event>
 7    1  0.5634483E-012  0.5930194E+02  0.7816164E-02  0.1266605E+00
        -11   -1    0    0    0    0  0.00000000000E+00  0.00000000000E+00  0.45593999997E+02  0.45594000000E+02  0.51100000000E-03 0.  1.
         11   -1    0    0    0    0 -0.00000000000E+00 -0.00000000000E+00 -0.45593999997E+02  0.45594000000E+02  0.51100000000E-03 0. -1.
    9900012    2    1    2    0    0  0.71853558492E+01 -0.12115998613E+02  0.28605835330E+02  0.59301943862E+02  0.49999999698E+02 0.  0.
         12    1    1    2    0    0 -0.71853558492E+01  0.12115998613E+02 -0.28605835330E+02  0.31886056138E+02  0.00000000000E+00 0. -1.
         11    1    3    3    0    0  0.52164301746E+01  0.42044790668E+00  0.28222607321E+02  0.28703719000E+02  0.51100000000E-03 0.  1.
        -11    1    3    3    0    0  0.10309314078E+02 -0.12806888935E+02  0.88828096778E+01  0.18686965216E+02  0.51100000000E-03 0. -1.
        -12    1    3    3    0    0 -0.83403884034E+01  0.27044241478E+00 -0.84995816685E+01  0.11911259646E+02  0.00000000000E+00 0.  1.
</event>
<event>
 7    1  0.5634483E-012  0.5930200E+02  0.7816164E-02  0.1266605E+00
        -11   -1    0    0    0    0  0.00000000000E+00  0.00000000000E+00  0.45593999997E+02  0.45594000000E+02  0.51100000000E-03 0. -1.
         11   -1    0    0    0    0 -0.00000000000E+00 -0.00000000000E+00 -0.45593999997E+02  0.45594000000E+02  0.51100000000E-03 0.  1.
    9900012    2    1    2    0    0 -0.31483482995E+01 -0.26322168595E+02 -0.17718579753E+02  0.59302004249E+02  0.50000109830E+02 0.  0.
         12    1    1    2    0    0  0.31483482995E+01  0.26322168595E+02  0.17718579753E+02  0.31885995751E+02  0.00000000000E+00 0. -1.
         11    1    3    3    0    0  0.10761173562E+02  0.84932286245E+00 -0.29787038464E+00  0.10798746815E+02  0.51100000000E-03 0. -1.
        -11    1    3    3    0    0 -0.14637254587E+01  0.53221546137E+01 -0.12104806116E+02  0.13303914962E+02  0.51100000000E-03 0.  1.
        -12    1    3    3    0    0 -0.12445796403E+02 -0.32493646071E+02 -0.53159032523E+01  0.35199342472E+02  0.00000000000E+00 0.  1.
</event>
<event>
 7    1  0.5634483E-012  0.5930197E+02  0.7816164E-02  0.1266605E+00
        -11   -1    0    0    0    0  0.00000000000E+00  0.00000000000E+00  0.45593999997E+02  0.45594000000E+02  0.51100000000E-03 0.  1.
         11   -1    0    0    0    0 -0.00000000000E+00 -0.00000000000E+00 -0.45593999997E+02  0.45594000000E+02  0.51100000000E-03 0. -1.
    9900012    2    1    2    0    0 -0.20877659736E+02  0.12507338479E+02  0.20601185409E+02  0.59301968071E+02  0.50000043849E+02 0.  0.
         12    1    1    2    0    0  0.20877659736E+02 -0.12507338479E+02 -0.20601185409E+02  0.31886031929E+02  0.00000000000E+00 0. -1.
         11    1    3    3    0    0  0.15577430631E+01  0.12554934715E+01 -0.41621486150E+01  0.46180416480E+01  0.51100000000E-03 0. -1.
        -11    1    3    3    0    0 -0.23725749799E+02  0.24858896662E+02  0.13309979233E+02  0.36851478860E+02  0.51100000000E-03 0.  1.
         12    1    3    3    0    0  0.12903469992E+01 -0.13607051654E+02  0.11453354792E+02  0.17832447563E+02  0.00000000000E+00 0. -1.
</event>
<event>
 7    1  0.5634483E-012  0.5930195E+02  0.7816164E-02  0.1266605E+00
        -11   -1    0    0    0    0  0.00000000000E+00  0.00000000000E+00  0.45593999997E+02  0.45594000000E+02  0.51100000000E-03 0.  1.
         11   -1    0    0    0    0 -0.00000000000E+00 -0.00000000000E+00 -0.45593999997E+02  0.45594000000E+02  0.51100000000E-03 0. -1.
    9900012    2    1    2    0    0  0.11457759556E+02 -0.29577089609E+02  0.32612770523E+01  0.59301946437E+02  0.50000004394E+02 0.  0.
         12    1    1    2    0    0 -0.11457759556E+02  0.29577089609E+02 -0.32612770523E+01  0.31886053563E+02  0.00000000000E+00 0. -1.
         11    1    3    3    0    0  0.16382235898E+02 -0.23175418458E+02  0.16476472125E+02  0.32816943911E+02  0.51100000000E-03 0.  1.
        -11    1    3    3    0    0  0.21972925749E+01  0.47379336092E+01  0.26305329996E+01  0.58477186721E+01  0.51100000000E-03 0. -1.
        -12    1    3    3    0    0 -0.71217689163E+01 -0.11139604761E+02 -0.15845728072E+02  0.20637283854E+02  0.00000000000E+00 0.  1.
</event>
<event>
 7    1  0.5634483E-012  0.5930195E+02  0.7816164E-02  0.1266605E+00
        -11   -1    0    0    0    0  0.00000000000E+00  0.00000000000E+00  0.45593999997E+02  0.45594000000E+02  0.51100000000E-03 0.  1.
         11   -1    0    0    0    0 -0.00000000000E+00 -0.00000000000E+00 -0.45593999997E+02  0.45594000000E+02  0.51100000000E-03 0. -1.
    9900012    2    1    2    0    0 -0.44068290245E+01 -0.12509560696E+00  0.31579813947E+02  0.59301945997E+02  0.50000003591E+02 0.  0.
         12    1    1    2    0    0  0.44068290245E+01  0.12509560696E+00 -0.31579813947E+02  0.31886054003E+02  0.00000000000E+00 0. -1.
         11    1    3    3    0    0 -0.75267493690E+01 -0.14856416884E+01 -0.26598540259E+01  0.81199698885E+01  0.51100000000E-03 0.  1.
        -11    1    3    3    0    0  0.58968684606E+01 -0.60922694348E+01 -0.58564282672E+01  0.10304686158E+02  0.51100000000E-03 0. -1.
        -12    1    3    3    0    0 -0.27769481161E+01  0.74528155163E+01  0.40096096240E+02  0.40877289950E+02  0.00000000000E+00 0.  1.
</event>
<event>
 7    1  0.5634483E-012  0.5930194E+02  0.7816164E-02  0.1266605E+00
        -11   -1    0    0    0    0  0.00000000000E+00  0.00000000000E+00  0.45593999997E+02  0.45594000000E+02  0.51100000000E-03 0. -1.
         11   -1    0    0    0    0 -0.00000000000E+00 -0.00000000000E+00 -0.45593999997E+02  0.45594000000E+02  0.51100000000E-03 0.  1.
    9900012    2    1    2    0    0  0.33476929742E+01 -0.31073409673E+02  0.63211515987E+01  0.59301940436E+02  0.49999993450E+02 0.  0.
         12    1    1    2    0    0 -0.33476929742E+01  0.31073409673E+02 -0.63211515987E+01  0.31886059564E+02  0.00000000000E+00 0. -1.
         11    1    3    3    0    0 -0.68193662758E+01 -0.27225875292E+01  0.16664027381E+01  0.75294845511E+01  0.51100000000E-03 0. -1.
        -11    1    3    3    0    0 -0.10191821140E+02 -0.25317302350E+02 -0.69230265407E+01  0.28156123902E+02  0.51100000000E-03 0.  1.
         12    1    3    3    0    0  0.20358880390E+02 -0.30335197937E+01  0.11577775401E+02  0.23616331983E+02  0.00000000000E+00 0. -1.
</event>
<event>
 7    1  0.5634483E-012  0.5930194E+02  0.7816164E-02  0.1266605E+00
        -11   -1    0    0    0    0  0.00000000000E+00  0.00000000000E+00  0.45593999997E+02  0.45594000000E+02  0.51100000000E-03 0.  1.
         11   -1    0    0    0    0 -0.00000000000E+00 -0.00000000000E+00 -0.45593999997E+02  0.45594000000E+02  0.51100000000E-03 0. -1.
    9900012    2    1    2    0    0  0.19098532947E+02  0.25445774286E+02  0.21165037574E+01  0.59301937560E+02  0.49999988205E+02 0.  0.
         12    1    1    2    0    0 -0.19098532947E+02 -0.25445774286E+02 -0.21165037574E+01  0.31886062440E+02  0.00000000000E+00 0. -1.
         11    1    3    3    0    0  0.24515250641E+01 -0.93202960795E+01  0.12489132375E+02  0.15775180566E+02  0.51100000000E-03 0. -1.
        -11    1    3    3    0    0 -0.17114084932E+01  0.13596483480E+02 -0.16637969161E+00  0.13704778893E+02  0.51100000000E-03 0.  1.
        -12    1    3    3    0    0  0.18358416376E+02  0.21169586886E+02 -0.10206248926E+02  0.29821978101E+02  0.00000000000E+00 0.  1.
</event>
<event>
 7    1  0.5634483E-012  0.5930195E+02  0.7816164E-02  0.1266605E+00
        -11   -1    0    0    0    0  0.00000000000E+00  0.00000000000E+00  0.45593999997E+02  0.45594000000E+02  0.51100000000E-03 0.  1.
         11   -1    0    0    0    0 -0.00000000000E+00 -0.00000000000E+00 -0.45593999997E+02  0.45594000000E+02  0.51100000000E-03 0. -1.
    9900012    2    1    2    0    0 -0.26337969070E+02  0.11843173287E+02  0.13519280194E+02  0.59301948109E+02  0.50000007442E+02 0.  0.
         12    1    1    2    0    0  0.26337969070E+02 -0.11843173287E+02 -0.13519280194E+02  0.31886051891E+02  0.00000000000E+00 0. -1.
         11    1    3    3    0    0  0.86005333725E+01 -0.34995051223E+01  0.65408229112E+01  0.11357731948E+02  0.51100000000E-03 0. -1.
        -11    1    3    3    0    0 -0.23785439699E+02  0.28526370836E+01  0.16112235649E+02  0.28870206405E+02  0.51100000000E-03 0.  1.
         12    1    3    3    0    0 -0.11153062744E+02  0.12490041326E+02 -0.91337783661E+01  0.19074009755E+02  0.00000000000E+00 0. -1.
</event>
<event>
 7    1  0.5634483E-012  0.5930194E+02  0.7816164E-02  0.1266605E+00
        -11   -1    0    0    0    0  0.00000000000E+00  0.00000000000E+00  0.45593999997E+02  0.45594000000E+02  0.51100000000E-03 0.  1.
         11   -1    0    0    0    0 -0.00000000000E+00 -0.00000000000E+00 -0.45593999997E+02  0.45594000000E+02  0.51100000000E-03 0. -1.
    9900012    2    1    2    0    0  0.12811730282E+02  0.12750349559E+01  0.29171122122E+02  0.59301944854E+02  0.50000001506E+02 0.  0.
         12    1    1    2    0    0 -0.12811730282E+02 -0.12750349559E+01 -0.29171122122E+02  0.31886055146E+02  0.00000000000E+00 0. -1.
         11    1    3    3    0    0  0.75216417489E+01  0.60963825688E+01 -0.71369336782E+00  0.97082610960E+01  0.51100000000E-03 0. -1.
        -11    1    3    3    0    0 -0.12040862612E+01  0.58831363977E+01 -0.78227212631E+01  0.98618500201E+01  0.51100000000E-03 0.  1.
        -12    1    3    3    0    0  0.64941747942E+01 -0.10704484011E+02  0.37707536753E+02  0.39731833738E+02  0.00000000000E+00 0.  1.
</event>
<event>
 7    1  0.5634483E-012  0.5930194E+02  0.7816164E-02  0.1266605E+00
        -11   -1    0    0    0    0  0.00000000000E+00  0.00000000000E+00  0.45593999997E+02  0.45594000000E+02  0.51100000000E-03 0. -1.
         11   -1    0    0    0    0 -0.00000000000E+00 -0.00000000000E+00 -0.45593999997E+02  0.45594000000E+02  0.51100000000E-03 0.  1.
    9900012    2    1    2    0    0 -0.25979173426E+02  0.12436969282E+02 -0.13679377595E+02  0.59301936771E+02  0.49999986766E+02 0.  0.
         12    1    1    2    0    0  0.25979173426E+02 -0.12436969282E+02  0.13679377595E+02  0.31886063229E+02  0.00000000000E+00 0. -1.
         11    1    3    3    0    0 -0.24774648830E+02  0.25263799967E+02 -0.14276185724E+02  0.38155632514E+02  0.51100000000E-03 0. -1.
        -11    1    3    3    0    0 -0.24463228585E+01 -0.24399464024E+01 -0.72754888421E+01  0.80542269726E+01  0.51100000000E-03 0.  1.
        -12    1    3    3    0    0  0.12417982617E+01 -0.10386884283E+02  0.78722969707E+01  0.13092077285E+02  0.00000000000E+00 0.  1.
</event>
<event>
 7    1  0.5634483E-012  0.5930198E+02  0.7816164E-02  0.1266605E+00
        -11   -1    0    0    0    0  0.00000000000E+00  0.00000000000E+00  0.45593999997E+02  0.45594000000E+02  0.51100000000E-03 0. -1.
         11   -1    0    0    0    0 -0.00000000000E+00 -0.00000000000E+00 -0.45593999997E+02  0.45594000000E+02  0.51100000000E-03 0.  1.
    9900012    2    1    2    0    0  0.11410849595E+02  0.11758859472E+02 -0.27353979960E+02  0.59301976664E+02  0.50000059520E+02 0.  0.
         12    1    1    2    0    0 -0.11410849595E+02 -0.11758859472E+02  0.27353979960E+02  0.31886023336E+02  0.00000000000E+00 0. -1.
         11    1    3    3    0    0  0.72609686510E+01  0.76065867689E+01 -0.16682197275E+02  0.19719978048E+02  0.51100000000E-03 0. -1.
        -11    1    3    3    0    0 -0.32730888883E+01  0.42369989245E+01 -0.23857140822E+02  0.24450530449E+02  0.51100000000E-03 0.  1.
         12    1    3    3    0    0  0.74229698323E+01 -0.84726221204E-01  0.13185358138E+02  0.15131468167E+02  0.00000000000E+00 0. -1.
</event>
<event>
 7    1  0.5634483E-012  0.5930194E+02  0.7816164E-02  0.1266605E+00
        -11   -1    0    0    0    0  0.00000000000E+00  0.00000000000E+00  0.45593999997E+02  0.45594000000E+02  0.51100000000E-03 0. -1.
         11   -1    0    0    0    0 -0.00000000000E+00 -0.00000000000E+00 -0.45593999997E+02  0.45594000000E+02  0.51100000000E-03 0.  1.
    9900012    2    1    2    0    0 -0.18074609650E+02  0.12846628591E+02  0.22912736800E+02  0.59301938973E+02  0.49999990781E+02 0.  0.
         12    1    1    2    0    0  0.18074609650E+02 -0.12846628591E+02 -0.22912736800E+02  0.31886061027E+02  0.00000000000E+00 0. -1.
         11    1    3    3    0    0 -0.21155850693E+02  0.12129884140E+01  0.30936354175E+02  0.37497991537E+02  0.51100000000E-03 0. -1.
        -11    1    3    3    0    0 -0.22574814143E+01  0.82511122834E+01  0.30266305380E+01  0.90740051204E+01  0.51100000000E-03 0.  1.
        -12    1    3    3    0    0  0.53387224576E+01  0.33825278932E+01 -0.11050247912E+02  0.12729942315E+02  0.00000000000E+00 0.  1.
</event>
<event>
 7    1  0.5634483E-012  0.5930195E+02  0.7816164E-02  0.1266605E+00
        -11   -1    0    0    0    0  0.00000000000E+00  0.00000000000E+00  0.45593999997E+02  0.45594000000E+02  0.51100000000E-03 0.  1.
         11   -1    0    0    0    0 -0.00000000000E+00 -0.00000000000E+00 -0.45593999997E+02  0.45594000000E+02  0.51100000000E-03 0. -1.
    9900012    2    1    2    0    0  0.22331892759E+02  0.34544808421E+01  0.22496071114E+02  0.59301951520E+02  0.50000013664E+02 0.  0.
         12    1    1    2    0    0 -0.22331892759E+02 -0.34544808421E+01 -0.22496071114E+02  0.31886048480E+02  0.00000000000E+00 0. -1.
         11    1    3    3    0    0  0.40238471188E+00  0.17897223244E+02  0.15809670660E+02  0.23883429401E+02  0.51100000000E-03 0. -1.
        -11    1    3    3    0    0  0.10774987607E+02  0.16969558033E+01  0.10825041968E+02  0.15367548627E+02  0.51100000000E-03 0.  1.
         12    1    3    3    0    0  0.11154520440E+02 -0.16139698206E+02 -0.41386415130E+01  0.20050973492E+02  0.00000000000E+00 0. -1.
</event>
<event>
 7    1  0.5634483E-012  0.5930194E+02  0.7816164E-02  0.1266605E+00
        -11   -1    0    0    0    0  0.00000000000E+00  0.00000000000E+00  0.45593999997E+02  0.45594000000E+02  0.51100000000E-03 0. -1.
         11   -1    0    0    0    0 -0.00000000000E+00 -0.00000000000E+00 -0.45593999997E+02  0.45594000000E+02  0.51100000000E-03 0.  1.
    9900012    2    1    2    0    0 -0.11618370212E+02  0.22519897772E+02 -0.19354285684E+02  0.59301941974E+02  0.49999996255E+02 0.  0.
         12    1    1    2    0    0  0.11618370212E+02 -0.22519897772E+02  0.19354285684E+02  0.31886058026E+02  0.00000000000E+00 0. -1.
         11    1    3    3    0    0  0.75088102886E+01 -0.82843308685E+00 -0.40977941965E+01  0.85942103109E+01  0.51100000000E-03 0. -1.
        -11    1    3    3    0    0 -0.21787618919E+01  0.19407621050E+02 -0.24237250916E+02  0.31126308655E+02  0.51100000000E-03 0.  1.
         12    1    3    3    0    0 -0.16948418609E+02  0.39407098086E+01  0.89807594285E+01  0.19581423009E+02  0.00000000000E+00 0. -1.
</event>
<event>
 7    1  0.5634483E-012  0.5930194E+02  0.7816164E-02  0.1266605E+00
        -11   -1    0    0    0    0  0.00000000000E+00  0.00000000000E+00  0.45593999997E+02  0.45594000000E+02  0.51100000000E-03 0.  1.
         11   -1    0    0    0    0 -0.00000000000E+00 -0.00000000000E+00 -0.45593999997E+02  0.45594000000E+02  0.51100000000E-03 0. -1.
    9900012    2    1    2    0    0 -0.14686649542E+02  0.26331394830E+01  0.28179596989E+02  0.59301940589E+02  0.49999993729E+02 0.  0.
         12    1    1    2    0    0  0.14686649542E+02 -0.26331394830E+01 -0.28179596989E+02  0.31886059411E+02  0.00000000000E+00 0. -1.
         11    1    3    3    0    0  0.14593569468E+02  0.75804331103E+01  0.10224940415E+02  0.19364520203E+02  0.51100000000E-03 0. -1.
        -11    1    3    3    0    0 -0.11619202199E+01  0.55232840052E+01  0.23030971379E+01  0.60959807650E+01  0.51100000000E-03 0.  1.
        -12    1    3    3    0    0 -0.28118298790E+02 -0.10470577633E+02  0.15651559436E+02  0.33841439621E+02  0.00000000000E+00 0.  1.
</event>
<event>
 7    1  0.5634483E-012  0.5930194E+02  0.7816164E-02  0.1266605E+00
        -11   -1    0    0    0    0  0.00000000000E+00  0.00000000000E+00  0.45593999997E+02  0.45594000000E+02  0.51100000000E-03 0.  1.
         11   -1    0    0    0    0 -0.00000000000E+00 -0.00000000000E+00 -0.45593999997E+02  0.45594000000E+02  0.51100000000E-03 0. -1.
    9900012    2    1    2    0    0  0.23699220223E+02 -0.20317255201E+02  0.65020501294E+01  0.59301944208E+02  0.50000000329E+02 0.  0.
         12    1    1    2    0    0 -0.23699220223E+02  0.20317255201E+02 -0.65020501294E+01  0.31886055792E+02  0.00000000000E+00 0. -1.
         11    1    3    3    0    0  0.11746649493E+02 -0.62956419386E+01 -0.12291321086E+02  0.18129960178E+02  0.51100000000E-03 0. -1.
        -11    1    3    3    0    0  0.18035143726E+01 -0.19362981753E+02  0.34569073999E+00  0.19449864493E+02  0.51100000000E-03 0.  1.
         12    1    3    3    0    0  0.10149056357E+02  0.53413684899E+01  0.18447680475E+02  0.21722119538E+02  0.00000000000E+00 0. -1.
</event>
<event>
 7    1  0.5634483E-012  0.5930192E+02  0.7816164E-02  0.1266605E+00
        -11   -1    0    0    0    0  0.00000000000E+00  0.00000000000E+00  0.45593999997E+02  0.45594000000E+02  0.51100000000E-03 0.  1.
         11   -1    0    0    0    0 -0.00000000000E+00 -0.00000000000E+00 -0.45593999997E+02  0.45594000000E+02  0.51100000000E-03 0. -1.
    9900012    2    1    2    0    0  0.85529147622E+01  0.64025013496E+01  0.30042933523E+02  0.59301917940E+02  0.49999952422E+02 0.  0.
         12    1    1    2    0    0 -0.85529147622E+01 -0.64025013496E+01 -0.30042933523E+02  0.31886082060E+02  0.00000000000E+00 0. -1.
         11    1    3    3    0    0 -0.74979412616E+01 -0.58315385127E+01  0.75566837047E+01  0.12137933657E+02  0.51100000000E-03 0. -1.
        -11    1    3    3    0    0 -0.75491821583E+01  0.13114207428E+01  0.19544776050E+02  0.20993052344E+02  0.51100000000E-03 0.  1.
        -12    1    3    3    0    0  0.23600038182E+02  0.10922619119E+02  0.29414737690E+01  0.26170931939E+02  0.00000000000E+00 0.  1.
</event>
<event>
 7    1  0.5634483E-012  0.5930198E+02  0.7816164E-02  0.1266605E+00
        -11   -1    0    0    0    0  0.00000000000E+00  0.00000000000E+00  0.45593999997E+02  0.45594000000E+02  0.51100000000E-03 0.  1.
         11   -1    0    0    0    0 -0.00000000000E+00 -0.00000000000E+00 -0.45593999997E+02  0.45594000000E+02  0.51100000000E-03 0. -1.
    9900012    2    1    2    0    0 -0.62294696143E+01 -0.17917127742E+02  0.25629836596E+02  0.59301979832E+02  0.50000065299E+02 0.  0.
         12    1    1    2    0    0  0.62294696143E+01  0.17917127742E+02 -0.25629836596E+02  0.31886020168E+02  0.00000000000E+00 0. -1.
         11    1    3    3    0    0  0.53403619255E+01  0.54203898377E+01  0.40600313745E+01  0.86246128326E+01  0.51100000000E-03 0. -1.
        -11    1    3    3    0    0 -0.89073097828E+01  0.92658764472E+01  0.35665661660E+01  0.13338554209E+02  0.51100000000E-03 0.  1.
        -12    1    3    3    0    0 -0.26625217571E+01 -0.32603394027E+02  0.18003239055E+02  0.37338812791E+02  0.00000000000E+00 0.  1.
</event>
<event>
 7    1  0.5634483E-012  0.5930195E+02  0.7816164E-02  0.1266605E+00
        -11   -1    0    0    0    0  0.00000000000E+00  0.00000000000E+00  0.45593999997E+02  0.45594000000E+02  0.51100000000E-03 0.  1.
         11   -1    0    0    0    0 -0.00000000000E+00 -0.00000000000E+00 -0.45593999997E+02  0.45594000000E+02  0.51100000000E-03 0. -1.
    9900012    2    1    2    0    0  0.21472004971E+02  0.23484704733E+02  0.20350721245E+01  0.59301954895E+02  0.50000019819E+02 0.  0.
         12    1    1    2    0    0 -0.21472004971E+02 -0.23484704733E+02 -0.20350721245E+01  0.31886045105E+02  0.00000000000E+00 0. -1.
         11    1    3    3    0    0  0.77068664823E+01  0.15020961328E+01  0.14389200952E+02  0.16392107493E+02  0.51100000000E-03 0.  1.
        -11    1    3    3    0    0  0.22245000155E+01  0.19276419810E+02  0.66497507383E+01  0.20512141433E+02  0.51100000000E-03 0. -1.
         12    1    3    3    0    0  0.11540638474E+02  0.27061887899E+01 -0.19003879565E+02  0.22397705969E+02  0.00000000000E+00 0. -1.
</event>
<event>
 7    1  0.5634483E-012  0.5930195E+02  0.7816164E-02  0.1266605E+00
        -11   -1    0    0    0    0  0.00000000000E+00  0.00000000000E+00  0.45593999997E+02  0.45594000000E+02  0.51100000000E-03 0.  1.
         11   -1    0    0    0    0 -0.00000000000E+00 -0.00000000000E+00 -0.45593999997E+02  0.45594000000E+02  0.51100000000E-03 0. -1.
    9900012    2    1    2    0    0  0.14358356675E+02 -0.13708327061E+02  0.24952751894E+02  0.59301945614E+02  0.50000002893E+02 0.  0.
         12    1    1    2    0    0 -0.14358356675E+02  0.13708327061E+02 -0.24952751894E+02  0.31886054386E+02  0.00000000000E+00 0. -1.
         11    1    3    3    0    0  0.46791892510E+01  0.14580271442E+02  0.13062560484E+02  0.20127334995E+02  0.51100000000E-03 0. -1.
        -11    1    3    3    0    0  0.36698578999E+01 -0.86455792946E+00  0.10397782743E+02  0.11060253327E+02  0.51100000000E-03 0.  1.
         12    1    3    3    0    0  0.60093095236E+01 -0.27424040573E+02  0.14924086676E+01  0.28114357292E+02  0.00000000000E+00 0. -1.
</event>
<event>
 7    1  0.5634483E-012  0.5930221E+02  0.7816164E-02  0.1266604E+00
        -11   -1    0    0    0    0  0.00000000000E+00  0.00000000000E+00  0.45593999997E+02  0.45594000000E+02  0.51100000000E-03 0. -1.
         11   -1    0    0    0    0 -0.00000000000E+00 -0.00000000000E+00 -0.45593999997E+02  0.45594000000E+02  0.51100000000E-03 0.  1.
    9900012    2    1    2    0    0 -0.13280631240E+01 -0.65449295507E+01 -0.31178580919E+02  0.59302207512E+02  0.50000480529E+02 0.  0.
         12    1    1    2    0    0  0.13280631240E+01  0.65449295507E+01  0.31178580919E+02  0.31885792488E+02  0.00000000000E+00 0. -1.
         11    1    3    3    0    0  0.16452627314E+02  0.12651341833E+01 -0.69489132917E+01  0.17904661578E+02  0.51100000000E-03 0. -1.
        -11    1    3    3    0    0 -0.86205726947E+01 -0.11742119345E+02  0.66426842662E+00  0.14581937220E+02  0.51100000000E-03 0.  1.
        -12    1    3    3    0    0 -0.91601177431E+01  0.39320556106E+01 -0.24893936054E+02  0.26815608713E+02  0.00000000000E+00 0.  1.
</event>
<event>
 7    1  0.5634483E-012  0.5930193E+02  0.7816164E-02  0.1266605E+00
        -11   -1    0    0    0    0  0.00000000000E+00  0.00000000000E+00  0.45593999997E+02  0.45594000000E+02  0.51100000000E-03 0.  1.
         11   -1    0    0    0    0 -0.00000000000E+00 -0.00000000000E+00 -0.45593999997E+02  0.45594000000E+02  0.51100000000E-03 0. -1.
    9900012    2    1    2    0    0  0.20921388614E+02  0.15184277247E+02  0.18666948055E+02  0.59301925818E+02  0.49999966789E+02 0.  0.
         12    1    1    2    0    0 -0.20921388614E+02 -0.15184277247E+02 -0.18666948055E+02  0.31886074182E+02  0.00000000000E+00 0. -1.
         11    1    3    3    0    0  0.35812114102E+01  0.11481947952E+02 -0.30578990390E+01  0.12410114856E+02  0.51100000000E-03 0. -1.
        -11    1    3    3    0    0 -0.32927600481E+01  0.11052674702E+01 -0.90816801289E+01  0.97232093025E+01  0.51100000000E-03 0.  1.
        -12    1    3    3    0    0  0.20632937252E+02  0.25970618250E+01  0.30806527223E+02  0.37168601659E+02  0.00000000000E+00 0.  1.
</event>
<event>
 7    1  0.5634483E-012  0.5930191E+02  0.7816164E-02  0.1266605E+00
        -11   -1    0    0    0    0  0.00000000000E+00  0.00000000000E+00  0.45593999997E+02  0.45594000000E+02  0.51100000000E-03 0.  1.
         11   -1    0    0    0    0 -0.00000000000E+00 -0.00000000000E+00 -0.45593999997E+02  0.45594000000E+02  0.51100000000E-03 0. -1.
    9900012    2    1    2    0    0 -0.95384939188E+01 -0.59898267064E+01  0.29830549389E+02  0.59301912641E+02  0.49999942759E+02 0.  0.
         12    1    1    2    0    0  0.95384939188E+01  0.59898267064E+01 -0.29830549389E+02  0.31886087359E+02  0.00000000000E+00 0. -1.
         11    1    3    3    0    0  0.72764051489E+01  0.22282362690E+00  0.95268891342E+01  0.11989884866E+02  0.51100000000E-03 0. -1.
        -11    1    3    3    0    0  0.11075933098E+02 -0.79071793574E+01  0.16339512786E+01  0.13706552317E+02  0.51100000000E-03 0.  1.
         12    1    3    3    0    0 -0.27890832166E+02  0.16945290241E+01  0.18669708976E+02  0.33605475458E+02  0.00000000000E+00 0. -1.
</event>
<event>
 7    1  0.5634483E-012  0.5930195E+02  0.7816164E-02  0.1266605E+00
        -11   -1    0    0    0    0  0.00000000000E+00  0.00000000000E+00  0.45593999997E+02  0.45594000000E+02  0.51100000000E-03 0. -1.
         11   -1    0    0    0    0 -0.00000000000E+00 -0.00000000000E+00 -0.45593999997E+02  0.45594000000E+02  0.51100000000E-03 0.  1.
    9900012    2    1    2    0    0  0.25056159700E+02 -0.65043209137E+01 -0.18617268256E+02  0.59301952788E+02  0.50000015977E+02 0.  0.
         12    1    1    2    0    0 -0.25056159700E+02  0.65043209137E+01  0.18617268256E+02  0.31886047212E+02  0.00000000000E+00 0. -1.
         11    1    3    3    0    0  0.75988793922E+01 -0.15784397936E+02 -0.11633634005E+02  0.21029303998E+02  0.51100000000E-03 0. -1.
        -11    1    3    3    0    0  0.51090500057E+00 -0.73143961074E+01 -0.11968793788E+02  0.14036147596E+02  0.51100000000E-03 0.  1.
        -12    1    3    3    0    0  0.16946375308E+02  0.16594473130E+02  0.49851595368E+01  0.24236501194E+02  0.00000000000E+00 0.  1.
</event>
<event>
 7    1  0.5634483E-012  0.5930189E+02  0.7816164E-02  0.1266605E+00
        -11   -1    0    0    0    0  0.00000000000E+00  0.00000000000E+00  0.45593999997E+02  0.45594000000E+02  0.51100000000E-03 0.  1.
         11   -1    0    0    0    0 -0.00000000000E+00 -0.00000000000E+00 -0.45593999997E+02  0.45594000000E+02  0.51100000000E-03 0. -1.
    9900012    2    1    2    0    0  0.54978115436E+01  0.31006405896E+02  0.50100735401E+01  0.59301890560E+02  0.49999902488E+02 0.  0.
         12    1    1    2    0    0 -0.54978115436E+01 -0.31006405896E+02 -0.50100735401E+01  0.31886109440E+02  0.00000000000E+00 0. -1.
         11    1    3    3    0    0  0.64925616289E+01 -0.80630654260E+01  0.98690826106E+01  0.14302628164E+02  0.51100000000E-03 0. -1.
        -11    1    3    3    0    0 -0.28055135987E+01  0.27281931194E+02  0.68689830833E+01  0.28272912922E+02  0.51100000000E-03 0.  1.
        -12    1    3    3    0    0  0.18107635133E+01  0.11787540128E+02 -0.11727992154E+02  0.16726349474E+02  0.00000000000E+00 0.  1.
</event>
<event>
 7    1  0.5634483E-012  0.5930196E+02  0.7816164E-02  0.1266605E+00
        -11   -1    0    0    0    0  0.00000000000E+00  0.00000000000E+00  0.45593999997E+02  0.45594000000E+02  0.51100000000E-03 0.  1.
         11   -1    0    0    0    0 -0.00000000000E+00 -0.00000000000E+00 -0.45593999997E+02  0.45594000000E+02  0.51100000000E-03 0. -1.
    9900012    2    1    2    0    0 -0.29193425788E+02  0.12805354098E+02 -0.69737605900E+00  0.59301960168E+02  0.50000029435E+02 0.  0.
         12    1    1    2    0    0  0.29193425788E+02 -0.12805354098E+02  0.69737605900E+00  0.31886039832E+02  0.00000000000E+00 0. -1.
         11    1    3    3    0    0 -0.12940170952E+02 -0.17941266321E+02 -0.82164703127E+01  0.23597615264E+02  0.51100000000E-03 0.  1.
        -11    1    3    3    0    0 -0.33405118207E+01  0.64864854435E+01  0.36202120244E+00  0.73051059024E+01  0.51100000000E-03 0. -1.
        -12    1    3    3    0    0 -0.12912743016E+02  0.24260134975E+02  0.71570730512E+01  0.28399239002E+02  0.00000000000E+00 0.  1.
</event>
<event>
 7    1  0.5634483E-012  0.5930191E+02  0.7816164E-02  0.1266605E+00
        -11   -1    0    0    0    0  0.00000000000E+00  0.00000000000E+00  0.45593999997E+02  0.45594000000E+02  0.51100000000E-03 0.  1.
         11   -1    0    0    0    0 -0.00000000000E+00 -0.00000000000E+00 -0.45593999997E+02  0.45594000000E+02  0.51100000000E-03 0. -1.
    9900012    2    1    2    0    0 -0.25146045867E+02 -0.97490482380E+01  0.17010443322E+02  0.59301909831E+02  0.49999937633E+02 0.  0.
         12    1    1    2    0    0  0.25146045867E+02  0.97490482380E+01 -0.17010443322E+02  0.31886090169E+02  0.00000000000E+00 0. -1.
         11    1    3    3    0    0  0.66998824847E+01 -0.53667702469E+01 -0.97408248670E+01  0.12983617275E+02  0.51100000000E-03 0. -1.
        -11    1    3    3    0    0 -0.32471979051E+01  0.51965333503E+01  0.19181715710E+00  0.61306644974E+01  0.51100000000E-03 0.  1.
         12    1    3    3    0    0 -0.28598730446E+02 -0.95788113414E+01  0.26559451032E+02  0.40187628058E+02  0.00000000000E+00 0. -1.
</event>
<event>
 7    1  0.5634483E-012  0.5930193E+02  0.7816164E-02  0.1266605E+00
        -11   -1    0    0    0    0  0.00000000000E+00  0.00000000000E+00  0.45593999997E+02  0.45594000000E+02  0.51100000000E-03 0.  1.
         11   -1    0    0    0    0 -0.00000000000E+00 -0.00000000000E+00 -0.45593999997E+02  0.45594000000E+02  0.51100000000E-03 0. -1.
    9900012    2    1    2    0    0 -0.56247748110E+01 -0.14166400163E+02  0.28007077405E+02  0.59301931412E+02  0.49999976992E+02 0.  0.
         12    1    1    2    0    0  0.56247748110E+01  0.14166400163E+02 -0.28007077405E+02  0.31886068588E+02  0.00000000000E+00 0. -1.
         11    1    3    3    0    0  0.72691292944E+01  0.61222683897E+01 -0.56784115037E+00  0.95207591487E+01  0.51100000000E-03 0. -1.
        -11    1    3    3    0    0  0.48311610891E+01 -0.21772179573E+02  0.20324917493E+02  0.30173998611E+02  0.51100000000E-03 0.  1.
         12    1    3    3    0    0 -0.17725065194E+02  0.14835110206E+01  0.82500010618E+01  0.19607173652E+02  0.00000000000E+00 0. -1.
</event>
<event>
 7    1  0.5634483E-012  0.5930195E+02  0.7816164E-02  0.1266605E+00
        -11   -1    0    0    0    0  0.00000000000E+00  0.00000000000E+00  0.45593999997E+02  0.45594000000E+02  0.51100000000E-03 0.  1.
         11   -1    0    0    0    0 -0.00000000000E+00 -0.00000000000E+00 -0.45593999997E+02  0.45594000000E+02  0.51100000000E-03 0. -1.
    9900012    2    1    2    0    0  0.47468273433E+01  0.20530331898E+02  0.23931008744E+02  0.59301951684E+02  0.50000013964E+02 0.  0.
         12    1    1    2    0    0 -0.47468273433E+01 -0.20530331898E+02 -0.23931008744E+02  0.31886048316E+02  0.00000000000E+00 0. -1.
         11    1    3    3    0    0  0.13151693161E+02  0.46788314871E+01  0.47662690410E+01  0.14750451448E+02  0.51100000000E-03 0. -1.
        -11    1    3    3    0    0 -0.26506637650E+01  0.17333516468E+02  0.28513726537E+02  0.33474011006E+02  0.51100000000E-03 0.  1.
        -12    1    3    3    0    0 -0.57542020523E+01 -0.14820160571E+01 -0.93489868334E+01  0.11077489231E+02  0.00000000000E+00 0.  1.
</event>
<event>
 7    1  0.5634483E-012  0.5930195E+02  0.7816164E-02  0.1266605E+00
        -11   -1    0    0    0    0  0.00000000000E+00  0.00000000000E+00  0.45593999997E+02  0.45594000000E+02  0.51100000000E-03 0.  1.
         11   -1    0    0    0    0 -0.00000000000E+00 -0.00000000000E+00 -0.45593999997E+02  0.45594000000E+02  0.51100000000E-03 0. -1.
    9900012    2    1    2    0    0  0.27282475886E+02  0.76137631141E+01  0.14642988794E+02  0.59301952894E+02  0.50000016169E+02 0.  0.
         12    1    1    2    0    0 -0.27282475886E+02 -0.76137631141E+01 -0.14642988794E+02  0.31886047106E+02  0.00000000000E+00 0. -1.
         11    1    3    3    0    0  0.26024695849E+02  0.99601790163E+00  0.12477773068E+02  0.28878567601E+02  0.51100000000E-03 0. -1.
        -11    1    3    3    0    0  0.91608971347E+01  0.12325311622E+02  0.96461803591E+01  0.18135163045E+02  0.51100000000E-03 0.  1.
         12    1    3    3    0    0 -0.79031170969E+01 -0.57075664092E+01 -0.74809646336E+01  0.12288222248E+02  0.00000000000E+00 0. -1.
</event>
<event>
 7    1  0.5634483E-012  0.5930194E+02  0.7816164E-02  0.1266605E+00
        -11   -1    0    0    0    0  0.00000000000E+00  0.00000000000E+00  0.45593999997E+02  0.45594000000E+02  0.51100000000E-03 0.  1.
         11   -1    0    0    0    0 -0.00000000000E+00 -0.00000000000E+00 -0.45593999997E+02  0.45594000000E+02  0.51100000000E-03 0. -1.
    9900012    2    1    2    0    0 -0.24085821304E+02 -0.19849107140E+02 -0.65273858067E+01  0.59301943367E+02  0.49999998795E+02 0.  0.
         12    1    1    2    0    0  0.24085821304E+02  0.19849107140E+02  0.65273858067E+01  0.31886056633E+02  0.00000000000E+00 0. -1.
         11    1    3    3    0    0 -0.79842337650E+01 -0.62875330813E+01 -0.24772109228E+02  0.26775706470E+02  0.51100000000E-03 0. -1.
        -11    1    3    3    0    0 -0.32106868986E+00  0.25864446493E+01 -0.10663016571E+01  0.28159865966E+01  0.51100000000E-03 0.  1.
        -12    1    3    3    0    0 -0.15780518849E+02 -0.16148018708E+02  0.19311025079E+02  0.29710250301E+02  0.00000000000E+00 0.  1.
</event>
<event>
 7    1  0.5634483E-012  0.5930195E+02  0.7816164E-02  0.1266605E+00
        -11   -1    0    0    0    0  0.00000000000E+00  0.00000000000E+00  0.45593999997E+02  0.45594000000E+02  0.51100000000E-03 0. -1.
         11   -1    0    0    0    0 -0.00000000000E+00 -0.00000000000E+00 -0.45593999997E+02  0.45594000000E+02  0.51100000000E-03 0.  1.
    9900012    2    1    2    0    0 -0.11068878106E+02 -0.16168800166E+02 -0.25154918065E+02  0.59301951888E+02  0.50000014336E+02 0.  0.
         12    1    1    2    0    0  0.11068878106E+02  0.16168800166E+02  0.25154918065E+02  0.31886048112E+02  0.00000000000E+00 0. -1.
         11    1    3    3    0    0  0.34790550507E+01 -0.22504072341E+02 -0.49457481078E+01  0.23302307195E+02  0.51100000000E-03 0. -1.
        -11    1    3    3    0    0 -0.74563346180E+01 -0.10662254843E+01 -0.23935630762E+02  0.25092791454E+02  0.51100000000E-03 0.  1.
        -12    1    3    3    0    0 -0.70915985388E+01  0.74014976599E+01  0.37264608053E+01  0.10906853239E+02  0.00000000000E+00 0.  1.
</event>
<event>
 7    1  0.5634483E-012  0.5930194E+02  0.7816164E-02  0.1266605E+00
        -11   -1    0    0    0    0  0.00000000000E+00  0.00000000000E+00  0.45593999997E+02  0.45594000000E+02  0.51100000000E-03 0. -1.
         11   -1    0    0    0    0 -0.00000000000E+00 -0.00000000000E+00 -0.45593999997E+02  0.45594000000E+02  0.51100000000E-03 0.  1.
    9900012    2    1    2    0    0 -0.30330333097E+02 -0.12385252289E+01  0.97600237812E+01  0.59301935415E+02  0.49999984292E+02 0.  0.
         12    1    1    2    0    0  0.30330333097E+02  0.12385252289E+01 -0.97600237812E+01  0.31886064585E+02  0.00000000000E+00 0. -1.
         11    1    3    3    0    0 -0.75410322087E+01 -0.10376161182E+01 -0.19022587902E+02  0.20489086479E+02  0.51100000000E-03 0.  1.
        -11    1    3    3    0    0  0.32035474309E+00 -0.19843439845E+01  0.59373980150E+01  0.62684083833E+01  0.51100000000E-03 0. -1.
        -12    1    3    3    0    0 -0.23109655632E+02  0.17834348738E+01  0.22845213668E+02  0.32544440553E+02  0.00000000000E+00 0.  1.
</event>
<event>
 7    1  0.5634483E-012  0.5930195E+02  0.7816164E-02  0.1266605E+00
        -11   -1    0    0    0    0  0.00000000000E+00  0.00000000000E+00  0.45593999997E+02  0.45594000000E+02  0.51100000000E-03 0.  1.
         11   -1    0    0    0    0 -0.00000000000E+00 -0.00000000000E+00 -0.45593999997E+02  0.45594000000E+02  0.51100000000E-03 0. -1.
    9900012    2    1    2    0    0 -0.16780119220E+02 -0.37639921286E+01  0.26851070854E+02  0.59301952208E+02  0.50000014919E+02 0.  0.
         12    1    1    2    0    0  0.16780119220E+02  0.37639921286E+01 -0.26851070854E+02  0.31886047792E+02  0.00000000000E+00 0. -1.
         11    1    3    3    0    0 -0.62506914065E+01 -0.16035494962E+02  0.59450303648E+01  0.18208559197E+02  0.51100000000E-03 0. -1.
        -11    1    3    3    0    0 -0.21507199769E+02  0.58034267632E+01  0.16057200549E+02  0.27460391363E+02  0.51100000000E-03 0.  1.
         12    1    3    3    0    0  0.10977771955E+02  0.64680760704E+01  0.48488399401E+01  0.13633001647E+02  0.00000000000E+00 0. -1.
</event>
<event>
 7    1  0.5634483E-012  0.5930191E+02  0.7816164E-02  0.1266605E+00
        -11   -1    0    0    0    0  0.00000000000E+00  0.00000000000E+00  0.45593999997E+02  0.45594000000E+02  0.51100000000E-03 0. -1.
         11   -1    0    0    0    0 -0.00000000000E+00 -0.00000000000E+00 -0.45593999997E+02  0.45594000000E+02  0.51100000000E-03 0.  1.
    9900012    2    1    2    0    0 -0.62893253920E+01  0.23838419659E+02 -0.20221195458E+02  0.59301911944E+02  0.49999941488E+02 0.  0.
         12    1    1    2    0    0  0.62893253920E+01 -0.23838419659E+02  0.20221195458E+02  0.31886088056E+02  0.00000000000E+00 0. -1.
         11    1    3    3    0    0 -0.26672360141E+01 -0.73326258952E+01 -0.10638284571E+02  0.13192977274E+02  0.51100000000E-03 0. -1.
        -11    1    3    3    0    0  0.47296820755E+01  0.21315961364E+02 -0.19926406226E+02  0.29560138138E+02  0.51100000000E-03 0.  1.
         12    1    3    3    0    0 -0.83517714534E+01  0.98550841909E+01  0.10343495340E+02  0.16548796532E+02  0.00000000000E+00 0. -1.
</event>
<event>
 7    1  0.5634483E-012  0.5930189E+02  0.7816164E-02  0.1266605E+00
        -11   -1    0    0    0    0  0.00000000000E+00  0.00000000000E+00  0.45593999997E+02  0.45594000000E+02  0.51100000000E-03 0.  1.
         11   -1    0    0    0    0 -0.00000000000E+00 -0.00000000000E+00 -0.45593999997E+02  0.45594000000E+02  0.51100000000E-03 0. -1.
    9900012    2    1    2    0    0  0.22127773717E+02  0.45768103037E+00  0.22953789459E+02  0.59301885591E+02  0.49999893425E+02 0.  0.
         12    1    1    2    0    0 -0.22127773717E+02 -0.45768103037E+00 -0.22953789459E+02  0.31886114409E+02  0.00000000000E+00 0. -1.
         11    1    3    3    0    0 -0.25075674688E+01  0.47680889005E+00  0.95098635330E+01  0.98464585514E+01  0.51100000000E-03 0. -1.
        -11    1    3    3    0    0 -0.99987671673E+01  0.69188783632E+01  0.49370503670E+01  0.13123288051E+02  0.51100000000E-03 0.  1.
         12    1    3    3    0    0  0.34634108353E+02 -0.69380062229E+01  0.85068755592E+01  0.36332138989E+02  0.00000000000E+00 0. -1.
</event>
<event>
 7    1  0.5634483E-012  0.5930199E+02  0.7816164E-02  0.1266605E+00
        -11   -1    0    0    0    0  0.00000000000E+00  0.00000000000E+00  0.45593999997E+02  0.45594000000E+02  0.51100000000E-03 0.  1.
         11   -1    0    0    0    0 -0.00000000000E+00 -0.00000000000E+00 -0.45593999997E+02  0.45594000000E+02  0.51100000000E-03 0. -1.
    9900012    2    1    2    0    0 -0.26080545878E+02 -0.18288370861E+02  0.14346402747E+01  0.59301990924E+02  0.50000085528E+02 0.  0.
         12    1    1    2    0    0  0.26080545878E+02  0.18288370861E+02 -0.14346402747E+01  0.31886009076E+02  0.00000000000E+00 0. -1.
         11    1    3    3    0    0  0.43054464140E+01  0.52109173780E+01  0.70855529701E+00  0.67965123125E+01  0.51100000000E-03 0. -1.
        -11    1    3    3    0    0 -0.26130954800E+02  0.12600155856E+01 -0.52483587795E+01  0.26682573118E+02  0.51100000000E-03 0.  1.
        -12    1    3    3    0    0 -0.42550374919E+01 -0.24759303825E+02  0.59744437573E+01  0.25822905494E+02  0.00000000000E+00 0.  1.
</event>
<event>
 7    1  0.5634483E-012  0.5930175E+02  0.7816164E-02  0.1266605E+00
        -11   -1    0    0    0    0  0.00000000000E+00  0.00000000000E+00  0.45593999997E+02  0.45594000000E+02  0.51100000000E-03 0.  1.
         11   -1    0    0    0    0 -0.00000000000E+00 -0.00000000000E+00 -0.45593999997E+02  0.45594000000E+02  0.51100000000E-03 0. -1.
    9900012    2    1    2    0    0  0.10856506573E+02  0.14592121717E+02  0.26190440518E+02  0.59301750210E+02  0.49999646521E+02 0.  0.
         12    1    1    2    0    0 -0.10856506573E+02 -0.14592121717E+02 -0.26190440518E+02  0.31886249790E+02  0.00000000000E+00 0. -1.
         11    1    3    3    0    0  0.14353836726E+02  0.19839441892E+01 -0.61173322823E+01  0.15728649587E+02  0.51100000000E-03 0.  1.
        -11    1    3    3    0    0 -0.11441450807E+02 -0.11891156401E+01  0.63977666196E+01  0.13162530553E+02  0.51100000000E-03 0. -1.
        -12    1    3    3    0    0  0.79441206539E+01  0.13797293168E+02  0.25910006181E+02  0.30410570070E+02  0.00000000000E+00 0.  1.
</event>
<event>
 7    1  0.5634483E-012  0.5930192E+02  0.7816164E-02  0.1266605E+00
        -11   -1    0    0    0    0  0.00000000000E+00  0.00000000000E+00  0.45593999997E+02  0.45594000000E+02  0.51100000000E-03 0.  1.
         11   -1    0    0    0    0 -0.00000000000E+00 -0.00000000000E+00 -0.45593999997E+02  0.45594000000E+02  0.51100000000E-03 0. -1.
    9900012    2    1    2    0    0  0.18704994767E+02 -0.99072763833E+01  0.23847241617E+02  0.59301923300E+02  0.49999962197E+02 0.  0.
         12    1    1    2    0    0 -0.18704994767E+02  0.99072763833E+01 -0.23847241617E+02  0.31886076700E+02  0.00000000000E+00 0. -1.
         11    1    3    3    0    0  0.89047542092E+01 -0.27162649169E+01 -0.12041336748E+02  0.15220595703E+02  0.51100000000E-03 0. -1.
        -11    1    3    3    0    0  0.10999046616E+02 -0.47183074208E+01  0.48377130720E+01  0.12909102192E+02  0.51100000000E-03 0.  1.
        -12    1    3    3    0    0 -0.11988060576E+01 -0.24727040456E+01  0.31050865293E+02  0.31172225405E+02  0.00000000000E+00 0.  1.
</event>
<event>
 7    1  0.5634483E-012  0.5930182E+02  0.7816164E-02  0.1266605E+00
        -11   -1    0    0    0    0  0.00000000000E+00  0.00000000000E+00  0.45593999997E+02  0.45594000000E+02  0.51100000000E-03 0.  1.
         11   -1    0    0    0    0 -0.00000000000E+00 -0.00000000000E+00 -0.45593999997E+02  0.45594000000E+02  0.51100000000E-03 0. -1.
    9900012    2    1    2    0    0 -0.61035888102E+01 -0.18158159857E+02  0.25490311401E+02  0.59301818964E+02  0.49999771913E+02 0.  0.
         12    1    1    2    0    0  0.61035888102E+01  0.18158159857E+02 -0.25490311401E+02  0.31886181036E+02  0.00000000000E+00 0. -1.
         11    1    3    3    0    0 -0.10440967956E+02  0.13559011122E+02  0.74653753899E+01  0.18670629996E+02  0.51100000000E-03 0. -1.
        -11    1    3    3    0    0  0.63643019486E+01 -0.91571043568E+01 -0.79802759953E+00  0.11180060277E+02  0.51100000000E-03 0.  1.
        -12    1    3    3    0    0 -0.20269228032E+01 -0.22560066622E+02  0.18822963611E+02  0.29451128691E+02  0.00000000000E+00 0.  1.
</event>
<event>
 7    1  0.5634483E-012  0.5930194E+02  0.7816164E-02  0.1266605E+00
        -11   -1    0    0    0    0  0.00000000000E+00  0.00000000000E+00  0.45593999997E+02  0.45594000000E+02  0.51100000000E-03 0. -1.
         11   -1    0    0    0    0 -0.00000000000E+00 -0.00000000000E+00 -0.45593999997E+02  0.45594000000E+02  0.51100000000E-03 0.  1.
    9900012    2    1    2    0    0 -0.12177325531E+02  0.20750154886E+02  0.20925213985E+02  0.59301940895E+02  0.49999994287E+02 0.  0.
         12    1    1    2    0    0  0.12177325531E+02 -0.20750154886E+02 -0.20925213985E+02  0.31886059105E+02  0.00000000000E+00 0. -1.
         11    1    3    3    0    0 -0.33401817856E+01 -0.38165100389E+01  0.64284833339E+01  0.81882819610E+01  0.51100000000E-03 0. -1.
        -11    1    3    3    0    0 -0.15197591568E+02  0.74344493896E+01 -0.10677091634E+02  0.20005951945E+02  0.51100000000E-03 0.  1.
         12    1    3    3    0    0  0.63604478225E+01  0.17132215536E+02  0.25173822285E+02  0.31107706989E+02  0.00000000000E+00 0. -1.
</event>
<event>
 7    1  0.5634483E-012  0.5930188E+02  0.7816164E-02  0.1266605E+00
        -11   -1    0    0    0    0  0.00000000000E+00  0.00000000000E+00  0.45593999997E+02  0.45594000000E+02  0.51100000000E-03 0.  1.
         11   -1    0    0    0    0 -0.00000000000E+00 -0.00000000000E+00 -0.45593999997E+02  0.45594000000E+02  0.51100000000E-03 0. -1.
    9900012    2    1    2    0    0 -0.21679500856E+02 -0.29662012858E+00  0.23380240202E+02  0.59301884326E+02  0.49999891118E+02 0.  0.
         12    1    1    2    0    0  0.21679500856E+02  0.29662012858E+00 -0.23380240202E+02  0.31886115674E+02  0.00000000000E+00 0. -1.
         11    1    3    3    0    0 -0.55108955740E+01 -0.16640645129E+02  0.65984462143E+01  0.18730203764E+02  0.51100000000E-03 0. -1.
        -11    1    3    3    0    0 -0.13113329364E+02 -0.13304202315E+01 -0.33589164458E+01  0.13601902255E+02  0.51100000000E-03 0.  1.
        -12    1    3    3    0    0 -0.30552759181E+01  0.17674445231E+02  0.20140710433E+02  0.26969778307E+02  0.00000000000E+00 0.  1.
</event>
<event>
 7    1  0.5634483E-012  0.5930207E+02  0.7816164E-02  0.1266604E+00
        -11   -1    0    0    0    0  0.00000000000E+00  0.00000000000E+00  0.45593999997E+02  0.45594000000E+02  0.51100000000E-03 0.  1.
         11   -1    0    0    0    0 -0.00000000000E+00 -0.00000000000E+00 -0.45593999997E+02  0.45594000000E+02  0.51100000000E-03 0. -1.
    9900012    2    1    2    0    0  0.18410948369E+02  0.24229506863E+02  0.95226415249E+01  0.59302066984E+02  0.50000224242E+02 0.  0.
         12    1    1    2    0    0 -0.18410948369E+02 -0.24229506863E+02 -0.95226415249E+01  0.31885933016E+02  0.00000000000E+00 0. -1.
         11    1    3    3    0    0 -0.28692741158E+01 -0.94638464047E+01  0.44139322814E+01  0.10829585457E+02  0.51100000000E-03 0. -1.
        -11    1    3    3    0    0  0.15954693237E+02  0.46898306969E+01 -0.48921533105E+01  0.17334356421E+02  0.51100000000E-03 0.  1.
         12    1    3    3    0    0  0.53255292473E+01  0.29003522571E+02  0.10000862554E+02  0.31138125106E+02  0.00000000000E+00 0. -1.
</event>
<event>
 7    1  0.5634483E-012  0.5930193E+02  0.7816164E-02  0.1266605E+00
        -11   -1    0    0    0    0  0.00000000000E+00  0.00000000000E+00  0.45593999997E+02  0.45594000000E+02  0.51100000000E-03 0. -1.
         11   -1    0    0    0    0 -0.00000000000E+00 -0.00000000000E+00 -0.45593999997E+02  0.45594000000E+02  0.51100000000E-03 0.  1.
    9900012    2    1    2    0    0  0.28857558912E+02  0.12753892943E+02  0.46153103774E+01  0.59301928096E+02  0.49999970945E+02 0.  0.
         12    1    1    2    0    0 -0.28857558912E+02 -0.12753892943E+02 -0.46153103774E+01  0.31886071904E+02  0.00000000000E+00 0. -1.
         11    1    3    3    0    0  0.38238653908E+02  0.46368010151E+01  0.43720699717E+01  0.38766087918E+02  0.51100000000E-03 0. -1.
        -11    1    3    3    0    0  0.19753042969E+01 -0.34474703632E+01  0.15726314279E+01  0.42731778385E+01  0.51100000000E-03 0.  1.
        -12    1    3    3    0    0 -0.11356399293E+02  0.11564562291E+02 -0.13293910222E+01  0.16262662340E+02  0.00000000000E+00 0.  1.
</event>
<event>
 7    1  0.5634483E-012  0.5930196E+02  0.7816164E-02  0.1266605E+00
        -11   -1    0    0    0    0  0.00000000000E+00  0.00000000000E+00  0.45593999997E+02  0.45594000000E+02  0.51100000000E-03 0. -1.
         11   -1    0    0    0    0 -0.00000000000E+00 -0.00000000000E+00 -0.45593999997E+02  0.45594000000E+02  0.51100000000E-03 0.  1.
    9900012    2    1    2    0    0 -0.15038828314E+02 -0.62638371607E+01 -0.27410168058E+02  0.59301963463E+02  0.50000035446E+02 0.  0.
         12    1    1    2    0    0  0.15038828314E+02  0.62638371607E+01  0.27410168058E+02  0.31886036537E+02  0.00000000000E+00 0. -1.
         11    1    3    3    0    0  0.89780740373E+00  0.51052535453E+01 -0.45767961168E+01  0.69149645590E+01  0.51100000000E-03 0.  1.
        -11    1    3    3    0    0 -0.44811318075E+01  0.12712257642E+02  0.44899608790E+01  0.14207103350E+02  0.51100000000E-03 0. -1.
         12    1    3    3    0    0 -0.11455503911E+02 -0.24081348348E+02 -0.27323332820E+02  0.38179895554E+02  0.00000000000E+00 0. -1.
</event>
<event>
 7    1  0.5634483E-012  0.5930195E+02  0.7816164E-02  0.1266605E+00
        -11   -1    0    0    0    0  0.00000000000E+00  0.00000000000E+00  0.45593999997E+02  0.45594000000E+02  0.51100000000E-03 0.  1.
         11   -1    0    0    0    0 -0.00000000000E+00 -0.00000000000E+00 -0.45593999997E+02  0.45594000000E+02  0.51100000000E-03 0. -1.
    9900012    2    1    2    0    0 -0.74987167325E+01 -0.20966913832E+02  0.22822754797E+02  0.59301947175E+02  0.50000005740E+02 0.  0.
         12    1    1    2    0    0  0.74987167325E+01  0.20966913832E+02 -0.22822754797E+02  0.31886052825E+02  0.00000000000E+00 0. -1.
         11    1    3    3    0    0 -0.97980793579E+01  0.33012369397E+01  0.17387539724E+02  0.20229361392E+02  0.51100000000E-03 0. -1.
        -11    1    3    3    0    0 -0.12347028276E+02 -0.17612085872E+02  0.76586863131E+01  0.22831779438E+02  0.51100000000E-03 0.  1.
         12    1    3    3    0    0  0.14646390901E+02 -0.66560648992E+01 -0.22234712403E+01  0.16240806344E+02  0.00000000000E+00 0. -1.
</event>
<event>
 7    1  0.5634483E-012  0.5930195E+02  0.7816164E-02  0.1266605E+00
        -11   -1    0    0    0    0  0.00000000000E+00  0.00000000000E+00  0.45593999997E+02  0.45594000000E+02  0.51100000000E-03 0.  1.
         11   -1    0    0    0    0 -0.00000000000E+00 -0.00000000000E+00 -0.45593999997E+02  0.45594000000E+02  0.51100000000E-03 0. -1.
    9900012    2    1    2    0    0  0.17008664359E+02 -0.57088749375E+01  0.26359713761E+02  0.59301946217E+02  0.50000003992E+02 0.  0.
         12    1    1    2    0    0 -0.17008664359E+02  0.57088749375E+01 -0.26359713761E+02  0.31886053783E+02  0.00000000000E+00 0. -1.
         11    1    3    3    0    0 -0.15154310669E+01 -0.63199180303E+01 -0.88953374212E+00  0.65596620162E+01  0.51100000000E-03 0. -1.
        -11    1    3    3    0    0  0.13402820899E+02 -0.13593484781E+00 -0.89874954237E+01  0.16137817714E+02  0.51100000000E-03 0.  1.
        -12    1    3    3    0    0  0.51212745277E+01  0.74697794059E+00  0.36236742926E+02  0.36604466486E+02  0.00000000000E+00 0.  1.
</event>
<event>
 7    1  0.5634483E-012  0.5930193E+02  0.7816164E-02  0.1266605E+00
        -11   -1    0    0    0    0  0.00000000000E+00  0.00000000000E+00  0.45593999997E+02  0.45594000000E+02  0.51100000000E-03 0.  1.
         11   -1    0    0    0    0 -0.00000000000E+00 -0.00000000000E+00 -0.45593999997E+02  0.45594000000E+02  0.51100000000E-03 0. -1.
    9900012    2    1    2    0    0 -0.19526677565E+02  0.20622764925E+02  0.14495930166E+02  0.59301928413E+02  0.49999971522E+02 0.  0.
         12    1    1    2    0    0  0.19526677565E+02 -0.20622764925E+02 -0.14495930166E+02  0.31886071587E+02  0.00000000000E+00 0. -1.
         11    1    3    3    0    0 -0.15088179143E+02 -0.12485518564E+02  0.99640836917E+01  0.21973263020E+02  0.51100000000E-03 0.  1.
        -11    1    3    3    0    0 -0.83175862604E+01  0.88786048846E+01 -0.89020563411E+00  0.12198538118E+02  0.51100000000E-03 0. -1.
        -12    1    3    3    0    0  0.38790878388E+01  0.24229678605E+02  0.54220521085E+01  0.25130127274E+02  0.00000000000E+00 0.  1.
</event>
<event>
 7    1  0.5634483E-012  0.5930193E+02  0.7816164E-02  0.1266605E+00
        -11   -1    0    0    0    0  0.00000000000E+00  0.00000000000E+00  0.45593999997E+02  0.45594000000E+02  0.51100000000E-03 0. -1.
         11   -1    0    0    0    0 -0.00000000000E+00 -0.00000000000E+00 -0.45593999997E+02  0.45594000000E+02  0.51100000000E-03 0.  1.
    9900012    2    1    2    0    0 -0.28689576214E+01 -0.30138656582E+02 -0.10007578393E+02  0.59301934648E+02  0.49999982893E+02 0.  0.
         12    1    1    2    0    0  0.28689576214E+01  0.30138656582E+02  0.10007578393E+02  0.31886065352E+02  0.00000000000E+00 0. -1.
         11    1    3    3    0    0 -0.74987864337E+01 -0.37654684163E+00  0.15835993340E+01  0.76734198773E+01  0.51100000000E-03 0. -1.
        -11    1    3    3    0    0 -0.44335627374E+01 -0.32895066366E+02  0.38881500235E+01  0.33419449138E+02  0.51100000000E-03 0.  1.
         12    1    3    3    0    0  0.90633915497E+01  0.31329566265E+01 -0.15479327751E+02  0.18209065633E+02  0.00000000000E+00 0. -1.
</event>
<event>
 7    1  0.5634483E-012  0.5930191E+02  0.7816164E-02  0.1266605E+00
        -11   -1    0    0    0    0  0.00000000000E+00  0.00000000000E+00  0.45593999997E+02  0.45594000000E+02  0.51100000000E-03 0.  1.
         11   -1    0    0    0    0 -0.00000000000E+00 -0.00000000000E+00 -0.45593999997E+02  0.45594000000E+02  0.51100000000E-03 0. -1.
    9900012    2    1    2    0    0 -0.44650321278E+01  0.26764038798E+02  0.16747314758E+02  0.59301908420E+02  0.49999935060E+02 0.  0.
         12    1    1    2    0    0  0.44650321278E+01 -0.26764038798E+02 -0.16747314758E+02  0.31886091580E+02  0.00000000000E+00 0. -1.
         11    1    3    3    0    0  0.10692675021E+02  0.11311268649E+02 -0.50253526336E+01  0.16356413632E+02  0.51100000000E-03 0. -1.
        -11    1    3    3    0    0  0.82229834228E+01  0.87892158151E+01  0.11176240643E+02  0.16424863049E+02  0.51100000000E-03 0.  1.
         12    1    3    3    0    0 -0.23380690572E+02  0.66635543337E+01  0.10596426749E+02  0.26520631739E+02  0.00000000000E+00 0. -1.
</event>
<event>
 7    1  0.5634483E-012  0.5930195E+02  0.7816164E-02  0.1266605E+00
        -11   -1    0    0    0    0  0.00000000000E+00  0.00000000000E+00  0.45593999997E+02  0.45594000000E+02  0.51100000000E-03 0. -1.
         11   -1    0    0    0    0 -0.00000000000E+00 -0.00000000000E+00 -0.45593999997E+02  0.45594000000E+02  0.51100000000E-03 0.  1.
    9900012    2    1    2    0    0  0.24669203755E+01 -0.25506430948E+02  0.18975156603E+02  0.59301948442E+02  0.50000008051E+02 0.  0.
         12    1    1    2    0    0 -0.24669203755E+01  0.25506430948E+02 -0.18975156603E+02  0.31886051558E+02  0.00000000000E+00 0. -1.
         11    1    3    3    0    0  0.38130019175E+01 -0.25464342331E+02  0.79001451420E+01  0.26932953932E+02  0.51100000000E-03 0. -1.
        -11    1    3    3    0    0 -0.67873743121E+01 -0.10125756504E+02 -0.45338999439E+01  0.13005984922E+02  0.51100000000E-03 0.  1.
        -12    1    3    3    0    0  0.54412927701E+01  0.10083667887E+02  0.15608911405E+02  0.19363009588E+02  0.00000000000E+00 0.  1.
</event>
<event>
 7    1  0.5634483E-012  0.5930188E+02  0.7816164E-02  0.1266605E+00
        -11   -1    0    0    0    0  0.00000000000E+00  0.00000000000E+00  0.45593999997E+02  0.45594000000E+02  0.51100000000E-03 0.  1.
         11   -1    0    0    0    0 -0.00000000000E+00 -0.00000000000E+00 -0.45593999997E+02  0.45594000000E+02  0.51100000000E-03 0. -1.
    9900012    2    1    2    0    0  0.69436266115E+00  0.23866729272E+02  0.21133433944E+02  0.59301875496E+02  0.49999875014E+02 0.  0.
         12    1    1    2    0    0 -0.69436266115E+00 -0.23866729272E+02 -0.21133433944E+02  0.31886124504E+02  0.00000000000E+00 0. -1.
         11    1    3    3    0    0  0.16752550739E+01  0.60538411902E+01 -0.63702678122E+01  0.89462721275E+01  0.51100000000E-03 0. -1.
        -11    1    3    3    0    0 -0.18067244435E+02  0.37516981297E+01  0.19441641985E+02  0.26804439999E+02  0.51100000000E-03 0.  1.
         12    1    3    3    0    0  0.17086352022E+02  0.14061189952E+02  0.80620597712E+01  0.23551163369E+02  0.00000000000E+00 0. -1.
</event>
<event>
 7    1  0.5634483E-012  0.5930194E+02  0.7816164E-02  0.1266605E+00
        -11   -1    0    0    0    0  0.00000000000E+00  0.00000000000E+00  0.45593999997E+02  0.45594000000E+02  0.51100000000E-03 0.  1.
         11   -1    0    0    0    0 -0.00000000000E+00 -0.00000000000E+00 -0.45593999997E+02  0.45594000000E+02  0.51100000000E-03 0. -1.
    9900012    2    1    2    0    0  0.10917452579E+02  0.26843532229E+02  0.13302430522E+02  0.59301942684E+02  0.49999997550E+02 0.  0.
         12    1    1    2    0    0 -0.10917452579E+02 -0.26843532229E+02 -0.13302430522E+02  0.31886057316E+02  0.00000000000E+00 0. -1.
         11    1    3    3    0    0  0.17679760834E+01 -0.35754491734E+01 -0.48122640534E+01  0.62503969317E+01  0.51100000000E-03 0. -1.
        -11    1    3    3    0    0  0.15948216250E+02 -0.18623801404E+01  0.15342254937E+01  0.16129721308E+02  0.51100000000E-03 0.  1.
         12    1    3    3    0    0 -0.67987397549E+01  0.32281361543E+02  0.16580469081E+02  0.36921824444E+02  0.00000000000E+00 0. -1.
</event>
<event>
 7    1  0.5634483E-012  0.5930199E+02  0.7816164E-02  0.1266605E+00
        -11   -1    0    0    0    0  0.00000000000E+00  0.00000000000E+00  0.45593999997E+02  0.45594000000E+02  0.51100000000E-03 0.  1.
         11   -1    0    0    0    0 -0.00000000000E+00 -0.00000000000E+00 -0.45593999997E+02  0.45594000000E+02  0.51100000000E-03 0. -1.
    9900012    2    1    2    0    0 -0.27264945962E+02 -0.16514727135E+02 -0.77721749717E+00  0.59301991192E+02  0.50000086017E+02 0.  0.
         12    1    1    2    0    0  0.27264945962E+02  0.16514727135E+02  0.77721749717E+00  0.31886008808E+02  0.00000000000E+00 0. -1.
         11    1    3    3    0    0  0.49638616988E+01 -0.34193955768E+01 -0.30849387167E+01  0.67711916398E+01  0.51100000000E-03 0. -1.
        -11    1    3    3    0    0  0.17873623241E+01 -0.17808678782E+02  0.31805429675E+01  0.18178546638E+02  0.51100000000E-03 0.  1.
        -12    1    3    3    0    0 -0.34016169985E+02  0.47133472240E+01 -0.87282174792E+00  0.34352252914E+02  0.00000000000E+00 0.  1.
</event>
<event>
 7    1  0.5634483E-012  0.5930196E+02  0.7816164E-02  0.1266605E+00
        -11   -1    0    0    0    0  0.00000000000E+00  0.00000000000E+00  0.45593999997E+02  0.45594000000E+02  0.51100000000E-03 0.  1.
         11   -1    0    0    0    0 -0.00000000000E+00 -0.00000000000E+00 -0.45593999997E+02  0.45594000000E+02  0.51100000000E-03 0. -1.
    9900012    2    1    2    0    0  0.34726966024E+01 -0.92269175613E+01  0.30323654828E+02  0.59301958046E+02  0.50000025566E+02 0.  0.
         12    1    1    2    0    0 -0.34726966024E+01  0.92269175613E+01 -0.30323654828E+02  0.31886041954E+02  0.00000000000E+00 0. -1.
         11    1    3    3    0    0  0.41235333695E+01 -0.29612025393E+01  0.78204498528E+01  0.93237162167E+01  0.51100000000E-03 0. -1.
        -11    1    3    3    0    0  0.81090730350E+01 -0.23704689614E+02  0.11397232971E+02  0.27523922229E+02  0.51100000000E-03 0.  1.
         12    1    3    3    0    0 -0.87599098021E+01  0.17438974593E+02  0.11105972004E+02  0.22454319601E+02  0.00000000000E+00 0. -1.
</event>
<event>
 7    1  0.5634483E-012  0.5930192E+02  0.7816164E-02  0.1266605E+00
        -11   -1    0    0    0    0  0.00000000000E+00  0.00000000000E+00  0.45593999997E+02  0.45594000000E+02  0.51100000000E-03 0.  1.
         11   -1    0    0    0    0 -0.00000000000E+00 -0.00000000000E+00 -0.45593999997E+02  0.45594000000E+02  0.51100000000E-03 0. -1.
    9900012    2    1    2    0    0  0.50825226673E+01  0.89462892884E+01  0.30180361822E+02  0.59301915757E+02  0.49999948440E+02 0.  0.
         12    1    1    2    0    0 -0.50825226673E+01 -0.89462892884E+01 -0.30180361822E+02  0.31886084243E+02  0.00000000000E+00 0. -1.
         11    1    3    3    0    0 -0.83945342802E+01  0.15850075362E+01 -0.19327941353E+01  0.87587754910E+01  0.51100000000E-03 0. -1.
        -11    1    3    3    0    0 -0.11565747397E+02 -0.36362957180E+00  0.16113746178E+02  0.19838133871E+02  0.51100000000E-03 0.  1.
         12    1    3    3    0    0  0.25042804345E+02  0.77249113241E+01  0.15999409779E+02  0.30705006395E+02  0.00000000000E+00 0. -1.
</event>
<event>
 7    1  0.5634483E-012  0.5930195E+02  0.7816164E-02  0.1266605E+00
        -11   -1    0    0    0    0  0.00000000000E+00  0.00000000000E+00  0.45593999997E+02  0.45594000000E+02  0.51100000000E-03 0.  1.
         11   -1    0    0    0    0 -0.00000000000E+00 -0.00000000000E+00 -0.45593999997E+02  0.45594000000E+02  0.51100000000E-03 0. -1.
    9900012    2    1    2    0    0 -0.30072273984E+02  0.53035074907E+01  0.91788462064E+01  0.59301951766E+02  0.50000014114E+02 0.  0.
         12    1    1    2    0    0  0.30072273984E+02 -0.53035074907E+01 -0.91788462064E+01  0.31886048234E+02  0.00000000000E+00 0. -1.
         11    1    3    3    0    0 -0.17480135832E+02 -0.15298687258E+02  0.55973740782E+01  0.23894258251E+02  0.51100000000E-03 0. -1.
        -11    1    3    3    0    0 -0.13188436373E+01 -0.36067705059E+01  0.74909351736E+01  0.84179719683E+01  0.51100000000E-03 0.  1.
         12    1    3    3    0    0 -0.11273294515E+02  0.24208965254E+02 -0.39094630454E+01  0.26989721547E+02  0.00000000000E+00 0. -1.
</event>
<event>
 7    1  0.5634483E-012  0.5930188E+02  0.7816164E-02  0.1266605E+00
        -11   -1    0    0    0    0  0.00000000000E+00  0.00000000000E+00  0.45593999997E+02  0.45594000000E+02  0.51100000000E-03 0. -1.
         11   -1    0    0    0    0 -0.00000000000E+00 -0.00000000000E+00 -0.45593999997E+02  0.45594000000E+02  0.51100000000E-03 0.  1.
    9900012    2    1    2    0    0 -0.11689756604E+02 -0.86398297589E+01 -0.28380059230E+02  0.59301877162E+02  0.49999878053E+02 0.  0.
         12    1    1    2    0    0  0.11689756604E+02  0.86398297589E+01  0.28380059230E+02  0.31886122838E+02  0.00000000000E+00 0. -1.
         11    1    3    3    0    0 -0.10648456729E+02 -0.21034095488E+02 -0.27029338061E+01  0.23730331964E+02  0.51100000000E-03 0. -1.
        -11    1    3    3    0    0  0.97084352459E+00 -0.45354821383E+01  0.13158879945E+00  0.46400917286E+01  0.51100000000E-03 0.  1.
         12    1    3    3    0    0 -0.20121434004E+01  0.16929747867E+02 -0.25808714223E+02  0.30931453470E+02  0.00000000000E+00 0. -1.
</event>
<event>
 7    1  0.5634483E-012  0.5930194E+02  0.7816164E-02  0.1266605E+00
        -11   -1    0    0    0    0  0.00000000000E+00  0.00000000000E+00  0.45593999997E+02  0.45594000000E+02  0.51100000000E-03 0. -1.
         11   -1    0    0    0    0 -0.00000000000E+00 -0.00000000000E+00 -0.45593999997E+02  0.45594000000E+02  0.51100000000E-03 0.  1.
    9900012    2    1    2    0    0 -0.15594256019E+02  0.27750235108E+02  0.18613012017E+01  0.59301940170E+02  0.49999992964E+02 0.  0.
         12    1    1    2    0    0  0.15594256019E+02 -0.27750235108E+02 -0.18613012017E+01  0.31886059830E+02  0.00000000000E+00 0. -1.
         11    1    3    3    0    0 -0.16479570548E+02  0.13310653906E+01 -0.14440232885E+02  0.21951498959E+02  0.51100000000E-03 0. -1.
        -11    1    3    3    0    0  0.76954995267E+01  0.30747909398E+01  0.40265348491E+00  0.82968176055E+01  0.51100000000E-03 0.  1.
        -12    1    3    3    0    0 -0.68101849982E+01  0.23344378778E+02  0.15898880601E+02  0.29053623605E+02  0.00000000000E+00 0.  1.
</event>
<event>
 7    1  0.5634483E-012  0.5930196E+02  0.7816164E-02  0.1266605E+00
        -11   -1    0    0    0    0  0.00000000000E+00  0.00000000000E+00  0.45593999997E+02  0.45594000000E+02  0.51100000000E-03 0.  1.
         11   -1    0    0    0    0 -0.00000000000E+00 -0.00000000000E+00 -0.45593999997E+02  0.45594000000E+02  0.51100000000E-03 0. -1.
    9900012    2    1    2    0    0 -0.74770137642E+01 -0.46398147084E+01  0.30647775464E+02  0.59301956717E+02  0.50000023143E+02 0.  0.
         12    1    1    2    0    0  0.74770137642E+01  0.46398147084E+01 -0.30647775464E+02  0.31886043283E+02  0.00000000000E+00 0. -1.
         11    1    3    3    0    0  0.88111609115E+01 -0.43784996986E+01 -0.33584909938E+01  0.10396503173E+02  0.51100000000E-03 0. -1.
        -11    1    3    3    0    0 -0.63598412454E+01 -0.15339914884E+02  0.20366992719E+02  0.26278793009E+02  0.51100000000E-03 0.  1.
         12    1    3    3    0    0 -0.99283334303E+01  0.15078599874E+02  0.13639273738E+02  0.22626660535E+02  0.00000000000E+00 0. -1.
</event>
<event>
 7    1  0.5634483E-012  0.5930194E+02  0.7816164E-02  0.1266605E+00
        -11   -1    0    0    0    0  0.00000000000E+00  0.00000000000E+00  0.45593999997E+02  0.45594000000E+02  0.51100000000E-03 0. -1.
         11   -1    0    0    0    0 -0.00000000000E+00 -0.00000000000E+00 -0.45593999997E+02  0.45594000000E+02  0.51100000000E-03 0.  1.
    9900012    2    1    2    0    0 -0.12644928857E+02  0.16294050109E+02 -0.24317295194E+02  0.59301935013E+02  0.49999983560E+02 0.  0.
         12    1    1    2    0    0  0.12644928857E+02 -0.16294050109E+02  0.24317295194E+02  0.31886064987E+02  0.00000000000E+00 0. -1.
         11    1    3    3    0    0  0.93282523935E+01  0.50455982077E+01 -0.18102777937E+02  0.20980584436E+02  0.51100000000E-03 0. -1.
        -11    1    3    3    0    0 -0.88668071671E+01  0.20100439598E+02 -0.43552776313E+01  0.22396794075E+02  0.51100000000E-03 0.  1.
         12    1    3    3    0    0 -0.13106374084E+02 -0.88519876960E+01 -0.18592396265E+01  0.15924556502E+02  0.00000000000E+00 0. -1.
</event>
<event>
 7    1  0.5634483E-012  0.5930196E+02  0.7816164E-02  0.1266605E+00
        -11   -1    0    0    0    0  0.00000000000E+00  0.00000000000E+00  0.45593999997E+02  0.45594000000E+02  0.51100000000E-03 0.  1.
         11   -1    0    0    0    0 -0.00000000000E+00 -0.00000000000E+00 -0.45593999997E+02  0.45594000000E+02  0.51100000000E-03 0. -1.
    9900012    2    1    2    0    0 -0.17206404883E+02 -0.11387516750E+02  0.24310151989E+02  0.59301962359E+02  0.50000033431E+02 0.  0.
         12    1    1    2    0    0  0.17206404883E+02  0.11387516750E+02 -0.24310151989E+02  0.31886037641E+02  0.00000000000E+00 0. -1.
         11    1    3    3    0    0  0.11770111292E+02 -0.37209454105E+01 -0.26806058818E+01  0.12631967492E+02  0.51100000000E-03 0. -1.
        -11    1    3    3    0    0 -0.81015068779E+01  0.52743645826E+01 -0.65584073062E+00  0.96893479021E+01  0.51100000000E-03 0.  1.
        -12    1    3    3    0    0 -0.20875009297E+02 -0.12940935922E+02  0.27646598602E+02  0.36980646964E+02  0.00000000000E+00 0.  1.
</event>
<event>
 7    1  0.5634483E-012  0.5930195E+02  0.7816164E-02  0.1266605E+00
        -11   -1    0    0    0    0  0.00000000000E+00  0.00000000000E+00  0.45593999997E+02  0.45594000000E+02  0.51100000000E-03 0.  1.
         11   -1    0    0    0    0 -0.00000000000E+00 -0.00000000000E+00 -0.45593999997E+02  0.45594000000E+02  0.51100000000E-03 0. -1.
    9900012    2    1    2    0    0 -0.19132091302E+02 -0.25198741280E+02  0.39631901760E+01  0.59301947312E+02  0.50000005989E+02 0.  0.
         12    1    1    2    0    0  0.19132091302E+02  0.25198741280E+02 -0.39631901760E+01  0.31886052688E+02  0.00000000000E+00 0. -1.
         11    1    3    3    0    0 -0.20397892689E+02 -0.13753317745E+02 -0.16473897504E+02  0.29607719844E+02  0.51100000000E-03 0. -1.
        -11    1    3    3    0    0 -0.83749028874E+01 -0.51680364786E+01  0.74398399724E+01  0.12336888526E+02  0.51100000000E-03 0.  1.
        -12    1    3    3    0    0  0.96407042748E+01 -0.62773870566E+01  0.12997247707E+02  0.17357338942E+02  0.00000000000E+00 0.  1.
</event>
<event>
 7    1  0.5634483E-012  0.5930194E+02  0.7816164E-02  0.1266605E+00
        -11   -1    0    0    0    0  0.00000000000E+00  0.00000000000E+00  0.45593999997E+02  0.45594000000E+02  0.51100000000E-03 0.  1.
         11   -1    0    0    0    0 -0.00000000000E+00 -0.00000000000E+00 -0.45593999997E+02  0.45594000000E+02  0.51100000000E-03 0. -1.
    9900012    2    1    2    0    0  0.82449286337E+01  0.25766327472E+02 -0.16877157767E+02  0.59301938251E+02  0.49999989464E+02 0.  0.
         12    1    1    2    0    0 -0.82449286337E+01 -0.25766327472E+02  0.16877157767E+02  0.31886061749E+02  0.00000000000E+00 0. -1.
         11    1    3    3    0    0  0.60984188148E+01  0.18385020744E+02 -0.25449063971E+02  0.31982097446E+02  0.51100000000E-03 0. -1.
        -11    1    3    3    0    0 -0.46677791862E+01  0.47961132542E+01 -0.72702174082E+01  0.98816459308E+01  0.51100000000E-03 0.  1.
         12    1    3    3    0    0  0.68142890051E+01  0.25851934736E+01  0.15842123612E+02  0.17438194874E+02  0.00000000000E+00 0. -1.
</event>
<event>
 7    1  0.5634483E-012  0.5930208E+02  0.7816164E-02  0.1266604E+00
        -11   -1    0    0    0    0  0.00000000000E+00  0.00000000000E+00  0.45593999997E+02  0.45594000000E+02  0.51100000000E-03 0.  1.
         11   -1    0    0    0    0 -0.00000000000E+00 -0.00000000000E+00 -0.45593999997E+02  0.45594000000E+02  0.51100000000E-03 0. -1.
    9900012    2    1    2    0    0 -0.17722301830E+02 -0.25388246031E+02 -0.76203070510E+01  0.59302076801E+02  0.50000242146E+02 0.  0.
         12    1    1    2    0    0  0.17722301830E+02  0.25388246031E+02  0.76203070510E+01  0.31885923199E+02  0.00000000000E+00 0. -1.
         11    1    3    3    0    0 -0.19129090656E+02 -0.56408248299E+01 -0.15987756067E+01  0.20007426066E+02  0.51100000000E-03 0. -1.
        -11    1    3    3    0    0 -0.13556188760E+02 -0.19058027416E+02 -0.69821443081E+00  0.23397994922E+02  0.51100000000E-03 0.  1.
        -12    1    3    3    0    0  0.14962977586E+02 -0.68939378520E+00 -0.53233170136E+01  0.15896655814E+02  0.00000000000E+00 0.  1.
</event>
<event>
 7    1  0.5634483E-012  0.5930200E+02  0.7816164E-02  0.1266605E+00
        -11   -1    0    0    0    0  0.00000000000E+00  0.00000000000E+00  0.45593999997E+02  0.45594000000E+02  0.51100000000E-03 0. -1.
         11   -1    0    0    0    0 -0.00000000000E+00 -0.00000000000E+00 -0.45593999997E+02  0.45594000000E+02  0.51100000000E-03 0.  1.
    9900012    2    1    2    0    0  0.14260421599E+01  0.24321910425E+02 -0.20570074756E+02  0.59302001530E+02  0.50000104869E+02 0.  0.
         12    1    1    2    0    0 -0.14260421599E+01 -0.24321910425E+02  0.20570074756E+02  0.31885998470E+02  0.00000000000E+00 0. -1.
         11    1    3    3    0    0 -0.11891611976E+01 -0.67509708013E+01 -0.37964214686E+01  0.78359764766E+01  0.51100000000E-03 0. -1.
        -11    1    3    3    0    0  0.77648110580E+01  0.27171051751E+01  0.94305524739E+01  0.12514402564E+02  0.51100000000E-03 0.  1.
        -12    1    3    3    0    0 -0.51496077005E+01  0.28355776052E+02 -0.26204205762E+02  0.38951622489E+02  0.00000000000E+00 0.  1.
</event>
<event>
 7    1  0.5634483E-012  0.5930196E+02  0.7816164E-02  0.1266605E+00
        -11   -1    0    0    0    0  0.00000000000E+00  0.00000000000E+00  0.45593999997E+02  0.45594000000E+02  0.51100000000E-03 0. -1.
         11   -1    0    0    0    0 -0.00000000000E+00 -0.00000000000E+00 -0.45593999997E+02  0.45594000000E+02  0.51100000000E-03 0.  1.
    9900012    2    1    2    0    0 -0.22441878175E+02 -0.17662634043E+02 -0.14181424877E+02  0.59301963104E+02  0.50000034791E+02 0.  0.
         12    1    1    2    0    0  0.22441878175E+02  0.17662634043E+02  0.14181424877E+02  0.31886036896E+02  0.00000000000E+00 0. -1.
         11    1    3    3    0    0 -0.75430108540E+01  0.44449787922E+01 -0.10279206552E+02  0.13502478913E+02  0.51100000000E-03 0. -1.
        -11    1    3    3    0    0 -0.20504368851E+02 -0.43830461303E+01 -0.13440380826E+02  0.24905502853E+02  0.51100000000E-03 0.  1.
         12    1    3    3    0    0  0.56055015298E+01 -0.17724566705E+02  0.95381625003E+01  0.20893981338E+02  0.00000000000E+00 0. -1.
</event>
<event>
 7    1  0.5634483E-012  0.5930197E+02  0.7816164E-02  0.1266605E+00
        -11   -1    0    0    0    0  0.00000000000E+00  0.00000000000E+00  0.45593999997E+02  0.45594000000E+02  0.51100000000E-03 0.  1.
         11   -1    0    0    0    0 -0.00000000000E+00 -0.00000000000E+00 -0.45593999997E+02  0.45594000000E+02  0.51100000000E-03 0. -1.
    9900012    2    1    2    0    0  0.16311429622E+02 -0.27397374269E+02 -0.20040715387E+00  0.59301968322E+02  0.50000044307E+02 0.  0.
         12    1    1    2    0    0 -0.16311429622E+02  0.27397374269E+02  0.20040715387E+00  0.31886031678E+02  0.00000000000E+00 0. -1.
         11    1    3    3    0    0  0.10597944495E+02 -0.32275058683E+01 -0.12737072746E+02  0.16880943221E+02  0.51100000000E-03 0. -1.
        -11    1    3    3    0    0  0.17327971375E+02 -0.17144810814E+02  0.15005410710E+02  0.28624560794E+02  0.51100000000E-03 0.  1.
        -12    1    3    3    0    0 -0.11614486249E+02 -0.70250575863E+01 -0.24687451181E+01  0.13796464307E+02  0.00000000000E+00 0.  1.
</event>
<event>
 7    1  0.5634483E-012  0.5930192E+02  0.7816164E-02  0.1266605E+00
        -11   -1    0    0    0    0  0.00000000000E+00  0.00000000000E+00  0.45593999997E+02  0.45594000000E+02  0.51100000000E-03 0.  1.
         11   -1    0    0    0    0 -0.00000000000E+00 -0.00000000000E+00 -0.45593999997E+02  0.45594000000E+02  0.51100000000E-03 0. -1.
    9900012    2    1    2    0    0  0.18707038402E+02  0.12045535706E+02  0.22840174978E+02  0.59301924524E+02  0.49999964430E+02 0.  0.
         12    1    1    2    0    0 -0.18707038402E+02 -0.12045535706E+02 -0.22840174978E+02  0.31886075476E+02  0.00000000000E+00 0. -1.
         11    1    3    3    0    0  0.91699536043E+01 -0.94581331785E+01 -0.33622507618E+01  0.13595920814E+02  0.51100000000E-03 0. -1.
        -11    1    3    3    0    0  0.19242458440E+02  0.85970543442E+01  0.12332470699E+02  0.24418668760E+02  0.51100000000E-03 0.  1.
        -12    1    3    3    0    0 -0.97053736428E+01  0.12906614541E+02  0.13869955041E+02  0.21287334950E+02  0.00000000000E+00 0.  1.
</event>
<event>
 7    1  0.5634483E-012  0.5930193E+02  0.7816164E-02  0.1266605E+00
        -11   -1    0    0    0    0  0.00000000000E+00  0.00000000000E+00  0.45593999997E+02  0.45594000000E+02  0.51100000000E-03 0.  1.
         11   -1    0    0    0    0 -0.00000000000E+00 -0.00000000000E+00 -0.45593999997E+02  0.45594000000E+02  0.51100000000E-03 0. -1.
    9900012    2    1    2    0    0 -0.19226214598E+02  0.18106262959E+02  0.17867217971E+02  0.59301928368E+02  0.49999971440E+02 0.  0.
         12    1    1    2    0    0  0.19226214598E+02 -0.18106262959E+02 -0.17867217971E+02  0.31886071632E+02  0.00000000000E+00 0. -1.
         11    1    3    3    0    0 -0.57546529311E+01  0.19849586929E+01  0.10542975066E+02  0.12174169987E+02  0.51100000000E-03 0.  1.
        -11    1    3    3    0    0 -0.16829992552E+02  0.18454993497E+02 -0.11762481653E+02  0.27607814277E+02  0.51100000000E-03 0. -1.
         12    1    3    3    0    0  0.33584308851E+01 -0.23336892312E+01  0.19086724558E+02  0.19519944103E+02  0.00000000000E+00 0. -1.
</event>
<event>
 7    1  0.5634483E-012  0.5930194E+02  0.7816164E-02  0.1266605E+00
        -11   -1    0    0    0    0  0.00000000000E+00  0.00000000000E+00  0.45593999997E+02  0.45594000000E+02  0.51100000000E-03 0.  1.
         11   -1    0    0    0    0 -0.00000000000E+00 -0.00000000000E+00 -0.45593999997E+02  0.45594000000E+02  0.51100000000E-03 0. -1.
    9900012    2    1    2    0    0  0.13939325840E+02  0.94965521491E+01  0.27059777902E+02  0.59301938975E+02  0.49999990785E+02 0.  0.
         12    1    1    2    0    0 -0.13939325840E+02 -0.94965521491E+01 -0.27059777902E+02  0.31886061025E+02  0.00000000000E+00 0. -1.
         11    1    3    3    0    0  0.59066828121E+01 -0.49117788439E+00 -0.87889206861E+01  0.10600720949E+02  0.51100000000E-03 0. -1.
        -11    1    3    3    0    0 -0.11186734003E+02  0.73051861852E+01  0.12034752430E+02  0.17981769356E+02  0.51100000000E-03 0.  1.
        -12    1    3    3    0    0  0.19219377031E+02  0.26825438483E+01  0.23813946158E+02  0.30719448670E+02  0.00000000000E+00 0.  1.
</event>
<event>
 7    1  0.5634483E-012  0.5930193E+02  0.7816164E-02  0.1266605E+00
        -11   -1    0    0    0    0  0.00000000000E+00  0.00000000000E+00  0.45593999997E+02  0.45594000000E+02  0.51100000000E-03 0.  1.
         11   -1    0    0    0    0 -0.00000000000E+00 -0.00000000000E+00 -0.45593999997E+02  0.45594000000E+02  0.51100000000E-03 0. -1.
    9900012    2    1    2    0    0  0.13934676172E+02 -0.21878916439E+02  0.18543439107E+02  0.59301932220E+02  0.49999978465E+02 0.  0.
         12    1    1    2    0    0 -0.13934676172E+02  0.21878916439E+02 -0.18543439107E+02  0.31886067780E+02  0.00000000000E+00 0. -1.
         11    1    3    3    0    0 -0.49671754678E+01 -0.60619898144E+01  0.15891645571E+02  0.17719056179E+02  0.51100000000E-03 0. -1.
        -11    1    3    3    0    0  0.80194540821E+01 -0.22880088775E+02  0.10499226796E+02  0.26420519861E+02  0.51100000000E-03 0.  1.
        -12    1    3    3    0    0  0.10882397558E+02  0.70631621511E+01 -0.78474332596E+01  0.15162356181E+02  0.00000000000E+00 0.  1.
</event>
<event>
 7    1  0.5634483E-012  0.5930193E+02  0.7816164E-02  0.1266605E+00
        -11   -1    0    0    0    0  0.00000000000E+00  0.00000000000E+00  0.45593999997E+02  0.45594000000E+02  0.51100000000E-03 0.  1.
         11   -1    0    0    0    0 -0.00000000000E+00 -0.00000000000E+00 -0.45593999997E+02  0.45594000000E+02  0.51100000000E-03 0. -1.
    9900012    2    1    2    0    0 -0.75682716347E+01 -0.16097169437E+02  0.26463631754E+02  0.59301930863E+02  0.49999975990E+02 0.  0.
         12    1    1    2    0    0  0.75682716347E+01  0.16097169437E+02 -0.26463631754E+02  0.31886069137E+02  0.00000000000E+00 0. -1.
         11    1    3    3    0    0 -0.42770390691E+01  0.69599002175E+01  0.27032664612E+02  0.28240011164E+02  0.51100000000E-03 0. -1.
        -11    1    3    3    0    0  0.13280790533E+01 -0.17951612806E+02  0.83099727226E+01  0.19826241278E+02  0.51100000000E-03 0.  1.
        -12    1    3    3    0    0 -0.46193116189E+01 -0.51054568482E+01 -0.88790055807E+01  0.11235678420E+02  0.00000000000E+00 0.  1.
</event>
<event>
 7    1  0.5634483E-012  0.5930198E+02  0.7816164E-02  0.1266605E+00
        -11   -1    0    0    0    0  0.00000000000E+00  0.00000000000E+00  0.45593999997E+02  0.45594000000E+02  0.51100000000E-03 0. -1.
         11   -1    0    0    0    0 -0.00000000000E+00 -0.00000000000E+00 -0.45593999997E+02  0.45594000000E+02  0.51100000000E-03 0.  1.
    9900012    2    1    2    0    0  0.46709248233E+01  0.16128070110E+02 -0.27106935283E+02  0.59301982302E+02  0.50000069804E+02 0.  0.
         12    1    1    2    0    0 -0.46709248233E+01 -0.16128070110E+02  0.27106935283E+02  0.31886017698E+02  0.00000000000E+00 0. -1.
         11    1    3    3    0    0  0.11840686165E+02  0.57310926147E+01 -0.96896134052E+01  0.16338172469E+02  0.51100000000E-03 0. -1.
        -11    1    3    3    0    0 -0.18069504630E+02  0.16249218690E+02 -0.18504880313E+02  0.30544634575E+02  0.51100000000E-03 0.  1.
         12    1    3    3    0    0  0.10899743288E+02 -0.58522411955E+01  0.10875584352E+01  0.12419175259E+02  0.00000000000E+00 0. -1.
</event>
<event>
 7    1  0.5634483E-012  0.5930193E+02  0.7816164E-02  0.1266605E+00
        -11   -1    0    0    0    0  0.00000000000E+00  0.00000000000E+00  0.45593999997E+02  0.45594000000E+02  0.51100000000E-03 0. -1.
         11   -1    0    0    0    0 -0.00000000000E+00 -0.00000000000E+00 -0.45593999997E+02  0.45594000000E+02  0.51100000000E-03 0.  1.
    9900012    2    1    2    0    0 -0.14739766184E+02  0.22369684599E+02 -0.17293286006E+02  0.59301933496E+02  0.49999980793E+02 0.  0.
         12    1    1    2    0    0  0.14739766184E+02 -0.22369684599E+02  0.17293286006E+02  0.31886066504E+02  0.00000000000E+00 0. -1.
         11    1    3    3    0    0 -0.74010752164E+01  0.23673789899E+02 -0.45225697405E+01  0.25212653170E+02  0.51100000000E-03 0. -1.
        -11    1    3    3    0    0 -0.15306004802E+02  0.83760084499E+01 -0.12650444713E+02  0.21551451280E+02  0.51100000000E-03 0.  1.
         12    1    3    3    0    0  0.79673138351E+01 -0.96801137500E+01 -0.12027155262E+00  0.12537829047E+02  0.00000000000E+00 0. -1.
</event>
<event>
 7    1  0.5634483E-012  0.5930194E+02  0.7816164E-02  0.1266605E+00
        -11   -1    0    0    0    0  0.00000000000E+00  0.00000000000E+00  0.45593999997E+02  0.45594000000E+02  0.51100000000E-03 0. -1.
         11   -1    0    0    0    0 -0.00000000000E+00 -0.00000000000E+00 -0.45593999997E+02  0.45594000000E+02  0.51100000000E-03 0.  1.
    9900012    2    1    2    0    0  0.28366520149E+02 -0.92914076676E+01 -0.11212984314E+02  0.59301941306E+02  0.49999995036E+02 0.  0.
         12    1    1    2    0    0 -0.28366520149E+02  0.92914076676E+01  0.11212984314E+02  0.31886058694E+02  0.00000000000E+00 0. -1.
         11    1    3    3    0    0 -0.14818085786E+01 -0.54191205982E+01 -0.13403915502E+02  0.14533670416E+02  0.51100000000E-03 0. -1.
        -11    1    3    3    0    0  0.61428261325E+01  0.80077464449E+01 -0.11188758291E+02  0.15068066511E+02  0.51100000000E-03 0.  1.
         12    1    3    3    0    0  0.23705502595E+02 -0.11880033514E+02  0.13379689479E+02  0.29700204379E+02  0.00000000000E+00 0. -1.
</event>
<event>
 7    1  0.5634483E-012  0.5930196E+02  0.7816164E-02  0.1266605E+00
        -11   -1    0    0    0    0  0.00000000000E+00  0.00000000000E+00  0.45593999997E+02  0.45594000000E+02  0.51100000000E-03 0. -1.
         11   -1    0    0    0    0 -0.00000000000E+00 -0.00000000000E+00 -0.45593999997E+02  0.45594000000E+02  0.51100000000E-03 0.  1.
    9900012    2    1    2    0    0  0.13256580221E+02  0.28026545543E+02 -0.74495215637E+01  0.59301960018E+02  0.50000029162E+02 0.  0.
         12    1    1    2    0    0 -0.13256580221E+02 -0.28026545543E+02  0.74495215637E+01  0.31886039982E+02  0.00000000000E+00 0. -1.
         11    1    3    3    0    0 -0.45997337253E+01  0.60842644824E+01  0.12386201093E+02  0.14546264208E+02  0.51100000000E-03 0. -1.
        -11    1    3    3    0    0  0.17953707565E+02  0.92135861922E+01  0.11485466407E+01  0.20212494786E+02  0.51100000000E-03 0.  1.
        -12    1    3    3    0    0 -0.97393618254E-01  0.12728694868E+02 -0.20984269297E+02  0.24543201024E+02  0.00000000000E+00 0.  1.
</event>
<event>
 7    1  0.5634483E-012  0.5930191E+02  0.7816164E-02  0.1266605E+00
        -11   -1    0    0    0    0  0.00000000000E+00  0.00000000000E+00  0.45593999997E+02  0.45594000000E+02  0.51100000000E-03 0.  1.
         11   -1    0    0    0    0 -0.00000000000E+00 -0.00000000000E+00 -0.45593999997E+02  0.45594000000E+02  0.51100000000E-03 0. -1.
    9900012    2    1    2    0    0 -0.28636018903E+02  0.13387015253E+02 -0.41819900604E+01  0.59301909037E+02  0.49999936186E+02 0.  0.
         12    1    1    2    0    0  0.28636018903E+02 -0.13387015253E+02  0.41819900604E+01  0.31886090963E+02  0.00000000000E+00 0. -1.
         11    1    3    3    0    0  0.96153914039E+01  0.34865130257E+01 -0.14772942564E+01  0.10334114549E+02  0.51100000000E-03 0. -1.
        -11    1    3    3    0    0 -0.66279480561E+01  0.13716110795E+02  0.52918893149E+01  0.16126545927E+02  0.51100000000E-03 0.  1.
        -12    1    3    3    0    0 -0.31623462251E+02 -0.38156085676E+01 -0.79965851189E+01  0.32841248561E+02  0.00000000000E+00 0.  1.
</event>
<event>
 7    1  0.5634483E-012  0.5930194E+02  0.7816164E-02  0.1266605E+00
        -11   -1    0    0    0    0  0.00000000000E+00  0.00000000000E+00  0.45593999997E+02  0.45594000000E+02  0.51100000000E-03 0. -1.
         11   -1    0    0    0    0 -0.00000000000E+00 -0.00000000000E+00 -0.45593999997E+02  0.45594000000E+02  0.51100000000E-03 0.  1.
    9900012    2    1    2    0    0 -0.70433631092E+01  0.16867815282E+02 -0.26126395145E+02  0.59301942239E+02  0.49999996737E+02 0.  0.
         12    1    1    2    0    0  0.70433631092E+01 -0.16867815282E+02  0.26126395145E+02  0.31886057761E+02  0.00000000000E+00 0. -1.
         11    1    3    3    0    0 -0.45451015746E+01 -0.11466958930E+01  0.78085375989E+00  0.47521145452E+01  0.51100000000E-03 0. -1.
        -11    1    3    3    0    0 -0.91442124541E+01 -0.30109845582E+01  0.84966554778E+01  0.12840397345E+02  0.51100000000E-03 0.  1.
        -12    1    3    3    0    0  0.66459509196E+01  0.21025495733E+02 -0.35403904383E+02  0.41709430348E+02  0.00000000000E+00 0.  1.
</event>
<event>
 7    1  0.5634483E-012  0.5930168E+02  0.7816164E-02  0.1266606E+00
        -11   -1    0    0    0    0  0.00000000000E+00  0.00000000000E+00  0.45593999997E+02  0.45594000000E+02  0.51100000000E-03 0. -1.
         11   -1    0    0    0    0 -0.00000000000E+00 -0.00000000000E+00 -0.45593999997E+02  0.45594000000E+02  0.51100000000E-03 0.  1.
    9900012    2    1    2    0    0  0.12736447645E+02 -0.29120081961E+02  0.25575179641E+01  0.59301683654E+02  0.49999525138E+02 0.  0.
         12    1    1    2    0    0 -0.12736447645E+02  0.29120081961E+02 -0.25575179641E+01  0.31886316346E+02  0.00000000000E+00 0. -1.
         11    1    3    3    0    0  0.59994837510E+01 -0.14183148329E+02  0.72640866167E+01  0.17027109457E+02  0.51100000000E-03 0. -1.
        -11    1    3    3    0    0  0.19028020139E+02 -0.20640011533E+02 -0.46522041206E+00  0.28076539260E+02  0.51100000000E-03 0.  1.
         12    1    3    3    0    0 -0.12291056245E+02  0.57030779019E+01 -0.42413482405E+01  0.14198034937E+02  0.00000000000E+00 0. -1.
</event>
<event>
 7    1  0.5634483E-012  0.5930196E+02  0.7816164E-02  0.1266605E+00
        -11   -1    0    0    0    0  0.00000000000E+00  0.00000000000E+00  0.45593999997E+02  0.45594000000E+02  0.51100000000E-03 0.  1.
         11   -1    0    0    0    0 -0.00000000000E+00 -0.00000000000E+00 -0.45593999997E+02  0.45594000000E+02  0.51100000000E-03 0. -1.
    9900012    2    1    2    0    0 -0.27214847260E+02  0.13182439989E+02  0.10114099568E+02  0.59301958453E+02  0.50000026309E+02 0.  0.
         12    1    1    2    0    0  0.27214847260E+02 -0.13182439989E+02 -0.10114099568E+02  0.31886041547E+02  0.00000000000E+00 0. -1.
         11    1    3    3    0    0  0.49589241450E+00  0.10335782303E+02  0.36261364277E-01  0.10347735030E+02  0.51100000000E-03 0. -1.
        -11    1    3    3    0    0 -0.83303660034E+01  0.76814872986E+01  0.22668451242E+02  0.25342827918E+02  0.51100000000E-03 0.  1.
         12    1    3    3    0    0 -0.19380373671E+02 -0.48348296130E+01 -0.12590613039E+02  0.23611395506E+02  0.00000000000E+00 0. -1.
</event>
<event>
 7    1  0.5634483E-012  0.5930194E+02  0.7816164E-02  0.1266605E+00
        -11   -1    0    0    0    0  0.00000000000E+00  0.00000000000E+00  0.45593999997E+02  0.45594000000E+02  0.51100000000E-03 0.  1.
         11   -1    0    0    0    0 -0.00000000000E+00 -0.00000000000E+00 -0.45593999997E+02  0.45594000000E+02  0.51100000000E-03 0. -1.
    9900012    2    1    2    0    0 -0.14109794145E+02 -0.28081478218E+02  0.53912265104E+01  0.59301936697E+02  0.49999986630E+02 0.  0.
         12    1    1    2    0    0  0.14109794145E+02  0.28081478218E+02 -0.53912265104E+01  0.31886063303E+02  0.00000000000E+00 0. -1.
         11    1    3    3    0    0  0.93102689127E+00 -0.91030871401E+01  0.93478301013E+01  0.13081090720E+02  0.51100000000E-03 0. -1.
        -11    1    3    3    0    0 -0.16325562406E+02 -0.20043512932E+01  0.13911385853E+02  0.21542239174E+02  0.51100000000E-03 0.  1.
         12    1    3    3    0    0  0.12847413704E+01 -0.16974039784E+02 -0.17867989444E+02  0.24678606804E+02  0.00000000000E+00 0. -1.
</event>
<event>
 7    1  0.5634483E-012  0.5930194E+02  0.7816164E-02  0.1266605E+00
        -11   -1    0    0    0    0  0.00000000000E+00  0.00000000000E+00  0.45593999997E+02  0.45594000000E+02  0.51100000000E-03 0. -1.
         11   -1    0    0    0    0 -0.00000000000E+00 -0.00000000000E+00 -0.45593999997E+02  0.45594000000E+02  0.51100000000E-03 0.  1.
    9900012    2    1    2    0    0  0.16505157638E+02  0.27274195552E+02 -0.64715729676E+00  0.59301940597E+02  0.49999993743E+02 0.  0.
         12    1    1    2    0    0 -0.16505157638E+02 -0.27274195552E+02  0.64715729676E+00  0.31886059403E+02  0.00000000000E+00 0. -1.
         11    1    3    3    0    0  0.60742499706E+01  0.12150283614E+02 -0.76818734039E+01  0.15605674733E+02  0.51100000000E-03 0. -1.
        -11    1    3    3    0    0  0.17055376159E+01  0.27084067328E+02 -0.37621270062E+00  0.27140322361E+02  0.51100000000E-03 0.  1.
         12    1    3    3    0    0  0.87253700518E+01 -0.11960155390E+02  0.74109288078E+01  0.16555943503E+02  0.00000000000E+00 0. -1.
</event>
<event>
 7    1  0.5634483E-012  0.5930222E+02  0.7816164E-02  0.1266604E+00
        -11   -1    0    0    0    0  0.00000000000E+00  0.00000000000E+00  0.45593999997E+02  0.45594000000E+02  0.51100000000E-03 0.  1.
         11   -1    0    0    0    0 -0.00000000000E+00 -0.00000000000E+00 -0.45593999997E+02  0.45594000000E+02  0.51100000000E-03 0. -1.
    9900012    2    1    2    0    0 -0.18466418364E+02  0.78667392716E+01  0.24775167866E+02  0.59302217326E+02  0.50000498428E+02 0.  0.
         12    1    1    2    0    0  0.18466418364E+02 -0.78667392716E+01 -0.24775167866E+02  0.31885782674E+02  0.00000000000E+00 0. -1.
         11    1    3    3    0    0 -0.21040943610E+02  0.16086651018E+01  0.28718652569E+01  0.21296871172E+02  0.51100000000E-03 0. -1.
        -11    1    3    3    0    0 -0.70558293659E+01  0.80153943863E+01 -0.31285234806E+01  0.11127395681E+02  0.51100000000E-03 0.  1.
         12    1    3    3    0    0  0.96303546112E+01 -0.17573202164E+01  0.25031826089E+02  0.26877950473E+02  0.00000000000E+00 0. -1.
</event>
<event>
 7    1  0.5634483E-012  0.5930193E+02  0.7816164E-02  0.1266605E+00
        -11   -1    0    0    0    0  0.00000000000E+00  0.00000000000E+00  0.45593999997E+02  0.45594000000E+02  0.51100000000E-03 0.  1.
         11   -1    0    0    0    0 -0.00000000000E+00 -0.00000000000E+00 -0.45593999997E+02  0.45594000000E+02  0.51100000000E-03 0. -1.
    9900012    2    1    2    0    0 -0.35435154127E+01 -0.29482464167E+02  0.11616761198E+02  0.59301931952E+02  0.49999977977E+02 0.  0.
         12    1    1    2    0    0  0.35435154127E+01  0.29482464167E+02 -0.11616761198E+02  0.31886068048E+02  0.00000000000E+00 0. -1.
         11    1    3    3    0    0  0.13514757606E+02 -0.33036516354E+01  0.80734617045E+00  0.13936089673E+02  0.51100000000E-03 0. -1.
        -11    1    3    3    0    0  0.33428298312E+01  0.52391714021E+01  0.37116800797E+01  0.72387842581E+01  0.51100000000E-03 0.  1.
        -12    1    3    3    0    0 -0.20401102850E+02 -0.31417983933E+02  0.70977349479E+01  0.38127058021E+02  0.00000000000E+00 0.  1.
</event>
<event>
 7    1  0.5634483E-012  0.5930195E+02  0.7816164E-02  0.1266605E+00
        -11   -1    0    0    0    0  0.00000000000E+00  0.00000000000E+00  0.45593999997E+02  0.45594000000E+02  0.51100000000E-03 0. -1.
         11   -1    0    0    0    0 -0.00000000000E+00 -0.00000000000E+00 -0.45593999997E+02  0.45594000000E+02  0.51100000000E-03 0.  1.
    9900012    2    1    2    0    0  0.10562598748E+01 -0.31503236800E+02 -0.48115251011E+01  0.59301946817E+02  0.50000005087E+02 0.  0.
         12    1    1    2    0    0 -0.10562598748E+01  0.31503236800E+02  0.48115251011E+01  0.31886053183E+02  0.00000000000E+00 0. -1.
         11    1    3    3    0    0 -0.72338652265E+01  0.55261420656E+01  0.68610631930E+01  0.11399177192E+02  0.51100000000E-03 0. -1.
        -11    1    3    3    0    0 -0.61121657558E+01 -0.99438298098E+01 -0.12647896686E+02  0.17210683088E+02  0.51100000000E-03 0.  1.
        -12    1    3    3    0    0  0.14402290857E+02 -0.27085549056E+02  0.97530839158E+00  0.30692086538E+02  0.00000000000E+00 0.  1.
</event>
<event>
 7    1  0.5634483E-012  0.5930186E+02  0.7816164E-02  0.1266605E+00
        -11   -1    0    0    0    0  0.00000000000E+00  0.00000000000E+00  0.45593999997E+02  0.45594000000E+02  0.51100000000E-03 0.  1.
         11   -1    0    0    0    0 -0.00000000000E+00 -0.00000000000E+00 -0.45593999997E+02  0.45594000000E+02  0.51100000000E-03 0. -1.
    9900012    2    1    2    0    0  0.10826104640E+01  0.31768549306E+02 -0.25125713438E+01  0.59301862178E+02  0.49999850726E+02 0.  0.
         12    1    1    2    0    0 -0.10826104640E+01 -0.31768549306E+02  0.25125713438E+01  0.31886137822E+02  0.00000000000E+00 0. -1.
         11    1    3    3    0    0 -0.10602731316E+01  0.14591120627E+02 -0.10612322883E+02  0.18073360991E+02  0.51100000000E-03 0. -1.
        -11    1    3    3    0    0 -0.14366385159E+02  0.17781950421E+02  0.92666364891E+01  0.24667009049E+02  0.51100000000E-03 0.  1.
        -12    1    3    3    0    0  0.16509268755E+02 -0.60452174257E+00 -0.11668849504E+01  0.16561492138E+02  0.00000000000E+00 0.  1.
</event>
<event>
 7    1  0.5634483E-012  0.5930194E+02  0.7816164E-02  0.1266605E+00
        -11   -1    0    0    0    0  0.00000000000E+00  0.00000000000E+00  0.45593999997E+02  0.45594000000E+02  0.51100000000E-03 0.  1.
         11   -1    0    0    0    0 -0.00000000000E+00 -0.00000000000E+00 -0.45593999997E+02  0.45594000000E+02  0.51100000000E-03 0. -1.
    9900012    2    1    2    0    0  0.79719173941E+01 -0.72804601341E+00  0.30864850747E+02  0.59301944591E+02  0.50000001027E+02 0.  0.
         12    1    1    2    0    0 -0.79719173941E+01  0.72804601341E+00 -0.30864850747E+02  0.31886055409E+02  0.00000000000E+00 0. -1.
         11    1    3    3    0    0 -0.10873902013E+02  0.68170764832E+01  0.85578116016E+01  0.15425641525E+02  0.51100000000E-03 0. -1.
        -11    1    3    3    0    0  0.38695609028E+01  0.27342485679E+01  0.25060228635E+02  0.25504208993E+02  0.51100000000E-03 0.  1.
         12    1    3    3    0    0  0.14976258505E+02 -0.10279371065E+02 -0.27531894901E+01  0.18372094074E+02  0.00000000000E+00 0. -1.
</event>
<event>
 7    1  0.5634483E-012  0.5930197E+02  0.7816164E-02  0.1266605E+00
        -11   -1    0    0    0    0  0.00000000000E+00  0.00000000000E+00  0.45593999997E+02  0.45594000000E+02  0.51100000000E-03 0.  1.
         11   -1    0    0    0    0 -0.00000000000E+00 -0.00000000000E+00 -0.45593999997E+02  0.45594000000E+02  0.51100000000E-03 0. -1.
    9900012    2    1    2    0    0 -0.28973348790E+02  0.97269633157E+01  0.90912066478E+01  0.59301971809E+02  0.50000050667E+02 0.  0.
         12    1    1    2    0    0  0.28973348790E+02 -0.97269633157E+01 -0.90912066478E+01  0.31886028191E+02  0.00000000000E+00 0. -1.
         11    1    3    3    0    0 -0.80167866381E+00 -0.35473151406E+00  0.25677497659E+01  0.27132751885E+01  0.51100000000E-03 0. -1.
        -11    1    3    3    0    0 -0.18029928659E+02  0.20832048900E+01  0.26907717375E+02  0.32456791657E+02  0.51100000000E-03 0.  1.
         12    1    3    3    0    0 -0.10141741467E+02  0.79984899397E+01 -0.20384260493E+02  0.24131904963E+02  0.00000000000E+00 0. -1.
</event>
<event>
 7    1  0.5634483E-012  0.5930195E+02  0.7816164E-02  0.1266605E+00
        -11   -1    0    0    0    0  0.00000000000E+00  0.00000000000E+00  0.45593999997E+02  0.45594000000E+02  0.51100000000E-03 0. -1.
         11   -1    0    0    0    0 -0.00000000000E+00 -0.00000000000E+00 -0.45593999997E+02  0.45594000000E+02  0.51100000000E-03 0.  1.
    9900012    2    1    2    0    0  0.19386108600E+02 -0.15768235262E+02 -0.19805599822E+02  0.59301949222E+02  0.50000009473E+02 0.  0.
         12    1    1    2    0    0 -0.19386108600E+02  0.15768235262E+02  0.19805599822E+02  0.31886050778E+02  0.00000000000E+00 0. -1.
         11    1    3    3    0    0 -0.25735928042E+01  0.44083978475E+01  0.29528587773E+01  0.58971795567E+01  0.51100000000E-03 0. -1.
        -11    1    3    3    0    0 -0.50107384658E+01  0.70854407650E+01 -0.94063682889E+01  0.12798075459E+02  0.51100000000E-03 0.  1.
        -12    1    3    3    0    0  0.26970439870E+02 -0.27262073875E+02 -0.13352090310E+02  0.40606694206E+02  0.00000000000E+00 0.  1.
</event>
<event>
 7    1  0.5634483E-012  0.5930194E+02  0.7816164E-02  0.1266605E+00
        -11   -1    0    0    0    0  0.00000000000E+00  0.00000000000E+00  0.45593999997E+02  0.45594000000E+02  0.51100000000E-03 0. -1.
         11   -1    0    0    0    0 -0.00000000000E+00 -0.00000000000E+00 -0.45593999997E+02  0.45594000000E+02  0.51100000000E-03 0.  1.
    9900012    2    1    2    0    0 -0.24861433084E+01 -0.12883635536E+02 -0.29061175405E+02  0.59301938953E+02  0.49999990745E+02 0.  0.
         12    1    1    2    0    0  0.24861433084E+01  0.12883635536E+02  0.29061175405E+02  0.31886061047E+02  0.00000000000E+00 0. -1.
         11    1    3    3    0    0 -0.26141773672E-01  0.59039267688E+01 -0.22172418144E+01  0.63065994171E+01  0.51100000000E-03 0. -1.
        -11    1    3    3    0    0 -0.21627531222E+02 -0.70979492174E+01 -0.17344254656E+02  0.28617375136E+02  0.51100000000E-03 0.  1.
         12    1    3    3    0    0  0.19167529687E+02 -0.11689613088E+02 -0.94996789349E+01  0.24377964400E+02  0.00000000000E+00 0. -1.
</event>
<event>
 7    1  0.5634483E-012  0.5930195E+02  0.7816164E-02  0.1266605E+00
        -11   -1    0    0    0    0  0.00000000000E+00  0.00000000000E+00  0.45593999997E+02  0.45594000000E+02  0.51100000000E-03 0. -1.
         11   -1    0    0    0    0 -0.00000000000E+00 -0.00000000000E+00 -0.45593999997E+02  0.45594000000E+02  0.51100000000E-03 0.  1.
    9900012    2    1    2    0    0 -0.23204447171E+02 -0.11254685055E+02 -0.18751152973E+02  0.59301952236E+02  0.50000014970E+02 0.  0.
         12    1    1    2    0    0  0.23204447171E+02  0.11254685055E+02  0.18751152973E+02  0.31886047764E+02  0.00000000000E+00 0. -1.
         11    1    3    3    0    0  0.56597563297E+01  0.12072178946E+02 -0.34570719844E+01  0.13773949803E+02  0.51100000000E-03 0. -1.
        -11    1    3    3    0    0 -0.23621200273E+01  0.19465115926E-01 -0.94354814575E+01  0.97266798297E+01  0.51100000000E-03 0.  1.
        -12    1    3    3    0    0 -0.26502083473E+02 -0.23346329117E+02 -0.58585995307E+01  0.35801322603E+02  0.00000000000E+00 0.  1.
</event>
<event>
 7    1  0.5634483E-012  0.5930193E+02  0.7816164E-02  0.1266605E+00
        -11   -1    0    0    0    0  0.00000000000E+00  0.00000000000E+00  0.45593999997E+02  0.45594000000E+02  0.51100000000E-03 0. -1.
         11   -1    0    0    0    0 -0.00000000000E+00 -0.00000000000E+00 -0.45593999997E+02  0.45594000000E+02  0.51100000000E-03 0.  1.
    9900012    2    1    2    0    0 -0.21168504905E+02  0.53811658553E+01 -0.23230557490E+02  0.59301931770E+02  0.49999977645E+02 0.  0.
         12    1    1    2    0    0  0.21168504905E+02 -0.53811658553E+01  0.23230557490E+02  0.31886068230E+02  0.00000000000E+00 0. -1.
         11    1    3    3    0    0 -0.26312501861E+00  0.48536486874E+01  0.63780877878E+01  0.80191735513E+01  0.51100000000E-03 0. -1.
        -11    1    3    3    0    0  0.35031564809E+01  0.13027912971E+02 -0.15133359460E+02  0.20273558901E+02  0.51100000000E-03 0.  1.
        -12    1    3    3    0    0 -0.24408536367E+02 -0.12500395804E+02 -0.14475285817E+02  0.31009199318E+02  0.00000000000E+00 0.  1.
</event>
<event>
 7    1  0.5634483E-012  0.5930193E+02  0.7816164E-02  0.1266605E+00
        -11   -1    0    0    0    0  0.00000000000E+00  0.00000000000E+00  0.45593999997E+02  0.45594000000E+02  0.51100000000E-03 0. -1.
         11   -1    0    0    0    0 -0.00000000000E+00 -0.00000000000E+00 -0.45593999997E+02  0.45594000000E+02  0.51100000000E-03 0.  1.
    9900012    2    1    2    0    0  0.17111984237E+02  0.24635110999E+02 -0.10817252810E+02  0.59301926915E+02  0.49999968790E+02 0.  0.
         12    1    1    2    0    0 -0.17111984237E+02 -0.24635110999E+02  0.10817252810E+02  0.31886073085E+02  0.00000000000E+00 0. -1.
         11    1    3    3    0    0  0.12901244185E+00 -0.27309986370E+01  0.81978549935E+01  0.86417489273E+01  0.51100000000E-03 0. -1.
        -11    1    3    3    0    0  0.14332566548E+02  0.18672878032E+02  0.57913834025E+01  0.24241265640E+02  0.51100000000E-03 0.  1.
         12    1    3    3    0    0  0.26504052473E+01  0.86932316043E+01 -0.24806491206E+02  0.26418912348E+02  0.00000000000E+00 0. -1.
</event>
<event>
 7    1  0.5634483E-012  0.5930192E+02  0.7816164E-02  0.1266605E+00
        -11   -1    0    0    0    0  0.00000000000E+00  0.00000000000E+00  0.45593999997E+02  0.45594000000E+02  0.51100000000E-03 0.  1.
         11   -1    0    0    0    0 -0.00000000000E+00 -0.00000000000E+00 -0.45593999997E+02  0.45594000000E+02  0.51100000000E-03 0. -1.
    9900012    2    1    2    0    0  0.14759072817E+02 -0.27649529450E+02 -0.58647378483E+01  0.59301923740E+02  0.49999962999E+02 0.  0.
         12    1    1    2    0    0 -0.14759072817E+02  0.27649529450E+02  0.58647378483E+01  0.31886076260E+02  0.00000000000E+00 0. -1.
         11    1    3    3    0    0 -0.10257204813E+02 -0.43390238202E+01 -0.22019589601E+00  0.11139383501E+02  0.51100000000E-03 0. -1.
        -11    1    3    3    0    0  0.76363764383E+01 -0.27903971370E+02  0.11291085072E+01  0.28952042236E+02  0.51100000000E-03 0.  1.
         12    1    3    3    0    0  0.17379901192E+02  0.45934657402E+01 -0.67736504595E+01  0.19210498003E+02  0.00000000000E+00 0. -1.
</event>
<event>
 7    1  0.5634483E-012  0.5930198E+02  0.7816164E-02  0.1266605E+00
        -11   -1    0    0    0    0  0.00000000000E+00  0.00000000000E+00  0.45593999997E+02  0.45594000000E+02  0.51100000000E-03 0. -1.
         11   -1    0    0    0    0 -0.00000000000E+00 -0.00000000000E+00 -0.45593999997E+02  0.45594000000E+02  0.51100000000E-03 0.  1.
    9900012    2    1    2    0    0 -0.27459421795E+02  0.10527258533E+02 -0.12323755072E+02  0.59301984937E+02  0.50000074609E+02 0.  0.
         12    1    1    2    0    0  0.27459421795E+02 -0.10527258533E+02  0.12323755072E+02  0.31886015063E+02  0.00000000000E+00 0. -1.
         11    1    3    3    0    0 -0.20970183168E+02 -0.92174075744E+01  0.16460847472E+01  0.22965599922E+02  0.51100000000E-03 0. -1.
        -11    1    3    3    0    0 -0.11216350306E+02  0.28665882749E+01 -0.14799030914E+02  0.18789229861E+02  0.51100000000E-03 0.  1.
        -12    1    3    3    0    0  0.47271116789E+01  0.16878077832E+02  0.82919109520E+00  0.17547155154E+02  0.00000000000E+00 0.  1.
</event>
<event>
 7    1  0.5634483E-012  0.5930194E+02  0.7816164E-02  0.1266605E+00
        -11   -1    0    0    0    0  0.00000000000E+00  0.00000000000E+00  0.45593999997E+02  0.45594000000E+02  0.51100000000E-03 0. -1.
         11   -1    0    0    0    0 -0.00000000000E+00 -0.00000000000E+00 -0.45593999997E+02  0.45594000000E+02  0.51100000000E-03 0.  1.
    9900012    2    1    2    0    0  0.67124105360E+01 -0.23613927966E+02 -0.20348136364E+02  0.59301941876E+02  0.49999996075E+02 0.  0.
         12    1    1    2    0    0 -0.67124105360E+01  0.23613927966E+02  0.20348136364E+02  0.31886058124E+02  0.00000000000E+00 0. -1.
         11    1    3    3    0    0  0.11191043463E+02 -0.69428907750E+01  0.34233485904E+01  0.13607442888E+02  0.51100000000E-03 0. -1.
        -11    1    3    3    0    0 -0.12996935873E+02 -0.19273182255E+02 -0.34419871947E+01  0.23499429194E+02  0.51100000000E-03 0.  1.
        -12    1    3    3    0    0  0.85183029461E+01  0.26021450633E+01 -0.20329497760E+02  0.22195069794E+02  0.00000000000E+00 0.  1.
</event>
<event>
 7    1  0.5634483E-012  0.5930194E+02  0.7816164E-02  0.1266605E+00
        -11   -1    0    0    0    0  0.00000000000E+00  0.00000000000E+00  0.45593999997E+02  0.45594000000E+02  0.51100000000E-03 0. -1.
         11   -1    0    0    0    0 -0.00000000000E+00 -0.00000000000E+00 -0.45593999997E+02  0.45594000000E+02  0.51100000000E-03 0.  1.
    9900012    2    1    2    0    0  0.15538121389E+02 -0.27817845931E+02 -0.12062214018E+01  0.59301941312E+02  0.49999995048E+02 0.  0.
         12    1    1    2    0    0 -0.15538121389E+02  0.27817845931E+02  0.12062214018E+01  0.31886058688E+02  0.00000000000E+00 0. -1.
         11    1    3    3    0    0 -0.92228504611E+01 -0.47724280476E+01  0.25352562471E+00  0.10387555805E+02  0.51100000000E-03 0. -1.
        -11    1    3    3    0    0  0.21909437406E+02 -0.29385651844E+02  0.76608889504E+01  0.37446350977E+02  0.51100000000E-03 0.  1.
         12    1    3    3    0    0  0.28515344445E+01  0.63402339604E+01 -0.91206359769E+01  0.11468034530E+02  0.00000000000E+00 0. -1.
</event>
<event>
 7    1  0.5634483E-012  0.5930191E+02  0.7816164E-02  0.1266605E+00
        -11   -1    0    0    0    0  0.00000000000E+00  0.00000000000E+00  0.45593999997E+02  0.45594000000E+02  0.51100000000E-03 0.  1.
         11   -1    0    0    0    0 -0.00000000000E+00 -0.00000000000E+00 -0.45593999997E+02  0.45594000000E+02  0.51100000000E-03 0. -1.
    9900012    2    1    2    0    0 -0.54581506387E+01  0.20863728213E+02  0.23486936970E+02  0.59301909434E+02  0.49999936910E+02 0.  0.
         12    1    1    2    0    0  0.54581506387E+01 -0.20863728213E+02 -0.23486936970E+02  0.31886090566E+02  0.00000000000E+00 0. -1.
         11    1    3    3    0    0 -0.37521780297E+01  0.98131749104E+01 -0.68180382004E+01  0.12524491485E+02  0.51100000000E-03 0. -1.
        -11    1    3    3    0    0 -0.48453386748E+01 -0.21967800801E+01 -0.59909802315E+01  0.80121778555E+01  0.51100000000E-03 0.  1.
        -12    1    3    3    0    0  0.31393660658E+01  0.13247333383E+02  0.36295955402E+02  0.38765240094E+02  0.00000000000E+00 0.  1.
</event>
<event>
 7    1  0.5634483E-012  0.5930194E+02  0.7816164E-02  0.1266605E+00
        -11   -1    0    0    0    0  0.00000000000E+00  0.00000000000E+00  0.45593999997E+02  0.45594000000E+02  0.51100000000E-03 0.  1.
         11   -1    0    0    0    0 -0.00000000000E+00 -0.00000000000E+00 -0.45593999997E+02  0.45594000000E+02  0.51100000000E-03 0. -1.
    9900012    2    1    2    0    0 -0.19004114816E+01 -0.24160941785E+02  0.20720965488E+02  0.59301935920E+02  0.49999985214E+02 0.  0.
         12    1    1    2    0    0  0.19004114816E+01  0.24160941785E+02 -0.20720965488E+02  0.31886064080E+02  0.00000000000E+00 0. -1.
         11    1    3    3    0    0 -0.14141852262E+02 -0.72891993023E+01  0.11192032985E+02  0.19452146783E+02  0.51100000000E-03 0.  1.
        -11    1    3    3    0    0  0.84896817892E+01 -0.21050902427E+02  0.18488695482E+02  0.29275365937E+02  0.51100000000E-03 0. -1.
         12    1    3    3    0    0  0.37517589911E+01  0.41791599439E+01 -0.89597629793E+01  0.10574423200E+02  0.00000000000E+00 0. -1.
</event>
<event>
 7    1  0.5634483E-012  0.5930197E+02  0.7816164E-02  0.1266605E+00
        -11   -1    0    0    0    0  0.00000000000E+00  0.00000000000E+00  0.45593999997E+02  0.45594000000E+02  0.51100000000E-03 0.  1.
         11   -1    0    0    0    0 -0.00000000000E+00 -0.00000000000E+00 -0.45593999997E+02  0.45594000000E+02  0.51100000000E-03 0. -1.
    9900012    2    1    2    0    0  0.85536925347E+01  0.15661157448E+02  0.26425016349E+02  0.59301968612E+02  0.50000044836E+02 0.  0.
         12    1    1    2    0    0 -0.85536925347E+01 -0.15661157448E+02 -0.26425016349E+02  0.31886031388E+02  0.00000000000E+00 0. -1.
         11    1    3    3    0    0 -0.39601946053E+01 -0.17134694157E+01  0.79001511297E+01  0.90017502122E+01  0.51100000000E-03 0.  1.
        -11    1    3    3    0    0  0.24211022842E+02  0.13857574088E+02 -0.25514232777E+00  0.27897510364E+02  0.51100000000E-03 0. -1.
         12    1    3    3    0    0 -0.11697135702E+02  0.35170527761E+01  0.18780007548E+02  0.22402708036E+02  0.00000000000E+00 0. -1.
</event>
<event>
 7    1  0.5634483E-012  0.5930191E+02  0.7816164E-02  0.1266605E+00
        -11   -1    0    0    0    0  0.00000000000E+00  0.00000000000E+00  0.45593999997E+02  0.45594000000E+02  0.51100000000E-03 0. -1.
         11   -1    0    0    0    0 -0.00000000000E+00 -0.00000000000E+00 -0.45593999997E+02  0.45594000000E+02  0.51100000000E-03 0.  1.
    9900012    2    1    2    0    0 -0.66250362285E+01 -0.26732391800E+02 -0.16068943151E+02  0.59301908826E+02  0.49999935800E+02 0.  0.
         12    1    1    2    0    0  0.66250362285E+01  0.26732391800E+02  0.16068943151E+02  0.31886091174E+02  0.00000000000E+00 0. -1.
         11    1    3    3    0    0 -0.35010168437E+01 -0.87291962914E+01 -0.60393998747E+01  0.11177224071E+02  0.51100000000E-03 0. -1.
        -11    1    3    3    0    0 -0.91458516178E+01  0.81886303799E+01 -0.16418618721E+02  0.20500519757E+02  0.51100000000E-03 0.  1.
         12    1    3    3    0    0  0.60218322329E+01 -0.26191825888E+02  0.63890754445E+01  0.27624164998E+02  0.00000000000E+00 0. -1.
</event>
<event>
 7    1  0.5634483E-012  0.5930207E+02  0.7816164E-02  0.1266604E+00
        -11   -1    0    0    0    0  0.00000000000E+00  0.00000000000E+00  0.45593999997E+02  0.45594000000E+02  0.51100000000E-03 0.  1.
         11   -1    0    0    0    0 -0.00000000000E+00 -0.00000000000E+00 -0.45593999997E+02  0.45594000000E+02  0.51100000000E-03 0. -1.
    9900012    2    1    2    0    0  0.17403376867E+02  0.24143146599E+02  0.11443042939E+02  0.59302073860E+02  0.50000236783E+02 0.  0.
         12    1    1    2    0    0 -0.17403376867E+02 -0.24143146599E+02 -0.11443042939E+02  0.31885926140E+02  0.00000000000E+00 0. -1.
         11    1    3    3    0    0 -0.76795104825E+00 -0.30419478639E+01 -0.32771812201E+01  0.45368615396E+01  0.51100000000E-03 0. -1.
        -11    1    3    3    0    0  0.12154771707E+02  0.90701131755E+01  0.27770936477E+02  0.31642224027E+02  0.51100000000E-03 0.  1.
         12    1    3    3    0    0  0.60165562083E+01  0.18114981287E+02 -0.13050712318E+02  0.23122988294E+02  0.00000000000E+00 0. -1.
</event>
<event>
 7    1  0.5634483E-012  0.5930193E+02  0.7816164E-02  0.1266605E+00
        -11   -1    0    0    0    0  0.00000000000E+00  0.00000000000E+00  0.45593999997E+02  0.45594000000E+02  0.51100000000E-03 0.  1.
         11   -1    0    0    0    0 -0.00000000000E+00 -0.00000000000E+00 -0.45593999997E+02  0.45594000000E+02  0.51100000000E-03 0. -1.
    9900012    2    1    2    0    0 -0.19521354650E+02 -0.25101393322E+02 -0.23575857089E+01  0.59301930245E+02  0.49999974863E+02 0.  0.
         12    1    1    2    0    0  0.19521354650E+02  0.25101393322E+02  0.23575857089E+01  0.31886069755E+02  0.00000000000E+00 0. -1.
         11    1    3    3    0    0 -0.43507664859E+01 -0.19708374288E+02  0.20868851382E+01  0.20290497183E+02  0.51100000000E-03 0. -1.
        -11    1    3    3    0    0 -0.11272287374E+02 -0.12389252040E+02 -0.17162679320E+02  0.23981567723E+02  0.51100000000E-03 0.  1.
        -12    1    3    3    0    0 -0.38983007894E+01  0.69962330067E+01  0.12718208473E+02  0.15029865338E+02  0.00000000000E+00 0.  1.
</event>
<event>
 7    1  0.5634483E-012  0.5930199E+02  0.7816164E-02  0.1266605E+00
        -11   -1    0    0    0    0  0.00000000000E+00  0.00000000000E+00  0.45593999997E+02  0.45594000000E+02  0.51100000000E-03 0.  1.
         11   -1    0    0    0    0 -0.00000000000E+00 -0.00000000000E+00 -0.45593999997E+02  0.45594000000E+02  0.51100000000E-03 0. -1.
    9900012    2    1    2    0    0  0.10204547618E+02 -0.20218811006E+02  0.22445138273E+02  0.59301994564E+02  0.50000092166E+02 0.  0.
         12    1    1    2    0    0 -0.10204547618E+02  0.20218811006E+02 -0.22445138273E+02  0.31886005436E+02  0.00000000000E+00 0. -1.
         11    1    3    3    0    0 -0.59785144360E+01 -0.14394233740E+02  0.77216324757E+01  0.17394257909E+02  0.51100000000E-03 0. -1.
        -11    1    3    3    0    0  0.15263972909E+02 -0.14784928289E+02 -0.35404920314E+01  0.21543399396E+02  0.51100000000E-03 0.  1.
         12    1    3    3    0    0  0.91908914525E+00  0.89603510236E+01  0.18263997829E+02  0.20364337259E+02  0.00000000000E+00 0. -1.
</event>
<event>
 7    1  0.5634483E-012  0.5930198E+02  0.7816164E-02  0.1266605E+00
        -11   -1    0    0    0    0  0.00000000000E+00  0.00000000000E+00  0.45593999997E+02  0.45594000000E+02  0.51100000000E-03 0.  1.
         11   -1    0    0    0    0 -0.00000000000E+00 -0.00000000000E+00 -0.45593999997E+02  0.45594000000E+02  0.51100000000E-03 0. -1.
    9900012    2    1    2    0    0  0.15131903281E+02  0.12398464153E+02  0.25179794869E+02  0.59301976731E+02  0.50000059643E+02 0.  0.
         12    1    1    2    0    0 -0.15131903281E+02 -0.12398464153E+02 -0.25179794869E+02  0.31886023269E+02  0.00000000000E+00 0. -1.
         11    1    3    3    0    0  0.59737556088E+01 -0.10650711287E+02  0.11057303695E+02  0.16473839026E+02  0.51100000000E-03 0. -1.
        -11    1    3    3    0    0  0.60702359664E+01  0.15890648512E+02  0.24513636418E+02  0.29837540876E+02  0.51100000000E-03 0.  1.
        -12    1    3    3    0    0  0.30879117061E+01  0.71585269283E+01 -0.10391145244E+02  0.12990596829E+02  0.00000000000E+00 0.  1.
</event>
<event>
 7    1  0.5634483E-012  0.5930194E+02  0.7816164E-02  0.1266605E+00
        -11   -1    0    0    0    0  0.00000000000E+00  0.00000000000E+00  0.45593999997E+02  0.45594000000E+02  0.51100000000E-03 0.  1.
         11   -1    0    0    0    0 -0.00000000000E+00 -0.00000000000E+00 -0.45593999997E+02  0.45594000000E+02  0.51100000000E-03 0. -1.
    9900012    2    1    2    0    0  0.31550067671E+02  0.27197887211E+01  0.37304994927E+01  0.59301942746E+02  0.49999997663E+02 0.  0.
         12    1    1    2    0    0 -0.31550067671E+02 -0.27197887211E+01 -0.37304994927E+01  0.31886057254E+02  0.00000000000E+00 0. -1.
         11    1    3    3    0    0  0.19402344664E+01  0.67996520895E+01  0.92074767146E+01  0.11609367168E+02  0.51100000000E-03 0.  1.
        -11    1    3    3    0    0  0.14620096347E+02  0.13736879839E+01  0.15492369573E+02  0.21345907128E+02  0.51100000000E-03 0. -1.
         12    1    3    3    0    0  0.14989736858E+02 -0.54535513523E+01 -0.20969346795E+02  0.26346668450E+02  0.00000000000E+00 0. -1.
</event>
<event>
 7    1  0.5634483E-012  0.5930195E+02  0.7816164E-02  0.1266605E+00
        -11   -1    0    0    0    0  0.00000000000E+00  0.00000000000E+00  0.45593999997E+02  0.45594000000E+02  0.51100000000E-03 0.  1.
         11   -1    0    0    0    0 -0.00000000000E+00 -0.00000000000E+00 -0.45593999997E+02  0.45594000000E+02  0.51100000000E-03 0. -1.
    9900012    2    1    2    0    0 -0.30047428334E+02 -0.95009694249E+01  0.48583906617E+01  0.59301947731E+02  0.50000006753E+02 0.  0.
         12    1    1    2    0    0  0.30047428334E+02  0.95009694249E+01 -0.48583906617E+01  0.31886052269E+02  0.00000000000E+00 0. -1.
         11    1    3    3    0    0 -0.70507445791E+01 -0.24391915423E+01  0.81357334048E+01  0.11038696155E+02  0.51100000000E-03 0. -1.
        -11    1    3    3    0    0 -0.26309112518E+02  0.87802327990E+01  0.76061490895E+01  0.28759613936E+02  0.51100000000E-03 0.  1.
         12    1    3    3    0    0  0.33124287631E+01 -0.15842010682E+02 -0.10883491832E+02  0.19503637641E+02  0.00000000000E+00 0. -1.
</event>
<event>
 7    1  0.5634483E-012  0.5930201E+02  0.7816164E-02  0.1266605E+00
        -11   -1    0    0    0    0  0.00000000000E+00  0.00000000000E+00  0.45593999997E+02  0.45594000000E+02  0.51100000000E-03 0.  1.
         11   -1    0    0    0    0 -0.00000000000E+00 -0.00000000000E+00 -0.45593999997E+02  0.45594000000E+02  0.51100000000E-03 0. -1.
    9900012    2    1    2    0    0  0.17379457948E+02 -0.20631930815E+02  0.16999831321E+02  0.59302009461E+02  0.50000119335E+02 0.  0.
         12    1    1    2    0    0 -0.17379457948E+02  0.20631930815E+02 -0.16999831321E+02  0.31885990539E+02  0.00000000000E+00 0. -1.
         11    1    3    3    0    0  0.15763903766E+02 -0.87154234801E+00 -0.27347367804E+00  0.15790346295E+02  0.51100000000E-03 0. -1.
        -11    1    3    3    0    0  0.68031146371E+01 -0.10576439491E+02 -0.88245954637E+01  0.15362842394E+02  0.51100000000E-03 0.  1.
        -12    1    3    3    0    0 -0.51875604552E+01 -0.91839489754E+01  0.26097900462E+02  0.28148820771E+02  0.00000000000E+00 0.  1.
</event>
<event>
 7    1  0.5634483E-012  0.5930199E+02  0.7816164E-02  0.1266605E+00
        -11   -1    0    0    0    0  0.00000000000E+00  0.00000000000E+00  0.45593999997E+02  0.45594000000E+02  0.51100000000E-03 0.  1.
         11   -1    0    0    0    0 -0.00000000000E+00 -0.00000000000E+00 -0.45593999997E+02  0.45594000000E+02  0.51100000000E-03 0. -1.
    9900012    2    1    2    0    0  0.27915767332E+02 -0.39261708272E+01  0.14900086805E+02  0.59301992569E+02  0.50000088528E+02 0.  0.
         12    1    1    2    0    0 -0.27915767332E+02  0.39261708272E+01 -0.14900086805E+02  0.31886007431E+02  0.00000000000E+00 0. -1.
         11    1    3    3    0    0  0.37043513217E+01  0.47377737136E+01  0.13857765610E+02  0.15106501462E+02  0.51100000000E-03 0. -1.
        -11    1    3    3    0    0  0.24508387928E+01 -0.14438460770E+01  0.16370901717E+02  0.16616188660E+02  0.51100000000E-03 0.  1.
         12    1    3    3    0    0  0.21760577217E+02 -0.72200984639E+01 -0.15328580522E+02  0.27579302447E+02  0.00000000000E+00 0. -1.
</event>
<event>
 7    1  0.5634483E-012  0.5930184E+02  0.7816164E-02  0.1266605E+00
        -11   -1    0    0    0    0  0.00000000000E+00  0.00000000000E+00  0.45593999997E+02  0.45594000000E+02  0.51100000000E-03 0. -1.
         11   -1    0    0    0    0 -0.00000000000E+00 -0.00000000000E+00 -0.45593999997E+02  0.45594000000E+02  0.51100000000E-03 0.  1.
    9900012    2    1    2    0    0  0.22773864010E+02  0.15479930847E+02 -0.16076372873E+02  0.59301844607E+02  0.49999818680E+02 0.  0.
         12    1    1    2    0    0 -0.22773864010E+02 -0.15479930847E+02  0.16076372873E+02  0.31886155393E+02  0.00000000000E+00 0. -1.
         11    1    3    3    0    0 -0.13469366795E+02  0.76471723196E+01 -0.27562478558E+01  0.15732132368E+02  0.51100000000E-03 0. -1.
        -11    1    3    3    0    0  0.96213677623E+00  0.25697077213E+01 -0.67658417673E+01  0.73010766350E+01  0.51100000000E-03 0.  1.
         12    1    3    3    0    0  0.35281094029E+02  0.52630508064E+01 -0.65542832503E+01  0.36268635604E+02  0.00000000000E+00 0. -1.
</event>
<event>
 7    1  0.5634483E-012  0.5930194E+02  0.7816164E-02  0.1266605E+00
        -11   -1    0    0    0    0  0.00000000000E+00  0.00000000000E+00  0.45593999997E+02  0.45594000000E+02  0.51100000000E-03 0.  1.
         11   -1    0    0    0    0 -0.00000000000E+00 -0.00000000000E+00 -0.45593999997E+02  0.45594000000E+02  0.51100000000E-03 0. -1.
    9900012    2    1    2    0    0 -0.13963295069E+02 -0.26906731042E+02 -0.98881320001E+01  0.59301938170E+02  0.49999989318E+02 0.  0.
         12    1    1    2    0    0  0.13963295069E+02  0.26906731042E+02  0.98881320001E+01  0.31886061830E+02  0.00000000000E+00 0. -1.
         11    1    3    3    0    0  0.47014122407E+01 -0.21852756146E+02 -0.14270734938E+02  0.26519805884E+02  0.51100000000E-03 0. -1.
        -11    1    3    3    0    0 -0.69651161328E+01 -0.13881696820E+02 -0.38097943633E+01  0.15991525340E+02  0.51100000000E-03 0.  1.
        -12    1    3    3    0    0 -0.11699591177E+02  0.88277219237E+01  0.81923973012E+01  0.16790606946E+02  0.00000000000E+00 0.  1.
</event>
<event>
 7    1  0.5634483E-012  0.5930198E+02  0.7816164E-02  0.1266605E+00
        -11   -1    0    0    0    0  0.00000000000E+00  0.00000000000E+00  0.45593999997E+02  0.45594000000E+02  0.51100000000E-03 0. -1.
         11   -1    0    0    0    0 -0.00000000000E+00 -0.00000000000E+00 -0.45593999997E+02  0.45594000000E+02  0.51100000000E-03 0.  1.
    9900012    2    1    2    0    0 -0.12780386516E+02  0.25784821132E+02 -0.13730372006E+02  0.59301978051E+02  0.50000062050E+02 0.  0.
         12    1    1    2    0    0  0.12780386516E+02 -0.25784821132E+02  0.13730372006E+02  0.31886021949E+02  0.00000000000E+00 0. -1.
         11    1    3    3    0    0  0.46603657362E+01 -0.45179078145E+01 -0.95443747377E+01  0.11542338983E+02  0.51100000000E-03 0. -1.
        -11    1    3    3    0    0  0.36916989799E+01  0.81126666319E+01 -0.13101778556E+02  0.15846154197E+02  0.51100000000E-03 0.  1.
         12    1    3    3    0    0 -0.21132451232E+02  0.22190062315E+02  0.89157812877E+01  0.31913484871E+02  0.00000000000E+00 0. -1.
</event>
<event>
 7    1  0.5634483E-012  0.5930196E+02  0.7816164E-02  0.1266605E+00
        -11   -1    0    0    0    0  0.00000000000E+00  0.00000000000E+00  0.45593999997E+02  0.45594000000E+02  0.51100000000E-03 0.  1.
         11   -1    0    0    0    0 -0.00000000000E+00 -0.00000000000E+00 -0.45593999997E+02  0.45594000000E+02  0.51100000000E-03 0. -1.
    9900012    2    1    2    0    0  0.30385709481E+02 -0.43640080043E+00 -0.96559615652E+01  0.59301962616E+02  0.50000033900E+02 0.  0.
         12    1    1    2    0    0 -0.30385709481E+02  0.43640080043E+00  0.96559615652E+01  0.31886037384E+02  0.00000000000E+00 0. -1.
         11    1    3    3    0    0  0.42096098155E+01 -0.67998238701E+01  0.10390019660E+02  0.13111480780E+02  0.51100000000E-03 0.  1.
        -11    1    3    3    0    0  0.24289350513E+02  0.15492150922E+02 -0.22496243799E+02  0.36552158265E+02  0.51100000000E-03 0. -1.
         12    1    3    3    0    0  0.18867491528E+01 -0.91287278522E+01  0.24502625739E+01  0.96383235703E+01  0.00000000000E+00 0. -1.
</event>
<event>
 7    1  0.5634483E-012  0.5930199E+02  0.7816164E-02  0.1266605E+00
        -11   -1    0    0    0    0  0.00000000000E+00  0.00000000000E+00  0.45593999997E+02  0.45594000000E+02  0.51100000000E-03 0. -1.
         11   -1    0    0    0    0 -0.00000000000E+00 -0.00000000000E+00 -0.45593999997E+02  0.45594000000E+02  0.51100000000E-03 0.  1.
    9900012    2    1    2    0    0  0.72688029755E+01 -0.10642044008E+02 -0.29165542590E+02  0.59301992537E+02  0.50000088470E+02 0.  0.
         12    1    1    2    0    0 -0.72688029755E+01  0.10642044008E+02  0.29165542590E+02  0.31886007463E+02  0.00000000000E+00 0. -1.
         11    1    3    3    0    0  0.54124304476E+01  0.26793525424E+01  0.28836550112E+01  0.66924434911E+01  0.51100000000E-03 0. -1.
        -11    1    3    3    0    0  0.20385324204E+02 -0.10651230335E+02 -0.17616652159E+02  0.28971651387E+02  0.51100000000E-03 0.  1.
         12    1    3    3    0    0 -0.18528951676E+02 -0.26701662149E+01 -0.14432545442E+02  0.23637897659E+02  0.00000000000E+00 0. -1.
</event>
<event>
 7    1  0.5634483E-012  0.5930195E+02  0.7816164E-02  0.1266605E+00
        -11   -1    0    0    0    0  0.00000000000E+00  0.00000000000E+00  0.45593999997E+02  0.45594000000E+02  0.51100000000E-03 0. -1.
         11   -1    0    0    0    0 -0.00000000000E+00 -0.00000000000E+00 -0.45593999997E+02  0.45594000000E+02  0.51100000000E-03 0.  1.
    9900012    2    1    2    0    0  0.16952851141E+02 -0.99323893771E+01 -0.25113115620E+02  0.59301951378E+02  0.50000013406E+02 0.  0.
         12    1    1    2    0    0 -0.16952851141E+02  0.99323893771E+01  0.25113115620E+02  0.31886048622E+02  0.00000000000E+00 0. -1.
         11    1    3    3    0    0 -0.78243215233E+00 -0.14863609977E+02 -0.30720966099E+02  0.34136737687E+02  0.51100000000E-03 0. -1.
        -11    1    3    3    0    0  0.24641469044E+01  0.81422645712E+01 -0.21361252499E+00  0.85096488110E+01  0.51100000000E-03 0.  1.
        -12    1    3    3    0    0  0.15271136389E+02 -0.32110439714E+01  0.58214630032E+01  0.16655564880E+02  0.00000000000E+00 0.  1.
</event>
<event>
 7    1  0.5634483E-012  0.5930194E+02  0.7816164E-02  0.1266605E+00
        -11   -1    0    0    0    0  0.00000000000E+00  0.00000000000E+00  0.45593999997E+02  0.45594000000E+02  0.51100000000E-03 0. -1.
         11   -1    0    0    0    0 -0.00000000000E+00 -0.00000000000E+00 -0.45593999997E+02  0.45594000000E+02  0.51100000000E-03 0.  1.
    9900012    2    1    2    0    0 -0.26638780753E+02 -0.13312281831E+02 -0.11396458005E+02  0.59301941250E+02  0.49999994933E+02 0.  0.
         12    1    1    2    0    0  0.26638780753E+02  0.13312281831E+02  0.11396458005E+02  0.31886058750E+02  0.00000000000E+00 0. -1.
         11    1    3    3    0    0  0.58925278311E+01  0.11030889733E+02  0.46343112411E+01  0.13337138130E+02  0.51100000000E-03 0. -1.
        -11    1    3    3    0    0 -0.14847251113E+02 -0.26396412314E+01 -0.58618177891E+01  0.16179291687E+02  0.51100000000E-03 0.  1.
        -12    1    3    3    0    0 -0.17684057472E+02 -0.21703530333E+02 -0.10168951458E+02  0.29785511433E+02  0.00000000000E+00 0.  1.
</event>
<event>
 7    1  0.5634483E-012  0.5930186E+02  0.7816164E-02  0.1266605E+00
        -11   -1    0    0    0    0  0.00000000000E+00  0.00000000000E+00  0.45593999997E+02  0.45594000000E+02  0.51100000000E-03 0.  1.
         11   -1    0    0    0    0 -0.00000000000E+00 -0.00000000000E+00 -0.45593999997E+02  0.45594000000E+02  0.51100000000E-03 0. -1.
    9900012    2    1    2    0    0  0.28068469866E+02 -0.90599709058E+01  0.12116266444E+02  0.59301859030E+02  0.49999844984E+02 0.  0.
         12    1    1    2    0    0 -0.28068469866E+02  0.90599709058E+01 -0.12116266444E+02  0.31886140970E+02  0.00000000000E+00 0. -1.
         11    1    3    3    0    0  0.14467811650E+02 -0.17593531148E+02  0.21872179920E+01  0.22883046890E+02  0.51100000000E-03 0. -1.
        -11    1    3    3    0    0  0.16734478267E+02 -0.25139380529E+01 -0.49429000604E+01  0.17629376298E+02  0.51100000000E-03 0.  1.
         12    1    3    3    0    0 -0.31338200512E+01  0.11047498295E+02  0.14871948512E+02  0.18789435841E+02  0.00000000000E+00 0. -1.
</event>
<event>
 7    1  0.5634483E-012  0.5930168E+02  0.7816164E-02  0.1266606E+00
        -11   -1    0    0    0    0  0.00000000000E+00  0.00000000000E+00  0.45593999997E+02  0.45594000000E+02  0.51100000000E-03 0. -1.
         11   -1    0    0    0    0 -0.00000000000E+00 -0.00000000000E+00 -0.45593999997E+02  0.45594000000E+02  0.51100000000E-03 0.  1.
    9900012    2    1    2    0    0 -0.18156805296E+02 -0.10521950774E+02 -0.24007427850E+02  0.59301676621E+02  0.49999512311E+02 0.  0.
         12    1    1    2    0    0  0.18156805296E+02  0.10521950774E+02  0.24007427850E+02  0.31886323379E+02  0.00000000000E+00 0. -1.
         11    1    3    3    0    0  0.15024401936E+02 -0.10010208990E+02 -0.13778577246E+01  0.18106226270E+02  0.51100000000E-03 0. -1.
        -11    1    3    3    0    0 -0.89886753753E+01 -0.33896370093E+01 -0.35169469818E+01  0.10230094838E+02  0.51100000000E-03 0.  1.
        -12    1    3    3    0    0 -0.24192531857E+02  0.28778952250E+01 -0.19112623144E+02  0.30965355513E+02  0.00000000000E+00 0.  1.
</event>
<event>
 7    1  0.5634483E-012  0.5930188E+02  0.7816164E-02  0.1266605E+00
        -11   -1    0    0    0    0  0.00000000000E+00  0.00000000000E+00  0.45593999997E+02  0.45594000000E+02  0.51100000000E-03 0.  1.
         11   -1    0    0    0    0 -0.00000000000E+00 -0.00000000000E+00 -0.45593999997E+02  0.45594000000E+02  0.51100000000E-03 0. -1.
    9900012    2    1    2    0    0  0.40907284081E+01 -0.22965651401E+02 -0.21738657317E+02  0.59301883505E+02  0.49999889620E+02 0.  0.
         12    1    1    2    0    0 -0.40907284081E+01  0.22965651401E+02  0.21738657317E+02  0.31886116495E+02  0.00000000000E+00 0. -1.
         11    1    3    3    0    0 -0.13139539793E+02 -0.63897666570E+01 -0.14657985678E+02  0.20696211448E+02  0.51100000000E-03 0. -1.
        -11    1    3    3    0    0 -0.52627178403E+01 -0.51766487946E+01 -0.10835409460E+02  0.13111063658E+02  0.51100000000E-03 0.  1.
        -12    1    3    3    0    0  0.22492986042E+02 -0.11399235950E+02  0.37547378207E+01  0.25494608399E+02  0.00000000000E+00 0.  1.
</event>
<event>
 7    1  0.5634483E-012  0.5930196E+02  0.7816164E-02  0.1266605E+00
        -11   -1    0    0    0    0  0.00000000000E+00  0.00000000000E+00  0.45593999997E+02  0.45594000000E+02  0.51100000000E-03 0.  1.
         11   -1    0    0    0    0 -0.00000000000E+00 -0.00000000000E+00 -0.45593999997E+02  0.45594000000E+02  0.51100000000E-03 0. -1.
    9900012    2    1    2    0    0 -0.10671007784E+02 -0.27964301901E+02  0.10993040466E+02  0.59301960318E+02  0.50000029709E+02 0.  0.
         12    1    1    2    0    0  0.10671007784E+02  0.27964301901E+02 -0.10993040466E+02  0.31886039682E+02  0.00000000000E+00 0. -1.
         11    1    3    3    0    0 -0.68681577074E+01 -0.34451425652E+01 -0.18277771743E+01  0.78981875926E+01  0.51100000000E-03 0. -1.
        -11    1    3    3    0    0 -0.17511873048E+02 -0.23586902595E+02  0.20348604270E+02  0.35736163303E+02  0.51100000000E-03 0.  1.
         12    1    3    3    0    0  0.13709022971E+02 -0.93225674101E+00 -0.75277866289E+01  0.15667609422E+02  0.00000000000E+00 0. -1.
</event>
<event>
 7    1  0.5634483E-012  0.5930192E+02  0.7816164E-02  0.1266605E+00
        -11   -1    0    0    0    0  0.00000000000E+00  0.00000000000E+00  0.45593999997E+02  0.45594000000E+02  0.51100000000E-03 0.  1.
         11   -1    0    0    0    0 -0.00000000000E+00 -0.00000000000E+00 -0.45593999997E+02  0.45594000000E+02  0.51100000000E-03 0. -1.
    9900012    2    1    2    0    0  0.98819130990E+01  0.65956110214E+01  0.29589993051E+02  0.59301921846E+02  0.49999959547E+02 0.  0.
         12    1    1    2    0    0 -0.98819130990E+01 -0.65956110214E+01 -0.29589993051E+02  0.31886078154E+02  0.00000000000E+00 0. -1.
         11    1    3    3    0    0  0.49866418434E+01  0.32785232468E+01  0.66750939756E+01  0.89538925277E+01  0.51100000000E-03 0. -1.
        -11    1    3    3    0    0 -0.76608444645E+01  0.21435219546E+02  0.10810483774E+02  0.25199677272E+02  0.51100000000E-03 0.  1.
         12    1    3    3    0    0  0.12556115720E+02 -0.18118131772E+02  0.12104415302E+02  0.25148352047E+02  0.00000000000E+00 0. -1.
</event>
<event>
 7    1  0.5634483E-012  0.5930196E+02  0.7816164E-02  0.1266605E+00
        -11   -1    0    0    0    0  0.00000000000E+00  0.00000000000E+00  0.45593999997E+02  0.45594000000E+02  0.51100000000E-03 0. -1.
         11   -1    0    0    0    0 -0.00000000000E+00 -0.00000000000E+00 -0.45593999997E+02  0.45594000000E+02  0.51100000000E-03 0.  1.
    9900012    2    1    2    0    0 -0.31445557769E+02 -0.33419314187E+01 -0.40899946973E+01  0.59301958138E+02  0.50000025733E+02 0.  0.
         12    1    1    2    0    0  0.31445557769E+02  0.33419314187E+01  0.40899946973E+01  0.31886041862E+02  0.00000000000E+00 0. -1.
         11    1    3    3    0    0  0.29029857413E+01 -0.28977715455E+01 -0.38714686006E+01  0.56402726469E+01  0.51100000000E-03 0. -1.
        -11    1    3    3    0    0  0.30875657207E+01 -0.98240317797E+01 -0.94532782680E+01  0.13978881671E+02  0.51100000000E-03 0.  1.
        -12    1    3    3    0    0 -0.37436109231E+02  0.93798719065E+01  0.92347521713E+01  0.39682803820E+02  0.00000000000E+00 0.  1.
</event>
<event>
 7    1  0.5634483E-012  0.5930194E+02  0.7816164E-02  0.1266605E+00
        -11   -1    0    0    0    0  0.00000000000E+00  0.00000000000E+00  0.45593999997E+02  0.45594000000E+02  0.51100000000E-03 0. -1.
         11   -1    0    0    0    0 -0.00000000000E+00 -0.00000000000E+00 -0.45593999997E+02  0.45594000000E+02  0.51100000000E-03 0.  1.
    9900012    2    1    2    0    0  0.26209521884E+02  0.17537901376E+02 -0.47121079571E+01  0.59301937473E+02  0.49999988046E+02 0.  0.
         12    1    1    2    0    0 -0.26209521884E+02 -0.17537901376E+02  0.47121079571E+01  0.31886062527E+02  0.00000000000E+00 0. -1.
         11    1    3    3    0    0  0.83673351540E+01  0.41586062919E+01  0.13827246691E+02  0.16688290960E+02  0.51100000000E-03 0. -1.
        -11    1    3    3    0    0  0.15054515351E+02 -0.78256486837E+01 -0.87950324848E+01  0.19111038863E+02  0.51100000000E-03 0.  1.
        -12    1    3    3    0    0  0.27876713795E+01  0.21204943768E+02 -0.97443221628E+01  0.23502607650E+02  0.00000000000E+00 0.  1.
</event>
<event>
 7    1  0.5634483E-012  0.5930194E+02  0.7816164E-02  0.1266605E+00
        -11   -1    0    0    0    0  0.00000000000E+00  0.00000000000E+00  0.45593999997E+02  0.45594000000E+02  0.51100000000E-03 0. -1.
         11   -1    0    0    0    0 -0.00000000000E+00 -0.00000000000E+00 -0.45593999997E+02  0.45594000000E+02  0.51100000000E-03 0.  1.
    9900012    2    1    2    0    0  0.30189776256E+02  0.80457196272E+01  0.63690151526E+01  0.59301944291E+02  0.50000000480E+02 0.  0.
         12    1    1    2    0    0 -0.30189776256E+02 -0.80457196272E+01 -0.63690151526E+01  0.31886055709E+02  0.00000000000E+00 0. -1.
         11    1    3    3    0    0  0.18228703161E+02 -0.28371831288E+01 -0.44637373937E+01  0.18980521037E+02  0.51100000000E-03 0. -1.
        -11    1    3    3    0    0  0.14620134677E+02  0.14745121389E+02  0.20747687573E+02  0.29353594032E+02  0.51100000000E-03 0.  1.
         12    1    3    3    0    0 -0.26590615825E+01 -0.38622186327E+01 -0.99149350263E+01  0.10967829222E+02  0.00000000000E+00 0. -1.
</event>
<event>
 7    1  0.5634483E-012  0.5930194E+02  0.7816164E-02  0.1266605E+00
        -11   -1    0    0    0    0  0.00000000000E+00  0.00000000000E+00  0.45593999997E+02  0.45594000000E+02  0.51100000000E-03 0.  1.
         11   -1    0    0    0    0 -0.00000000000E+00 -0.00000000000E+00 -0.45593999997E+02  0.45594000000E+02  0.51100000000E-03 0. -1.
    9900012    2    1    2    0    0 -0.20820779270E+02 -0.15920846741E+02  0.18158815075E+02  0.59301940737E+02  0.49999993999E+02 0.  0.
         12    1    1    2    0    0  0.20820779270E+02  0.15920846741E+02 -0.18158815075E+02  0.31886059263E+02  0.00000000000E+00 0. -1.
         11    1    3    3    0    0 -0.11754510499E+01 -0.68170005721E+01  0.19085690009E+02  0.20300658742E+02  0.51100000000E-03 0. -1.
        -11    1    3    3    0    0 -0.17988151116E+02 -0.52479005070E+01  0.14067293601E+02  0.23430808561E+02  0.51100000000E-03 0.  1.
         12    1    3    3    0    0 -0.16571771048E+01 -0.38559456615E+01 -0.14994168535E+02  0.15570473434E+02  0.00000000000E+00 0. -1.
</event>
<event>
 7    1  0.5634483E-012  0.5930196E+02  0.7816164E-02  0.1266605E+00
        -11   -1    0    0    0    0  0.00000000000E+00  0.00000000000E+00  0.45593999997E+02  0.45594000000E+02  0.51100000000E-03 0.  1.
         11   -1    0    0    0    0 -0.00000000000E+00 -0.00000000000E+00 -0.45593999997E+02  0.45594000000E+02  0.51100000000E-03 0. -1.
    9900012    2    1    2    0    0 -0.26427810538E+02  0.16674737625E+02 -0.63437924597E+01  0.59301956854E+02  0.50000023393E+02 0.  0.
         12    1    1    2    0    0  0.26427810538E+02 -0.16674737625E+02  0.63437924597E+01  0.31886043146E+02  0.00000000000E+00 0. -1.
         11    1    3    3    0    0 -0.87701708769E+01  0.21612025739E+01 -0.13444023830E+02  0.16196557375E+02  0.51100000000E-03 0. -1.
        -11    1    3    3    0    0 -0.23178617122E+02  0.22738400012E+02  0.69135893872E+01  0.33197603005E+02  0.51100000000E-03 0.  1.
         12    1    3    3    0    0  0.55209774610E+01 -0.82248649609E+01  0.18664198339E+00  0.99077964745E+01  0.00000000000E+00 0. -1.
</event>
<event>
 7    1  0.5634483E-012  0.5930188E+02  0.7816164E-02  0.1266605E+00
        -11   -1    0    0    0    0  0.00000000000E+00  0.00000000000E+00  0.45593999997E+02  0.45594000000E+02  0.51100000000E-03 0. -1.
         11   -1    0    0    0    0 -0.00000000000E+00 -0.00000000000E+00 -0.45593999997E+02  0.45594000000E+02  0.51100000000E-03 0.  1.
    9900012    2    1    2    0    0  0.19780670779E+02  0.21781383577E+02 -0.12289058719E+02  0.59301881215E+02  0.49999885444E+02 0.  0.
         12    1    1    2    0    0 -0.19780670779E+02 -0.21781383577E+02  0.12289058719E+02  0.31886118785E+02  0.00000000000E+00 0. -1.
         11    1    3    3    0    0  0.12037164947E+01 -0.61428002114E+01  0.94803378236E+01  0.11360446001E+02  0.51100000000E-03 0. -1.
        -11    1    3    3    0    0  0.10302512494E+02 -0.29710123021E+01 -0.50786905823E+01  0.11864306810E+02  0.51100000000E-03 0.  1.
        -12    1    3    3    0    0  0.82744417900E+01  0.30895196090E+02 -0.16690705960E+02  0.36077128404E+02  0.00000000000E+00 0.  1.
</event>
<event>
 7    1  0.5634483E-012  0.5930194E+02  0.7816164E-02  0.1266605E+00
        -11   -1    0    0    0    0  0.00000000000E+00  0.00000000000E+00  0.45593999997E+02  0.45594000000E+02  0.51100000000E-03 0. -1.
         11   -1    0    0    0    0 -0.00000000000E+00 -0.00000000000E+00 -0.45593999997E+02  0.45594000000E+02  0.51100000000E-03 0.  1.
    9900012    2    1    2    0    0  0.31684560911E+02 -0.48316417276E+00 -0.35462542550E+01  0.59301940867E+02  0.49999994236E+02 0.  0.
         12    1    1    2    0    0 -0.31684560911E+02  0.48316417276E+00  0.35462542550E+01  0.31886059133E+02  0.00000000000E+00 0. -1.
         11    1    3    3    0    0  0.10237801188E+01 -0.15639856614E+02  0.13728701076E+01  0.15733340816E+02  0.51100000000E-03 0. -1.
        -11    1    3    3    0    0  0.20647139045E+02 -0.44857778137E+01 -0.39838246570E+01  0.21501102588E+02  0.51100000000E-03 0.  1.
         12    1    3    3    0    0  0.10013641748E+02  0.19642470255E+02 -0.93529970559E+00  0.22067497464E+02  0.00000000000E+00 0. -1.
</event>
<event>
 7    1  0.5634483E-012  0.5930195E+02  0.7816164E-02  0.1266605E+00
        -11   -1    0    0    0    0  0.00000000000E+00  0.00000000000E+00  0.45593999997E+02  0.45594000000E+02  0.51100000000E-03 0. -1.
         11   -1    0    0    0    0 -0.00000000000E+00 -0.00000000000E+00 -0.45593999997E+02  0.45594000000E+02  0.51100000000E-03 0.  1.
    9900012    2    1    2    0    0  0.20045091506E+02  0.24570803649E+02 -0.33451898473E+01  0.59301946927E+02  0.50000005288E+02 0.  0.
         12    1    1    2    0    0 -0.20045091506E+02 -0.24570803649E+02  0.33451898473E+01  0.31886053073E+02  0.00000000000E+00 0. -1.
         11    1    3    3    0    0  0.27627377386E+02  0.83914833500E+01 -0.17054822510E+01  0.28923997718E+02  0.51100000000E-03 0.  1.
        -11    1    3    3    0    0  0.33244027116E+01  0.51625134346E+01  0.94835181900E+01  0.11297801373E+02  0.51100000000E-03 0. -1.
        -12    1    3    3    0    0 -0.10906688592E+02  0.11016806865E+02 -0.11123225786E+02  0.19080147836E+02  0.00000000000E+00 0.  1.
</event>
<event>
 7    1  0.5634483E-012  0.5930194E+02  0.7816164E-02  0.1266605E+00
        -11   -1    0    0    0    0  0.00000000000E+00  0.00000000000E+00  0.45593999997E+02  0.45594000000E+02  0.51100000000E-03 0. -1.
         11   -1    0    0    0    0 -0.00000000000E+00 -0.00000000000E+00 -0.45593999997E+02  0.45594000000E+02  0.51100000000E-03 0.  1.
    9900012    2    1    2    0    0 -0.27678098752E+02 -0.66721817589E+01 -0.14357080793E+02  0.59301938330E+02  0.49999989608E+02 0.  0.
         12    1    1    2    0    0  0.27678098752E+02  0.66721817589E+01  0.14357080793E+02  0.31886061670E+02  0.00000000000E+00 0. -1.
         11    1    3    3    0    0 -0.13119502836E+02 -0.42151540120E+01  0.19750263896E+01  0.13920833578E+02  0.51100000000E-03 0. -1.
        -11    1    3    3    0    0 -0.13003110577E+02 -0.19800993107E+02 -0.39543216461E+01  0.24016595775E+02  0.51100000000E-03 0.  1.
         12    1    3    3    0    0 -0.15554853395E+01  0.17343965360E+02 -0.12377785536E+02  0.21364508977E+02  0.00000000000E+00 0. -1.
</event>
<event>
 7    1  0.5634483E-012  0.5930196E+02  0.7816164E-02  0.1266605E+00
        -11   -1    0    0    0    0  0.00000000000E+00  0.00000000000E+00  0.45593999997E+02  0.45594000000E+02  0.51100000000E-03 0.  1.
         11   -1    0    0    0    0 -0.00000000000E+00 -0.00000000000E+00 -0.45593999997E+02  0.45594000000E+02  0.51100000000E-03 0. -1.
    9900012    2    1    2    0    0 -0.46600896622E+01  0.29180238575E+02  0.11979846335E+02  0.59301961093E+02  0.50000031123E+02 0.  0.
         12    1    1    2    0    0  0.46600896622E+01 -0.29180238575E+02 -0.11979846335E+02  0.31886038907E+02  0.00000000000E+00 0. -1.
         11    1    3    3    0    0 -0.59663556086E+00  0.10884442176E+02 -0.54902988836E+01  0.12205344631E+02  0.51100000000E-03 0. -1.
        -11    1    3    3    0    0  0.94172532166E+00  0.30509957646E+02  0.11684579573E+02  0.32684457502E+02  0.51100000000E-03 0.  1.
        -12    1    3    3    0    0 -0.50051794230E+01 -0.12214161247E+02  0.57855656461E+01  0.14412158960E+02  0.00000000000E+00 0.  1.
</event>
<event>
 7    1  0.5634483E-012  0.5930194E+02  0.7816164E-02  0.1266605E+00
        -11   -1    0    0    0    0  0.00000000000E+00  0.00000000000E+00  0.45593999997E+02  0.45594000000E+02  0.51100000000E-03 0. -1.
         11   -1    0    0    0    0 -0.00000000000E+00 -0.00000000000E+00 -0.45593999997E+02  0.45594000000E+02  0.51100000000E-03 0.  1.
    9900012    2    1    2    0    0 -0.18538829061E+02 -0.25820933577E+02  0.25123219128E+01  0.59301944190E+02  0.50000000295E+02 0.  0.
         12    1    1    2    0    0  0.18538829061E+02  0.25820933577E+02 -0.25123219128E+01  0.31886055810E+02  0.00000000000E+00 0. -1.
         11    1    3    3    0    0 -0.37272789889E+01 -0.95875560555E+01  0.12338872269E+02  0.16064296091E+02  0.51100000000E-03 0. -1.
        -11    1    3    3    0    0  0.55348076287E+01 -0.17485297063E+02 -0.13171713955E+02  0.22580162923E+02  0.51100000000E-03 0.  1.
         12    1    3    3    0    0 -0.20346357701E+02  0.12519195417E+01  0.33451635987E+01  0.20657485175E+02  0.00000000000E+00 0. -1.
</event>
<event>
 7    1  0.5634483E-012  0.5930194E+02  0.7816164E-02  0.1266605E+00
        -11   -1    0    0    0    0  0.00000000000E+00  0.00000000000E+00  0.45593999997E+02  0.45594000000E+02  0.51100000000E-03 0. -1.
         11   -1    0    0    0    0 -0.00000000000E+00 -0.00000000000E+00 -0.45593999997E+02  0.45594000000E+02  0.51100000000E-03 0.  1.
    9900012    2    1    2    0    0  0.23055620590E+02 -0.21342903393E+02 -0.54442354159E+01  0.59301939326E+02  0.49999991425E+02 0.  0.
         12    1    1    2    0    0 -0.23055620590E+02  0.21342903393E+02  0.54442354159E+01  0.31886060674E+02  0.00000000000E+00 0. -1.
         11    1    3    3    0    0  0.23524354207E+02 -0.26220345355E+02 -0.51974144880E+01  0.35607792251E+02  0.51100000000E-03 0.  1.
        -11    1    3    3    0    0 -0.27275639736E+01 -0.58810146819E+01  0.77472704599E+01  0.10101788889E+02  0.51100000000E-03 0. -1.
        -12    1    3    3    0    0  0.22588303567E+01  0.10758456644E+02 -0.79940913877E+01  0.13592358186E+02  0.00000000000E+00 0.  1.
</event>
<event>
 7    1  0.5634483E-012  0.5930218E+02  0.7816164E-02  0.1266604E+00
        -11   -1    0    0    0    0  0.00000000000E+00  0.00000000000E+00  0.45593999997E+02  0.45594000000E+02  0.51100000000E-03 0. -1.
         11   -1    0    0    0    0 -0.00000000000E+00 -0.00000000000E+00 -0.45593999997E+02  0.45594000000E+02  0.51100000000E-03 0.  1.
    9900012    2    1    2    0    0  0.13438735622E+02  0.26815714403E+02  0.10817731988E+02  0.59302180591E+02  0.50000431432E+02 0.  0.
         12    1    1    2    0    0 -0.13438735622E+02 -0.26815714403E+02 -0.10817731988E+02  0.31885819409E+02  0.00000000000E+00 0. -1.
         11    1    3    3    0    0  0.74960360316E+01 -0.40133790374E+01 -0.12910544428E+01  0.86002668168E+01  0.51100000000E-03 0. -1.
        -11    1    3    3    0    0  0.95873249329E+01  0.20093426747E+02 -0.11096153256E+02  0.24875433969E+02  0.51100000000E-03 0.  1.
         12    1    3    3    0    0 -0.36446253424E+01  0.10735666693E+02  0.23204939687E+02  0.25826479805E+02  0.00000000000E+00 0. -1.
</event>
<event>
 7    1  0.5634483E-012  0.5930195E+02  0.7816164E-02  0.1266605E+00
        -11   -1    0    0    0    0  0.00000000000E+00  0.00000000000E+00  0.45593999997E+02  0.45594000000E+02  0.51100000000E-03 0.  1.
         11   -1    0    0    0    0 -0.00000000000E+00 -0.00000000000E+00 -0.45593999997E+02  0.45594000000E+02  0.51100000000E-03 0. -1.
    9900012    2    1    2    0    0 -0.22909304868E+02  0.21692140361E+02  0.46189510400E+01  0.59301954280E+02  0.50000018697E+02 0.  0.
         12    1    1    2    0    0  0.22909304868E+02 -0.21692140361E+02 -0.46189510400E+01  0.31886045720E+02  0.00000000000E+00 0. -1.
         11    1    3    3    0    0 -0.99163027884E+01  0.10247606903E+02 -0.43057601650E+01  0.14895841000E+02  0.51100000000E-03 0. -1.
        -11    1    3    3    0    0 -0.21507167212E+02 -0.10006737437E+00 -0.73344897018E+01  0.22723621947E+02  0.51100000000E-03 0.  1.
         12    1    3    3    0    0  0.85141651320E+01  0.11544600832E+02  0.16259200907E+02  0.21682491333E+02  0.00000000000E+00 0. -1.
</event>
<event>
 7    1  0.5634483E-012  0.5930193E+02  0.7816164E-02  0.1266605E+00
        -11   -1    0    0    0    0  0.00000000000E+00  0.00000000000E+00  0.45593999997E+02  0.45594000000E+02  0.51100000000E-03 0.  1.
         11   -1    0    0    0    0 -0.00000000000E+00 -0.00000000000E+00 -0.45593999997E+02  0.45594000000E+02  0.51100000000E-03 0. -1.
    9900012    2    1    2    0    0  0.91069971921E+01 -0.12047188398E+01  0.30534120164E+02  0.59301933458E+02  0.49999980723E+02 0.  0.
         12    1    1    2    0    0 -0.91069971921E+01  0.12047188398E+01 -0.30534120164E+02  0.31886066542E+02  0.00000000000E+00 0. -1.
         11    1    3    3    0    0  0.10038174258E+02  0.98796685251E+01  0.14538162105E+02  0.20241811931E+02  0.51100000000E-03 0. -1.
        -11    1    3    3    0    0 -0.52830437843E+01  0.10943406324E+02  0.10213302259E+02  0.15873885375E+02  0.51100000000E-03 0.  1.
        -12    1    3    3    0    0  0.43518667184E+01 -0.22027793689E+02  0.57826557996E+01  0.23186236151E+02  0.00000000000E+00 0.  1.
</event>
<event>
 7    1  0.5634483E-012  0.5930196E+02  0.7816164E-02  0.1266605E+00
        -11   -1    0    0    0    0  0.00000000000E+00  0.00000000000E+00  0.45593999997E+02  0.45594000000E+02  0.51100000000E-03 0. -1.
         11   -1    0    0    0    0 -0.00000000000E+00 -0.00000000000E+00 -0.45593999997E+02  0.45594000000E+02  0.51100000000E-03 0.  1.
    9900012    2    1    2    0    0  0.20747026913E+02  0.24102548216E+02 -0.23125065520E+01  0.59301958496E+02  0.50000026387E+02 0.  0.
         12    1    1    2    0    0 -0.20747026913E+02 -0.24102548216E+02  0.23125065520E+01  0.31886041504E+02  0.00000000000E+00 0. -1.
         11    1    3    3    0    0  0.62301802172E+01  0.68673251435E+01  0.21412326019E+02  0.23333731077E+02  0.51100000000E-03 0. -1.
        -11    1    3    3    0    0  0.13789450848E+02  0.10340026043E+02 -0.84543925946E+01  0.19197443779E+02  0.51100000000E-03 0.  1.
        -12    1    3    3    0    0  0.72739584778E+00  0.68951970295E+01 -0.15270439977E+02  0.16770783639E+02  0.00000000000E+00 0.  1.
</event>
<event>
 7    1  0.5634483E-012  0.5930195E+02  0.7816164E-02  0.1266605E+00
        -11   -1    0    0    0    0  0.00000000000E+00  0.00000000000E+00  0.45593999997E+02  0.45594000000E+02  0.51100000000E-03 0. -1.
         11   -1    0    0    0    0 -0.00000000000E+00 -0.00000000000E+00 -0.45593999997E+02  0.45594000000E+02  0.51100000000E-03 0.  1.
    9900012    2    1    2    0    0  0.45932190823E+01 -0.27381631466E+02 -0.15680201254E+02  0.59301951097E+02  0.50000012893E+02 0.  0.
         12    1    1    2    0    0 -0.45932190823E+01  0.27381631466E+02  0.15680201254E+02  0.31886048903E+02  0.00000000000E+00 0. -1.
         11    1    3    3    0    0  0.29897190263E-01 -0.52714790635E+01  0.15767274195E+02  0.16625171312E+02  0.51100000000E-03 0. -1.
        -11    1    3    3    0    0 -0.21800048521E+01 -0.17754515713E+02 -0.11738193840E+02  0.21395336974E+02  0.51100000000E-03 0.  1.
        -12    1    3    3    0    0  0.67433267442E+01 -0.43556366893E+01 -0.19709281609E+02  0.21281442810E+02  0.00000000000E+00 0.  1.
</event>
<event>
 7    1  0.5634483E-012  0.5930197E+02  0.7816164E-02  0.1266605E+00
        -11   -1    0    0    0    0  0.00000000000E+00  0.00000000000E+00  0.45593999997E+02  0.45594000000E+02  0.51100000000E-03 0. -1.
         11   -1    0    0    0    0 -0.00000000000E+00 -0.00000000000E+00 -0.45593999997E+02  0.45594000000E+02  0.51100000000E-03 0.  1.
    9900012    2    1    2    0    0 -0.13119849054E+01  0.11047692550E+02 -0.29882202847E+02  0.59301970738E+02  0.50000048713E+02 0.  0.
         12    1    1    2    0    0  0.13119849054E+01 -0.11047692550E+02  0.29882202847E+02  0.31886029262E+02  0.00000000000E+00 0. -1.
         11    1    3    3    0    0  0.14550099619E+02  0.12794293904E+02 -0.18911808916E+02  0.27075004565E+02  0.51100000000E-03 0. -1.
        -11    1    3    3    0    0 -0.95261264910E+01  0.45505964265E+01 -0.17994702209E+02  0.20862989278E+02  0.51100000000E-03 0.  1.
        -12    1    3    3    0    0 -0.63359580337E+01 -0.62971977804E+01  0.70243082780E+01  0.11363976895E+02  0.00000000000E+00 0.  1.
</event>
<event>
 7    1  0.5634483E-012  0.5930192E+02  0.7816164E-02  0.1266605E+00
        -11   -1    0    0    0    0  0.00000000000E+00  0.00000000000E+00  0.45593999997E+02  0.45594000000E+02  0.51100000000E-03 0.  1.
         11   -1    0    0    0    0 -0.00000000000E+00 -0.00000000000E+00 -0.45593999997E+02  0.45594000000E+02  0.51100000000E-03 0. -1.
    9900012    2    1    2    0    0 -0.96538040345E+01 -0.30364875003E+02  0.12249282613E+01  0.59301921290E+02  0.49999958531E+02 0.  0.
         12    1    1    2    0    0  0.96538040345E+01  0.30364875003E+02 -0.12249282613E+01  0.31886078710E+02  0.00000000000E+00 0. -1.
         11    1    3    3    0    0 -0.37297249904E+01 -0.33901471982E+02  0.12690804586E+02  0.36390619291E+02  0.51100000000E-03 0. -1.
        -11    1    3    3    0    0  0.47631226751E+01 -0.91192998701E+00  0.19185116144E+01  0.52153275060E+01  0.51100000000E-03 0.  1.
         12    1    3    3    0    0 -0.10687201719E+02  0.44485269661E+01 -0.13384387939E+02  0.17695974493E+02  0.00000000000E+00 0. -1.
</event>
<event>
 7    1  0.5634483E-012  0.5930193E+02  0.7816164E-02  0.1266605E+00
        -11   -1    0    0    0    0  0.00000000000E+00  0.00000000000E+00  0.45593999997E+02  0.45594000000E+02  0.51100000000E-03 0.  1.
         11   -1    0    0    0    0 -0.00000000000E+00 -0.00000000000E+00 -0.45593999997E+02  0.45594000000E+02  0.51100000000E-03 0. -1.
    9900012    2    1    2    0    0 -0.48557445138E+01  0.31491735485E+02  0.11889252280E+01  0.59301934049E+02  0.49999981801E+02 0.  0.
         12    1    1    2    0    0  0.48557445138E+01 -0.31491735485E+02 -0.11889252280E+01  0.31886065951E+02  0.00000000000E+00 0. -1.
         11    1    3    3    0    0  0.66267517851E+01  0.39686130671E+01 -0.44299784294E+01  0.89044055413E+01  0.51100000000E-03 0. -1.
        -11    1    3    3    0    0 -0.24818444987E+01 -0.10346142900E+00 -0.14721521603E+02  0.14929616705E+02  0.51100000000E-03 0.  1.
        -12    1    3    3    0    0 -0.90006518002E+01  0.27626583847E+02  0.20340425260E+02  0.35467911803E+02  0.00000000000E+00 0.  1.
</event>
<event>
 7    1  0.5634483E-012  0.5930195E+02  0.7816164E-02  0.1266605E+00
        -11   -1    0    0    0    0  0.00000000000E+00  0.00000000000E+00  0.45593999997E+02  0.45594000000E+02  0.51100000000E-03 0.  1.
         11   -1    0    0    0    0 -0.00000000000E+00 -0.00000000000E+00 -0.45593999997E+02  0.45594000000E+02  0.51100000000E-03 0. -1.
    9900012    2    1    2    0    0  0.51221340851E+01 -0.30225163769E+02 -0.87705897675E+01  0.59301952466E+02  0.50000015390E+02 0.  0.
         12    1    1    2    0    0 -0.51221340851E+01  0.30225163769E+02  0.87705897675E+01  0.31886047534E+02  0.00000000000E+00 0. -1.
         11    1    3    3    0    0  0.11822141229E+02 -0.89836224277E+01  0.45428544018E+01  0.15527589045E+02  0.51100000000E-03 0. -1.
        -11    1    3    3    0    0 -0.11743569461E+02 -0.28582498319E+02 -0.15547544164E+02  0.34591859788E+02  0.51100000000E-03 0.  1.
         12    1    3    3    0    0  0.50435623168E+01  0.73409569773E+01  0.22340999946E+01  0.91825036331E+01  0.00000000000E+00 0. -1.
</event>
<event>
 7    1  0.5634483E-012  0.5930194E+02  0.7816164E-02  0.1266605E+00
        -11   -1    0    0    0    0  0.00000000000E+00  0.00000000000E+00  0.45593999997E+02  0.45594000000E+02  0.51100000000E-03 0.  1.
         11   -1    0    0    0    0 -0.00000000000E+00 -0.00000000000E+00 -0.45593999997E+02  0.45594000000E+02  0.51100000000E-03 0. -1.
    9900012    2    1    2    0    0 -0.23223499733E+02  0.45957957933E+01  0.21360445977E+02  0.59301938294E+02  0.49999989542E+02 0.  0.
         12    1    1    2    0    0  0.23223499733E+02 -0.45957957933E+01 -0.21360445977E+02  0.31886061706E+02  0.00000000000E+00 0. -1.
         11    1    3    3    0    0 -0.44287397256E+01 -0.94455770542E+01  0.68747391038E+00  0.10454916646E+02  0.51100000000E-03 0. -1.
        -11    1    3    3    0    0 -0.21410731259E+02 -0.57304402957E+00 -0.22498219922E+01  0.21536236714E+02  0.51100000000E-03 0.  1.
         12    1    3    3    0    0  0.26159712519E+01  0.14614416877E+02  0.22922794058E+02  0.27310784934E+02  0.00000000000E+00 0. -1.
</event>
<event>
 7    1  0.5634483E-012  0.5930198E+02  0.7816164E-02  0.1266605E+00
        -11   -1    0    0    0    0  0.00000000000E+00  0.00000000000E+00  0.45593999997E+02  0.45594000000E+02  0.51100000000E-03 0.  1.
         11   -1    0    0    0    0 -0.00000000000E+00 -0.00000000000E+00 -0.45593999997E+02  0.45594000000E+02  0.51100000000E-03 0. -1.
    9900012    2    1    2    0    0  0.15266793274E+02 -0.32679924472E+01  0.27802224692E+02  0.59301977210E+02  0.50000060517E+02 0.  0.
         12    1    1    2    0    0 -0.15266793274E+02  0.32679924472E+01 -0.27802224692E+02  0.31886022790E+02  0.00000000000E+00 0. -1.
         11    1    3    3    0    0  0.72176116521E+01  0.18715479850E+00  0.12969213143E+02  0.14843498061E+02  0.51100000000E-03 0. -1.
        -11    1    3    3    0    0  0.10132887191E+02  0.13365827405E+02  0.20590933588E+02  0.26557622095E+02  0.51100000000E-03 0.  1.
         12    1    3    3    0    0 -0.20837055685E+01 -0.16820974650E+02 -0.57579220387E+01  0.17900857054E+02  0.00000000000E+00 0. -1.
</event>
<event>
 7    1  0.5634483E-012  0.5930196E+02  0.7816164E-02  0.1266605E+00
        -11   -1    0    0    0    0  0.00000000000E+00  0.00000000000E+00  0.45593999997E+02  0.45594000000E+02  0.51100000000E-03 0. -1.
         11   -1    0    0    0    0 -0.00000000000E+00 -0.00000000000E+00 -0.45593999997E+02  0.45594000000E+02  0.51100000000E-03 0.  1.
    9900012    2    1    2    0    0 -0.38186350307E+01 -0.20117502128E+02 -0.24442250433E+02  0.59301961180E+02  0.50000031282E+02 0.  0.
         12    1    1    2    0    0  0.38186350307E+01  0.20117502128E+02  0.24442250433E+02  0.31886038820E+02  0.00000000000E+00 0. -1.
         11    1    3    3    0    0  0.20596250238E+01  0.93643189213E+01 -0.88122338989E+01  0.13022595388E+02  0.51100000000E-03 0. -1.
        -11    1    3    3    0    0  0.82015854196E+01 -0.40808607827E+01 -0.14578903519E+02  0.17218125804E+02  0.51100000000E-03 0.  1.
        -12    1    3    3    0    0 -0.14079845474E+02 -0.25400960267E+02 -0.10511130150E+01  0.29061239988E+02  0.00000000000E+00 0.  1.
</event>
<event>
 7    1  0.5634483E-012  0.5930194E+02  0.7816164E-02  0.1266605E+00
        -11   -1    0    0    0    0  0.00000000000E+00  0.00000000000E+00  0.45593999997E+02  0.45594000000E+02  0.51100000000E-03 0.  1.
         11   -1    0    0    0    0 -0.00000000000E+00 -0.00000000000E+00 -0.45593999997E+02  0.45594000000E+02  0.51100000000E-03 0. -1.
    9900012    2    1    2    0    0 -0.31254784537E+02 -0.62946216439E+01  0.48655437145E+00  0.59301944220E+02  0.50000000350E+02 0.  0.
         12    1    1    2    0    0  0.31254784537E+02  0.62946216439E+01 -0.48655437145E+00  0.31886055780E+02  0.00000000000E+00 0. -1.
         11    1    3    3    0    0 -0.13147946859E+02 -0.54036047212E+01  0.29507026179E+01  0.14518061055E+02  0.51100000000E-03 0.  1.
        -11    1    3    3    0    0 -0.76014835142E+01 -0.20718197930E+02  0.94049798249E+00  0.22088703308E+02  0.51100000000E-03 0. -1.
         12    1    3    3    0    0 -0.10505354163E+02  0.19827181008E+02 -0.34046462290E+01  0.22695179857E+02  0.00000000000E+00 0. -1.
</event>
<event>
 7    1  0.5634483E-012  0.5930195E+02  0.7816164E-02  0.1266605E+00
        -11   -1    0    0    0    0  0.00000000000E+00  0.00000000000E+00  0.45593999997E+02  0.45594000000E+02  0.51100000000E-03 0.  1.
         11   -1    0    0    0    0 -0.00000000000E+00 -0.00000000000E+00 -0.45593999997E+02  0.45594000000E+02  0.51100000000E-03 0. -1.
    9900012    2    1    2    0    0 -0.15290363404E+02  0.22218547371E+02  0.17007684081E+02  0.59301946966E+02  0.50000005358E+02 0.  0.
         12    1    1    2    0    0  0.15290363404E+02 -0.22218547371E+02 -0.17007684081E+02  0.31886053034E+02  0.00000000000E+00 0. -1.
         11    1    3    3    0    0 -0.14766855892E+02  0.27967493661E+02  0.20159410512E+02  0.37505233862E+02  0.51100000000E-03 0. -1.
        -11    1    3    3    0    0 -0.68515316167E+00  0.44770845967E+01 -0.89567416449E+01  0.10036779488E+02  0.51100000000E-03 0.  1.
        -12    1    3    3    0    0  0.16164565003E+00 -0.10226030886E+02  0.58050152133E+01  0.11759933615E+02  0.00000000000E+00 0.  1.
</event>
<event>
 7    1  0.5634483E-012  0.5930194E+02  0.7816164E-02  0.1266605E+00
        -11   -1    0    0    0    0  0.00000000000E+00  0.00000000000E+00  0.45593999997E+02  0.45594000000E+02  0.51100000000E-03 0.  1.
         11   -1    0    0    0    0 -0.00000000000E+00 -0.00000000000E+00 -0.45593999997E+02  0.45594000000E+02  0.51100000000E-03 0. -1.
    9900012    2    1    2    0    0  0.13634873889E+01  0.70290743348E+01  0.31071749884E+02  0.59301943098E+02  0.49999998305E+02 0.  0.
         12    1    1    2    0    0 -0.13634873889E+01 -0.70290743348E+01 -0.31071749884E+02  0.31886056902E+02  0.00000000000E+00 0. -1.
         11    1    3    3    0    0 -0.55396039204E+00 -0.60376089267E+01 -0.70217519164E+01  0.92771005117E+01  0.51100000000E-03 0. -1.
        -11    1    3    3    0    0  0.78620403613E+01 -0.47101341959E+01  0.20392606991E+01  0.93891228156E+01  0.51100000000E-03 0.  1.
        -12    1    3    3    0    0 -0.59445925804E+01  0.17776817457E+02  0.36054241102E+02  0.40635719771E+02  0.00000000000E+00 0.  1.
</event>
<event>
 7    1  0.5634483E-012  0.5930195E+02  0.7816164E-02  0.1266605E+00
        -11   -1    0    0    0    0  0.00000000000E+00  0.00000000000E+00  0.45593999997E+02  0.45594000000E+02  0.51100000000E-03 0. -1.
         11   -1    0    0    0    0 -0.00000000000E+00 -0.00000000000E+00 -0.45593999997E+02  0.45594000000E+02  0.51100000000E-03 0.  1.
    9900012    2    1    2    0    0 -0.25914254884E+02 -0.18305806289E+02 -0.31732101243E+01  0.59301946425E+02  0.50000004372E+02 0.  0.
         12    1    1    2    0    0  0.25914254884E+02  0.18305806289E+02  0.31732101243E+01  0.31886053575E+02  0.00000000000E+00 0. -1.
         11    1    3    3    0    0 -0.34655565963E+02 -0.17869451673E+02  0.60411333700E+01  0.39456569136E+02  0.51100000000E-03 0. -1.
        -11    1    3    3    0    0 -0.76290707223E+00  0.35509515311E+01  0.23722162856E+01  0.43380519066E+01  0.51100000000E-03 0.  1.
        -12    1    3    3    0    0  0.95042181514E+01 -0.39873061468E+01 -0.11586559780E+02  0.15507325382E+02  0.00000000000E+00 0.  1.
</event>
<event>
 7    1  0.5634483E-012  0.5930190E+02  0.7816164E-02  0.1266605E+00
        -11   -1    0    0    0    0  0.00000000000E+00  0.00000000000E+00  0.45593999997E+02  0.45594000000E+02  0.51100000000E-03 0. -1.
         11   -1    0    0    0    0 -0.00000000000E+00 -0.00000000000E+00 -0.45593999997E+02  0.45594000000E+02  0.51100000000E-03 0.  1.
    9900012    2    1    2    0    0  0.22298285045E+02 -0.22791073106E+02 -0.27745351201E+00  0.59301897860E+02  0.49999915801E+02 0.  0.
         12    1    1    2    0    0 -0.22298285045E+02  0.22791073106E+02  0.27745351201E+00  0.31886102140E+02  0.00000000000E+00 0. -1.
         11    1    3    3    0    0  0.21949826370E+01  0.35290701601E+01 -0.44120694092E+01  0.60612409376E+01  0.51100000000E-03 0.  1.
        -11    1    3    3    0    0  0.16517682230E+02  0.81419293835E+01  0.20656980796E+01  0.18530837789E+02  0.51100000000E-03 0. -1.
         12    1    3    3    0    0  0.35856201781E+01 -0.34462072649E+02  0.20689178176E+01  0.34709819133E+02  0.00000000000E+00 0. -1.
</event>
<event>
 7    1  0.5634483E-012  0.5930197E+02  0.7816164E-02  0.1266605E+00
        -11   -1    0    0    0    0  0.00000000000E+00  0.00000000000E+00  0.45593999997E+02  0.45594000000E+02  0.51100000000E-03 0.  1.
         11   -1    0    0    0    0 -0.00000000000E+00 -0.00000000000E+00 -0.45593999997E+02  0.45594000000E+02  0.51100000000E-03 0. -1.
    9900012    2    1    2    0    0  0.18795255404E+02  0.89719069516E+01  0.24144614115E+02  0.59301966524E+02  0.50000041028E+02 0.  0.
         12    1    1    2    0    0 -0.18795255404E+02 -0.89719069516E+01 -0.24144614115E+02  0.31886033476E+02  0.00000000000E+00 0. -1.
         11    1    3    3    0    0  0.30752518323E+02  0.63726534585E+00  0.94337423318E+01  0.32173265065E+02  0.51100000000E-03 0. -1.
        -11    1    3    3    0    0 -0.43790275936E+01  0.57751920749E+01 -0.28844735867E+01  0.78005714086E+01  0.51100000000E-03 0.  1.
        -12    1    3    3    0    0 -0.75782353252E+01  0.25594495308E+01  0.17595345370E+02  0.19328130050E+02  0.00000000000E+00 0.  1.
</event>
<event>
 7    1  0.5634483E-012  0.5930192E+02  0.7816164E-02  0.1266605E+00
        -11   -1    0    0    0    0  0.00000000000E+00  0.00000000000E+00  0.45593999997E+02  0.45594000000E+02  0.51100000000E-03 0. -1.
         11   -1    0    0    0    0 -0.00000000000E+00 -0.00000000000E+00 -0.45593999997E+02  0.45594000000E+02  0.51100000000E-03 0.  1.
    9900012    2    1    2    0    0 -0.17223204428E+01 -0.21439965734E+02  0.23538978438E+02  0.59301921152E+02  0.49999958281E+02 0.  0.
         12    1    1    2    0    0  0.17223204428E+01  0.21439965734E+02 -0.23538978438E+02  0.31886078848E+02  0.00000000000E+00 0. -1.
         11    1    3    3    0    0  0.70753728157E+01 -0.19649300889E+02  0.62477721898E+01  0.21798866564E+02  0.51100000000E-03 0. -1.
        -11    1    3    3    0    0  0.88722404022E+01  0.63971598801E+01  0.13977214699E+02  0.17748319224E+02  0.51100000000E-03 0.  1.
         12    1    3    3    0    0 -0.17669933661E+02 -0.81878247250E+01  0.33139915491E+01  0.19754735364E+02  0.00000000000E+00 0. -1.
</event>
<event>
 7    1  0.5634483E-012  0.5930231E+02  0.7816164E-02  0.1266603E+00
        -11   -1    0    0    0    0  0.00000000000E+00  0.00000000000E+00  0.45593999997E+02  0.45594000000E+02  0.51100000000E-03 0.  1.
         11   -1    0    0    0    0 -0.00000000000E+00 -0.00000000000E+00 -0.45593999997E+02  0.45594000000E+02  0.51100000000E-03 0. -1.
    9900012    2    1    2    0    0  0.13266012797E+02 -0.13546395151E+02  0.25636016128E+02  0.59302309792E+02  0.50000667061E+02 0.  0.
         12    1    1    2    0    0 -0.13266012797E+02  0.13546395151E+02 -0.25636016128E+02  0.31885690208E+02  0.00000000000E+00 0. -1.
         11    1    3    3    0    0  0.12781664011E+02 -0.12419349437E+02  0.68643957557E+01  0.19097934566E+02  0.51100000000E-03 0. -1.
        -11    1    3    3    0    0  0.10340602571E+02 -0.34221454936E+01  0.25718223654E+02  0.27929664687E+02  0.51100000000E-03 0.  1.
         12    1    3    3    0    0 -0.98562537847E+01  0.22950997794E+01 -0.69466032816E+01  0.12274710539E+02  0.00000000000E+00 0. -1.
</event>
<event>
 7    1  0.5634483E-012  0.5930197E+02  0.7816164E-02  0.1266605E+00
        -11   -1    0    0    0    0  0.00000000000E+00  0.00000000000E+00  0.45593999997E+02  0.45594000000E+02  0.51100000000E-03 0. -1.
         11   -1    0    0    0    0 -0.00000000000E+00 -0.00000000000E+00 -0.45593999997E+02  0.45594000000E+02  0.51100000000E-03 0.  1.
    9900012    2    1    2    0    0  0.11579347801E+02  0.27382452383E+02 -0.11525577747E+02  0.59301969572E+02  0.50000046587E+02 0.  0.
         12    1    1    2    0    0 -0.11579347801E+02 -0.27382452383E+02  0.11525577747E+02  0.31886030428E+02  0.00000000000E+00 0. -1.
         11    1    3    3    0    0  0.15464569587E+02 -0.63638989840E+01 -0.58558334002E+01  0.17718434125E+02  0.51100000000E-03 0. -1.
        -11    1    3    3    0    0  0.68642563691E+01  0.64249927273E+01  0.46158916084E+01  0.10474015593E+02  0.51100000000E-03 0.  1.
         12    1    3    3    0    0 -0.10749478155E+02  0.27321358640E+02 -0.10285635955E+02  0.31109519854E+02  0.00000000000E+00 0. -1.
</event>
<event>
 7    1  0.5634483E-012  0.5930196E+02  0.7816164E-02  0.1266605E+00
        -11   -1    0    0    0    0  0.00000000000E+00  0.00000000000E+00  0.45593999997E+02  0.45594000000E+02  0.51100000000E-03 0.  1.
         11   -1    0    0    0    0 -0.00000000000E+00 -0.00000000000E+00 -0.45593999997E+02  0.45594000000E+02  0.51100000000E-03 0. -1.
    9900012    2    1    2    0    0 -0.22636170813E+02 -0.16956379135E+02  0.14724289181E+02  0.59301957374E+02  0.50000024340E+02 0.  0.
         12    1    1    2    0    0  0.22636170813E+02  0.16956379135E+02 -0.14724289181E+02  0.31886042626E+02  0.00000000000E+00 0. -1.
         11    1    3    3    0    0  0.79375029254E+01 -0.13110714615E+02  0.46189237760E+01  0.16007162382E+02  0.51100000000E-03 0. -1.
        -11    1    3    3    0    0 -0.12557291259E+02 -0.15451487586E+02  0.78853781797E+00  0.19926259672E+02  0.51100000000E-03 0.  1.
         12    1    3    3    0    0 -0.18016382480E+02  0.11605823065E+02  0.93168275875E+01  0.23368535320E+02  0.00000000000E+00 0. -1.
</event>
<event>
 7    1  0.5634483E-012  0.5930198E+02  0.7816164E-02  0.1266605E+00
        -11   -1    0    0    0    0  0.00000000000E+00  0.00000000000E+00  0.45593999997E+02  0.45594000000E+02  0.51100000000E-03 0.  1.
         11   -1    0    0    0    0 -0.00000000000E+00 -0.00000000000E+00 -0.45593999997E+02  0.45594000000E+02  0.51100000000E-03 0. -1.
    9900012    2    1    2    0    0 -0.10628514117E+02 -0.25311528533E+02  0.16219716820E+02  0.59301984213E+02  0.50000073289E+02 0.  0.
         12    1    1    2    0    0  0.10628514117E+02  0.25311528533E+02 -0.16219716820E+02  0.31886015787E+02  0.00000000000E+00 0. -1.
         11    1    3    3    0    0  0.77526042781E+01 -0.15600455594E+02  0.22327496525E+02  0.28319501923E+02  0.51100000000E-03 0. -1.
        -11    1    3    3    0    0 -0.39327011212E+01 -0.47417180244E+01  0.80606286558E+01  0.10145134919E+02  0.51100000000E-03 0.  1.
         12    1    3    3    0    0 -0.14448417274E+02 -0.49693549145E+01 -0.14168408361E+02  0.20837347371E+02  0.00000000000E+00 0. -1.
</event>
<event>
 7    1  0.5634483E-012  0.5930196E+02  0.7816164E-02  0.1266605E+00
        -11   -1    0    0    0    0  0.00000000000E+00  0.00000000000E+00  0.45593999997E+02  0.45594000000E+02  0.51100000000E-03 0. -1.
         11   -1    0    0    0    0 -0.00000000000E+00 -0.00000000000E+00 -0.45593999997E+02  0.45594000000E+02  0.51100000000E-03 0.  1.
    9900012    2    1    2    0    0 -0.19854450872E+02 -0.16252330159E+01 -0.24897373151E+02  0.59301956163E+02  0.50000022131E+02 0.  0.
         12    1    1    2    0    0  0.19854450872E+02  0.16252330159E+01  0.24897373151E+02  0.31886043837E+02  0.00000000000E+00 0. -1.
         11    1    3    3    0    0  0.31356622944E+01 -0.39827466743E+01  0.79402042239E+01  0.94202702973E+01  0.51100000000E-03 0. -1.
        -11    1    3    3    0    0 -0.13098462022E+02 -0.11879364084E+02 -0.25559078122E+02  0.31079824213E+02  0.51100000000E-03 0.  1.
         12    1    3    3    0    0 -0.98916511439E+01  0.14236877743E+02 -0.72784992528E+01  0.18801861652E+02  0.00000000000E+00 0. -1.
</event>
<event>
 7    1  0.5634483E-012  0.5930194E+02  0.7816164E-02  0.1266605E+00
        -11   -1    0    0    0    0  0.00000000000E+00  0.00000000000E+00  0.45593999997E+02  0.45594000000E+02  0.51100000000E-03 0. -1.
         11   -1    0    0    0    0 -0.00000000000E+00 -0.00000000000E+00 -0.45593999997E+02  0.45594000000E+02  0.51100000000E-03 0.  1.
    9900012    2    1    2    0    0  0.14376522166E+01 -0.27213664986E+02 -0.16555070528E+02  0.59301940882E+02  0.49999994263E+02 0.  0.
         12    1    1    2    0    0 -0.14376522166E+01  0.27213664986E+02  0.16555070528E+02  0.31886059118E+02  0.00000000000E+00 0. -1.
         11    1    3    3    0    0  0.21445552094E+01  0.13091030946E+01 -0.66478882152E+01  0.71068478203E+01  0.51100000000E-03 0. -1.
        -11    1    3    3    0    0 -0.16860053983E+02  0.12810034915E+01 -0.65370065078E+01  0.18128288518E+02  0.51100000000E-03 0.  1.
        -12    1    3    3    0    0  0.16153150990E+02 -0.29803771572E+02 -0.33701758052E+01  0.34066804544E+02  0.00000000000E+00 0.  1.
</event>
<event>
 7    1  0.5634483E-012  0.5930193E+02  0.7816164E-02  0.1266605E+00
        -11   -1    0    0    0    0  0.00000000000E+00  0.00000000000E+00  0.45593999997E+02  0.45594000000E+02  0.51100000000E-03 0. -1.
         11   -1    0    0    0    0 -0.00000000000E+00 -0.00000000000E+00 -0.45593999997E+02  0.45594000000E+02  0.51100000000E-03 0.  1.
    9900012    2    1    2    0    0  0.56088402826E+01 -0.17952077584E+02 -0.25748499289E+02  0.59301931027E+02  0.49999976291E+02 0.  0.
         12    1    1    2    0    0 -0.56088402826E+01  0.17952077584E+02  0.25748499289E+02  0.31886068973E+02  0.00000000000E+00 0. -1.
         11    1    3    3    0    0  0.10220648200E+01 -0.78233767971E+01  0.78349525263E+01  0.11119187127E+02  0.51100000000E-03 0. -1.
        -11    1    3    3    0    0 -0.10660343634E+02 -0.13113533877E+02 -0.91227744537E+01  0.19205017864E+02  0.51100000000E-03 0.  1.
         12    1    3    3    0    0  0.15247119096E+02  0.29848330908E+01 -0.24460677361E+02  0.28977726037E+02  0.00000000000E+00 0. -1.
</event>
<event>
 7    1  0.5634483E-012  0.5930200E+02  0.7816164E-02  0.1266605E+00
        -11   -1    0    0    0    0  0.00000000000E+00  0.00000000000E+00  0.45593999997E+02  0.45594000000E+02  0.51100000000E-03 0.  1.
         11   -1    0    0    0    0 -0.00000000000E+00 -0.00000000000E+00 -0.45593999997E+02  0.45594000000E+02  0.51100000000E-03 0. -1.
    9900012    2    1    2    0    0 -0.21091207307E+02 -0.17704133543E+02  0.16076118934E+02  0.59302000406E+02  0.50000102820E+02 0.  0.
         12    1    1    2    0    0  0.21091207307E+02  0.17704133543E+02 -0.16076118934E+02  0.31885999594E+02  0.00000000000E+00 0. -1.
         11    1    3    3    0    0 -0.63296125090E+00  0.73924248483E+01 -0.10144121326E+02  0.12567886967E+02  0.51100000000E-03 0. -1.
        -11    1    3    3    0    0 -0.55933129194E+01  0.25150959486E+01  0.91928434268E+01  0.11050756878E+02  0.51100000000E-03 0.  1.
        -12    1    3    3    0    0 -0.14864933136E+02 -0.27611654340E+02  0.17027396833E+02  0.35683356561E+02  0.00000000000E+00 0.  1.
</event>
<event>
 7    1  0.5634483E-012  0.5930194E+02  0.7816164E-02  0.1266605E+00
        -11   -1    0    0    0    0  0.00000000000E+00  0.00000000000E+00  0.45593999997E+02  0.45594000000E+02  0.51100000000E-03 0. -1.
         11   -1    0    0    0    0 -0.00000000000E+00 -0.00000000000E+00 -0.45593999997E+02  0.45594000000E+02  0.51100000000E-03 0.  1.
    9900012    2    1    2    0    0  0.10802251301E+02 -0.31691863224E+01 -0.29832670019E+02  0.59301943870E+02  0.49999999712E+02 0.  0.
         12    1    1    2    0    0 -0.10802251301E+02  0.31691863224E+01  0.29832670019E+02  0.31886056130E+02  0.00000000000E+00 0. -1.
         11    1    3    3    0    0  0.12191411589E+02  0.25131870204E+01 -0.49526513792E+01  0.13396842220E+02  0.51100000000E-03 0. -1.
        -11    1    3    3    0    0  0.16133783283E+02 -0.54253204497E+01 -0.22509387261E+02  0.28220658748E+02  0.51100000000E-03 0.  1.
         12    1    3    3    0    0 -0.17522943572E+02 -0.25705289307E+00 -0.23706313783E+01  0.17684442902E+02  0.00000000000E+00 0. -1.
</event>
<event>
 7    1  0.5634483E-012  0.5930195E+02  0.7816164E-02  0.1266605E+00
        -11   -1    0    0    0    0  0.00000000000E+00  0.00000000000E+00  0.45593999997E+02  0.45594000000E+02  0.51100000000E-03 0.  1.
         11   -1    0    0    0    0 -0.00000000000E+00 -0.00000000000E+00 -0.45593999997E+02  0.45594000000E+02  0.51100000000E-03 0. -1.
    9900012    2    1    2    0    0 -0.21904699474E+02 -0.23029552824E+02  0.25581688337E+01  0.59301946777E+02  0.50000005015E+02 0.  0.
         12    1    1    2    0    0  0.21904699474E+02  0.23029552824E+02 -0.25581688337E+01  0.31886053223E+02  0.00000000000E+00 0. -1.
         11    1    3    3    0    0 -0.15537227077E+02 -0.11316102143E+02 -0.14270622557E+02  0.23939721414E+02  0.51100000000E-03 0. -1.
        -11    1    3    3    0    0 -0.16930284882E+02 -0.86444844143E+01  0.60179936442E+01  0.19939355675E+02  0.51100000000E-03 0.  1.
        -12    1    3    3    0    0  0.10562812484E+02 -0.30689662665E+01  0.10810797746E+02  0.15422869689E+02  0.00000000000E+00 0.  1.
</event>
<event>
 7    1  0.5634483E-012  0.5930198E+02  0.7816164E-02  0.1266605E+00
        -11   -1    0    0    0    0  0.00000000000E+00  0.00000000000E+00  0.45593999997E+02  0.45594000000E+02  0.51100000000E-03 0. -1.
         11   -1    0    0    0    0 -0.00000000000E+00 -0.00000000000E+00 -0.45593999997E+02  0.45594000000E+02  0.51100000000E-03 0.  1.
    9900012    2    1    2    0    0  0.31004163800E+02  0.19431967941E+01 -0.71891708999E+01  0.59301978534E+02  0.50000062931E+02 0.  0.
         12    1    1    2    0    0 -0.31004163800E+02 -0.19431967941E+01  0.71891708999E+01  0.31886021466E+02  0.00000000000E+00 0. -1.
         11    1    3    3    0    0  0.16623657755E+02  0.10411271254E+02  0.60017630757E+01  0.20512477338E+02  0.51100000000E-03 0. -1.
        -11    1    3    3    0    0  0.56908672933E+01  0.20636156100E+01  0.10109474695E+02  0.11783291510E+02  0.51100000000E-03 0.  1.
        -12    1    3    3    0    0  0.86896387520E+01 -0.10531690070E+02 -0.23300408671E+02  0.27006209686E+02  0.00000000000E+00 0.  1.
</event>
<event>
 7    1  0.5634483E-012  0.5930194E+02  0.7816164E-02  0.1266605E+00
        -11   -1    0    0    0    0  0.00000000000E+00  0.00000000000E+00  0.45593999997E+02  0.45594000000E+02  0.51100000000E-03 0.  1.
         11   -1    0    0    0    0 -0.00000000000E+00 -0.00000000000E+00 -0.45593999997E+02  0.45594000000E+02  0.51100000000E-03 0. -1.
    9900012    2    1    2    0    0 -0.29961752117E+02  0.77831539348E+01  0.76443990893E+01  0.59301938585E+02  0.49999990075E+02 0.  0.
         12    1    1    2    0    0  0.29961752117E+02 -0.77831539348E+01 -0.76443990893E+01  0.31886061415E+02  0.00000000000E+00 0. -1.
         11    1    3    3    0    0 -0.19277874513E+02  0.20340891804E+02  0.15071863787E+01  0.28065279906E+02  0.51100000000E-03 0. -1.
        -11    1    3    3    0    0 -0.10027414866E+00  0.67560650664E+01 -0.30000568419E+01  0.73928892459E+01  0.51100000000E-03 0.  1.
         12    1    3    3    0    0 -0.10583603455E+02 -0.19313802936E+02  0.91372695525E+01  0.23843769434E+02  0.00000000000E+00 0. -1.
</event>
<event>
 7    1  0.5634483E-012  0.5930195E+02  0.7816164E-02  0.1266605E+00
        -11   -1    0    0    0    0  0.00000000000E+00  0.00000000000E+00  0.45593999997E+02  0.45594000000E+02  0.51100000000E-03 0. -1.
         11   -1    0    0    0    0 -0.00000000000E+00 -0.00000000000E+00 -0.45593999997E+02  0.45594000000E+02  0.51100000000E-03 0.  1.
    9900012    2    1    2    0    0 -0.14982355682E+02 -0.19450906118E+02 -0.20344815315E+02  0.59301949119E+02  0.50000009285E+02 0.  0.
         12    1    1    2    0    0  0.14982355682E+02  0.19450906118E+02  0.20344815315E+02  0.31886050881E+02  0.00000000000E+00 0. -1.
         11    1    3    3    0    0 -0.23325816387E+02 -0.12104900823E+02 -0.15829269436E+02  0.30678789174E+02  0.51100000000E-03 0. -1.
        -11    1    3    3    0    0 -0.53381508027E+01  0.67543871050E+01 -0.10532428417E+01  0.86733453697E+01  0.51100000000E-03 0.  1.
        -12    1    3    3    0    0  0.13681611507E+02 -0.14100392399E+02 -0.34623030374E+01  0.19949814575E+02  0.00000000000E+00 0.  1.
</event>
<event>
 7    1  0.5634483E-012  0.5930193E+02  0.7816164E-02  0.1266605E+00
        -11   -1    0    0    0    0  0.00000000000E+00  0.00000000000E+00  0.45593999997E+02  0.45594000000E+02  0.51100000000E-03 0. -1.
         11   -1    0    0    0    0 -0.00000000000E+00 -0.00000000000E+00 -0.45593999997E+02  0.45594000000E+02  0.51100000000E-03 0.  1.
    9900012    2    1    2    0    0  0.41174449107E+00 -0.30830058920E+02  0.81276831467E+01  0.59301932512E+02  0.49999978998E+02 0.  0.
         12    1    1    2    0    0 -0.41174449107E+00  0.30830058920E+02 -0.81276831467E+01  0.31886067488E+02  0.00000000000E+00 0. -1.
         11    1    3    3    0    0 -0.42874790432E+01 -0.18120012963E+01  0.63148288339E+01  0.78449275782E+01  0.51100000000E-03 0. -1.
        -11    1    3    3    0    0 -0.14684227364E+02 -0.14251563611E+02  0.13415283532E+02  0.24468417013E+02  0.51100000000E-03 0.  1.
        -12    1    3    3    0    0  0.19383450898E+02 -0.14766494012E+02 -0.11602429219E+02  0.26988587920E+02  0.00000000000E+00 0.  1.
</event>
<event>
 7    1  0.5634483E-012  0.5930187E+02  0.7816164E-02  0.1266605E+00
        -11   -1    0    0    0    0  0.00000000000E+00  0.00000000000E+00  0.45593999997E+02  0.45594000000E+02  0.51100000000E-03 0. -1.
         11   -1    0    0    0    0 -0.00000000000E+00 -0.00000000000E+00 -0.45593999997E+02  0.45594000000E+02  0.51100000000E-03 0.  1.
    9900012    2    1    2    0    0 -0.16200677064E+02  0.19940611489E+01 -0.27391369882E+02  0.59301868827E+02  0.49999862851E+02 0.  0.
         12    1    1    2    0    0  0.16200677064E+02 -0.19940611489E+01  0.27391369882E+02  0.31886131173E+02  0.00000000000E+00 0. -1.
         11    1    3    3    0    0 -0.46533340669E+01  0.93935596699E+01  0.39389100418E+01  0.11198548736E+02  0.51100000000E-03 0. -1.
        -11    1    3    3    0    0 -0.15633219236E+02  0.66578538323E+01 -0.45621108838E+01  0.17593675492E+02  0.51100000000E-03 0.  1.
        -12    1    3    3    0    0  0.40858762384E+01 -0.14057352353E+02 -0.26768169040E+02  0.30509644599E+02  0.00000000000E+00 0.  1.
</event>
<event>
 7    1  0.5634483E-012  0.5930193E+02  0.7816164E-02  0.1266605E+00
        -11   -1    0    0    0    0  0.00000000000E+00  0.00000000000E+00  0.45593999997E+02  0.45594000000E+02  0.51100000000E-03 0. -1.
         11   -1    0    0    0    0 -0.00000000000E+00 -0.00000000000E+00 -0.45593999997E+02  0.45594000000E+02  0.51100000000E-03 0.  1.
    9900012    2    1    2    0    0  0.19034995009E+02 -0.25496607795E+02  0.20769479833E+01  0.59301925344E+02  0.49999965925E+02 0.  0.
         12    1    1    2    0    0 -0.19034995009E+02  0.25496607795E+02 -0.20769479833E+01  0.31886074656E+02  0.00000000000E+00 0. -1.
         11    1    3    3    0    0  0.11925749944E+02 -0.14815712242E+02 -0.12266576829E+02  0.22631786238E+02  0.51100000000E-03 0. -1.
        -11    1    3    3    0    0 -0.88027184871E+01 -0.24912197348E+01 -0.49110357195E+01  0.10383270228E+02  0.51100000000E-03 0.  1.
         12    1    3    3    0    0  0.15911963553E+02 -0.81896758184E+01  0.19254560532E+02  0.26286868877E+02  0.00000000000E+00 0. -1.
</event>
<event>
 7    1  0.5634483E-012  0.5930199E+02  0.7816164E-02  0.1266605E+00
        -11   -1    0    0    0    0  0.00000000000E+00  0.00000000000E+00  0.45593999997E+02  0.45594000000E+02  0.51100000000E-03 0.  1.
         11   -1    0    0    0    0 -0.00000000000E+00 -0.00000000000E+00 -0.45593999997E+02  0.45594000000E+02  0.51100000000E-03 0. -1.
    9900012    2    1    2    0    0 -0.53385420688E+01  0.27478850381E+01  0.31315603708E+02  0.59301985210E+02  0.50000075107E+02 0.  0.
         12    1    1    2    0    0  0.53385420688E+01 -0.27478850381E+01 -0.31315603708E+02  0.31886014790E+02  0.00000000000E+00 0. -1.
         11    1    3    3    0    0  0.77508719358E+01  0.19494333906E+01 -0.54203531371E+01  0.96569423060E+01  0.51100000000E-03 0. -1.
        -11    1    3    3    0    0  0.94099484490E+01 -0.42372590754E+01  0.12101197449E+02  0.15904102434E+02  0.51100000000E-03 0.  1.
         12    1    3    3    0    0 -0.22499362454E+02  0.50357107229E+01  0.24634759396E+02  0.33740940470E+02  0.00000000000E+00 0. -1.
</event>
<event>
 7    1  0.5634483E-012  0.5930196E+02  0.7816164E-02  0.1266605E+00
        -11   -1    0    0    0    0  0.00000000000E+00  0.00000000000E+00  0.45593999997E+02  0.45594000000E+02  0.51100000000E-03 0. -1.
         11   -1    0    0    0    0 -0.00000000000E+00 -0.00000000000E+00 -0.45593999997E+02  0.45594000000E+02  0.51100000000E-03 0.  1.
    9900012    2    1    2    0    0  0.24577474141E+02  0.16271704458E+02 -0.12161384055E+02  0.59301955039E+02  0.50000020082E+02 0.  0.
         12    1    1    2    0    0 -0.24577474141E+02 -0.16271704458E+02  0.12161384055E+02  0.31886044961E+02  0.00000000000E+00 0. -1.
         11    1    3    3    0    0 -0.40340485661E+01  0.45437433636E+01 -0.14795292083E+01  0.62536516154E+01  0.51100000000E-03 0. -1.
        -11    1    3    3    0    0 -0.79766347558E+01  0.61069932241E+01  0.67791869540E+01  0.12119382999E+02  0.51100000000E-03 0.  1.
        -12    1    3    3    0    0  0.36588157463E+02  0.56209678700E+01 -0.17461041801E+02  0.40928920424E+02  0.00000000000E+00 0.  1.
</event>
<event>
 7    1  0.5634483E-012  0.5930198E+02  0.7816164E-02  0.1266605E+00
        -11   -1    0    0    0    0  0.00000000000E+00  0.00000000000E+00  0.45593999997E+02  0.45594000000E+02  0.51100000000E-03 0.  1.
         11   -1    0    0    0    0 -0.00000000000E+00 -0.00000000000E+00 -0.45593999997E+02  0.45594000000E+02  0.51100000000E-03 0. -1.
    9900012    2    1    2    0    0 -0.22800826670E+02 -0.16104629820E+02  0.15410442629E+02  0.59301975781E+02  0.50000057911E+02 0.  0.
         12    1    1    2    0    0  0.22800826670E+02  0.16104629820E+02 -0.15410442629E+02  0.31886024219E+02  0.00000000000E+00 0. -1.
         11    1    3    3    0    0 -0.12609148639E+02  0.42807835376E+01  0.65956953601E+01  0.14859977613E+02  0.51100000000E-03 0. -1.
        -11    1    3    3    0    0 -0.49068202160E+01  0.10735110325E+02  0.57075311364E+00  0.11817158613E+02  0.51100000000E-03 0.  1.
        -12    1    3    3    0    0 -0.52848578148E+01 -0.31120523682E+02  0.82439941550E+01  0.32624839555E+02  0.00000000000E+00 0.  1.
</event>
<event>
 7    1  0.5634483E-012  0.5930195E+02  0.7816164E-02  0.1266605E+00
        -11   -1    0    0    0    0  0.00000000000E+00  0.00000000000E+00  0.45593999997E+02  0.45594000000E+02  0.51100000000E-03 0. -1.
         11   -1    0    0    0    0 -0.00000000000E+00 -0.00000000000E+00 -0.45593999997E+02  0.45594000000E+02  0.51100000000E-03 0.  1.
    9900012    2    1    2    0    0  0.95054920664E+01  0.18553095474E+02 -0.24127754483E+02  0.59301948700E+02  0.50000008522E+02 0.  0.
         12    1    1    2    0    0 -0.95054920664E+01 -0.18553095474E+02  0.24127754483E+02  0.31886051300E+02  0.00000000000E+00 0. -1.
         11    1    3    3    0    0 -0.12529109943E+02  0.42578919595E+01 -0.16100412961E+02  0.20840622296E+02  0.51100000000E-03 0.  1.
        -11    1    3    3    0    0 -0.24105172812E+01  0.10908126190E+01  0.65655700574E+01  0.70786422548E+01  0.51100000000E-03 0. -1.
         12    1    3    3    0    0  0.24445119291E+02  0.13204390896E+02 -0.14592911579E+02  0.31382684150E+02  0.00000000000E+00 0. -1.
</event>
<event>
 7    1  0.5634483E-012  0.5930194E+02  0.7816164E-02  0.1266605E+00
        -11   -1    0    0    0    0  0.00000000000E+00  0.00000000000E+00  0.45593999997E+02  0.45594000000E+02  0.51100000000E-03 0.  1.
         11   -1    0    0    0    0 -0.00000000000E+00 -0.00000000000E+00 -0.45593999997E+02  0.45594000000E+02  0.51100000000E-03 0. -1.
    9900012    2    1    2    0    0 -0.47953619674E+01  0.66199580959E+01  0.30820476608E+02  0.59301935333E+02  0.49999984143E+02 0.  0.
         12    1    1    2    0    0  0.47953619674E+01 -0.66199580959E+01 -0.30820476608E+02  0.31886064667E+02  0.00000000000E+00 0. -1.
         11    1    3    3    0    0 -0.18325485139E+01  0.75726091764E+01 -0.86726702672E+01  0.11658381261E+02  0.51100000000E-03 0. -1.
        -11    1    3    3    0    0 -0.13180872753E+02  0.65908631281E+00  0.10513965692E+02  0.16873448851E+02  0.51100000000E-03 0.  1.
         12    1    3    3    0    0  0.10218059299E+02 -0.16117373933E+01  0.28979181184E+02  0.30770105221E+02  0.00000000000E+00 0. -1.
</event>
<event>
 7    1  0.5634483E-012  0.5930195E+02  0.7816164E-02  0.1266605E+00
        -11   -1    0    0    0    0  0.00000000000E+00  0.00000000000E+00  0.45593999997E+02  0.45594000000E+02  0.51100000000E-03 0. -1.
         11   -1    0    0    0    0 -0.00000000000E+00 -0.00000000000E+00 -0.45593999997E+02  0.45594000000E+02  0.51100000000E-03 0.  1.
    9900012    2    1    2    0    0  0.25414780783E+01  0.32624341057E+01 -0.31616726114E+02  0.59301953564E+02  0.50000017392E+02 0.  0.
         12    1    1    2    0    0 -0.25414780783E+01 -0.32624341057E+01  0.31616726114E+02  0.31886046436E+02  0.00000000000E+00 0. -1.
         11    1    3    3    0    0  0.14570583158E+02  0.18206612878E+02 -0.51896638978E+01  0.23889647500E+02  0.51100000000E-03 0. -1.
        -11    1    3    3    0    0 -0.11725980157E+01 -0.28957759357E+01  0.12244638294E+01  0.33555649758E+01  0.51100000000E-03 0.  1.
        -12    1    3    3    0    0 -0.10856507064E+02 -0.12048402837E+02 -0.27651526046E+02  0.32056741088E+02  0.00000000000E+00 0.  1.
</event>
<event>
 7    1  0.5634483E-012  0.5930193E+02  0.7816164E-02  0.1266605E+00
        -11   -1    0    0    0    0  0.00000000000E+00  0.00000000000E+00  0.45593999997E+02  0.45594000000E+02  0.51100000000E-03 0. -1.
         11   -1    0    0    0    0 -0.00000000000E+00 -0.00000000000E+00 -0.45593999997E+02  0.45594000000E+02  0.51100000000E-03 0.  1.
    9900012    2    1    2    0    0 -0.84602512974E+01  0.19845860662E+02 -0.23479512427E+02  0.59301928727E+02  0.49999972095E+02 0.  0.
         12    1    1    2    0    0  0.84602512974E+01 -0.19845860662E+02  0.23479512427E+02  0.31886071273E+02  0.00000000000E+00 0. -1.
         11    1    3    3    0    0 -0.67642100864E+01 -0.30150571905E+01 -0.97282802724E+01  0.12226387254E+02  0.51100000000E-03 0. -1.
        -11    1    3    3    0    0  0.17507947001E+02  0.50253700288E+01 -0.94359317255E+01  0.20513882127E+02  0.51100000000E-03 0.  1.
         12    1    3    3    0    0 -0.19203988212E+02  0.17835547824E+02 -0.43153004289E+01  0.26561659346E+02  0.00000000000E+00 0. -1.
</event>
<event>
 7    1  0.5634483E-012  0.5930186E+02  0.7816164E-02  0.1266605E+00
        -11   -1    0    0    0    0  0.00000000000E+00  0.00000000000E+00  0.45593999997E+02  0.45594000000E+02  0.51100000000E-03 0.  1.
         11   -1    0    0    0    0 -0.00000000000E+00 -0.00000000000E+00 -0.45593999997E+02  0.45594000000E+02  0.51100000000E-03 0. -1.
    9900012    2    1    2    0    0 -0.17863888535E+02 -0.21110297811E+01  0.26327760784E+02  0.59301859622E+02  0.49999846063E+02 0.  0.
         12    1    1    2    0    0  0.17863888535E+02  0.21110297811E+01 -0.26327760784E+02  0.31886140378E+02  0.00000000000E+00 0. -1.
         11    1    3    3    0    0 -0.78695055033E+01 -0.13980193747E+02  0.82907179690E+01  0.18058541989E+02  0.51100000000E-03 0. -1.
        -11    1    3    3    0    0 -0.19046467549E+02 -0.28529708638E+01  0.13021141342E+02  0.23247741631E+02  0.51100000000E-03 0.  1.
        -12    1    3    3    0    0  0.90520845167E+01  0.14722134830E+02  0.50159014728E+01  0.17995576002E+02  0.00000000000E+00 0.  1.
</event>
<event>
 7    1  0.5634483E-012  0.5930196E+02  0.7816164E-02  0.1266605E+00
        -11   -1    0    0    0    0  0.00000000000E+00  0.00000000000E+00  0.45593999997E+02  0.45594000000E+02  0.51100000000E-03 0.  1.
         11   -1    0    0    0    0 -0.00000000000E+00 -0.00000000000E+00 -0.45593999997E+02  0.45594000000E+02  0.51100000000E-03 0. -1.
    9900012    2    1    2    0    0  0.44935142811E+00 -0.20483694626E+02  0.24432274407E+02  0.59301957678E+02  0.50000024895E+02 0.  0.
         12    1    1    2    0    0 -0.44935142811E+00  0.20483694626E+02 -0.24432274407E+02  0.31886042322E+02  0.00000000000E+00 0. -1.
         11    1    3    3    0    0 -0.12866633941E+02 -0.10823088228E+02 -0.83956285117E+01  0.18792979704E+02  0.51100000000E-03 0. -1.
        -11    1    3    3    0    0 -0.33380624366E+01 -0.40872830442E+01  0.35242013165E+01  0.63457496558E+01  0.51100000000E-03 0.  1.
         12    1    3    3    0    0  0.16654047806E+02 -0.55733233538E+01  0.29303701603E+02  0.34163228318E+02  0.00000000000E+00 0. -1.
</event>
<event>
 7    1  0.5634483E-012  0.5930194E+02  0.7816164E-02  0.1266605E+00
        -11   -1    0    0    0    0  0.00000000000E+00  0.00000000000E+00  0.45593999997E+02  0.45594000000E+02  0.51100000000E-03 0. -1.
         11   -1    0    0    0    0 -0.00000000000E+00 -0.00000000000E+00 -0.45593999997E+02  0.45594000000E+02  0.51100000000E-03 0.  1.
    9900012    2    1    2    0    0  0.22926389823E+02  0.18111614339E+02 -0.12769921432E+02  0.59301940073E+02  0.49999992787E+02 0.  0.
         12    1    1    2    0    0 -0.22926389823E+02 -0.18111614339E+02  0.12769921432E+02  0.31886059927E+02  0.00000000000E+00 0. -1.
         11    1    3    3    0    0  0.67076453363E+00 -0.95250127151E+01 -0.10805368803E+02  0.14419840065E+02  0.51100000000E-03 0. -1.
        -11    1    3    3    0    0  0.58984186045E+01  0.95639162839E+00 -0.10818012533E+02  0.12358617334E+02  0.51100000000E-03 0.  1.
        -12    1    3    3    0    0  0.16357206685E+02  0.26680235426E+02  0.88534599038E+01  0.32523482673E+02  0.00000000000E+00 0.  1.
</event>
<event>
 7    1  0.5634483E-012  0.5930191E+02  0.7816164E-02  0.1266605E+00
        -11   -1    0    0    0    0  0.00000000000E+00  0.00000000000E+00  0.45593999997E+02  0.45594000000E+02  0.51100000000E-03 0. -1.
         11   -1    0    0    0    0 -0.00000000000E+00 -0.00000000000E+00 -0.45593999997E+02  0.45594000000E+02  0.51100000000E-03 0.  1.
    9900012    2    1    2    0    0  0.29937756016E+02 -0.94487563727E+01 -0.55834031996E+01  0.59301911755E+02  0.49999941143E+02 0.  0.
         12    1    1    2    0    0 -0.29937756016E+02  0.94487563727E+01  0.55834031996E+01  0.31886088245E+02  0.00000000000E+00 0. -1.
         11    1    3    3    0    0  0.12093773252E+02 -0.12459054099E+02  0.36500477098E+01  0.17742892354E+02  0.51100000000E-03 0. -1.
        -11    1    3    3    0    0  0.43485377927E+01 -0.13141657513E+02 -0.14307982155E+02  0.19908071146E+02  0.51100000000E-03 0.  1.
        -12    1    3    3    0    0  0.13495444971E+02  0.16151955240E+02  0.50745312456E+01  0.21650948256E+02  0.00000000000E+00 0.  1.
</event>
<event>
 7    1  0.5634483E-012  0.5930194E+02  0.7816164E-02  0.1266605E+00
        -11   -1    0    0    0    0  0.00000000000E+00  0.00000000000E+00  0.45593999997E+02  0.45594000000E+02  0.51100000000E-03 0. -1.
         11   -1    0    0    0    0 -0.00000000000E+00 -0.00000000000E+00 -0.45593999997E+02  0.45594000000E+02  0.51100000000E-03 0.  1.
    9900012    2    1    2    0    0  0.21791246218E+02 -0.53692341644E+01 -0.22650253160E+02  0.59301936344E+02  0.49999985987E+02 0.  0.
         12    1    1    2    0    0 -0.21791246218E+02  0.53692341644E+01  0.22650253160E+02  0.31886063656E+02  0.00000000000E+00 0. -1.
         11    1    3    3    0    0  0.58554772269E+01 -0.62909035489E+01  0.85578764974E+01  0.12128451320E+02  0.51100000000E-03 0. -1.
        -11    1    3    3    0    0 -0.35073519823E+01  0.49314162731E+01  0.36439312426E+01  0.70638954939E+01  0.51100000000E-03 0.  1.
        -12    1    3    3    0    0  0.19443120974E+02 -0.40097468886E+01 -0.34852060900E+02  0.40109589530E+02  0.00000000000E+00 0.  1.
</event>
<event>
 7    1  0.5634483E-012  0.5930194E+02  0.7816164E-02  0.1266605E+00
        -11   -1    0    0    0    0  0.00000000000E+00  0.00000000000E+00  0.45593999997E+02  0.45594000000E+02  0.51100000000E-03 0. -1.
         11   -1    0    0    0    0 -0.00000000000E+00 -0.00000000000E+00 -0.45593999997E+02  0.45594000000E+02  0.51100000000E-03 0.  1.
    9900012    2    1    2    0    0  0.10779119546E+02  0.28680352310E+02  0.88299876828E+01  0.59301941772E+02  0.49999995886E+02 0.  0.
         12    1    1    2    0    0 -0.10779119546E+02 -0.28680352310E+02 -0.88299876828E+01  0.31886058228E+02  0.00000000000E+00 0. -1.
         11    1    3    3    0    0 -0.14447368316E+02  0.34739381311E+01  0.41116971951E+01  0.15417546870E+02  0.51100000000E-03 0. -1.
        -11    1    3    3    0    0  0.12364146632E+02  0.21092316249E+02  0.13350728811E+02  0.27856774521E+02  0.51100000000E-03 0.  1.
        -12    1    3    3    0    0  0.12862341230E+02  0.41140979307E+01 -0.86324383229E+01  0.16027620382E+02  0.00000000000E+00 0.  1.
</event>
<event>
 7    1  0.5634483E-012  0.5930193E+02  0.7816164E-02  0.1266605E+00
        -11   -1    0    0    0    0  0.00000000000E+00  0.00000000000E+00  0.45593999997E+02  0.45594000000E+02  0.51100000000E-03 0. -1.
         11   -1    0    0    0    0 -0.00000000000E+00 -0.00000000000E+00 -0.45593999997E+02  0.45594000000E+02  0.51100000000E-03 0.  1.
    9900012    2    1    2    0    0 -0.12606708081E+02  0.64934099845E+01 -0.28559196840E+02  0.59301934297E+02  0.49999982254E+02 0.  0.
         12    1    1    2    0    0  0.12606708081E+02 -0.64934099845E+01  0.28559196840E+02  0.31886065703E+02  0.00000000000E+00 0. -1.
         11    1    3    3    0    0 -0.10291650736E+02  0.12974587308E+02 -0.28388077770E+01  0.16802286170E+02  0.51100000000E-03 0. -1.
        -11    1    3    3    0    0 -0.11843228650E+02  0.38525884687E+01 -0.25571239858E+02  0.28442798929E+02  0.51100000000E-03 0.  1.
         12    1    3    3    0    0  0.95281713053E+01 -0.10333765793E+02 -0.14914920428E+00  0.14056849198E+02  0.00000000000E+00 0. -1.
</event>
<event>
 7    1  0.5634483E-012  0.5930197E+02  0.7816164E-02  0.1266605E+00
        -11   -1    0    0    0    0  0.00000000000E+00  0.00000000000E+00  0.45593999997E+02  0.45594000000E+02  0.51100000000E-03 0.  1.
         11   -1    0    0    0    0 -0.00000000000E+00 -0.00000000000E+00 -0.45593999997E+02  0.45594000000E+02  0.51100000000E-03 0. -1.
    9900012    2    1    2    0    0 -0.19244645311E+02  0.25326129854E+02 -0.22248551303E+01  0.59301965332E+02  0.50000038853E+02 0.  0.
         12    1    1    2    0    0  0.19244645311E+02 -0.25326129854E+02  0.22248551303E+01  0.31886034668E+02  0.00000000000E+00 0. -1.
         11    1    3    3    0    0 -0.10485689052E+02 -0.10881072418E+01  0.64905904705E+00  0.10561956740E+02  0.51100000000E-03 0. -1.
        -11    1    3    3    0    0 -0.22143674245E+02  0.25658264995E+02  0.31586695625E+01  0.34039184263E+02  0.51100000000E-03 0.  1.
        -12    1    3    3    0    0  0.13384717986E+02  0.75597210059E+00 -0.60325837399E+01  0.14700824329E+02  0.00000000000E+00 0.  1.
</event>
<event>
 7    1  0.5634483E-012  0.5930193E+02  0.7816164E-02  0.1266605E+00
        -11   -1    0    0    0    0  0.00000000000E+00  0.00000000000E+00  0.45593999997E+02  0.45594000000E+02  0.51100000000E-03 0. -1.
         11   -1    0    0    0    0 -0.00000000000E+00 -0.00000000000E+00 -0.45593999997E+02  0.45594000000E+02  0.51100000000E-03 0.  1.
    9900012    2    1    2    0    0 -0.17008593243E+02  0.10658792771E+02 -0.24775379975E+02  0.59301928428E+02  0.49999971549E+02 0.  0.
         12    1    1    2    0    0  0.17008593243E+02 -0.10658792771E+02  0.24775379975E+02  0.31886071572E+02  0.00000000000E+00 0. -1.
         11    1    3    3    0    0 -0.38277087010E+01  0.51065726174E+00  0.26875163069E+01  0.47047708658E+01  0.51100000000E-03 0. -1.
        -11    1    3    3    0    0  0.65756858837E+01  0.21829609493E+02 -0.70024301380E+01  0.23849644098E+02  0.51100000000E-03 0.  1.
        -12    1    3    3    0    0 -0.19756570426E+02 -0.11681473985E+02 -0.20460466143E+02  0.30747513464E+02  0.00000000000E+00 0.  1.
</event>
<event>
 7    1  0.5634483E-012  0.5930198E+02  0.7816164E-02  0.1266605E+00
        -11   -1    0    0    0    0  0.00000000000E+00  0.00000000000E+00  0.45593999997E+02  0.45594000000E+02  0.51100000000E-03 0. -1.
         11   -1    0    0    0    0 -0.00000000000E+00 -0.00000000000E+00 -0.45593999997E+02  0.45594000000E+02  0.51100000000E-03 0.  1.
    9900012    2    1    2    0    0  0.13461728175E+02 -0.28362628113E+02 -0.55732707990E+01  0.59301981962E+02  0.50000069183E+02 0.  0.
         12    1    1    2    0    0 -0.13461728175E+02  0.28362628113E+02  0.55732707990E+01  0.31886018038E+02  0.00000000000E+00 0. -1.
         11    1    3    3    0    0  0.12639862112E+02 -0.34933441278E+02 -0.49844716097E+01  0.37482747914E+02  0.51100000000E-03 0. -1.
        -11    1    3    3    0    0  0.55508976328E+01 -0.43908088186E+01 -0.54464268221E+01  0.89305784808E+01  0.51100000000E-03 0.  1.
        -12    1    3    3    0    0 -0.47290315703E+01  0.10961621984E+02  0.48576276329E+01  0.12888655567E+02  0.00000000000E+00 0.  1.
</event>
<event>
 7    1  0.5634483E-012  0.5930196E+02  0.7816164E-02  0.1266605E+00
        -11   -1    0    0    0    0  0.00000000000E+00  0.00000000000E+00  0.45593999997E+02  0.45594000000E+02  0.51100000000E-03 0.  1.
         11   -1    0    0    0    0 -0.00000000000E+00 -0.00000000000E+00 -0.45593999997E+02  0.45594000000E+02  0.51100000000E-03 0. -1.
    9900012    2    1    2    0    0  0.24499830315E+02  0.13245279979E+02 -0.15525470339E+02  0.59301962986E+02  0.50000034575E+02 0.  0.
         12    1    1    2    0    0 -0.24499830315E+02 -0.13245279979E+02  0.15525470339E+02  0.31886037014E+02  0.00000000000E+00 0. -1.
         11    1    3    3    0    0 -0.45752839357E+01  0.16017509602E+02  0.50152166142E+01  0.17396730581E+02  0.51100000000E-03 0.  1.
        -11    1    3    3    0    0  0.28858467682E+02  0.37247335864E+01 -0.12777245795E+02  0.31779597348E+02  0.51100000000E-03 0. -1.
         12    1    3    3    0    0  0.21664656888E+00 -0.64969632096E+01 -0.77634411584E+01  0.10125635057E+02  0.00000000000E+00 0. -1.
</event>
<event>
 7    1  0.5634483E-012  0.5930195E+02  0.7816164E-02  0.1266605E+00
        -11   -1    0    0    0    0  0.00000000000E+00  0.00000000000E+00  0.45593999997E+02  0.45594000000E+02  0.51100000000E-03 0.  1.
         11   -1    0    0    0    0 -0.00000000000E+00 -0.00000000000E+00 -0.45593999997E+02  0.45594000000E+02  0.51100000000E-03 0. -1.
    9900012    2    1    2    0    0 -0.89993176520E+01  0.22809727457E+02  0.20382566910E+02  0.59301946329E+02  0.50000004197E+02 0.  0.
         12    1    1    2    0    0  0.89993176520E+01 -0.22809727457E+02 -0.20382566910E+02  0.31886053671E+02  0.00000000000E+00 0. -1.
         11    1    3    3    0    0 -0.44420009413E+01  0.16330788338E+02 -0.67419350610E+01  0.18217565938E+02  0.51100000000E-03 0. -1.
        -11    1    3    3    0    0  0.49066334550E+01 -0.10372219219E+02  0.89162739765E+01  0.14531274041E+02  0.51100000000E-03 0.  1.
         12    1    3    3    0    0 -0.94639501657E+01  0.16851158338E+02  0.18208227995E+02  0.26553106349E+02  0.00000000000E+00 0. -1.
</event>
<event>
 7    1  0.5634483E-012  0.5930193E+02  0.7816164E-02  0.1266605E+00
        -11   -1    0    0    0    0  0.00000000000E+00  0.00000000000E+00  0.45593999997E+02  0.45594000000E+02  0.51100000000E-03 0.  1.
         11   -1    0    0    0    0 -0.00000000000E+00 -0.00000000000E+00 -0.45593999997E+02  0.45594000000E+02  0.51100000000E-03 0. -1.
    9900012    2    1    2    0    0  0.10747498986E+02 -0.20021268849E+02  0.22368763675E+02  0.59301928917E+02  0.49999972442E+02 0.  0.
         12    1    1    2    0    0 -0.10747498986E+02  0.20021268849E+02 -0.22368763675E+02  0.31886071083E+02  0.00000000000E+00 0. -1.
         11    1    3    3    0    0  0.85349324247E+01 -0.21290694029E+01  0.62944936426E+01  0.10816591815E+02  0.51100000000E-03 0. -1.
        -11    1    3    3    0    0 -0.34601046224E+00  0.13818791169E+02  0.33662664980E+01  0.14227103114E+02  0.51100000000E-03 0.  1.
        -12    1    3    3    0    0  0.25585770237E+01 -0.31710990615E+02  0.12708003534E+02  0.34258233988E+02  0.00000000000E+00 0.  1.
</event>
<event>
 7    1  0.5634483E-012  0.5930194E+02  0.7816164E-02  0.1266605E+00
        -11   -1    0    0    0    0  0.00000000000E+00  0.00000000000E+00  0.45593999997E+02  0.45594000000E+02  0.51100000000E-03 0.  1.
         11   -1    0    0    0    0 -0.00000000000E+00 -0.00000000000E+00 -0.45593999997E+02  0.45594000000E+02  0.51100000000E-03 0. -1.
    9900012    2    1    2    0    0  0.19528442442E+02 -0.91589883539E+01  0.23483483132E+02  0.59301935459E+02  0.49999984372E+02 0.  0.
         12    1    1    2    0    0 -0.19528442442E+02  0.91589883539E+01 -0.23483483132E+02  0.31886064541E+02  0.00000000000E+00 0. -1.
         11    1    3    3    0    0 -0.29389435457E+01 -0.11674358457E+02  0.43506172958E+01  0.12800621300E+02  0.51100000000E-03 0. -1.
        -11    1    3    3    0    0  0.41607435199E+01  0.68736850134E+01  0.25420722252E+02  0.26660316059E+02  0.51100000000E-03 0.  1.
         12    1    3    3    0    0  0.18306642468E+02 -0.43583149102E+01 -0.62878564150E+01  0.19840998100E+02  0.00000000000E+00 0. -1.
</event>
<event>
 7    1  0.5634483E-012  0.5930189E+02  0.7816164E-02  0.1266605E+00
        -11   -1    0    0    0    0  0.00000000000E+00  0.00000000000E+00  0.45593999997E+02  0.45594000000E+02  0.51100000000E-03 0.  1.
         11   -1    0    0    0    0 -0.00000000000E+00 -0.00000000000E+00 -0.45593999997E+02  0.45594000000E+02  0.51100000000E-03 0. -1.
    9900012    2    1    2    0    0 -0.20255794781E+02 -0.21572711696E+02  0.11876233792E+02  0.59301889525E+02  0.49999900601E+02 0.  0.
         12    1    1    2    0    0  0.20255794781E+02  0.21572711696E+02 -0.11876233792E+02  0.31886110475E+02  0.00000000000E+00 0. -1.
         11    1    3    3    0    0 -0.48651822831E+01 -0.51705783842E+01  0.71913374527E+01  0.10105454670E+02  0.51100000000E-03 0. -1.
        -11    1    3    3    0    0 -0.24267413591E+02 -0.11555130024E+02  0.18093854845E+02  0.32400863810E+02  0.51100000000E-03 0.  1.
         12    1    3    3    0    0  0.88768010932E+01 -0.48470032879E+01 -0.13408958505E+02  0.16795571045E+02  0.00000000000E+00 0. -1.
</event>
<event>
 7    1  0.5634483E-012  0.5930190E+02  0.7816164E-02  0.1266605E+00
        -11   -1    0    0    0    0  0.00000000000E+00  0.00000000000E+00  0.45593999997E+02  0.45594000000E+02  0.51100000000E-03 0.  1.
         11   -1    0    0    0    0 -0.00000000000E+00 -0.00000000000E+00 -0.45593999997E+02  0.45594000000E+02  0.51100000000E-03 0. -1.
    9900012    2    1    2    0    0 -0.36500792546E+01 -0.12712631116E+02  0.29013601303E+02  0.59301903829E+02  0.49999926687E+02 0.  0.
         12    1    1    2    0    0  0.36500792546E+01  0.12712631116E+02 -0.29013601303E+02  0.31886096171E+02  0.00000000000E+00 0. -1.
         11    1    3    3    0    0  0.36046307754E+01 -0.16477343908E+01 -0.30678999131E+01  0.50120257170E+01  0.51100000000E-03 0. -1.
        -11    1    3    3    0    0  0.15422190689E+02  0.44634817108E+01  0.14718231279E+02  0.21780563970E+02  0.51100000000E-03 0.  1.
        -12    1    3    3    0    0 -0.22676900719E+02 -0.15528378436E+02  0.17363269938E+02  0.32509314142E+02  0.00000000000E+00 0.  1.
</event>
<event>
 7    1  0.5634483E-012  0.5930195E+02  0.7816164E-02  0.1266605E+00
        -11   -1    0    0    0    0  0.00000000000E+00  0.00000000000E+00  0.45593999997E+02  0.45594000000E+02  0.51100000000E-03 0.  1.
         11   -1    0    0    0    0 -0.00000000000E+00 -0.00000000000E+00 -0.45593999997E+02  0.45594000000E+02  0.51100000000E-03 0. -1.
    9900012    2    1    2    0    0  0.17136677262E+02  0.26694092890E+02  0.32372558317E+01  0.59301950886E+02  0.50000012507E+02 0.  0.
         12    1    1    2    0    0 -0.17136677262E+02 -0.26694092890E+02 -0.32372558317E+01  0.31886049114E+02  0.00000000000E+00 0. -1.
         11    1    3    3    0    0 -0.11392592723E+02  0.38078118337E+01 -0.10324115395E+01  0.12056387260E+02  0.51100000000E-03 0. -1.
        -11    1    3    3    0    0  0.42041599842E+01  0.53830179743E+01 -0.11504778771E+02  0.13379528337E+02  0.51100000000E-03 0.  1.
        -12    1    3    3    0    0  0.24325110000E+02  0.17503263082E+02  0.15774446143E+02  0.33866035289E+02  0.00000000000E+00 0.  1.
</event>
<event>
 7    1  0.5634483E-012  0.5930194E+02  0.7816164E-02  0.1266605E+00
        -11   -1    0    0    0    0  0.00000000000E+00  0.00000000000E+00  0.45593999997E+02  0.45594000000E+02  0.51100000000E-03 0. -1.
         11   -1    0    0    0    0 -0.00000000000E+00 -0.00000000000E+00 -0.45593999997E+02  0.45594000000E+02  0.51100000000E-03 0.  1.
    9900012    2    1    2    0    0  0.91106784174E+00  0.15954920935E+02 -0.27592235854E+02  0.59301936805E+02  0.49999986827E+02 0.  0.
         12    1    1    2    0    0 -0.91106784174E+00 -0.15954920935E+02  0.27592235854E+02  0.31886063195E+02  0.00000000000E+00 0. -1.
         11    1    3    3    0    0 -0.35317441896E+01  0.23616788707E+02 -0.20967748100E+02  0.31778489368E+02  0.51100000000E-03 0. -1.
        -11    1    3    3    0    0 -0.86178015307E+01 -0.55449093823E+01 -0.95110665211E+01  0.13981162681E+02  0.51100000000E-03 0.  1.
        -12    1    3    3    0    0  0.13060613562E+02 -0.21169583891E+01  0.28865787674E+01  0.13542284756E+02  0.00000000000E+00 0.  1.
</event>
<event>
 7    1  0.5634483E-012  0.5930193E+02  0.7816164E-02  0.1266605E+00
        -11   -1    0    0    0    0  0.00000000000E+00  0.00000000000E+00  0.45593999997E+02  0.45594000000E+02  0.51100000000E-03 0. -1.
         11   -1    0    0    0    0 -0.00000000000E+00 -0.00000000000E+00 -0.45593999997E+02  0.45594000000E+02  0.51100000000E-03 0.  1.
    9900012    2    1    2    0    0  0.17858393965E+02 -0.26047364312E+02  0.43970408339E+01  0.59301931087E+02  0.49999976400E+02 0.  0.
         12    1    1    2    0    0 -0.17858393965E+02  0.26047364312E+02 -0.43970408339E+01  0.31886068913E+02  0.00000000000E+00 0. -1.
         11    1    3    3    0    0 -0.43196477684E+01 -0.68547343017E+00  0.71816508935E+01  0.84086467689E+01  0.51100000000E-03 0. -1.
        -11    1    3    3    0    0  0.57923330075E+01  0.10043187235E+02  0.13027896913E+01  0.11666790164E+02  0.51100000000E-03 0.  1.
        -12    1    3    3    0    0  0.16385708726E+02 -0.35405078117E+02 -0.40873997509E+01  0.39226494154E+02  0.00000000000E+00 0.  1.
</event>
<event>
 7    1  0.5634483E-012  0.5930195E+02  0.7816164E-02  0.1266605E+00
        -11   -1    0    0    0    0  0.00000000000E+00  0.00000000000E+00  0.45593999997E+02  0.45594000000E+02  0.51100000000E-03 0. -1.
         11   -1    0    0    0    0 -0.00000000000E+00 -0.00000000000E+00 -0.45593999997E+02  0.45594000000E+02  0.51100000000E-03 0.  1.
    9900012    2    1    2    0    0 -0.26429167474E+02  0.14367271723E+02  0.10573588307E+02  0.59301950389E+02  0.50000011601E+02 0.  0.
         12    1    1    2    0    0  0.26429167474E+02 -0.14367271723E+02 -0.10573588307E+02  0.31886049611E+02  0.00000000000E+00 0. -1.
         11    1    3    3    0    0  0.35401702361E+01  0.52353619620E+01  0.14672594462E+02  0.15975820751E+02  0.51100000000E-03 0. -1.
        -11    1    3    3    0    0 -0.14408192746E+02 -0.84381330703E+01  0.60445228448E+01  0.17757656507E+02  0.51100000000E-03 0.  1.
        -12    1    3    3    0    0 -0.15561144964E+02  0.17570042832E+02 -0.10143528999E+02  0.25568473131E+02  0.00000000000E+00 0.  1.
</event>
<event>
 7    1  0.5634483E-012  0.5930210E+02  0.7816164E-02  0.1266604E+00
        -11   -1    0    0    0    0  0.00000000000E+00  0.00000000000E+00  0.45593999997E+02  0.45594000000E+02  0.51100000000E-03 0.  1.
         11   -1    0    0    0    0 -0.00000000000E+00 -0.00000000000E+00 -0.45593999997E+02  0.45594000000E+02  0.51100000000E-03 0. -1.
    9900012    2    1    2    0    0  0.71989555994E+01  0.24474707365E+02  0.19127845719E+02  0.59302098034E+02  0.50000280870E+02 0.  0.
         12    1    1    2    0    0 -0.71989555994E+01 -0.24474707365E+02 -0.19127845719E+02  0.31885901966E+02  0.00000000000E+00 0. -1.
         11    1    3    3    0    0 -0.13504292458E+02  0.82184301679E+01  0.17645201759E+02  0.23690961453E+02  0.51100000000E-03 0. -1.
        -11    1    3    3    0    0 -0.47481036531E+01  0.70801343099E+01  0.28075094267E+00  0.85294555219E+01  0.51100000000E-03 0.  1.
        -12    1    3    3    0    0  0.25451351710E+02  0.91761428867E+01  0.12018930178E+01  0.27081681059E+02  0.00000000000E+00 0.  1.
</event>
<event>
 7    1  0.5634483E-012  0.5930195E+02  0.7816164E-02  0.1266605E+00
        -11   -1    0    0    0    0  0.00000000000E+00  0.00000000000E+00  0.45593999997E+02  0.45594000000E+02  0.51100000000E-03 0. -1.
         11   -1    0    0    0    0 -0.00000000000E+00 -0.00000000000E+00 -0.45593999997E+02  0.45594000000E+02  0.51100000000E-03 0.  1.
    9900012    2    1    2    0    0  0.27507596776E+02 -0.79489883446E+01 -0.14030895529E+02  0.59301947792E+02  0.50000006865E+02 0.  0.
         12    1    1    2    0    0 -0.27507596776E+02  0.79489883446E+01  0.14030895529E+02  0.31886052208E+02  0.00000000000E+00 0. -1.
         11    1    3    3    0    0  0.12593998341E+02  0.87622176682E+00  0.70985344822E+01  0.14483292127E+02  0.51100000000E-03 0. -1.
        -11    1    3    3    0    0  0.19753258402E+01  0.55322023163E+01  0.79607145791E+01  0.98934398221E+01  0.51100000000E-03 0.  1.
        -12    1    3    3    0    0  0.12938272595E+02 -0.14357412428E+02 -0.29090144590E+02  0.34925215842E+02  0.00000000000E+00 0.  1.
</event>
<event>
 7    1  0.5634483E-012  0.5930194E+02  0.7816164E-02  0.1266605E+00
        -11   -1    0    0    0    0  0.00000000000E+00  0.00000000000E+00  0.45593999997E+02  0.45594000000E+02  0.51100000000E-03 0.  1.
         11   -1    0    0    0    0 -0.00000000000E+00 -0.00000000000E+00 -0.45593999997E+02  0.45594000000E+02  0.51100000000E-03 0. -1.
    9900012    2    1    2    0    0 -0.14183385364E+02 -0.12509076566E+02  0.25672469478E+02  0.59301935551E+02  0.49999984540E+02 0.  0.
         12    1    1    2    0    0  0.14183385364E+02  0.12509076566E+02 -0.25672469478E+02  0.31886064449E+02  0.00000000000E+00 0. -1.
         11    1    3    3    0    0  0.70894496067E+01 -0.97204477998E+01 -0.75792014164E+00  0.12054951031E+02  0.51100000000E-03 0. -1.
        -11    1    3    3    0    0  0.16881401350E+01  0.11814584849E+02  0.74279899904E+01  0.14057356360E+02  0.51100000000E-03 0.  1.
         12    1    3    3    0    0 -0.22960975106E+02 -0.14603213616E+02  0.19002399630E+02  0.33189628160E+02  0.00000000000E+00 0. -1.
</event>
<event>
 7    1  0.5634483E-012  0.5930195E+02  0.7816164E-02  0.1266605E+00
        -11   -1    0    0    0    0  0.00000000000E+00  0.00000000000E+00  0.45593999997E+02  0.45594000000E+02  0.51100000000E-03 0.  1.
         11   -1    0    0    0    0 -0.00000000000E+00 -0.00000000000E+00 -0.45593999997E+02  0.45594000000E+02  0.51100000000E-03 0. -1.
    9900012    2    1    2    0    0  0.22678436417E+02 -0.18425889356E+02 -0.12763047740E+02  0.59301948748E+02  0.50000008608E+02 0.  0.
         12    1    1    2    0    0 -0.22678436417E+02  0.18425889356E+02  0.12763047740E+02  0.31886051252E+02  0.00000000000E+00 0. -1.
         11    1    3    3    0    0  0.83401287059E+01 -0.22005560374E+02 -0.19141594743E+02  0.30334849329E+02  0.51100000000E-03 0. -1.
        -11    1    3    3    0    0  0.72543460254E+01 -0.95484511608E+01 -0.15201023408E+01  0.12087562501E+02  0.51100000000E-03 0.  1.
        -12    1    3    3    0    0  0.70839616852E+01  0.13128122179E+02  0.78986493444E+01  0.16879536918E+02  0.00000000000E+00 0.  1.
</event>
<event>
 7    1  0.5634483E-012  0.5930192E+02  0.7816164E-02  0.1266605E+00
        -11   -1    0    0    0    0  0.00000000000E+00  0.00000000000E+00  0.45593999997E+02  0.45594000000E+02  0.51100000000E-03 0. -1.
         11   -1    0    0    0    0 -0.00000000000E+00 -0.00000000000E+00 -0.45593999997E+02  0.45594000000E+02  0.51100000000E-03 0.  1.
    9900012    2    1    2    0    0 -0.15868912465E+02  0.97471706849E+01 -0.25882273782E+02  0.59301924429E+02  0.49999964257E+02 0.  0.
         12    1    1    2    0    0  0.15868912465E+02 -0.97471706849E+01  0.25882273782E+02  0.31886075571E+02  0.00000000000E+00 0. -1.
         11    1    3    3    0    0 -0.31850783404E+01  0.20939799749E+02 -0.96541349344E+01  0.23277075829E+02  0.51100000000E-03 0. -1.
        -11    1    3    3    0    0  0.58472019338E+01  0.45767702919E+01 -0.63255242692E+01  0.97544274205E+01  0.51100000000E-03 0.  1.
        -12    1    3    3    0    0 -0.18531036059E+02 -0.15769399356E+02 -0.99026145780E+01  0.26270421179E+02  0.00000000000E+00 0.  1.
</event>
<event>
 7    1  0.5634483E-012  0.5930191E+02  0.7816164E-02  0.1266605E+00
        -11   -1    0    0    0    0  0.00000000000E+00  0.00000000000E+00  0.45593999997E+02  0.45594000000E+02  0.51100000000E-03 0.  1.
         11   -1    0    0    0    0 -0.00000000000E+00 -0.00000000000E+00 -0.45593999997E+02  0.45594000000E+02  0.51100000000E-03 0. -1.
    9900012    2    1    2    0    0 -0.30351131773E+02 -0.97377813380E+01 -0.84076118431E+00  0.59301914247E+02  0.49999945687E+02 0.  0.
         12    1    1    2    0    0  0.30351131773E+02  0.97377813380E+01  0.84076118431E+00  0.31886085753E+02  0.00000000000E+00 0. -1.
         11    1    3    3    0    0 -0.10764840449E+02 -0.83895265071E+01  0.10422054056E+02  0.17172220471E+02  0.51100000000E-03 0. -1.
        -11    1    3    3    0    0 -0.23515332223E+02  0.67299464892E+01  0.36400901966E+01  0.24728794677E+02  0.51100000000E-03 0.  1.
         12    1    3    3    0    0  0.39290408991E+01 -0.80782013201E+01 -0.14902905437E+02  0.17400899098E+02  0.00000000000E+00 0. -1.
</event>
<event>
 7    1  0.5634483E-012  0.5930193E+02  0.7816164E-02  0.1266605E+00
        -11   -1    0    0    0    0  0.00000000000E+00  0.00000000000E+00  0.45593999997E+02  0.45594000000E+02  0.51100000000E-03 0. -1.
         11   -1    0    0    0    0 -0.00000000000E+00 -0.00000000000E+00 -0.45593999997E+02  0.45594000000E+02  0.51100000000E-03 0.  1.
    9900012    2    1    2    0    0 -0.48823072310E+01 -0.19925869848E+01 -0.31447006309E+02  0.59301928862E+02  0.49999972342E+02 0.  0.
         12    1    1    2    0    0  0.48823072310E+01  0.19925869848E+01  0.31447006309E+02  0.31886071138E+02  0.00000000000E+00 0. -1.
         11    1    3    3    0    0 -0.48102256578E+00 -0.90804605202E+01 -0.55915121124E+01  0.10674790580E+02  0.51100000000E-03 0. -1.
        -11    1    3    3    0    0 -0.10605252497E+02 -0.91855726568E+01 -0.27763311619E+02  0.31107034540E+02  0.51100000000E-03 0.  1.
         12    1    3    3    0    0  0.62039678313E+01  0.16273446192E+02  0.19078174223E+01  0.17520103742E+02  0.00000000000E+00 0. -1.
</event>
<event>
 7    1  0.5634483E-012  0.5930196E+02  0.7816164E-02  0.1266605E+00
        -11   -1    0    0    0    0  0.00000000000E+00  0.00000000000E+00  0.45593999997E+02  0.45594000000E+02  0.51100000000E-03 0.  1.
         11   -1    0    0    0    0 -0.00000000000E+00 -0.00000000000E+00 -0.45593999997E+02  0.45594000000E+02  0.51100000000E-03 0. -1.
    9900012    2    1    2    0    0  0.65158553644E+01 -0.57793878609E+00  0.31207834287E+02  0.59301963788E+02  0.50000036039E+02 0.  0.
         12    1    1    2    0    0 -0.65158553644E+01  0.57793878609E+00 -0.31207834287E+02  0.31886036212E+02  0.00000000000E+00 0. -1.
         11    1    3    3    0    0  0.16143952393E+01  0.12264970303E+02  0.10013459321E+02  0.15915562710E+02  0.51100000000E-03 0. -1.
        -11    1    3    3    0    0 -0.15350242508E+02 -0.59581190385E+01  0.94004702497E+01  0.18960431660E+02  0.51100000000E-03 0.  1.
         12    1    3    3    0    0  0.20251702634E+02 -0.68847900508E+01  0.11793904717E+02  0.24425969419E+02  0.00000000000E+00 0. -1.
</event>
<event>
 7    1  0.5634483E-012  0.5930200E+02  0.7816164E-02  0.1266605E+00
        -11   -1    0    0    0    0  0.00000000000E+00  0.00000000000E+00  0.45593999997E+02  0.45594000000E+02  0.51100000000E-03 0.  1.
         11   -1    0    0    0    0 -0.00000000000E+00 -0.00000000000E+00 -0.45593999997E+02  0.45594000000E+02  0.51100000000E-03 0. -1.
    9900012    2    1    2    0    0 -0.20890132680E+02 -0.23371376760E+02  0.58393402592E+01  0.59302003235E+02  0.50000107979E+02 0.  0.
         12    1    1    2    0    0  0.20890132680E+02  0.23371376760E+02 -0.58393402592E+01  0.31885996765E+02  0.00000000000E+00 0. -1.
         11    1    3    3    0    0  0.65292544053E+01  0.71858135060E+01  0.70576073591E+01  0.12003203769E+02  0.51100000000E-03 0. -1.
        -11    1    3    3    0    0 -0.30940883088E+01  0.30546096578E+01 -0.37350514866E+01  0.57318960644E+01  0.51100000000E-03 0.  1.
        -12    1    3    3    0    0 -0.24325298777E+02 -0.33611799924E+02  0.25167843867E+01  0.41566903401E+02  0.00000000000E+00 0.  1.
</event>
<event>
 7    1  0.5634483E-012  0.5930194E+02  0.7816164E-02  0.1266605E+00
        -11   -1    0    0    0    0  0.00000000000E+00  0.00000000000E+00  0.45593999997E+02  0.45594000000E+02  0.51100000000E-03 0. -1.
         11   -1    0    0    0    0 -0.00000000000E+00 -0.00000000000E+00 -0.45593999997E+02  0.45594000000E+02  0.51100000000E-03 0.  1.
    9900012    2    1    2    0    0  0.29227549321E+02  0.77320766123E+01 -0.10133403368E+02  0.59301944868E+02  0.50000001533E+02 0.  0.
         12    1    1    2    0    0 -0.29227549321E+02 -0.77320766123E+01  0.10133403368E+02  0.31886055132E+02  0.00000000000E+00 0. -1.
         11    1    3    3    0    0 -0.32691757578E+01 -0.19025259561E+01  0.20699435310E+00  0.37881343789E+01  0.51100000000E-03 0. -1.
        -11    1    3    3    0    0  0.69475755326E+01 -0.12004106933E+02 -0.16410740411E+02  0.21486735214E+02  0.51100000000E-03 0.  1.
        -12    1    3    3    0    0  0.25549149546E+02  0.21638709502E+02  0.60703426904E+01  0.34027075276E+02  0.00000000000E+00 0.  1.
</event>
<event>
 7    1  0.5634483E-012  0.5930190E+02  0.7816164E-02  0.1266605E+00
        -11   -1    0    0    0    0  0.00000000000E+00  0.00000000000E+00  0.45593999997E+02  0.45594000000E+02  0.51100000000E-03 0.  1.
         11   -1    0    0    0    0 -0.00000000000E+00 -0.00000000000E+00 -0.45593999997E+02  0.45594000000E+02  0.51100000000E-03 0. -1.
    9900012    2    1    2    0    0  0.20333196606E+02 -0.17921125204E+01  0.24496388360E+02  0.59301896535E+02  0.49999913385E+02 0.  0.
         12    1    1    2    0    0 -0.20333196606E+02  0.17921125204E+01 -0.24496388360E+02  0.31886103465E+02  0.00000000000E+00 0. -1.
         11    1    3    3    0    0  0.11559673678E+02  0.12422961093E+02  0.15233304760E+02  0.22803718820E+02  0.51100000000E-03 0. -1.
        -11    1    3    3    0    0  0.18799612526E+02 -0.18235266024E+01  0.79882055656E+01  0.20507610997E+02  0.51100000000E-03 0.  1.
         12    1    3    3    0    0 -0.10026089598E+02 -0.12391547011E+02  0.12748780342E+01  0.15990566718E+02  0.00000000000E+00 0. -1.
</event>
<event>
 7    1  0.5634483E-012  0.5930195E+02  0.7816164E-02  0.1266605E+00
        -11   -1    0    0    0    0  0.00000000000E+00  0.00000000000E+00  0.45593999997E+02  0.45594000000E+02  0.51100000000E-03 0.  1.
         11   -1    0    0    0    0 -0.00000000000E+00 -0.00000000000E+00 -0.45593999997E+02  0.45594000000E+02  0.51100000000E-03 0. -1.
    9900012    2    1    2    0    0 -0.27462643654E+02 -0.39981326341E+01  0.15701543022E+02  0.59301947966E+02  0.50000007183E+02 0.  0.
         12    1    1    2    0    0  0.27462643654E+02  0.39981326341E+01 -0.15701543022E+02  0.31886052034E+02  0.00000000000E+00 0. -1.
         11    1    3    3    0    0 -0.13328781951E+02  0.26765703733E+01 -0.88116187476E+01  0.16200774132E+02  0.51100000000E-03 0. -1.
        -11    1    3    3    0    0 -0.21134426615E+02  0.43948240697E+01  0.10797311135E+02  0.24136287928E+02  0.51100000000E-03 0.  1.
        -12    1    3    3    0    0  0.70005649119E+01 -0.11069527077E+02  0.13715850635E+02  0.18964885906E+02  0.00000000000E+00 0.  1.
</event>
<event>
 7    1  0.5634483E-012  0.5930203E+02  0.7816164E-02  0.1266604E+00
        -11   -1    0    0    0    0  0.00000000000E+00  0.00000000000E+00  0.45593999997E+02  0.45594000000E+02  0.51100000000E-03 0.  1.
         11   -1    0    0    0    0 -0.00000000000E+00 -0.00000000000E+00 -0.45593999997E+02  0.45594000000E+02  0.51100000000E-03 0. -1.
    9900012    2    1    2    0    0  0.18379731482E+02  0.19324364935E+02 -0.17477678676E+02  0.59302033472E+02  0.50000163124E+02 0.  0.
         12    1    1    2    0    0 -0.18379731482E+02 -0.19324364935E+02  0.17477678676E+02  0.31885966528E+02  0.00000000000E+00 0. -1.
         11    1    3    3    0    0  0.23425866938E+02 -0.71038730931E+01 -0.15761295018E+02  0.29114509709E+02  0.51100000000E-03 0. -1.
        -11    1    3    3    0    0  0.30662144049E+01  0.49163784677E+01 -0.40639876088E+01  0.70773189529E+01  0.51100000000E-03 0.  1.
        -12    1    3    3    0    0 -0.81123498602E+01  0.21511859561E+02  0.23476039507E+01  0.23110204809E+02  0.00000000000E+00 0.  1.
</event>
<event>
 7    1  0.5634483E-012  0.5930192E+02  0.7816164E-02  0.1266605E+00
        -11   -1    0    0    0    0  0.00000000000E+00  0.00000000000E+00  0.45593999997E+02  0.45594000000E+02  0.51100000000E-03 0. -1.
         11   -1    0    0    0    0 -0.00000000000E+00 -0.00000000000E+00 -0.45593999997E+02  0.45594000000E+02  0.51100000000E-03 0.  1.
    9900012    2    1    2    0    0  0.20434238144E+02 -0.24295524607E+02 -0.29818860968E+01  0.59301917626E+02  0.49999951850E+02 0.  0.
         12    1    1    2    0    0 -0.20434238144E+02  0.24295524607E+02  0.29818860968E+01  0.31886082374E+02  0.00000000000E+00 0. -1.
         11    1    3    3    0    0 -0.42824242257E+01  0.74262873530E+01 -0.23367530973E+00  0.85757510173E+01  0.51100000000E-03 0. -1.
        -11    1    3    3    0    0 -0.66518400846E+01 -0.11630138103E+02 -0.94278614361E+00  0.13431155377E+02  0.51100000000E-03 0.  1.
        -12    1    3    3    0    0  0.31368502454E+02 -0.20091673857E+02 -0.18054246434E+01  0.37295011231E+02  0.00000000000E+00 0.  1.
</event>
<event>
 7    1  0.5634483E-012  0.5930196E+02  0.7816164E-02  0.1266605E+00
        -11   -1    0    0    0    0  0.00000000000E+00  0.00000000000E+00  0.45593999997E+02  0.45594000000E+02  0.51100000000E-03 0.  1.
         11   -1    0    0    0    0 -0.00000000000E+00 -0.00000000000E+00 -0.45593999997E+02  0.45594000000E+02  0.51100000000E-03 0. -1.
    9900012    2    1    2    0    0  0.81270393895E+01 -0.20815217995E+02  0.22746370227E+02  0.59301961866E+02  0.50000032532E+02 0.  0.
         12    1    1    2    0    0 -0.81270393895E+01  0.20815217995E+02 -0.22746370227E+02  0.31886038134E+02  0.00000000000E+00 0. -1.
         11    1    3    3    0    0  0.13810323900E+02 -0.16769168329E+02 -0.75940278975E+00  0.21737220281E+02  0.51100000000E-03 0. -1.
        -11    1    3    3    0    0  0.98067522347E+01  0.14095556160E+01  0.13695080218E+01  0.10001739294E+02  0.51100000000E-03 0.  1.
        -12    1    3    3    0    0 -0.15490036745E+02 -0.54556052811E+01  0.22136264995E+02  0.27563002291E+02  0.00000000000E+00 0.  1.
</event>
<event>
 7    1  0.5634483E-012  0.5930197E+02  0.7816164E-02  0.1266605E+00
        -11   -1    0    0    0    0  0.00000000000E+00  0.00000000000E+00  0.45593999997E+02  0.45594000000E+02  0.51100000000E-03 0.  1.
         11   -1    0    0    0    0 -0.00000000000E+00 -0.00000000000E+00 -0.45593999997E+02  0.45594000000E+02  0.51100000000E-03 0. -1.
    9900012    2    1    2    0    0  0.92542391945E+01 -0.16484780572E+02  0.25677424003E+02  0.59301967995E+02  0.50000043711E+02 0.  0.
         12    1    1    2    0    0 -0.92542391945E+01  0.16484780572E+02 -0.25677424003E+02  0.31886032005E+02  0.00000000000E+00 0. -1.
         11    1    3    3    0    0  0.65236166989E+01 -0.33270606415E+01 -0.98894048097E+01  0.12305577398E+02  0.51100000000E-03 0. -1.
        -11    1    3    3    0    0 -0.11023278979E+02 -0.10660107749E+02  0.11512491225E+02  0.19175193119E+02  0.51100000000E-03 0.  1.
        -12    1    3    3    0    0  0.13753901474E+02 -0.24976121813E+01  0.24054337588E+02  0.27821197479E+02  0.00000000000E+00 0.  1.
</event>
<event>
 7    1  0.5634483E-012  0.5930195E+02  0.7816164E-02  0.1266605E+00
        -11   -1    0    0    0    0  0.00000000000E+00  0.00000000000E+00  0.45593999997E+02  0.45594000000E+02  0.51100000000E-03 0. -1.
         11   -1    0    0    0    0 -0.00000000000E+00 -0.00000000000E+00 -0.45593999997E+02  0.45594000000E+02  0.51100000000E-03 0.  1.
    9900012    2    1    2    0    0 -0.16958094240E+02  0.27002155086E+02  0.16440216862E+00  0.59301947130E+02  0.50000005658E+02 0.  0.
         12    1    1    2    0    0  0.16958094240E+02 -0.27002155086E+02 -0.16440216862E+00  0.31886052870E+02  0.00000000000E+00 0. -1.
         11    1    3    3    0    0 -0.81447667086E+01  0.17057280308E+01  0.14807389183E+02  0.16985449877E+02  0.51100000000E-03 0. -1.
        -11    1    3    3    0    0  0.81749199535E+00 -0.64510452509E+01 -0.29446872309E+01  0.71383094035E+01  0.51100000000E-03 0.  1.
        -12    1    3    3    0    0 -0.96308195269E+01  0.31747472306E+02 -0.11698299783E+02  0.35178187850E+02  0.00000000000E+00 0.  1.
</event>
<event>
 7    1  0.5634483E-012  0.5930193E+02  0.7816164E-02  0.1266605E+00
        -11   -1    0    0    0    0  0.00000000000E+00  0.00000000000E+00  0.45593999997E+02  0.45594000000E+02  0.51100000000E-03 0. -1.
         11   -1    0    0    0    0 -0.00000000000E+00 -0.00000000000E+00 -0.45593999997E+02  0.45594000000E+02  0.51100000000E-03 0.  1.
    9900012    2    1    2    0    0 -0.26035661735E+02 -0.82544067519E+01 -0.16453890073E+02  0.59301930764E+02  0.49999975809E+02 0.  0.
         12    1    1    2    0    0  0.26035661735E+02  0.82544067519E+01  0.16453890073E+02  0.31886069236E+02  0.00000000000E+00 0. -1.
         11    1    3    3    0    0 -0.13402109463E+02 -0.62750514153E+01  0.51582284186E+01  0.15671634535E+02  0.51100000000E-03 0. -1.
        -11    1    3    3    0    0 -0.20227396861E+02 -0.13088573576E+02 -0.10962903532E+02  0.26469673140E+02  0.51100000000E-03 0.  1.
         12    1    3    3    0    0  0.75938445886E+01  0.11109218240E+02 -0.10649214959E+02  0.17160623088E+02  0.00000000000E+00 0. -1.
</event>
<event>
 7    1  0.5913768E-012  0.5930196E+02  0.7816164E-02  0.1266605E+00
        -11   -1    0    0    0    0  0.00000000000E+00  0.00000000000E+00  0.45593999997E+02  0.45594000000E+02  0.51100000000E-03 0.  1.
         11   -1    0    0    0    0 -0.00000000000E+00 -0.00000000000E+00 -0.45593999997E+02  0.45594000000E+02  0.51100000000E-03 0. -1.
    9900012    2    1    2    0    0 -0.35948198614E+01  0.30877395404E+02  0.70981376655E+01  0.59301955481E+02  0.50000020888E+02 0.  0.
         12    1    1    2    0    0  0.35948198614E+01 -0.30877395404E+02 -0.70981376655E+01  0.31886044519E+02  0.00000000000E+00 0. -1.
         11    1    3    3    0    0 -0.45479795483E+01 -0.37889025755E+01 -0.78421486642E+01  0.98254362056E+01  0.51100000000E-03 0. -1.
        -11    1    3    3    0    0  0.87612816837E+01  0.34299819341E+02  0.34353885144E+01  0.35567394592E+02  0.51100000000E-03 0.  1.
         12    1    3    3    0    0 -0.78081219969E+01  0.36647863832E+00  0.11504897815E+02  0.13909124683E+02  0.00000000000E+00 0. -1.
</event>
<event>
 7    1  0.5634483E-012  0.5930198E+02  0.7816164E-02  0.1266605E+00
        -11   -1    0    0    0    0  0.00000000000E+00  0.00000000000E+00  0.45593999997E+02  0.45594000000E+02  0.51100000000E-03 0.  1.
         11   -1    0    0    0    0 -0.00000000000E+00 -0.00000000000E+00 -0.45593999997E+02  0.45594000000E+02  0.51100000000E-03 0. -1.
    9900012    2    1    2    0    0  0.24882779473E+01 -0.31531912926E+01  0.31632015590E+02  0.59301975589E+02  0.50000057560E+02 0.  0.
         12    1    1    2    0    0 -0.24882779473E+01  0.31531912926E+01 -0.31632015590E+02  0.31886024411E+02  0.00000000000E+00 0. -1.
         11    1    3    3    0    0  0.55317215739E+01  0.18824349121E+02  0.23284143687E+02  0.30448438563E+02  0.51100000000E-03 0.  1.
        -11    1    3    3    0    0 -0.77091064571E+01 -0.81377717418E+01  0.87851659140E+01  0.14241937778E+02  0.51100000000E-03 0. -1.
        -12    1    3    3    0    0  0.46656628305E+01 -0.13839768672E+02 -0.43729401132E+00  0.14611599248E+02  0.00000000000E+00 0.  1.
</event>
<event>
 7    1  0.5634483E-012  0.5930196E+02  0.7816164E-02  0.1266605E+00
        -11   -1    0    0    0    0  0.00000000000E+00  0.00000000000E+00  0.45593999997E+02  0.45594000000E+02  0.51100000000E-03 0.  1.
         11   -1    0    0    0    0 -0.00000000000E+00 -0.00000000000E+00 -0.45593999997E+02  0.45594000000E+02  0.51100000000E-03 0. -1.
    9900012    2    1    2    0    0  0.25438704191E+02 -0.15525585467E+02  0.11337916311E+02  0.59301955697E+02  0.50000021283E+02 0.  0.
         12    1    1    2    0    0 -0.25438704191E+02  0.15525585467E+02 -0.11337916311E+02  0.31886044303E+02  0.00000000000E+00 0. -1.
         11    1    3    3    0    0 -0.16256696210E+01 -0.12060585550E+02  0.17232871320E+02  0.21096738604E+02  0.51100000000E-03 0. -1.
        -11    1    3    3    0    0  0.10350612130E+02 -0.13298276228E+02 -0.80837045524E+01  0.18690254189E+02  0.51100000000E-03 0.  1.
         12    1    3    3    0    0  0.16713761682E+02  0.98332763116E+01  0.21887495428E+01  0.19514962904E+02  0.00000000000E+00 0. -1.
</event>
<event>
 7    1  0.5634483E-012  0.5930195E+02  0.7816164E-02  0.1266605E+00
        -11   -1    0    0    0    0  0.00000000000E+00  0.00000000000E+00  0.45593999997E+02  0.45594000000E+02  0.51100000000E-03 0. -1.
         11   -1    0    0    0    0 -0.00000000000E+00 -0.00000000000E+00 -0.45593999997E+02  0.45594000000E+02  0.51100000000E-03 0.  1.
    9900012    2    1    2    0    0 -0.74882146590E+01  0.14093096101E+02 -0.27604921137E+02  0.59301946819E+02  0.50000005090E+02 0.  0.
         12    1    1    2    0    0  0.74882146590E+01 -0.14093096101E+02  0.27604921137E+02  0.31886053181E+02  0.00000000000E+00 0. -1.
         11    1    3    3    0    0 -0.20126676755E+02  0.20120931103E+02 -0.26168723622E+02  0.38661829779E+02  0.51100000000E-03 0.  1.
        -11    1    3    3    0    0  0.37039961763E+01 -0.86115370572E+01 -0.50668509884E+01  0.10656037601E+02  0.51100000000E-03 0. -1.
        -12    1    3    3    0    0  0.89344659198E+01  0.25837020560E+01  0.36306534731E+01  0.99840794382E+01  0.00000000000E+00 0.  1.
</event>
<event>
 7    1  0.5634483E-012  0.5930192E+02  0.7816164E-02  0.1266605E+00
        -11   -1    0    0    0    0  0.00000000000E+00  0.00000000000E+00  0.45593999997E+02  0.45594000000E+02  0.51100000000E-03 0.  1.
         11   -1    0    0    0    0 -0.00000000000E+00 -0.00000000000E+00 -0.45593999997E+02  0.45594000000E+02  0.51100000000E-03 0. -1.
    9900012    2    1    2    0    0 -0.20411761937E+02 -0.22227575764E+02  0.10296451394E+02  0.59301920576E+02  0.49999957230E+02 0.  0.
         12    1    1    2    0    0  0.20411761937E+02  0.22227575764E+02 -0.10296451394E+02  0.31886079424E+02  0.00000000000E+00 0. -1.
         11    1    3    3    0    0 -0.18435533982E+02 -0.20030565216E+02 -0.15995602712E+01  0.27269966069E+02  0.51100000000E-03 0. -1.
        -11    1    3    3    0    0 -0.74252477376E+01 -0.14492870372E+02  0.68759435474E+01  0.17676430508E+02  0.51100000000E-03 0.  1.
         12    1    3    3    0    0  0.54490197822E+01  0.12295859824E+02  0.50200681180E+01  0.14355524000E+02  0.00000000000E+00 0. -1.
</event>
<event>
 7    1  0.5634483E-012  0.5930195E+02  0.7816164E-02  0.1266605E+00
        -11   -1    0    0    0    0  0.00000000000E+00  0.00000000000E+00  0.45593999997E+02  0.45594000000E+02  0.51100000000E-03 0.  1.
         11   -1    0    0    0    0 -0.00000000000E+00 -0.00000000000E+00 -0.45593999997E+02  0.45594000000E+02  0.51100000000E-03 0. -1.
    9900012    2    1    2    0    0  0.11945320767E+02  0.11831992857E+02  0.27093049439E+02  0.59301951780E+02  0.50000014139E+02 0.  0.
         12    1    1    2    0    0 -0.11945320767E+02 -0.11831992857E+02 -0.27093049439E+02  0.31886048220E+02  0.00000000000E+00 0. -1.
         11    1    3    3    0    0 -0.18769253907E+01 -0.14464734081E+01  0.32537318130E+01  0.40251590298E+01  0.51100000000E-03 0. -1.
        -11    1    3    3    0    0 -0.72935342873E+01  0.22361644336E+02  0.22017562864E+02  0.32218191360E+02  0.51100000000E-03 0.  1.
         12    1    3    3    0    0  0.21115780445E+02 -0.90831780709E+01  0.18217547612E+01  0.23058601390E+02  0.00000000000E+00 0. -1.
</event>
<event>
 7    1  0.5634483E-012  0.5930197E+02  0.7816164E-02  0.1266605E+00
        -11   -1    0    0    0    0  0.00000000000E+00  0.00000000000E+00  0.45593999997E+02  0.45594000000E+02  0.51100000000E-03 0. -1.
         11   -1    0    0    0    0 -0.00000000000E+00 -0.00000000000E+00 -0.45593999997E+02  0.45594000000E+02  0.51100000000E-03 0.  1.
    9900012    2    1    2    0    0  0.21618089171E+02  0.21160844881E+02  0.10079458904E+02  0.59301974419E+02  0.50000055427E+02 0.  0.
         12    1    1    2    0    0 -0.21618089171E+02 -0.21160844881E+02 -0.10079458904E+02  0.31886025581E+02  0.00000000000E+00 0. -1.
         11    1    3    3    0    0  0.26987334297E+02  0.19659230387E+02  0.68150676597E+01  0.34077069993E+02  0.51100000000E-03 0. -1.
        -11    1    3    3    0    0  0.74936144167E+01 -0.59679772146E+01 -0.12962776091E+01  0.96670235834E+01  0.51100000000E-03 0.  1.
         12    1    3    3    0    0 -0.12862859543E+02  0.74695917095E+01  0.45606688538E+01  0.15557880843E+02  0.00000000000E+00 0. -1.
</event>
<event>
 7    1  0.5634483E-012  0.5930198E+02  0.7816164E-02  0.1266605E+00
        -11   -1    0    0    0    0  0.00000000000E+00  0.00000000000E+00  0.45593999997E+02  0.45594000000E+02  0.51100000000E-03 0.  1.
         11   -1    0    0    0    0 -0.00000000000E+00 -0.00000000000E+00 -0.45593999997E+02  0.45594000000E+02  0.51100000000E-03 0. -1.
    9900012    2    1    2    0    0  0.68877002058E+01 -0.13170901689E+02  0.28210023219E+02  0.59301976801E+02  0.50000059770E+02 0.  0.
         12    1    1    2    0    0 -0.68877002058E+01  0.13170901689E+02 -0.28210023219E+02  0.31886023199E+02  0.00000000000E+00 0. -1.
         11    1    3    3    0    0 -0.25056727180E+01 -0.76153763574E+00 -0.45370396802E+01  0.52386128566E+01  0.51100000000E-03 0. -1.
        -11    1    3    3    0    0  0.86564573539E+01  0.11280215588E+02  0.25641652163E+02  0.29320161042E+02  0.51100000000E-03 0.  1.
        -12    1    3    3    0    0  0.73691556992E+00 -0.23689579641E+02  0.71054107362E+01  0.24743202902E+02  0.00000000000E+00 0.  1.
</event>
<event>
 7    1  0.5634483E-012  0.5930193E+02  0.7816164E-02  0.1266605E+00
        -11   -1    0    0    0    0  0.00000000000E+00  0.00000000000E+00  0.45593999997E+02  0.45594000000E+02  0.51100000000E-03 0.  1.
         11   -1    0    0    0    0 -0.00000000000E+00 -0.00000000000E+00 -0.45593999997E+02  0.45594000000E+02  0.51100000000E-03 0. -1.
    9900012    2    1    2    0    0 -0.22019095959E+02 -0.22773663184E+02  0.36388028340E+01  0.59301933957E+02  0.49999981633E+02 0.  0.
         12    1    1    2    0    0  0.22019095959E+02  0.22773663184E+02 -0.36388028340E+01  0.31886066043E+02  0.00000000000E+00 0. -1.
         11    1    3    3    0    0  0.24124228405E+01  0.89160546226E+01  0.44019639212E+01  0.10231964651E+02  0.51100000000E-03 0. -1.
        -11    1    3    3    0    0 -0.58823432672E+01 -0.18370635401E+02  0.12187995825E+02  0.22817305929E+02  0.51100000000E-03 0.  1.
        -12    1    3    3    0    0 -0.18549175532E+02 -0.13319082405E+02 -0.12951156912E+02  0.26252663377E+02  0.00000000000E+00 0.  1.
</event>
<event>
 7    1  0.5634483E-012  0.5930193E+02  0.7816164E-02  0.1266605E+00
        -11   -1    0    0    0    0  0.00000000000E+00  0.00000000000E+00  0.45593999997E+02  0.45594000000E+02  0.51100000000E-03 0. -1.
         11   -1    0    0    0    0 -0.00000000000E+00 -0.00000000000E+00 -0.45593999997E+02  0.45594000000E+02  0.51100000000E-03 0.  1.
    9900012    2    1    2    0    0 -0.24927582025E+02  0.17794974832E+02  0.88699531465E+01  0.59301928688E+02  0.49999972025E+02 0.  0.
         12    1    1    2    0    0  0.24927582025E+02 -0.17794974832E+02 -0.88699531465E+01  0.31886071312E+02  0.00000000000E+00 0. -1.
         11    1    3    3    0    0 -0.11170040080E+02  0.78464814886E+01 -0.10435221444E+02  0.17182284888E+02  0.51100000000E-03 0. -1.
        -11    1    3    3    0    0 -0.87257149453E+00  0.13571211518E+02 -0.49043377398E+01  0.14456544954E+02  0.51100000000E-03 0.  1.
         12    1    3    3    0    0 -0.12884970450E+02 -0.36227181751E+01  0.24209512330E+02  0.27663098846E+02  0.00000000000E+00 0. -1.
</event>
<event>
 7    1  0.5634483E-012  0.5930195E+02  0.7816164E-02  0.1266605E+00
        -11   -1    0    0    0    0  0.00000000000E+00  0.00000000000E+00  0.45593999997E+02  0.45594000000E+02  0.51100000000E-03 0. -1.
         11   -1    0    0    0    0 -0.00000000000E+00 -0.00000000000E+00 -0.45593999997E+02  0.45594000000E+02  0.51100000000E-03 0.  1.
    9900012    2    1    2    0    0 -0.10347140560E+02  0.22016627363E+02 -0.20613713021E+02  0.59301947207E+02  0.50000005798E+02 0.  0.
         12    1    1    2    0    0  0.10347140560E+02 -0.22016627363E+02  0.20613713021E+02  0.31886052793E+02  0.00000000000E+00 0. -1.
         11    1    3    3    0    0  0.11787477808E+02 -0.43624640193E+00 -0.90836252117E+01  0.14887820231E+02  0.51100000000E-03 0. -1.
        -11    1    3    3    0    0  0.58511604813E+00  0.10519669519E+02 -0.15195437120E+02  0.18490730572E+02  0.51100000000E-03 0.  1.
        -12    1    3    3    0    0 -0.22719734416E+02  0.11933204246E+02  0.36653493104E+01  0.25923396403E+02  0.00000000000E+00 0.  1.
</event>
<event>
 7    1  0.5634483E-012  0.5930193E+02  0.7816164E-02  0.1266605E+00
        -11   -1    0    0    0    0  0.00000000000E+00  0.00000000000E+00  0.45593999997E+02  0.45594000000E+02  0.51100000000E-03 0. -1.
         11   -1    0    0    0    0 -0.00000000000E+00 -0.00000000000E+00 -0.45593999997E+02  0.45594000000E+02  0.51100000000E-03 0.  1.
    9900012    2    1    2    0    0  0.12872419031E+01  0.19420263457E+00 -0.31859484909E+02  0.59301929608E+02  0.49999973701E+02 0.  0.
         12    1    1    2    0    0 -0.12872419031E+01 -0.19420263457E+00  0.31859484909E+02  0.31886070392E+02  0.00000000000E+00 0. -1.
         11    1    3    3    0    0  0.12733724227E+02  0.12297157215E+02 -0.11727581485E+02  0.21234499665E+02  0.51100000000E-03 0. -1.
        -11    1    3    3    0    0 -0.11451334977E+01 -0.14892772548E+02  0.38394485033E+00  0.14941667202E+02  0.51100000000E-03 0.  1.
        -12    1    3    3    0    0 -0.10301348826E+02  0.27898179669E+01 -0.20515848274E+02  0.23125762741E+02  0.00000000000E+00 0.  1.
</event>
<event>
 7    1  0.5634483E-012  0.5930193E+02  0.7816164E-02  0.1266605E+00
        -11   -1    0    0    0    0  0.00000000000E+00  0.00000000000E+00  0.45593999997E+02  0.45594000000E+02  0.51100000000E-03 0.  1.
         11   -1    0    0    0    0 -0.00000000000E+00 -0.00000000000E+00 -0.45593999997E+02  0.45594000000E+02  0.51100000000E-03 0. -1.
    9900012    2    1    2    0    0  0.66127380978E+01 -0.28109371942E+02  0.13522429248E+02  0.59301934252E+02  0.49999982171E+02 0.  0.
         12    1    1    2    0    0 -0.66127380978E+01  0.28109371942E+02 -0.13522429248E+02  0.31886065748E+02  0.00000000000E+00 0. -1.
         11    1    3    3    0    0 -0.11448924101E+02 -0.93646183075E+01  0.26169847277E+01  0.15020737280E+02  0.51100000000E-03 0. -1.
        -11    1    3    3    0    0  0.83629536748E+01  0.60232375237E+01  0.14127791611E+02  0.17487506412E+02  0.51100000000E-03 0.  1.
        -12    1    3    3    0    0  0.96987085237E+01 -0.24767991158E+02 -0.32223470909E+01  0.26793690560E+02  0.00000000000E+00 0.  1.
</event>
<event>
 7    1  0.5634483E-012  0.5930195E+02  0.7816164E-02  0.1266605E+00
        -11   -1    0    0    0    0  0.00000000000E+00  0.00000000000E+00  0.45593999997E+02  0.45594000000E+02  0.51100000000E-03 0.  1.
         11   -1    0    0    0    0 -0.00000000000E+00 -0.00000000000E+00 -0.45593999997E+02  0.45594000000E+02  0.51100000000E-03 0. -1.
    9900012    2    1    2    0    0 -0.32051515517E+01  0.17652693263E+02  0.26359622147E+02  0.59301948886E+02  0.50000008860E+02 0.  0.
         12    1    1    2    0    0  0.32051515517E+01 -0.17652693263E+02 -0.26359622147E+02  0.31886051114E+02  0.00000000000E+00 0. -1.
         11    1    3    3    0    0  0.45673841072E+01 -0.22457569242E+00  0.82710428300E+01  0.94510095535E+01  0.51100000000E-03 0.  1.
        -11    1    3    3    0    0 -0.56589538642E+01 -0.13655373857E+02  0.70352882271E+01  0.16370347422E+02  0.51100000000E-03 0. -1.
         12    1    3    3    0    0 -0.21135817948E+01  0.31532642813E+02  0.11053291090E+02  0.33480591910E+02  0.00000000000E+00 0. -1.
</event>
<event>
 7    1  0.5634483E-012  0.5930198E+02  0.7816164E-02  0.1266605E+00
        -11   -1    0    0    0    0  0.00000000000E+00  0.00000000000E+00  0.45593999997E+02  0.45594000000E+02  0.51100000000E-03 0.  1.
         11   -1    0    0    0    0 -0.00000000000E+00 -0.00000000000E+00 -0.45593999997E+02  0.45594000000E+02  0.51100000000E-03 0. -1.
    9900012    2    1    2    0    0  0.66686767294E+01  0.84576933302E+01  0.30011902967E+02  0.59301981975E+02  0.50000069206E+02 0.  0.
         12    1    1    2    0    0 -0.66686767294E+01 -0.84576933302E+01 -0.30011902967E+02  0.31886018025E+02  0.00000000000E+00 0. -1.
         11    1    3    3    0    0  0.53377903730E+00 -0.68501740624E+01  0.21877759565E+02  0.22931335953E+02  0.51100000000E-03 0. -1.
        -11    1    3    3    0    0 -0.10682116250E+02  0.65785086301E+00  0.90976087339E+01  0.14046596038E+02  0.51100000000E-03 0.  1.
         12    1    3    3    0    0  0.16817013942E+02  0.14650016530E+02 -0.96346533105E+00  0.22324049984E+02  0.00000000000E+00 0. -1.
</event>
<event>
 7    1  0.5634483E-012  0.5930202E+02  0.7816164E-02  0.1266605E+00
        -11   -1    0    0    0    0  0.00000000000E+00  0.00000000000E+00  0.45593999997E+02  0.45594000000E+02  0.51100000000E-03 0.  1.
         11   -1    0    0    0    0 -0.00000000000E+00 -0.00000000000E+00 -0.45593999997E+02  0.45594000000E+02  0.51100000000E-03 0. -1.
    9900012    2    1    2    0    0  0.28036513416E+02 -0.51985448342E+01  0.14270426121E+02  0.59302015389E+02  0.50000130146E+02 0.  0.
         12    1    1    2    0    0 -0.28036513416E+02  0.51985448342E+01 -0.14270426121E+02  0.31885984611E+02  0.00000000000E+00 0. -1.
         11    1    3    3    0    0 -0.50034908534E+01 -0.49075980790E+01  0.18132894897E+01  0.72392995974E+01  0.51100000000E-03 0. -1.
        -11    1    3    3    0    0  0.16879032916E+02  0.85878422792E+01 -0.11250893682E+02  0.22028059291E+02  0.51100000000E-03 0.  1.
         12    1    3    3    0    0  0.16160971353E+02 -0.88787890344E+01  0.23708030313E+02  0.30034656501E+02  0.00000000000E+00 0. -1.
</event>
<event>
 7    1  0.5634483E-012  0.5930197E+02  0.7816164E-02  0.1266605E+00
        -11   -1    0    0    0    0  0.00000000000E+00  0.00000000000E+00  0.45593999997E+02  0.45594000000E+02  0.51100000000E-03 0. -1.
         11   -1    0    0    0    0 -0.00000000000E+00 -0.00000000000E+00 -0.45593999997E+02  0.45594000000E+02  0.51100000000E-03 0.  1.
    9900012    2    1    2    0    0  0.12478737408E+02  0.11212950978E+02 -0.27115862483E+02  0.59301966143E+02  0.50000040333E+02 0.  0.
         12    1    1    2    0    0 -0.12478737408E+02 -0.11212950978E+02  0.27115862483E+02  0.31886033857E+02  0.00000000000E+00 0. -1.
         11    1    3    3    0    0 -0.56463477863E+01 -0.27528588861E+01 -0.12500278442E+02  0.13989869076E+02  0.51100000000E-03 0.  1.
        -11    1    3    3    0    0 -0.68690014728E+01 -0.35350663489E+01  0.48482287164E+01  0.91205919365E+01  0.51100000000E-03 0. -1.
        -12    1    3    3    0    0  0.24994086667E+02  0.17500876213E+02 -0.19463812757E+02  0.36191505130E+02  0.00000000000E+00 0.  1.
</event>
<event>
 7    1  0.5634483E-012  0.5930192E+02  0.7816164E-02  0.1266605E+00
        -11   -1    0    0    0    0  0.00000000000E+00  0.00000000000E+00  0.45593999997E+02  0.45594000000E+02  0.51100000000E-03 0. -1.
         11   -1    0    0    0    0 -0.00000000000E+00 -0.00000000000E+00 -0.45593999997E+02  0.45594000000E+02  0.51100000000E-03 0.  1.
    9900012    2    1    2    0    0  0.12435024705E+02 -0.22052655383E+01 -0.29278479544E+02  0.59301915262E+02  0.49999947538E+02 0.  0.
         12    1    1    2    0    0 -0.12435024705E+02  0.22052655383E+01  0.29278479544E+02  0.31886084738E+02  0.00000000000E+00 0. -1.
         11    1    3    3    0    0  0.21145816991E+01 -0.14712338658E+02  0.43574882965E+01  0.15489095167E+02  0.51100000000E-03 0. -1.
        -11    1    3    3    0    0  0.28668774562E+01 -0.24961522120E+01 -0.24377278476E+02  0.24671876061E+02  0.51100000000E-03 0.  1.
        -12    1    3    3    0    0  0.74535655500E+01  0.15003225332E+02 -0.92586893642E+01  0.19140944034E+02  0.00000000000E+00 0.  1.
</event>
<event>
 7    1  0.5634483E-012  0.5930193E+02  0.7816164E-02  0.1266605E+00
        -11   -1    0    0    0    0  0.00000000000E+00  0.00000000000E+00  0.45593999997E+02  0.45594000000E+02  0.51100000000E-03 0. -1.
         11   -1    0    0    0    0 -0.00000000000E+00 -0.00000000000E+00 -0.45593999997E+02  0.45594000000E+02  0.51100000000E-03 0.  1.
    9900012    2    1    2    0    0  0.31633786116E+02 -0.32957225258E+01 -0.22722244234E+01  0.59301933845E+02  0.49999981429E+02 0.  0.
         12    1    1    2    0    0 -0.31633786116E+02  0.32957225258E+01  0.22722244234E+01  0.31886066155E+02  0.00000000000E+00 0. -1.
         11    1    3    3    0    0 -0.23644077083E+00 -0.42812011147E+01  0.12560382936E+01  0.44679099900E+01  0.51100000000E-03 0. -1.
        -11    1    3    3    0    0  0.17058981260E+02 -0.18105678514E+02 -0.13948631611E+02  0.28519971251E+02  0.51100000000E-03 0.  1.
        -12    1    3    3    0    0  0.14811245627E+02  0.19091157103E+02  0.10420368894E+02  0.26314052604E+02  0.00000000000E+00 0.  1.
</event>
<event>
 7    1  0.5634483E-012  0.5930195E+02  0.7816164E-02  0.1266605E+00
        -11   -1    0    0    0    0  0.00000000000E+00  0.00000000000E+00  0.45593999997E+02  0.45594000000E+02  0.51100000000E-03 0.  1.
         11   -1    0    0    0    0 -0.00000000000E+00 -0.00000000000E+00 -0.45593999997E+02  0.45594000000E+02  0.51100000000E-03 0. -1.
    9900012    2    1    2    0    0 -0.17083622378E+02 -0.18510606669E+01  0.26859702189E+02  0.59301950060E+02  0.50000011001E+02 0.  0.
         12    1    1    2    0    0  0.17083622378E+02  0.18510606669E+01 -0.26859702189E+02  0.31886049940E+02  0.00000000000E+00 0. -1.
         11    1    3    3    0    0 -0.40771952695E+01 -0.69910335350E+01  0.24523123444E+01  0.84564713237E+01  0.51100000000E-03 0. -1.
        -11    1    3    3    0    0  0.15583670454E+02  0.19135932796E+00  0.88632365210E+01  0.17928869599E+02  0.51100000000E-03 0.  1.
        -12    1    3    3    0    0 -0.28590097562E+02  0.49486135402E+01  0.15544153323E+02  0.32916609137E+02  0.00000000000E+00 0.  1.
</event>
<event>
 7    1  0.5634483E-012  0.5930195E+02  0.7816164E-02  0.1266605E+00
        -11   -1    0    0    0    0  0.00000000000E+00  0.00000000000E+00  0.45593999997E+02  0.45594000000E+02  0.51100000000E-03 0.  1.
         11   -1    0    0    0    0 -0.00000000000E+00 -0.00000000000E+00 -0.45593999997E+02  0.45594000000E+02  0.51100000000E-03 0. -1.
    9900012    2    1    2    0    0 -0.19888443269E+02 -0.65013209529E+01  0.24060403064E+02  0.59301947479E+02  0.50000006293E+02 0.  0.
         12    1    1    2    0    0  0.19888443269E+02  0.65013209529E+01 -0.24060403064E+02  0.31886052521E+02  0.00000000000E+00 0. -1.
         11    1    3    3    0    0  0.21287987547E-01  0.10998547297E+02  0.48796830590E+01  0.12032447916E+02  0.51100000000E-03 0. -1.
        -11    1    3    3    0    0 -0.11414192216E+02  0.63364003176E+01  0.17602531180E+02  0.21915356651E+02  0.51100000000E-03 0.  1.
        -12    1    3    3    0    0 -0.84955390410E+01 -0.23836268568E+02  0.15781888251E+01  0.25354142912E+02  0.00000000000E+00 0.  1.
</event>
<event>
 7    1  0.5634483E-012  0.5930195E+02  0.7816164E-02  0.1266605E+00
        -11   -1    0    0    0    0  0.00000000000E+00  0.00000000000E+00  0.45593999997E+02  0.45594000000E+02  0.51100000000E-03 0. -1.
         11   -1    0    0    0    0 -0.00000000000E+00 -0.00000000000E+00 -0.45593999997E+02  0.45594000000E+02  0.51100000000E-03 0.  1.
    9900012    2    1    2    0    0  0.27749012934E+02 -0.89333685613E+01  0.12919257949E+02  0.59301952603E+02  0.50000015638E+02 0.  0.
         12    1    1    2    0    0 -0.27749012934E+02  0.89333685613E+01 -0.12919257949E+02  0.31886047397E+02  0.00000000000E+00 0. -1.
         11    1    3    3    0    0 -0.61810105494E+01 -0.31294481497E+01 -0.49432080985E+01  0.85107957148E+01  0.51100000000E-03 0. -1.
        -11    1    3    3    0    0  0.10704218843E+02 -0.18095928069E+02  0.53969867481E+01  0.21706459406E+02  0.51100000000E-03 0.  1.
        -12    1    3    3    0    0  0.23225804641E+02  0.12292007657E+02  0.12465479299E+02  0.29084697482E+02  0.00000000000E+00 0.  1.
</event>
<event>
 7    1  0.5634483E-012  0.5930196E+02  0.7816164E-02  0.1266605E+00
        -11   -1    0    0    0    0  0.00000000000E+00  0.00000000000E+00  0.45593999997E+02  0.45594000000E+02  0.51100000000E-03 0.  1.
         11   -1    0    0    0    0 -0.00000000000E+00 -0.00000000000E+00 -0.45593999997E+02  0.45594000000E+02  0.51100000000E-03 0. -1.
    9900012    2    1    2    0    0 -0.20263240579E+02 -0.10336212147E+01  0.24597808126E+02  0.59301961422E+02  0.50000031723E+02 0.  0.
         12    1    1    2    0    0  0.20263240579E+02  0.10336212147E+01 -0.24597808126E+02  0.31886038578E+02  0.00000000000E+00 0. -1.
         11    1    3    3    0    0  0.13459349520E+02 -0.88822584108E+01  0.17243731131E+01  0.16217955077E+02  0.51100000000E-03 0. -1.
        -11    1    3    3    0    0 -0.52516865984E+01 -0.14031826155E+01  0.44132783468E-01  0.54360906490E+01  0.51100000000E-03 0.  1.
        -12    1    3    3    0    0 -0.28470903501E+02  0.92518198117E+01  0.22829302229E+02  0.37647915696E+02  0.00000000000E+00 0.  1.
</event>
<event>
 7    1  0.5634483E-012  0.5930198E+02  0.7816164E-02  0.1266605E+00
        -11   -1    0    0    0    0  0.00000000000E+00  0.00000000000E+00  0.45593999997E+02  0.45594000000E+02  0.51100000000E-03 0. -1.
         11   -1    0    0    0    0 -0.00000000000E+00 -0.00000000000E+00 -0.45593999997E+02  0.45594000000E+02  0.51100000000E-03 0.  1.
    9900012    2    1    2    0    0 -0.13000771069E+02 -0.28964663794E+02  0.29574626158E+01  0.59301978263E+02  0.50000062436E+02 0.  0.
         12    1    1    2    0    0  0.13000771069E+02  0.28964663794E+02 -0.29574626158E+01  0.31886021737E+02  0.00000000000E+00 0. -1.
         11    1    3    3    0    0  0.74914415951E+01  0.63089526421E+01 -0.50998364472E+01  0.11042323699E+02  0.51100000000E-03 0. -1.
        -11    1    3    3    0    0 -0.44978386250E+01 -0.15442274876E+01 -0.66177301042E+01  0.81492050424E+01  0.51100000000E-03 0.  1.
        -12    1    3    3    0    0 -0.15994374039E+02 -0.33729388949E+02  0.14675029167E+02  0.40110449522E+02  0.00000000000E+00 0.  1.
</event>
<event>
 7    1  0.5634483E-012  0.5930195E+02  0.7816164E-02  0.1266605E+00
        -11   -1    0    0    0    0  0.00000000000E+00  0.00000000000E+00  0.45593999997E+02  0.45594000000E+02  0.51100000000E-03 0. -1.
         11   -1    0    0    0    0 -0.00000000000E+00 -0.00000000000E+00 -0.45593999997E+02  0.45594000000E+02  0.51100000000E-03 0.  1.
    9900012    2    1    2    0    0  0.28141644178E+02 -0.10917423878E+02  0.10275119494E+02  0.59301947221E+02  0.50000005825E+02 0.  0.
         12    1    1    2    0    0 -0.28141644178E+02  0.10917423878E+02 -0.10275119494E+02  0.31886052779E+02  0.00000000000E+00 0. -1.
         11    1    3    3    0    0 -0.70581579599E+01 -0.29942806290E+01  0.39149467965E+00  0.76770162575E+01  0.51100000000E-03 0. -1.
        -11    1    3    3    0    0  0.10302967084E+02 -0.18584948617E+02 -0.32974389998E+01  0.21504058920E+02  0.51100000000E-03 0.  1.
        -12    1    3    3    0    0  0.24896835054E+02  0.10661805368E+02  0.13181063814E+02  0.30120872044E+02  0.00000000000E+00 0.  1.
</event>
<event>
 7    1  0.5634483E-012  0.5930193E+02  0.7816164E-02  0.1266605E+00
        -11   -1    0    0    0    0  0.00000000000E+00  0.00000000000E+00  0.45593999997E+02  0.45594000000E+02  0.51100000000E-03 0. -1.
         11   -1    0    0    0    0 -0.00000000000E+00 -0.00000000000E+00 -0.45593999997E+02  0.45594000000E+02  0.51100000000E-03 0.  1.
    9900012    2    1    2    0    0  0.12589948791E+02 -0.13969188113E+02 -0.25750270934E+02  0.59301929683E+02  0.49999973838E+02 0.  0.
         12    1    1    2    0    0 -0.12589948791E+02  0.13969188113E+02  0.25750270934E+02  0.31886070317E+02  0.00000000000E+00 0. -1.
         11    1    3    3    0    0  0.21919329972E+02 -0.23789538899E+02 -0.15187424349E+02  0.35735934940E+02  0.51100000000E-03 0. -1.
        -11    1    3    3    0    0  0.65245344179E-01 -0.36759072030E+01 -0.50006085347E+01  0.62066606721E+01  0.51100000000E-03 0.  1.
         12    1    3    3    0    0 -0.93946265251E+01  0.13496257989E+02 -0.55622380506E+01  0.17359334070E+02  0.00000000000E+00 0. -1.
</event>
<event>
 7    1  0.5634483E-012  0.5930194E+02  0.7816164E-02  0.1266605E+00
        -11   -1    0    0    0    0  0.00000000000E+00  0.00000000000E+00  0.45593999997E+02  0.45594000000E+02  0.51100000000E-03 0.  1.
         11   -1    0    0    0    0 -0.00000000000E+00 -0.00000000000E+00 -0.45593999997E+02  0.45594000000E+02  0.51100000000E-03 0. -1.
    9900012    2    1    2    0    0  0.27743256718E+02  0.13147049355E+02 -0.86132400535E+01  0.59301935578E+02  0.49999984590E+02 0.  0.
         12    1    1    2    0    0 -0.27743256718E+02 -0.13147049355E+02  0.86132400535E+01  0.31886064422E+02  0.00000000000E+00 0. -1.
         11    1    3    3    0    0 -0.32226606344E+01  0.29404418646E+01 -0.12857953686E+02  0.13577875871E+02  0.51100000000E-03 0. -1.
        -11    1    3    3    0    0  0.88572478966E+01  0.19276867847E+02 -0.10773080805E+01  0.21241682307E+02  0.51100000000E-03 0.  1.
        -12    1    3    3    0    0  0.22108669456E+02 -0.90702603562E+01  0.53220217128E+01  0.24482377400E+02  0.00000000000E+00 0.  1.
</event>
<event>
 7    1  0.5634483E-012  0.5930193E+02  0.7816164E-02  0.1266605E+00
        -11   -1    0    0    0    0  0.00000000000E+00  0.00000000000E+00  0.45593999997E+02  0.45594000000E+02  0.51100000000E-03 0.  1.
         11   -1    0    0    0    0 -0.00000000000E+00 -0.00000000000E+00 -0.45593999997E+02  0.45594000000E+02  0.51100000000E-03 0. -1.
    9900012    2    1    2    0    0  0.22880723026E+02  0.20272738864E+02  0.90669876237E+01  0.59301926366E+02  0.49999967788E+02 0.  0.
         12    1    1    2    0    0 -0.22880723026E+02 -0.20272738864E+02 -0.90669876237E+01  0.31886073634E+02  0.00000000000E+00 0. -1.
         11    1    3    3    0    0  0.22456331030E+02  0.17104447480E+02 -0.55031517098E+01  0.28759930562E+02  0.51100000000E-03 0. -1.
        -11    1    3    3    0    0  0.13479933383E+02  0.85928711807E+00  0.85093488888E+01  0.15964209881E+02  0.51100000000E-03 0.  1.
         12    1    3    3    0    0 -0.13055541387E+02  0.23090042662E+01  0.60607904447E+01  0.14577785923E+02  0.00000000000E+00 0. -1.
</event>
<event>
 7    1  0.5634483E-012  0.5930193E+02  0.7816164E-02  0.1266605E+00
        -11   -1    0    0    0    0  0.00000000000E+00  0.00000000000E+00  0.45593999997E+02  0.45594000000E+02  0.51100000000E-03 0. -1.
         11   -1    0    0    0    0 -0.00000000000E+00 -0.00000000000E+00 -0.45593999997E+02  0.45594000000E+02  0.51100000000E-03 0.  1.
    9900012    2    1    2    0    0 -0.28837912203E+01 -0.31725381610E+02  0.13804064741E+01  0.59301927615E+02  0.49999970067E+02 0.  0.
         12    1    1    2    0    0  0.28837912203E+01  0.31725381610E+02 -0.13804064741E+01  0.31886072385E+02  0.00000000000E+00 0. -1.
         11    1    3    3    0    0  0.32372942161E+01 -0.20769324699E+02  0.11834147855E+02  0.24122437232E+02  0.51100000000E-03 0. -1.
        -11    1    3    3    0    0 -0.36915174946E+01 -0.10567795976E+02  0.97388960996E+01  0.14837510259E+02  0.51100000000E-03 0.  1.
         12    1    3    3    0    0 -0.24295679417E+01 -0.38826093516E+00 -0.20192637480E+02  0.20341980123E+02  0.00000000000E+00 0. -1.
</event>
<event>
 7    1  0.5634483E-012  0.5930192E+02  0.7816164E-02  0.1266605E+00
        -11   -1    0    0    0    0  0.00000000000E+00  0.00000000000E+00  0.45593999997E+02  0.45594000000E+02  0.51100000000E-03 0. -1.
         11   -1    0    0    0    0 -0.00000000000E+00 -0.00000000000E+00 -0.45593999997E+02  0.45594000000E+02  0.51100000000E-03 0.  1.
    9900012    2    1    2    0    0  0.24985856815E+02 -0.43541696947E+01  0.19325382550E+02  0.59301917688E+02  0.49999951963E+02 0.  0.
         12    1    1    2    0    0 -0.24985856815E+02  0.43541696947E+01 -0.19325382550E+02  0.31886082312E+02  0.00000000000E+00 0. -1.
         11    1    3    3    0    0  0.18114410371E+02  0.38170892032E+01  0.27567656801E+02  0.33206591738E+02  0.51100000000E-03 0. -1.
        -11    1    3    3    0    0  0.55500031763E+01 -0.92166258608E+01  0.56151502020E+01  0.12135841115E+02  0.51100000000E-03 0.  1.
        -12    1    3    3    0    0  0.13214432673E+01  0.10453669629E+01 -0.13857424453E+02  0.13959484835E+02  0.00000000000E+00 0.  1.
</event>
<event>
 7    1  0.5634483E-012  0.5930194E+02  0.7816164E-02  0.1266605E+00
        -11   -1    0    0    0    0  0.00000000000E+00  0.00000000000E+00  0.45593999997E+02  0.45594000000E+02  0.51100000000E-03 0.  1.
         11   -1    0    0    0    0 -0.00000000000E+00 -0.00000000000E+00 -0.45593999997E+02  0.45594000000E+02  0.51100000000E-03 0. -1.
    9900012    2    1    2    0    0  0.27608971252E+02 -0.13200547020E+02 -0.89560473714E+01  0.59301944744E+02  0.50000001307E+02 0.  0.
         12    1    1    2    0    0 -0.27608971252E+02  0.13200547020E+02  0.89560473714E+01  0.31886055256E+02  0.00000000000E+00 0. -1.
         11    1    3    3    0    0  0.29766420932E+01  0.63484722087E+01 -0.41742184518E+01  0.81601223937E+01  0.51100000000E-03 0. -1.
        -11    1    3    3    0    0 -0.10758552149E+02 -0.85692817935E+00 -0.23411008307E+01  0.11043619135E+02  0.51100000000E-03 0.  1.
         12    1    3    3    0    0  0.35390881308E+02 -0.18692091050E+02 -0.24407280890E+01  0.40098203216E+02  0.00000000000E+00 0. -1.
</event>
<event>
 7    1  0.5634483E-012  0.5930195E+02  0.7816164E-02  0.1266605E+00
        -11   -1    0    0    0    0  0.00000000000E+00  0.00000000000E+00  0.45593999997E+02  0.45594000000E+02  0.51100000000E-03 0.  1.
         11   -1    0    0    0    0 -0.00000000000E+00 -0.00000000000E+00 -0.45593999997E+02  0.45594000000E+02  0.51100000000E-03 0. -1.
    9900012    2    1    2    0    0  0.19983780736E+02 -0.15450220548E+01  0.24798823443E+02  0.59301949291E+02  0.50000009599E+02 0.  0.
         12    1    1    2    0    0 -0.19983780736E+02  0.15450220548E+01 -0.24798823443E+02  0.31886050709E+02  0.00000000000E+00 0. -1.
         11    1    3    3    0    0  0.17362742061E+02  0.99505293197E+01  0.52788260488E+01  0.20696469513E+02  0.51100000000E-03 0. -1.
        -11    1    3    3    0    0 -0.36057176349E+01  0.73379323278E+01 -0.28954017896E+01  0.86735115319E+01  0.51100000000E-03 0.  1.
        -12    1    3    3    0    0  0.62267563106E+01 -0.18833483702E+02  0.22415399183E+02  0.29931968246E+02  0.00000000000E+00 0.  1.
</event>
<event>
 7    1  0.5634483E-012  0.5930192E+02  0.7816164E-02  0.1266605E+00
        -11   -1    0    0    0    0  0.00000000000E+00  0.00000000000E+00  0.45593999997E+02  0.45594000000E+02  0.51100000000E-03 0.  1.
         11   -1    0    0    0    0 -0.00000000000E+00 -0.00000000000E+00 -0.45593999997E+02  0.45594000000E+02  0.51100000000E-03 0. -1.
    9900012    2    1    2    0    0  0.88429611934E+01  0.13352214504E+02  0.27572492530E+02  0.59301922487E+02  0.49999960716E+02 0.  0.
         12    1    1    2    0    0 -0.88429611934E+01 -0.13352214504E+02 -0.27572492530E+02  0.31886077513E+02  0.00000000000E+00 0. -1.
         11    1    3    3    0    0 -0.70440417618E+01 -0.84017844767E+01 -0.37294078772E+01  0.11580889003E+02  0.51100000000E-03 0. -1.
        -11    1    3    3    0    0  0.43899692681E+01 -0.41575229585E+01  0.11966070716E+02  0.13406851829E+02  0.51100000000E-03 0.  1.
         12    1    3    3    0    0  0.11497033687E+02  0.25911521939E+02  0.19335829691E+02  0.34314181655E+02  0.00000000000E+00 0. -1.
</event>
<event>
 7    1  0.5634483E-012  0.5930194E+02  0.7816164E-02  0.1266605E+00
        -11   -1    0    0    0    0  0.00000000000E+00  0.00000000000E+00  0.45593999997E+02  0.45594000000E+02  0.51100000000E-03 0.  1.
         11   -1    0    0    0    0 -0.00000000000E+00 -0.00000000000E+00 -0.45593999997E+02  0.45594000000E+02  0.51100000000E-03 0. -1.
    9900012    2    1    2    0    0  0.60137966414E+01  0.13801220377E+02  0.28108388245E+02  0.59301938411E+02  0.49999989756E+02 0.  0.
         12    1    1    2    0    0 -0.60137966414E+01 -0.13801220377E+02 -0.28108388245E+02  0.31886061589E+02  0.00000000000E+00 0. -1.
         11    1    3    3    0    0  0.12133261992E+02 -0.13081060647E+02  0.39746023186E+01  0.18279159118E+02  0.51100000000E-03 0. -1.
        -11    1    3    3    0    0 -0.22724764121E+01 -0.25376601452E+01  0.15888220580E+01  0.37587529646E+01  0.51100000000E-03 0.  1.
        -12    1    3    3    0    0 -0.38469889385E+01  0.29419941169E+02  0.22544963869E+02  0.37264026328E+02  0.00000000000E+00 0.  1.
</event>
<event>
 7    1  0.5634483E-012  0.5930196E+02  0.7816164E-02  0.1266605E+00
        -11   -1    0    0    0    0  0.00000000000E+00  0.00000000000E+00  0.45593999997E+02  0.45594000000E+02  0.51100000000E-03 0. -1.
         11   -1    0    0    0    0 -0.00000000000E+00 -0.00000000000E+00 -0.45593999997E+02  0.45594000000E+02  0.51100000000E-03 0.  1.
    9900012    2    1    2    0    0  0.10132179092E+02 -0.16370723138E+02 -0.25417671513E+02  0.59301958315E+02  0.50000026057E+02 0.  0.
         12    1    1    2    0    0 -0.10132179092E+02  0.16370723138E+02  0.25417671513E+02  0.31886041685E+02  0.00000000000E+00 0. -1.
         11    1    3    3    0    0  0.96579546286E+01 -0.19155839869E+02 -0.33060553241E+01  0.21706042725E+02  0.51100000000E-03 0. -1.
        -11    1    3    3    0    0  0.98326755092E+01 -0.10287474575E+02 -0.11893716490E+02  0.18546539651E+02  0.51100000000E-03 0.  1.
        -12    1    3    3    0    0 -0.93584510457E+01  0.13072591307E+02 -0.10217899698E+02  0.19049375940E+02  0.00000000000E+00 0.  1.
</event>
<event>
 7    1  0.5634483E-012  0.5930195E+02  0.7816164E-02  0.1266605E+00
        -11   -1    0    0    0    0  0.00000000000E+00  0.00000000000E+00  0.45593999997E+02  0.45594000000E+02  0.51100000000E-03 0.  1.
         11   -1    0    0    0    0 -0.00000000000E+00 -0.00000000000E+00 -0.45593999997E+02  0.45594000000E+02  0.51100000000E-03 0. -1.
    9900012    2    1    2    0    0 -0.91215550034E+01 -0.79609148635E+01  0.29498160946E+02  0.59301946147E+02  0.50000003865E+02 0.  0.
         12    1    1    2    0    0  0.91215550034E+01  0.79609148635E+01 -0.29498160946E+02  0.31886053853E+02  0.00000000000E+00 0. -1.
         11    1    3    3    0    0 -0.16825537183E+02 -0.38076204935E+01  0.50276467848E+01  0.17968692434E+02  0.51100000000E-03 0. -1.
        -11    1    3    3    0    0  0.85066316458E+01 -0.10354655865E+02  0.30081746233E+02  0.32931643396E+02  0.51100000000E-03 0.  1.
         12    1    3    3    0    0 -0.80264946599E+00  0.62013614950E+01 -0.56112320722E+01  0.84016103173E+01  0.00000000000E+00 0. -1.
</event>
<event>
 7    1  0.5634483E-012  0.5930197E+02  0.7816164E-02  0.1266605E+00
        -11   -1    0    0    0    0  0.00000000000E+00  0.00000000000E+00  0.45593999997E+02  0.45594000000E+02  0.51100000000E-03 0.  1.
         11   -1    0    0    0    0 -0.00000000000E+00 -0.00000000000E+00 -0.45593999997E+02  0.45594000000E+02  0.51100000000E-03 0. -1.
    9900012    2    1    2    0    0  0.75856285751E-01  0.11946683393E+02  0.29563319952E+02  0.59301970381E+02  0.50000048063E+02 0.  0.
         12    1    1    2    0    0 -0.75856285751E-01 -0.11946683393E+02 -0.29563319952E+02  0.31886029619E+02  0.00000000000E+00 0. -1.
         11    1    3    3    0    0 -0.14168900305E+01  0.74464642458E+00  0.78670394291E+01  0.80282242929E+01  0.51100000000E-03 0. -1.
        -11    1    3    3    0    0 -0.42164069464E+01  0.92844650473E+01  0.35114931322E+02  0.36565527219E+02  0.51100000000E-03 0.  1.
         12    1    3    3    0    0  0.57091532627E+01  0.19175719212E+01 -0.13418650800E+02  0.14708218870E+02  0.00000000000E+00 0. -1.
</event>
<event>
 7    1  0.5634483E-012  0.5930195E+02  0.7816164E-02  0.1266605E+00
        -11   -1    0    0    0    0  0.00000000000E+00  0.00000000000E+00  0.45593999997E+02  0.45594000000E+02  0.51100000000E-03 0. -1.
         11   -1    0    0    0    0 -0.00000000000E+00 -0.00000000000E+00 -0.45593999997E+02  0.45594000000E+02  0.51100000000E-03 0.  1.
    9900012    2    1    2    0    0  0.16977815892E+02 -0.26797640769E+02  0.32187151024E+01  0.59301954303E+02  0.50000018740E+02 0.  0.
         12    1    1    2    0    0 -0.16977815892E+02  0.26797640769E+02 -0.32187151024E+01  0.31886045697E+02  0.00000000000E+00 0. -1.
         11    1    3    3    0    0  0.79212711212E+00 -0.17831470096E+01  0.44522367106E+01  0.48610174458E+01  0.51100000000E-03 0. -1.
        -11    1    3    3    0    0 -0.13191843154E+02  0.22447362171E+01 -0.47764894691E+01  0.14208392534E+02  0.51100000000E-03 0.  1.
        -12    1    3    3    0    0  0.29377531934E+02 -0.27259229977E+02  0.35429678608E+01  0.40232544323E+02  0.00000000000E+00 0.  1.
</event>
<event>
 7    1  0.5634483E-012  0.5930208E+02  0.7816164E-02  0.1266604E+00
        -11   -1    0    0    0    0  0.00000000000E+00  0.00000000000E+00  0.45593999997E+02  0.45594000000E+02  0.51100000000E-03 0. -1.
         11   -1    0    0    0    0 -0.00000000000E+00 -0.00000000000E+00 -0.45593999997E+02  0.45594000000E+02  0.51100000000E-03 0.  1.
    9900012    2    1    2    0    0 -0.77879697159E+01  0.27490918323E+02 -0.14153042655E+02  0.59302083376E+02  0.50000254137E+02 0.  0.
         12    1    1    2    0    0  0.77879697159E+01 -0.27490918323E+02  0.14153042655E+02  0.31885916624E+02  0.00000000000E+00 0. -1.
         11    1    3    3    0    0 -0.14860822324E+02  0.29639870270E+02 -0.96254646739E+01  0.34525577768E+02  0.51100000000E-03 0. -1.
        -11    1    3    3    0    0  0.42142451212E+01  0.88338114192E+01 -0.82836021666E+01  0.12822408169E+02  0.51100000000E-03 0.  1.
         12    1    3    3    0    0  0.28586074869E+01 -0.10982763366E+02  0.37560241850E+01  0.11954097439E+02  0.00000000000E+00 0. -1.
</event>
<event>
 7    1  0.5634483E-012  0.5930194E+02  0.7816164E-02  0.1266605E+00
        -11   -1    0    0    0    0  0.00000000000E+00  0.00000000000E+00  0.45593999997E+02  0.45594000000E+02  0.51100000000E-03 0.  1.
         11   -1    0    0    0    0 -0.00000000000E+00 -0.00000000000E+00 -0.45593999997E+02  0.45594000000E+02  0.51100000000E-03 0. -1.
    9900012    2    1    2    0    0  0.20039516371E+02  0.24083906705E+01  0.24684778664E+02  0.59301939414E+02  0.49999991586E+02 0.  0.
         12    1    1    2    0    0 -0.20039516371E+02 -0.24083906705E+01 -0.24684778664E+02  0.31886060586E+02  0.00000000000E+00 0. -1.
         11    1    3    3    0    0  0.31174895265E+01 -0.89510394020E+01  0.21248254702E+02  0.23266460313E+02  0.51100000000E-03 0. -1.
        -11    1    3    3    0    0  0.90704564555E+01 -0.97667198136E+01  0.15453621047E+01  0.13418276362E+02  0.51100000000E-03 0.  1.
         12    1    3    3    0    0  0.78515703892E+01  0.21126149886E+02  0.18911618570E+01  0.22617202739E+02  0.00000000000E+00 0. -1.
</event>
<event>
 7    1  0.5634483E-012  0.5930196E+02  0.7816164E-02  0.1266605E+00
        -11   -1    0    0    0    0  0.00000000000E+00  0.00000000000E+00  0.45593999997E+02  0.45594000000E+02  0.51100000000E-03 0.  1.
         11   -1    0    0    0    0 -0.00000000000E+00 -0.00000000000E+00 -0.45593999997E+02  0.45594000000E+02  0.51100000000E-03 0. -1.
    9900012    2    1    2    0    0 -0.87514085118E+01 -0.30277231902E+02  0.48396217458E+01  0.59301955071E+02  0.50000020140E+02 0.  0.
         12    1    1    2    0    0  0.87514085118E+01  0.30277231902E+02 -0.48396217458E+01  0.31886044929E+02  0.00000000000E+00 0. -1.
         11    1    3    3    0    0 -0.93617559086E+01 -0.23362224292E+02 -0.10652429861E+02  0.27329658977E+02  0.51100000000E-03 0. -1.
        -11    1    3    3    0    0  0.29182878490E+01 -0.14083132191E+02 -0.39834779577E+00  0.14387831578E+02  0.51100000000E-03 0.  1.
         12    1    3    3    0    0 -0.23079404522E+01  0.71681245817E+01  0.15890399403E+02  0.17584464516E+02  0.00000000000E+00 0. -1.
</event>
<event>
 7    1  0.5634483E-012  0.5930194E+02  0.7816164E-02  0.1266605E+00
        -11   -1    0    0    0    0  0.00000000000E+00  0.00000000000E+00  0.45593999997E+02  0.45594000000E+02  0.51100000000E-03 0.  1.
         11   -1    0    0    0    0 -0.00000000000E+00 -0.00000000000E+00 -0.45593999997E+02  0.45594000000E+02  0.51100000000E-03 0. -1.
    9900012    2    1    2    0    0  0.20989304174E+02  0.83017105100E+00  0.23989173284E+02  0.59301944921E+02  0.50000001628E+02 0.  0.
         12    1    1    2    0    0 -0.20989304174E+02 -0.83017105100E+00 -0.23989173284E+02  0.31886055079E+02  0.00000000000E+00 0. -1.
         11    1    3    3    0    0  0.14010188170E+02 -0.38673326227E+01 -0.63465920691E+01  0.15859409362E+02  0.51100000000E-03 0. -1.
        -11    1    3    3    0    0 -0.95384880444E+00 -0.80589803336E+01 -0.14888627317E+01  0.82506790056E+01  0.51100000000E-03 0.  1.
        -12    1    3    3    0    0  0.79329648082E+01  0.12756484007E+02  0.31824628085E+02  0.35191856553E+02  0.00000000000E+00 0.  1.
</event>
<event>
 7    1  0.5634483E-012  0.5930196E+02  0.7816164E-02  0.1266605E+00
        -11   -1    0    0    0    0  0.00000000000E+00  0.00000000000E+00  0.45593999997E+02  0.45594000000E+02  0.51100000000E-03 0.  1.
         11   -1    0    0    0    0 -0.00000000000E+00 -0.00000000000E+00 -0.45593999997E+02  0.45594000000E+02  0.51100000000E-03 0. -1.
    9900012    2    1    2    0    0  0.10973584072E+01  0.31794741579E+02 -0.21470012252E+01  0.59301962275E+02  0.50000033278E+02 0.  0.
         12    1    1    2    0    0 -0.10973584072E+01 -0.31794741579E+02  0.21470012252E+01  0.31886037725E+02  0.00000000000E+00 0. -1.
         11    1    3    3    0    0  0.71407388982E+01  0.36599908311E+01  0.47688831085E+01  0.93342343692E+01  0.51100000000E-03 0. -1.
        -11    1    3    3    0    0  0.14334087947E+00  0.31007587402E+02  0.93025196080E+01  0.32373258940E+02  0.51100000000E-03 0.  1.
         12    1    3    3    0    0 -0.61867213704E+01 -0.28728366536E+01 -0.16218403942E+02  0.17594468965E+02  0.00000000000E+00 0. -1.
</event>
<event>
 7    1  0.5634483E-012  0.5930200E+02  0.7816164E-02  0.1266605E+00
        -11   -1    0    0    0    0  0.00000000000E+00  0.00000000000E+00  0.45593999997E+02  0.45594000000E+02  0.51100000000E-03 0.  1.
         11   -1    0    0    0    0 -0.00000000000E+00 -0.00000000000E+00 -0.45593999997E+02  0.45594000000E+02  0.51100000000E-03 0. -1.
    9900012    2    1    2    0    0 -0.64040611629E+01 -0.10419067390E+00  0.31236107775E+02  0.59301995484E+02  0.50000093844E+02 0.  0.
         12    1    1    2    0    0  0.64040611629E+01  0.10419067390E+00 -0.31236107775E+02  0.31886004516E+02  0.00000000000E+00 0. -1.
         11    1    3    3    0    0 -0.73218978313E+01 -0.82599516162E+01 -0.39204592187E+00  0.11044939512E+02  0.51100000000E-03 0. -1.
        -11    1    3    3    0    0  0.57655509475E+01  0.10820090068E+02  0.37935602756E+02  0.39867604437E+02  0.51100000000E-03 0.  1.
         12    1    3    3    0    0 -0.48477142791E+01 -0.26643291256E+01 -0.63074490594E+01  0.83894515350E+01  0.00000000000E+00 0. -1.
</event>
<event>
 7    1  0.5634483E-012  0.5930196E+02  0.7816164E-02  0.1266605E+00
        -11   -1    0    0    0    0  0.00000000000E+00  0.00000000000E+00  0.45593999997E+02  0.45594000000E+02  0.51100000000E-03 0.  1.
         11   -1    0    0    0    0 -0.00000000000E+00 -0.00000000000E+00 -0.45593999997E+02  0.45594000000E+02  0.51100000000E-03 0. -1.
    9900012    2    1    2    0    0 -0.16488595724E+01 -0.13893214404E+02  0.28652743042E+02  0.59301955589E+02  0.50000021085E+02 0.  0.
         12    1    1    2    0    0  0.16488595724E+01  0.13893214404E+02 -0.28652743042E+02  0.31886044411E+02  0.00000000000E+00 0. -1.
         11    1    3    3    0    0  0.52385498474E+01 -0.57909418876E+01 -0.37720638445E+01  0.86721322844E+01  0.51100000000E-03 0. -1.
        -11    1    3    3    0    0  0.40082298033E+01  0.13621231908E+02  0.15463998189E+02  0.20993787298E+02  0.51100000000E-03 0.  1.
         12    1    3    3    0    0 -0.10895639223E+02 -0.21723504424E+02  0.16960808697E+02  0.29636036007E+02  0.00000000000E+00 0. -1.
</event>
<event>
 7    1  0.5634483E-012  0.5930197E+02  0.7816164E-02  0.1266605E+00
        -11   -1    0    0    0    0  0.00000000000E+00  0.00000000000E+00  0.45593999997E+02  0.45594000000E+02  0.51100000000E-03 0.  1.
         11   -1    0    0    0    0 -0.00000000000E+00 -0.00000000000E+00 -0.45593999997E+02  0.45594000000E+02  0.51100000000E-03 0. -1.
    9900012    2    1    2    0    0  0.18721273526E+02  0.25105121238E+01  0.25689102854E+02  0.59301972355E+02  0.50000051661E+02 0.  0.
         12    1    1    2    0    0 -0.18721273526E+02 -0.25105121238E+01 -0.25689102854E+02  0.31886027645E+02  0.00000000000E+00 0. -1.
         11    1    3    3    0    0 -0.97748083153E+01 -0.17871271341E+01  0.56446707766E+01  0.11428167370E+02  0.51100000000E-03 0. -1.
        -11    1    3    3    0    0  0.28556362272E+01  0.57897204714E+01  0.21202868501E+02  0.22163870473E+02  0.51100000000E-03 0.  1.
         12    1    3    3    0    0  0.25640445614E+02 -0.14920812136E+01 -0.11584364240E+01  0.25709934512E+02  0.00000000000E+00 0. -1.
</event>
<event>
 7    1  0.5634483E-012  0.5930195E+02  0.7816164E-02  0.1266605E+00
        -11   -1    0    0    0    0  0.00000000000E+00  0.00000000000E+00  0.45593999997E+02  0.45594000000E+02  0.51100000000E-03 0. -1.
         11   -1    0    0    0    0 -0.00000000000E+00 -0.00000000000E+00 -0.45593999997E+02  0.45594000000E+02  0.51100000000E-03 0.  1.
    9900012    2    1    2    0    0  0.15050503983E+02 -0.17451804551E+02 -0.22037177943E+02  0.59301947188E+02  0.50000005763E+02 0.  0.
         12    1    1    2    0    0 -0.15050503983E+02  0.17451804551E+02  0.22037177943E+02  0.31886052812E+02  0.00000000000E+00 0. -1.
         11    1    3    3    0    0  0.93257716003E+00 -0.56833895640E+01 -0.72689909297E+01  0.92740954541E+01  0.51100000000E-03 0.  1.
        -11    1    3    3    0    0  0.15060584519E+02  0.14795686258E+02 -0.81887191310E+01  0.22644837362E+02  0.51100000000E-03 0. -1.
         12    1    3    3    0    0 -0.94265769536E+00 -0.26564101245E+02 -0.65794678825E+01  0.27383014372E+02  0.00000000000E+00 0. -1.
</event>
<event>
 7    1  0.5634483E-012  0.5930198E+02  0.7816164E-02  0.1266605E+00
        -11   -1    0    0    0    0  0.00000000000E+00  0.00000000000E+00  0.45593999997E+02  0.45594000000E+02  0.51100000000E-03 0. -1.
         11   -1    0    0    0    0 -0.00000000000E+00 -0.00000000000E+00 -0.45593999997E+02  0.45594000000E+02  0.51100000000E-03 0.  1.
    9900012    2    1    2    0    0 -0.12360799020E+02 -0.29031656787E+02 -0.45926120357E+01  0.59301975890E+02  0.50000058109E+02 0.  0.
         12    1    1    2    0    0  0.12360799020E+02  0.29031656787E+02  0.45926120357E+01  0.31886024110E+02  0.00000000000E+00 0. -1.
         11    1    3    3    0    0  0.56975857744E+01 -0.66033387773E+00  0.63335488483E+01  0.85447273662E+01  0.51100000000E-03 0. -1.
        -11    1    3    3    0    0 -0.10095482828E+02  0.49087524068E+01 -0.12116114825E+02  0.16517108174E+02  0.51100000000E-03 0.  1.
        -12    1    3    3    0    0 -0.79629019667E+01 -0.33280075316E+02  0.11899539413E+01  0.34240140350E+02  0.00000000000E+00 0.  1.
</event>
<event>
 7    1  0.5634483E-012  0.5930195E+02  0.7816164E-02  0.1266605E+00
        -11   -1    0    0    0    0  0.00000000000E+00  0.00000000000E+00  0.45593999997E+02  0.45594000000E+02  0.51100000000E-03 0.  1.
         11   -1    0    0    0    0 -0.00000000000E+00 -0.00000000000E+00 -0.45593999997E+02  0.45594000000E+02  0.51100000000E-03 0. -1.
    9900012    2    1    2    0    0 -0.24836850390E+02  0.76369531476E+01  0.18480474817E+02  0.59301950697E+02  0.50000012164E+02 0.  0.
         12    1    1    2    0    0  0.24836850390E+02 -0.76369531476E+01 -0.18480474817E+02  0.31886049303E+02  0.00000000000E+00 0. -1.
         11    1    3    3    0    0 -0.97820048048E+01  0.12936752488E+02 -0.10302106386E+02  0.19214072426E+02  0.51100000000E-03 0. -1.
        -11    1    3    3    0    0  0.30668528225E+01  0.57927297810E+01  0.82955113736E+01  0.10572455427E+02  0.51100000000E-03 0.  1.
        -12    1    3    3    0    0 -0.18121698408E+02 -0.11092529121E+02  0.20487069829E+02  0.29515422844E+02  0.00000000000E+00 0.  1.
</event>
<event>
 7    1  0.5634483E-012  0.5930194E+02  0.7816164E-02  0.1266605E+00
        -11   -1    0    0    0    0  0.00000000000E+00  0.00000000000E+00  0.45593999997E+02  0.45594000000E+02  0.51100000000E-03 0. -1.
         11   -1    0    0    0    0 -0.00000000000E+00 -0.00000000000E+00 -0.45593999997E+02  0.45594000000E+02  0.51100000000E-03 0.  1.
    9900012    2    1    2    0    0  0.41964566688E+01  0.19226629652E+02 -0.25088792342E+02  0.59301936626E+02  0.49999986501E+02 0.  0.
         12    1    1    2    0    0 -0.41964566688E+01 -0.19226629652E+02  0.25088792342E+02  0.31886063374E+02  0.00000000000E+00 0. -1.
         11    1    3    3    0    0 -0.48819838381E+01 -0.43599765699E+01  0.29865578478E+01  0.71946292416E+01  0.51100000000E-03 0. -1.
        -11    1    3    3    0    0 -0.61646193927E+01 -0.50665204299E+01 -0.15246611695E+02  0.17208466811E+02  0.51100000000E-03 0.  1.
         12    1    3    3    0    0  0.15243059900E+02  0.28653126652E+02 -0.12828738494E+02  0.34898840573E+02  0.00000000000E+00 0. -1.
</event>
<event>
 7    1  0.5634483E-012  0.5930194E+02  0.7816164E-02  0.1266605E+00
        -11   -1    0    0    0    0  0.00000000000E+00  0.00000000000E+00  0.45593999997E+02  0.45594000000E+02  0.51100000000E-03 0.  1.
         11   -1    0    0    0    0 -0.00000000000E+00 -0.00000000000E+00 -0.45593999997E+02  0.45594000000E+02  0.51100000000E-03 0. -1.
    9900012    2    1    2    0    0 -0.17106760440E+02  0.12001292811E+02  0.24084191196E+02  0.59301944311E+02  0.50000000516E+02 0.  0.
         12    1    1    2    0    0  0.17106760440E+02 -0.12001292811E+02 -0.24084191196E+02  0.31886055689E+02  0.00000000000E+00 0. -1.
         11    1    3    3    0    0 -0.14210188999E+02 -0.13111606876E+02  0.17895353786E+02  0.26345538401E+02  0.51100000000E-03 0. -1.
        -11    1    3    3    0    0  0.26118537062E+01  0.61953497579E+00  0.73495901887E+01  0.78244539472E+01  0.51100000000E-03 0.  1.
         12    1    3    3    0    0 -0.55084251465E+01  0.24493364711E+02 -0.11607527787E+01  0.25131951963E+02  0.00000000000E+00 0. -1.
</event>
<event>
 7    1  0.5634483E-012  0.5930189E+02  0.7816164E-02  0.1266605E+00
        -11   -1    0    0    0    0  0.00000000000E+00  0.00000000000E+00  0.45593999997E+02  0.45594000000E+02  0.51100000000E-03 0. -1.
         11   -1    0    0    0    0 -0.00000000000E+00 -0.00000000000E+00 -0.45593999997E+02  0.45594000000E+02  0.51100000000E-03 0.  1.
    9900012    2    1    2    0    0 -0.21289396726E+02 -0.22029133225E+02 -0.88432453152E+01  0.59301888427E+02  0.49999898597E+02 0.  0.
         12    1    1    2    0    0  0.21289396726E+02  0.22029133225E+02  0.88432453152E+01  0.31886111573E+02  0.00000000000E+00 0. -1.
         11    1    3    3    0    0 -0.21728185139E+02 -0.11631180550E+02 -0.75220360220E+01  0.25767798055E+02  0.51100000000E-03 0. -1.
        -11    1    3    3    0    0 -0.11403593725E+02 -0.16557309477E+02 -0.17364265557E+01  0.20179237459E+02  0.51100000000E-03 0.  1.
        -12    1    3    3    0    0  0.11842382139E+02  0.61593568025E+01  0.41521726261E+00  0.13354852913E+02  0.00000000000E+00 0.  1.
</event>
<event>
 7    1  0.5634483E-012  0.5930195E+02  0.7816164E-02  0.1266605E+00
        -11   -1    0    0    0    0  0.00000000000E+00  0.00000000000E+00  0.45593999997E+02  0.45594000000E+02  0.51100000000E-03 0.  1.
         11   -1    0    0    0    0 -0.00000000000E+00 -0.00000000000E+00 -0.45593999997E+02  0.45594000000E+02  0.51100000000E-03 0. -1.
    9900012    2    1    2    0    0  0.20530234507E+02 -0.23810834895E+02  0.53172882316E+01  0.59301953813E+02  0.50000017847E+02 0.  0.
         12    1    1    2    0    0 -0.20530234507E+02  0.23810834895E+02 -0.53172882316E+01  0.31886046187E+02  0.00000000000E+00 0. -1.
         11    1    3    3    0    0  0.85373339737E+01 -0.26723382790E+01 -0.23365066728E+00  0.89488578127E+01  0.51100000000E-03 0.  1.
        -11    1    3    3    0    0 -0.29715254702E+01  0.10415317951E+02 -0.73880014754E+01  0.13110735209E+02  0.51100000000E-03 0. -1.
        -12    1    3    3    0    0  0.14964426003E+02 -0.31553814567E+02  0.12938940374E+02  0.37242360792E+02  0.00000000000E+00 0.  1.
</event>
<event>
 7    1  0.5634483E-012  0.5930194E+02  0.7816164E-02  0.1266605E+00
        -11   -1    0    0    0    0  0.00000000000E+00  0.00000000000E+00  0.45593999997E+02  0.45594000000E+02  0.51100000000E-03 0. -1.
         11   -1    0    0    0    0 -0.00000000000E+00 -0.00000000000E+00 -0.45593999997E+02  0.45594000000E+02  0.51100000000E-03 0.  1.
    9900012    2    1    2    0    0 -0.13698887776E+02 -0.21025608135E+02 -0.19671943320E+02  0.59301935995E+02  0.49999985350E+02 0.  0.
         12    1    1    2    0    0  0.13698887776E+02  0.21025608135E+02  0.19671943320E+02  0.31886064005E+02  0.00000000000E+00 0. -1.
         11    1    3    3    0    0  0.83214590619E+01 -0.25546706166E+01  0.40584585304E+01  0.96043796667E+01  0.51100000000E-03 0. -1.
        -11    1    3    3    0    0  0.35739616002E+01  0.65076188128E+01 -0.14583327485E+01  0.75663094570E+01  0.51100000000E-03 0.  1.
        -12    1    3    3    0    0 -0.25594308438E+02 -0.24978556332E+02 -0.22272069102E+02  0.42131246871E+02  0.00000000000E+00 0.  1.
</event>
<event>
 7    1  0.5634483E-012  0.5930194E+02  0.7816164E-02  0.1266605E+00
        -11   -1    0    0    0    0  0.00000000000E+00  0.00000000000E+00  0.45593999997E+02  0.45594000000E+02  0.51100000000E-03 0.  1.
         11   -1    0    0    0    0 -0.00000000000E+00 -0.00000000000E+00 -0.45593999997E+02  0.45594000000E+02  0.51100000000E-03 0. -1.
    9900012    2    1    2    0    0 -0.19928875011E+01  0.21984703361E+02  0.23009166819E+02  0.59301944424E+02  0.50000000723E+02 0.  0.
         12    1    1    2    0    0  0.19928875011E+01 -0.21984703361E+02 -0.23009166819E+02  0.31886055576E+02  0.00000000000E+00 0. -1.
         11    1    3    3    0    0 -0.74278335527E+01  0.23722210795E+01 -0.92354613187E+01  0.12086930552E+02  0.51100000000E-03 0. -1.
        -11    1    3    3    0    0  0.80419079463E+01 -0.25810545246E+01  0.58862293541E+00  0.84664398124E+01  0.51100000000E-03 0.  1.
        -12    1    3    3    0    0 -0.26069618946E+01  0.22193536806E+02  0.31656005202E+02  0.38748574060E+02  0.00000000000E+00 0.  1.
</event>
<event>
 7    1  0.5634483E-012  0.5930194E+02  0.7816164E-02  0.1266605E+00
        -11   -1    0    0    0    0  0.00000000000E+00  0.00000000000E+00  0.45593999997E+02  0.45594000000E+02  0.51100000000E-03 0.  1.
         11   -1    0    0    0    0 -0.00000000000E+00 -0.00000000000E+00 -0.45593999997E+02  0.45594000000E+02  0.51100000000E-03 0. -1.
    9900012    2    1    2    0    0 -0.26038954278E+01  0.17004092486E+02  0.26847748310E+02  0.59301936869E+02  0.49999986944E+02 0.  0.
         12    1    1    2    0    0  0.26038954278E+01 -0.17004092486E+02 -0.26847748310E+02  0.31886063131E+02  0.00000000000E+00 0. -1.
         11    1    3    3    0    0 -0.66428604491E+01  0.95331538470E+01  0.16369726403E+01  0.11734065660E+02  0.51100000000E-03 0. -1.
        -11    1    3    3    0    0 -0.13934851492E+02  0.20573287877E+01  0.25115942872E+02  0.28796237158E+02  0.51100000000E-03 0.  1.
         12    1    3    3    0    0  0.17973816514E+02  0.54136098515E+01  0.94832798438E-01  0.18771634051E+02  0.00000000000E+00 0. -1.
</event>
<event>
 7    1  0.5634483E-012  0.5930195E+02  0.7816164E-02  0.1266605E+00
        -11   -1    0    0    0    0  0.00000000000E+00  0.00000000000E+00  0.45593999997E+02  0.45594000000E+02  0.51100000000E-03 0. -1.
         11   -1    0    0    0    0 -0.00000000000E+00 -0.00000000000E+00 -0.45593999997E+02  0.45594000000E+02  0.51100000000E-03 0.  1.
    9900012    2    1    2    0    0 -0.17656065319E+02 -0.42320093462E+01 -0.26212092886E+02  0.59301947264E+02  0.50000005901E+02 0.  0.
         12    1    1    2    0    0  0.17656065319E+02  0.42320093462E+01  0.26212092886E+02  0.31886052736E+02  0.00000000000E+00 0. -1.
         11    1    3    3    0    0 -0.29873372048E+01 -0.89633271955E+01 -0.11136006487E+02  0.14603974073E+02  0.51100000000E-03 0. -1.
        -11    1    3    3    0    0  0.20566025753E+01 -0.40059646103E+01 -0.23575828356E+02  0.24002021780E+02  0.51100000000E-03 0.  1.
        -12    1    3    3    0    0 -0.16725330689E+02  0.87372824596E+01  0.84997419568E+01  0.20695951410E+02  0.00000000000E+00 0.  1.
</event>
<event>
 7    1  0.5634483E-012  0.5930195E+02  0.7816164E-02  0.1266605E+00
        -11   -1    0    0    0    0  0.00000000000E+00  0.00000000000E+00  0.45593999997E+02  0.45594000000E+02  0.51100000000E-03 0.  1.
         11   -1    0    0    0    0 -0.00000000000E+00 -0.00000000000E+00 -0.45593999997E+02  0.45594000000E+02  0.51100000000E-03 0. -1.
    9900012    2    1    2    0    0  0.24886966207E+02  0.11288184462E+02  0.16429720888E+02  0.59301954088E+02  0.50000018348E+02 0.  0.
         12    1    1    2    0    0 -0.24886966207E+02 -0.11288184462E+02 -0.16429720888E+02  0.31886045912E+02  0.00000000000E+00 0. -1.
         11    1    3    3    0    0  0.62879857045E+01  0.14322676071E+02 -0.61705655735E+01  0.16815281556E+02  0.51100000000E-03 0. -1.
        -11    1    3    3    0    0  0.42271979183E+01 -0.20605696167E+01 -0.76511129794E+01  0.89807950356E+01  0.51100000000E-03 0.  1.
         12    1    3    3    0    0  0.14371782584E+02 -0.97392199185E+00  0.30251399441E+02  0.33505877497E+02  0.00000000000E+00 0. -1.
</event>
<event>
 7    1  0.5634483E-012  0.5930196E+02  0.7816164E-02  0.1266605E+00
        -11   -1    0    0    0    0  0.00000000000E+00  0.00000000000E+00  0.45593999997E+02  0.45594000000E+02  0.51100000000E-03 0.  1.
         11   -1    0    0    0    0 -0.00000000000E+00 -0.00000000000E+00 -0.45593999997E+02  0.45594000000E+02  0.51100000000E-03 0. -1.
    9900012    2    1    2    0    0 -0.30947974826E+01 -0.31203560183E+02  0.57861837780E+01  0.59301955054E+02  0.50000020109E+02 0.  0.
         12    1    1    2    0    0  0.30947974826E+01  0.31203560183E+02 -0.57861837780E+01  0.31886044946E+02  0.00000000000E+00 0. -1.
         11    1    3    3    0    0 -0.19107360592E+02 -0.32530645726E+02  0.49683988990E+01  0.38052846517E+02  0.51100000000E-03 0. -1.
        -11    1    3    3    0    0  0.62494042899E+01 -0.48145400780E+01 -0.38842021695E+01  0.87932858987E+01  0.51100000000E-03 0.  1.
        -12    1    3    3    0    0  0.97631588198E+01  0.61416256204E+01  0.47019870485E+01  0.12455822639E+02  0.00000000000E+00 0.  1.
</event>
<event>
 7    1  0.5634483E-012  0.5930181E+02  0.7816164E-02  0.1266605E+00
        -11   -1    0    0    0    0  0.00000000000E+00  0.00000000000E+00  0.45593999997E+02  0.45594000000E+02  0.51100000000E-03 0.  1.
         11   -1    0    0    0    0 -0.00000000000E+00 -0.00000000000E+00 -0.45593999997E+02  0.45594000000E+02  0.51100000000E-03 0. -1.
    9900012    2    1    2    0    0 -0.19311390999E+02  0.18541728102E+02  0.17320609562E+02  0.59301811471E+02  0.49999758248E+02 0.  0.
         12    1    1    2    0    0  0.19311390999E+02 -0.18541728102E+02 -0.17320609562E+02  0.31886188529E+02  0.00000000000E+00 0. -1.
         11    1    3    3    0    0  0.59354486116E+01 -0.47850811414E+01  0.22774788498E+01  0.79569756769E+01  0.51100000000E-03 0. -1.
        -11    1    3    3    0    0 -0.34274141745E+01  0.11091327049E+02 -0.10456165530E+02  0.15623575182E+02  0.51100000000E-03 0.  1.
        -12    1    3    3    0    0 -0.21819425436E+02  0.12235482194E+02  0.25499296241E+02  0.35721260612E+02  0.00000000000E+00 0.  1.
</event>
<event>
 7    1  0.5634483E-012  0.5930193E+02  0.7816164E-02  0.1266605E+00
        -11   -1    0    0    0    0  0.00000000000E+00  0.00000000000E+00  0.45593999997E+02  0.45594000000E+02  0.51100000000E-03 0.  1.
         11   -1    0    0    0    0 -0.00000000000E+00 -0.00000000000E+00 -0.45593999997E+02  0.45594000000E+02  0.51100000000E-03 0. -1.
    9900012    2    1    2    0    0  0.27826770885E+02 -0.13728163785E+02  0.73436919176E+01  0.59301929848E+02  0.49999974139E+02 0.  0.
         12    1    1    2    0    0 -0.27826770885E+02  0.13728163785E+02 -0.73436919176E+01  0.31886070152E+02  0.00000000000E+00 0. -1.
         11    1    3    3    0    0  0.11764852939E+00 -0.15556213218E+02 -0.22625096583E+01  0.15720323187E+02  0.51100000000E-03 0. -1.
        -11    1    3    3    0    0  0.82811619590E+01 -0.82251645924E+01 -0.90992342329E+01  0.14799562151E+02  0.51100000000E-03 0.  1.
        -12    1    3    3    0    0  0.19427960396E+02  0.10053214026E+02  0.18705435809E+02  0.28782044511E+02  0.00000000000E+00 0.  1.
</event>
<event>
 7    1  0.5634483E-012  0.5930194E+02  0.7816164E-02  0.1266605E+00
        -11   -1    0    0    0    0  0.00000000000E+00  0.00000000000E+00  0.45593999997E+02  0.45594000000E+02  0.51100000000E-03 0.  1.
         11   -1    0    0    0    0 -0.00000000000E+00 -0.00000000000E+00 -0.45593999997E+02  0.45594000000E+02  0.51100000000E-03 0. -1.
    9900012    2    1    2    0    0  0.16170029945E+02 -0.26775858796E+02  0.61890318850E+01  0.59301943512E+02  0.49999999059E+02 0.  0.
         12    1    1    2    0    0 -0.16170029945E+02  0.26775858796E+02 -0.61890318850E+01  0.31886056488E+02  0.00000000000E+00 0. -1.
         11    1    3    3    0    0  0.19952273246E+01  0.65416100518E+01 -0.13089880974E+01  0.69632639076E+01  0.51100000000E-03 0. -1.
        -11    1    3    3    0    0 -0.84345656895E+01 -0.25671538078E+01 -0.72561977547E+01  0.11418606884E+02  0.51100000000E-03 0.  1.
        -12    1    3    3    0    0  0.22609368310E+02 -0.30750315040E+02  0.14754217737E+02  0.40920072721E+02  0.00000000000E+00 0.  1.
</event>
<event>
 7    1  0.5634483E-012  0.5930195E+02  0.7816164E-02  0.1266605E+00
        -11   -1    0    0    0    0  0.00000000000E+00  0.00000000000E+00  0.45593999997E+02  0.45594000000E+02  0.51100000000E-03 0.  1.
         11   -1    0    0    0    0 -0.00000000000E+00 -0.00000000000E+00 -0.45593999997E+02  0.45594000000E+02  0.51100000000E-03 0. -1.
    9900012    2    1    2    0    0 -0.75283093809E+01 -0.23375898966E+02  0.20337451458E+02  0.59301952480E+02  0.50000015415E+02 0.  0.
         12    1    1    2    0    0  0.75283093809E+01  0.23375898966E+02 -0.20337451458E+02  0.31886047520E+02  0.00000000000E+00 0. -1.
         11    1    3    3    0    0 -0.13923057292E+02  0.32805693888E+00  0.44473060953E+01  0.14619770089E+02  0.51100000000E-03 0. -1.
        -11    1    3    3    0    0 -0.34256912579E+01 -0.23752065227E+02 -0.21998188897E+01  0.24098447389E+02  0.51100000000E-03 0.  1.
        -12    1    3    3    0    0  0.98204391685E+01  0.48109322151E-01  0.18089964253E+02  0.20583735002E+02  0.00000000000E+00 0.  1.
</event>
<event>
 7    1  0.5634483E-012  0.5930193E+02  0.7816164E-02  0.1266605E+00
        -11   -1    0    0    0    0  0.00000000000E+00  0.00000000000E+00  0.45593999997E+02  0.45594000000E+02  0.51100000000E-03 0.  1.
         11   -1    0    0    0    0 -0.00000000000E+00 -0.00000000000E+00 -0.45593999997E+02  0.45594000000E+02  0.51100000000E-03 0. -1.
    9900012    2    1    2    0    0  0.27013541960E+02 -0.11582354340E+02  0.12362820349E+02  0.59301926108E+02  0.49999967319E+02 0.  0.
         12    1    1    2    0    0 -0.27013541960E+02  0.11582354340E+02 -0.12362820349E+02  0.31886073892E+02  0.00000000000E+00 0. -1.
         11    1    3    3    0    0  0.12044339223E+02 -0.18515762562E+02 -0.35843543995E+01  0.22377380707E+02  0.51100000000E-03 0. -1.
        -11    1    3    3    0    0  0.13228355164E+02  0.85995462159E+01 -0.44437602903E+01  0.16391722949E+02  0.51100000000E-03 0.  1.
         12    1    3    3    0    0  0.17408475729E+01 -0.16661379934E+01  0.20390935039E+02  0.20532822452E+02  0.00000000000E+00 0. -1.
</event>
<event>
 7    1  0.5634483E-012  0.5930196E+02  0.7816164E-02  0.1266605E+00
        -11   -1    0    0    0    0  0.00000000000E+00  0.00000000000E+00  0.45593999997E+02  0.45594000000E+02  0.51100000000E-03 0. -1.
         11   -1    0    0    0    0 -0.00000000000E+00 -0.00000000000E+00 -0.45593999997E+02  0.45594000000E+02  0.51100000000E-03 0.  1.
    9900012    2    1    2    0    0  0.14777672946E+02  0.28179033895E+02 -0.20693374958E+01  0.59301957181E+02  0.50000023989E+02 0.  0.
         12    1    1    2    0    0 -0.14777672946E+02 -0.28179033895E+02  0.20693374958E+01  0.31886042819E+02  0.00000000000E+00 0. -1.
         11    1    3    3    0    0 -0.27261702104E+01 -0.59482398672E+01 -0.20242602874E+01  0.68491745128E+01  0.51100000000E-03 0. -1.
        -11    1    3    3    0    0  0.18894983142E+02  0.77032625743E+00  0.19272439124E+01  0.19008631193E+02  0.51100000000E-03 0.  1.
        -12    1    3    3    0    0 -0.13911399850E+01  0.33356947505E+02 -0.19723211209E+01  0.33444151476E+02  0.00000000000E+00 0.  1.
</event>
<event>
 7    1  0.5634483E-012  0.5930196E+02  0.7816164E-02  0.1266605E+00
        -11   -1    0    0    0    0  0.00000000000E+00  0.00000000000E+00  0.45593999997E+02  0.45594000000E+02  0.51100000000E-03 0.  1.
         11   -1    0    0    0    0 -0.00000000000E+00 -0.00000000000E+00 -0.45593999997E+02  0.45594000000E+02  0.51100000000E-03 0. -1.
    9900012    2    1    2    0    0 -0.15486800964E+02 -0.25530279061E+02  0.11184072570E+02  0.59301958661E+02  0.50000026687E+02 0.  0.
         12    1    1    2    0    0  0.15486800964E+02  0.25530279061E+02 -0.11184072570E+02  0.31886041339E+02  0.00000000000E+00 0. -1.
         11    1    3    3    0    0 -0.16105171956E+02 -0.74399106439E+01 -0.10145395330E+02  0.20436679789E+02  0.51100000000E-03 0. -1.
        -11    1    3    3    0    0 -0.16059554129E+00 -0.11637728207E+02 -0.43127430205E+01  0.12412181975E+02  0.51100000000E-03 0.  1.
        -12    1    3    3    0    0  0.77896653266E+00 -0.64526402100E+01  0.25642210921E+02  0.26453096897E+02  0.00000000000E+00 0.  1.
</event>
<event>
 7    1  0.5634483E-012  0.5930205E+02  0.7816164E-02  0.1266604E+00
        -11   -1    0    0    0    0  0.00000000000E+00  0.00000000000E+00  0.45593999997E+02  0.45594000000E+02  0.51100000000E-03 0. -1.
         11   -1    0    0    0    0 -0.00000000000E+00 -0.00000000000E+00 -0.45593999997E+02  0.45594000000E+02  0.51100000000E-03 0.  1.
    9900012    2    1    2    0    0 -0.13858637638E+02  0.27804786207E+02  0.71795500431E+01  0.59302048359E+02  0.50000190275E+02 0.  0.
         12    1    1    2    0    0  0.13858637638E+02 -0.27804786207E+02 -0.71795500431E+01  0.31885951641E+02  0.00000000000E+00 0. -1.
         11    1    3    3    0    0 -0.13570516173E+02  0.65248160750E+00  0.16678763954E+02  0.21511992208E+02  0.51100000000E-03 0. -1.
        -11    1    3    3    0    0  0.80148971042E+01  0.12600336045E+02  0.48810077036E+01  0.15710865046E+02  0.51100000000E-03 0.  1.
         12    1    3    3    0    0 -0.83030185692E+01  0.14551968555E+02 -0.14380221614E+02  0.22079191105E+02  0.00000000000E+00 0. -1.
</event>
<event>
 7    1  0.5634483E-012  0.5930197E+02  0.7816164E-02  0.1266605E+00
        -11   -1    0    0    0    0  0.00000000000E+00  0.00000000000E+00  0.45593999997E+02  0.45594000000E+02  0.51100000000E-03 0. -1.
         11   -1    0    0    0    0 -0.00000000000E+00 -0.00000000000E+00 -0.45593999997E+02  0.45594000000E+02  0.51100000000E-03 0.  1.
    9900012    2    1    2    0    0  0.30522546458E+02  0.70546010213E+01 -0.59435528886E+01  0.59301967653E+02  0.50000043087E+02 0.  0.
         12    1    1    2    0    0 -0.30522546458E+02 -0.70546010213E+01  0.59435528886E+01  0.31886032347E+02  0.00000000000E+00 0. -1.
         11    1    3    3    0    0 -0.17531317500E+01 -0.67162428373E+01  0.52209798236E+00  0.69608889767E+01  0.51100000000E-03 0. -1.
        -11    1    3    3    0    0  0.99249559514E+01  0.99366792591E+01 -0.21103769384E+02  0.25349781613E+02  0.51100000000E-03 0.  1.
         12    1    3    3    0    0  0.22350722257E+02  0.38341645994E+01  0.14638118513E+02  0.26991297064E+02  0.00000000000E+00 0. -1.
</event>
<event>
 7    1  0.5634483E-012  0.5930195E+02  0.7816164E-02  0.1266605E+00
        -11   -1    0    0    0    0  0.00000000000E+00  0.00000000000E+00  0.45593999997E+02  0.45594000000E+02  0.51100000000E-03 0.  1.
         11   -1    0    0    0    0 -0.00000000000E+00 -0.00000000000E+00 -0.45593999997E+02  0.45594000000E+02  0.51100000000E-03 0. -1.
    9900012    2    1    2    0    0  0.30168808432E+02 -0.16938072538E+01  0.10183030991E+02  0.59301951242E+02  0.50000013157E+02 0.  0.
         12    1    1    2    0    0 -0.30168808432E+02  0.16938072538E+01 -0.10183030991E+02  0.31886048758E+02  0.00000000000E+00 0. -1.
         11    1    3    3    0    0  0.21769576419E+02 -0.97900975442E+01 -0.78937727016E+01  0.25141044432E+02  0.51100000000E-03 0. -1.
        -11    1    3    3    0    0 -0.31289057541E+01 -0.72272616741E+01  0.11400408888E+02  0.13856142522E+02  0.51100000000E-03 0.  1.
        -12    1    3    3    0    0  0.11528137767E+02  0.15323551965E+02  0.66763948052E+01  0.20304764288E+02  0.00000000000E+00 0.  1.
</event>
<event>
 7    1  0.5634483E-012  0.5930198E+02  0.7816164E-02  0.1266605E+00
        -11   -1    0    0    0    0  0.00000000000E+00  0.00000000000E+00  0.45593999997E+02  0.45594000000E+02  0.51100000000E-03 0. -1.
         11   -1    0    0    0    0 -0.00000000000E+00 -0.00000000000E+00 -0.45593999997E+02  0.45594000000E+02  0.51100000000E-03 0.  1.
    9900012    2    1    2    0    0 -0.30798260828E+02 -0.81766134696E+01 -0.11526835624E+01  0.59301975518E+02  0.50000057431E+02 0.  0.
         12    1    1    2    0    0  0.30798260828E+02  0.81766134696E+01  0.11526835624E+01  0.31886024482E+02  0.00000000000E+00 0. -1.
         11    1    3    3    0    0  0.36636536059E+01 -0.19083150963E+01 -0.77597783548E+01  0.87908011369E+01  0.51100000000E-03 0. -1.
        -11    1    3    3    0    0 -0.86171221971E+01 -0.18750076806E+02  0.70507762902E+01  0.21806733403E+02  0.51100000000E-03 0.  1.
        -12    1    3    3    0    0 -0.25844792237E+02  0.12481778432E+02 -0.44368149781E+00  0.28704440978E+02  0.00000000000E+00 0.  1.
</event>
<event>
 7    1  0.5634483E-012  0.5930194E+02  0.7816164E-02  0.1266605E+00
        -11   -1    0    0    0    0  0.00000000000E+00  0.00000000000E+00  0.45593999997E+02  0.45594000000E+02  0.51100000000E-03 0. -1.
         11   -1    0    0    0    0 -0.00000000000E+00 -0.00000000000E+00 -0.45593999997E+02  0.45594000000E+02  0.51100000000E-03 0.  1.
    9900012    2    1    2    0    0 -0.11354830402E+02 -0.90370550113E+01 -0.28392259981E+02  0.59301937786E+02  0.49999988616E+02 0.  0.
         12    1    1    2    0    0  0.11354830402E+02  0.90370550113E+01  0.28392259981E+02  0.31886062214E+02  0.00000000000E+00 0. -1.
         11    1    3    3    0    0  0.11848979631E+02  0.88087822629E+01 -0.21002491446E+02  0.25672896417E+02  0.51100000000E-03 0. -1.
        -11    1    3    3    0    0 -0.73355954733E+01 -0.24081431878E+00  0.27665199563E+01  0.78436334318E+01  0.51100000000E-03 0.  1.
        -12    1    3    3    0    0 -0.15868214559E+02 -0.17605022955E+02 -0.10156288491E+02  0.25785407937E+02  0.00000000000E+00 0.  1.
</event>
<event>
 7    1  0.5634483E-012  0.5930191E+02  0.7816164E-02  0.1266605E+00
        -11   -1    0    0    0    0  0.00000000000E+00  0.00000000000E+00  0.45593999997E+02  0.45594000000E+02  0.51100000000E-03 0.  1.
         11   -1    0    0    0    0 -0.00000000000E+00 -0.00000000000E+00 -0.45593999997E+02  0.45594000000E+02  0.51100000000E-03 0. -1.
    9900012    2    1    2    0    0 -0.99487739943E+01 -0.19835506926E+02  0.22897536781E+02  0.59301911660E+02  0.49999940969E+02 0.  0.
         12    1    1    2    0    0  0.99487739943E+01  0.19835506926E+02 -0.22897536781E+02  0.31886088340E+02  0.00000000000E+00 0. -1.
         11    1    3    3    0    0 -0.64173825334E+01 -0.18240870535E+02 -0.92072081799E+01  0.21416928799E+02  0.51100000000E-03 0. -1.
        -11    1    3    3    0    0  0.19944314657E+01 -0.96737443858E+01  0.12144839576E+02  0.15654271491E+02  0.51100000000E-03 0.  1.
        -12    1    3    3    0    0 -0.55258229266E+01  0.80791079957E+01  0.19959905385E+02  0.22230711370E+02  0.00000000000E+00 0.  1.
</event>
<event>
 7    1  0.5634483E-012  0.5930188E+02  0.7816164E-02  0.1266605E+00
        -11   -1    0    0    0    0  0.00000000000E+00  0.00000000000E+00  0.45593999997E+02  0.45594000000E+02  0.51100000000E-03 0.  1.
         11   -1    0    0    0    0 -0.00000000000E+00 -0.00000000000E+00 -0.45593999997E+02  0.45594000000E+02  0.51100000000E-03 0. -1.
    9900012    2    1    2    0    0  0.13244010995E+02  0.15985415913E+01  0.28961443434E+02  0.59301884397E+02  0.49999891247E+02 0.  0.
         12    1    1    2    0    0 -0.13244010995E+02 -0.15985415913E+01 -0.28961443434E+02  0.31886115603E+02  0.00000000000E+00 0. -1.
         11    1    3    3    0    0  0.33204307966E+01 -0.32376453341E+01 -0.35872527924E+01  0.58631041985E+01  0.51100000000E-03 0. -1.
        -11    1    3    3    0    0  0.17438218252E+02  0.13771730456E+02  0.39769511982E+01  0.22573616385E+02  0.51100000000E-03 0.  1.
        -12    1    3    3    0    0 -0.75146380535E+01 -0.89355435311E+01  0.28571745028E+02  0.30865163814E+02  0.00000000000E+00 0.  1.
</event>
<event>
 7    1  0.5634483E-012  0.5930192E+02  0.7816164E-02  0.1266605E+00
        -11   -1    0    0    0    0  0.00000000000E+00  0.00000000000E+00  0.45593999997E+02  0.45594000000E+02  0.51100000000E-03 0.  1.
         11   -1    0    0    0    0 -0.00000000000E+00 -0.00000000000E+00 -0.45593999997E+02  0.45594000000E+02  0.51100000000E-03 0. -1.
    9900012    2    1    2    0    0 -0.17022849079E+02 -0.93449357920E+01  0.25290645683E+02  0.59301921929E+02  0.49999959697E+02 0.  0.
         12    1    1    2    0    0  0.17022849079E+02  0.93449357920E+01 -0.25290645683E+02  0.31886078071E+02  0.00000000000E+00 0. -1.
         11    1    3    3    0    0  0.41598904067E+01  0.71159025903E+01 -0.16231850085E+00  0.82442164835E+01  0.51100000000E-03 0. -1.
        -11    1    3    3    0    0  0.22357010552E+01 -0.59310029371E+01  0.24560658600E+02  0.25365352475E+02  0.51100000000E-03 0.  1.
         12    1    3    3    0    0 -0.23418440541E+02 -0.10529835445E+02  0.89230558325E+00  0.25692352970E+02  0.00000000000E+00 0. -1.
</event>
<event>
 7    1  0.5634483E-012  0.5930184E+02  0.7816164E-02  0.1266605E+00
        -11   -1    0    0    0    0  0.00000000000E+00  0.00000000000E+00  0.45593999997E+02  0.45594000000E+02  0.51100000000E-03 0.  1.
         11   -1    0    0    0    0 -0.00000000000E+00 -0.00000000000E+00 -0.45593999997E+02  0.45594000000E+02  0.51100000000E-03 0. -1.
    9900012    2    1    2    0    0 -0.88913385437E+01 -0.10984063935E+02  0.28583595158E+02  0.59301835700E+02  0.49999802436E+02 0.  0.
         12    1    1    2    0    0  0.88913385437E+01  0.10984063935E+02 -0.28583595158E+02  0.31886164300E+02  0.00000000000E+00 0. -1.
         11    1    3    3    0    0 -0.46566804796E+01  0.14300308897E+01  0.20142730585E+02  0.20723398783E+02  0.51100000000E-03 0. -1.
        -11    1    3    3    0    0 -0.13876519529E+02  0.49431291807E+01  0.11236639671E+02  0.18527125835E+02  0.51100000000E-03 0.  1.
         12    1    3    3    0    0  0.96418614649E+01 -0.17357224006E+02 -0.27957750989E+01  0.20051311082E+02  0.00000000000E+00 0. -1.
</event>
<event>
 7    1  0.5634483E-012  0.5930188E+02  0.7816164E-02  0.1266605E+00
        -11   -1    0    0    0    0  0.00000000000E+00  0.00000000000E+00  0.45593999997E+02  0.45594000000E+02  0.51100000000E-03 0.  1.
         11   -1    0    0    0    0 -0.00000000000E+00 -0.00000000000E+00 -0.45593999997E+02  0.45594000000E+02  0.51100000000E-03 0. -1.
    9900012    2    1    2    0    0 -0.61160840595E+01 -0.17081873545E+02  0.26220748991E+02  0.59301881301E+02  0.49999885602E+02 0.  0.
         12    1    1    2    0    0  0.61160840595E+01  0.17081873545E+02 -0.26220748991E+02  0.31886118699E+02  0.00000000000E+00 0. -1.
         11    1    3    3    0    0  0.35181988282E+01  0.88753651048E+01 -0.83530878384E+01  0.12685578640E+02  0.51100000000E-03 0. -1.
        -11    1    3    3    0    0 -0.95195588128E+01 -0.13132947214E+02  0.10449145230E+02  0.19294583147E+02  0.51100000000E-03 0.  1.
        -12    1    3    3    0    0 -0.11472407491E+00 -0.12824291436E+02  0.24124691599E+02  0.27321719514E+02  0.00000000000E+00 0.  1.
</event>
<event>
 7    1  0.5634483E-012  0.5930194E+02  0.7816164E-02  0.1266605E+00
        -11   -1    0    0    0    0  0.00000000000E+00  0.00000000000E+00  0.45593999997E+02  0.45594000000E+02  0.51100000000E-03 0.  1.
         11   -1    0    0    0    0 -0.00000000000E+00 -0.00000000000E+00 -0.45593999997E+02  0.45594000000E+02  0.51100000000E-03 0. -1.
    9900012    2    1    2    0    0  0.19741660285E+02  0.24238436951E+01  0.24922129690E+02  0.59301941646E+02  0.49999995656E+02 0.  0.
         12    1    1    2    0    0 -0.19741660285E+02 -0.24238436951E+01 -0.24922129690E+02  0.31886058354E+02  0.00000000000E+00 0. -1.
         11    1    3    3    0    0  0.19618033320E+02  0.89173402998E+01  0.13119254768E+01  0.21589519172E+02  0.51100000000E-03 0. -1.
        -11    1    3    3    0    0  0.12611362583E+02 -0.44640253655E+01  0.20834635232E+02  0.24759967976E+02  0.51100000000E-03 0.  1.
         12    1    3    3    0    0 -0.12487735617E+02 -0.20294712393E+01  0.27755689811E+01  0.12952454498E+02  0.00000000000E+00 0. -1.
</event>
<event>
 7    1  0.5634483E-012  0.5930195E+02  0.7816164E-02  0.1266605E+00
        -11   -1    0    0    0    0  0.00000000000E+00  0.00000000000E+00  0.45593999997E+02  0.45594000000E+02  0.51100000000E-03 0.  1.
         11   -1    0    0    0    0 -0.00000000000E+00 -0.00000000000E+00 -0.45593999997E+02  0.45594000000E+02  0.51100000000E-03 0. -1.
    9900012    2    1    2    0    0 -0.49913033464E+01 -0.12938691119E+01  0.31466381277E+02  0.59301947296E+02  0.50000005960E+02 0.  0.
         12    1    1    2    0    0  0.49913033464E+01  0.12938691119E+01 -0.31466381277E+02  0.31886052704E+02  0.00000000000E+00 0. -1.
         11    1    3    3    0    0 -0.58467109782E+01  0.21150401071E+01  0.17607879323E+02  0.18673372444E+02  0.51100000000E-03 0. -1.
        -11    1    3    3    0    0  0.17000220675E+02 -0.61645887299E+01  0.15956065845E+02  0.24116502539E+02  0.51100000000E-03 0.  1.
         12    1    3    3    0    0 -0.16144813043E+02  0.27556795110E+01 -0.20975638908E+01  0.16512072312E+02  0.00000000000E+00 0. -1.
</event>
<event>
 7    1  0.5634483E-012  0.5930185E+02  0.7816164E-02  0.1266605E+00
        -11   -1    0    0    0    0  0.00000000000E+00  0.00000000000E+00  0.45593999997E+02  0.45594000000E+02  0.51100000000E-03 0. -1.
         11   -1    0    0    0    0 -0.00000000000E+00 -0.00000000000E+00 -0.45593999997E+02  0.45594000000E+02  0.51100000000E-03 0.  1.
    9900012    2    1    2    0    0  0.18512022516E+02  0.21512820994E+02 -0.14533758528E+02  0.59301849688E+02  0.49999827947E+02 0.  0.
         12    1    1    2    0    0 -0.18512022516E+02 -0.21512820994E+02  0.14533758528E+02  0.31886150312E+02  0.00000000000E+00 0. -1.
         11    1    3    3    0    0 -0.72606320080E+01 -0.18095972967E+01 -0.86780091966E+01  0.11458589067E+02  0.51100000000E-03 0. -1.
        -11    1    3    3    0    0  0.38321679276E+01 -0.55201318740E+01 -0.92635140621E+01  0.11444215131E+02  0.51100000000E-03 0.  1.
         12    1    3    3    0    0  0.21940486597E+02  0.28842550165E+02  0.34077647310E+01  0.36399045490E+02  0.00000000000E+00 0. -1.
</event>
<event>
 7    1  0.5634483E-012  0.5930195E+02  0.7816164E-02  0.1266605E+00
        -11   -1    0    0    0    0  0.00000000000E+00  0.00000000000E+00  0.45593999997E+02  0.45594000000E+02  0.51100000000E-03 0.  1.
         11   -1    0    0    0    0 -0.00000000000E+00 -0.00000000000E+00 -0.45593999997E+02  0.45594000000E+02  0.51100000000E-03 0. -1.
    9900012    2    1    2    0    0  0.60317493143E+01  0.11651048002E+02  0.29061848509E+02  0.59301953551E+02  0.50000017369E+02 0.  0.
         12    1    1    2    0    0 -0.60317493143E+01 -0.11651048002E+02 -0.29061848509E+02  0.31886046449E+02  0.00000000000E+00 0. -1.
         11    1    3    3    0    0  0.18510090648E+02 -0.30195120278E+01  0.14356830642E+02  0.23619049410E+02  0.51100000000E-03 0.  1.
        -11    1    3    3    0    0  0.25702193593E+00  0.57570295770E+01  0.18754012823E+02  0.19619440539E+02  0.51100000000E-03 0. -1.
         12    1    3    3    0    0 -0.12735363270E+02  0.89135304532E+01 -0.40489949563E+01  0.16063463602E+02  0.00000000000E+00 0. -1.
</event>
<event>
 7    1  0.5634483E-012  0.5930196E+02  0.7816164E-02  0.1266605E+00
        -11   -1    0    0    0    0  0.00000000000E+00  0.00000000000E+00  0.45593999997E+02  0.45594000000E+02  0.51100000000E-03 0.  1.
         11   -1    0    0    0    0 -0.00000000000E+00 -0.00000000000E+00 -0.45593999997E+02  0.45594000000E+02  0.51100000000E-03 0. -1.
    9900012    2    1    2    0    0 -0.26419580888E+02 -0.93630658277E+01  0.15200597740E+02  0.59301961870E+02  0.50000032539E+02 0.  0.
         12    1    1    2    0    0  0.26419580888E+02  0.93630658277E+01 -0.15200597740E+02  0.31886038130E+02  0.00000000000E+00 0. -1.
         11    1    3    3    0    0 -0.11947878820E+00  0.19181380042E+01 -0.47102954451E+01  0.50872794326E+01  0.51100000000E-03 0. -1.
        -11    1    3    3    0    0 -0.81127083572E+01 -0.25388544126E+02  0.59999358578E+01  0.27320202054E+02  0.51100000000E-03 0.  1.
        -12    1    3    3    0    0 -0.18187393743E+02  0.14107340294E+02  0.13910957327E+02  0.26894480383E+02  0.00000000000E+00 0.  1.
</event>
<event>
 7    1  0.5634483E-012  0.5930191E+02  0.7816164E-02  0.1266605E+00
        -11   -1    0    0    0    0  0.00000000000E+00  0.00000000000E+00  0.45593999997E+02  0.45594000000E+02  0.51100000000E-03 0.  1.
         11   -1    0    0    0    0 -0.00000000000E+00 -0.00000000000E+00 -0.45593999997E+02  0.45594000000E+02  0.51100000000E-03 0. -1.
    9900012    2    1    2    0    0 -0.10433233481E+02  0.26397059274E+02  0.14528095208E+02  0.59301911347E+02  0.49999940399E+02 0.  0.
         12    1    1    2    0    0  0.10433233481E+02 -0.26397059274E+02 -0.14528095208E+02  0.31886088653E+02  0.00000000000E+00 0. -1.
         11    1    3    3    0    0 -0.25475821367E+01  0.99893092213E+01  0.11235699578E+02  0.15248521854E+02  0.51100000000E-03 0. -1.
        -11    1    3    3    0    0 -0.16453437190E+02  0.21383075248E+02  0.13204719009E+02  0.30038576977E+02  0.51100000000E-03 0.  1.
         12    1    3    3    0    0  0.85677858463E+01 -0.49753251946E+01 -0.99123233793E+01  0.14014812517E+02  0.00000000000E+00 0. -1.
</event>
<event>
 7    1  0.5634483E-012  0.5930194E+02  0.7816164E-02  0.1266605E+00
        -11   -1    0    0    0    0  0.00000000000E+00  0.00000000000E+00  0.45593999997E+02  0.45594000000E+02  0.51100000000E-03 0.  1.
         11   -1    0    0    0    0 -0.00000000000E+00 -0.00000000000E+00 -0.45593999997E+02  0.45594000000E+02  0.51100000000E-03 0. -1.
    9900012    2    1    2    0    0 -0.12805098888E+01 -0.38218020834E+01  0.31630284105E+02  0.59301941145E+02  0.49999994742E+02 0.  0.
         12    1    1    2    0    0  0.12805098888E+01  0.38218020834E+01 -0.31630284105E+02  0.31886058855E+02  0.00000000000E+00 0. -1.
         11    1    3    3    0    0 -0.21225253116E+02 -0.24861256182E+01  0.13366936700E+02  0.25206490978E+02  0.51100000000E-03 0. -1.
        -11    1    3    3    0    0  0.88074950868E+01 -0.30782438389E+01 -0.31904459100E+01  0.98603499026E+01  0.51100000000E-03 0.  1.
        -12    1    3    3    0    0  0.11137248140E+02  0.17425673737E+01  0.21453793316E+02  0.24235100264E+02  0.00000000000E+00 0.  1.
</event>
<event>
 7    1  0.5634483E-012  0.5930201E+02  0.7816164E-02  0.1266605E+00
        -11   -1    0    0    0    0  0.00000000000E+00  0.00000000000E+00  0.45593999997E+02  0.45594000000E+02  0.51100000000E-03 0. -1.
         11   -1    0    0    0    0 -0.00000000000E+00 -0.00000000000E+00 -0.45593999997E+02  0.45594000000E+02  0.51100000000E-03 0.  1.
    9900012    2    1    2    0    0 -0.14610000116E+02 -0.22918966044E+02 -0.16672894740E+02  0.59302007355E+02  0.50000115494E+02 0.  0.
         12    1    1    2    0    0  0.14610000116E+02  0.22918966044E+02  0.16672894740E+02  0.31885992645E+02  0.00000000000E+00 0. -1.
         11    1    3    3    0    0 -0.15293669238E+02 -0.85130327550E+01 -0.18269261038E+02  0.25300868455E+02  0.51100000000E-03 0. -1.
        -11    1    3    3    0    0  0.14654745902E+01 -0.13176615612E+02 -0.13449186210E+02  0.18885217095E+02  0.51100000000E-03 0.  1.
         12    1    3    3    0    0 -0.78180546801E+00 -0.12293176765E+01  0.15045552508E+02  0.15115921805E+02  0.00000000000E+00 0. -1.
</event>
<event>
 7    1  0.5634483E-012  0.5930202E+02  0.7816164E-02  0.1266604E+00
        -11   -1    0    0    0    0  0.00000000000E+00  0.00000000000E+00  0.45593999997E+02  0.45594000000E+02  0.51100000000E-03 0. -1.
         11   -1    0    0    0    0 -0.00000000000E+00 -0.00000000000E+00 -0.45593999997E+02  0.45594000000E+02  0.51100000000E-03 0.  1.
    9900012    2    1    2    0    0  0.21199704973E+02 -0.19143955502E+02 -0.14170287934E+02  0.59302022152E+02  0.50000142479E+02 0.  0.
         12    1    1    2    0    0 -0.21199704973E+02  0.19143955502E+02  0.14170287934E+02  0.31885977848E+02  0.00000000000E+00 0. -1.
         11    1    3    3    0    0  0.84169868222E+01  0.25942942106E+01  0.74107066351E+01  0.11510629987E+02  0.51100000000E-03 0. -1.
        -11    1    3    3    0    0 -0.23865266754E+01 -0.26441440666E+02 -0.11179320151E+02  0.28806639744E+02  0.51100000000E-03 0.  1.
         12    1    3    3    0    0  0.15169244826E+02  0.47031909535E+01 -0.10401674418E+02  0.18984752420E+02  0.00000000000E+00 0. -1.
</event>
<event>
 7    1  0.5634483E-012  0.5930195E+02  0.7816164E-02  0.1266605E+00
        -11   -1    0    0    0    0  0.00000000000E+00  0.00000000000E+00  0.45593999997E+02  0.45594000000E+02  0.51100000000E-03 0.  1.
         11   -1    0    0    0    0 -0.00000000000E+00 -0.00000000000E+00 -0.45593999997E+02  0.45594000000E+02  0.51100000000E-03 0. -1.
    9900012    2    1    2    0    0 -0.10453209793E+02 -0.17539635212E+02  0.24491052174E+02  0.59301952347E+02  0.50000015172E+02 0.  0.
         12    1    1    2    0    0  0.10453209793E+02  0.17539635212E+02 -0.24491052174E+02  0.31886047653E+02  0.00000000000E+00 0. -1.
         11    1    3    3    0    0 -0.68788092387E+01 -0.68437532127E+01 -0.91153052856E+01  0.13313292804E+02  0.51100000000E-03 0. -1.
        -11    1    3    3    0    0 -0.13735967334E+02 -0.14937844507E+02  0.20103297840E+02  0.28564988734E+02  0.51100000000E-03 0.  1.
         12    1    3    3    0    0  0.10161566780E+02  0.42419625071E+01  0.13503059620E+02  0.17423670808E+02  0.00000000000E+00 0. -1.
</event>
<event>
 7    1  0.5634483E-012  0.5930194E+02  0.7816164E-02  0.1266605E+00
        -11   -1    0    0    0    0  0.00000000000E+00  0.00000000000E+00  0.45593999997E+02  0.45594000000E+02  0.51100000000E-03 0.  1.
         11   -1    0    0    0    0 -0.00000000000E+00 -0.00000000000E+00 -0.45593999997E+02  0.45594000000E+02  0.51100000000E-03 0. -1.
    9900012    2    1    2    0    0  0.26412315844E+02  0.68452542079E+01  0.16500086147E+02  0.59301940722E+02  0.49999993972E+02 0.  0.
         12    1    1    2    0    0 -0.26412315844E+02 -0.68452542079E+01 -0.16500086147E+02  0.31886059278E+02  0.00000000000E+00 0. -1.
         11    1    3    3    0    0  0.23997465687E+02  0.18770202414E+02  0.57631669473E+01  0.31006659794E+02  0.51100000000E-03 0. -1.
        -11    1    3    3    0    0  0.43693635235E+01 -0.62243578365E+01  0.17593503037E+02  0.19166776397E+02  0.51100000000E-03 0.  1.
         12    1    3    3    0    0 -0.19545133669E+01 -0.57005903699E+01 -0.68565838370E+01  0.91285045315E+01  0.00000000000E+00 0. -1.
</event>
<event>
 7    1  0.5634483E-012  0.5930193E+02  0.7816164E-02  0.1266605E+00
        -11   -1    0    0    0    0  0.00000000000E+00  0.00000000000E+00  0.45593999997E+02  0.45594000000E+02  0.51100000000E-03 0.  1.
         11   -1    0    0    0    0 -0.00000000000E+00 -0.00000000000E+00 -0.45593999997E+02  0.45594000000E+02  0.51100000000E-03 0. -1.
    9900012    2    1    2    0    0  0.21268599840E+02  0.58863175109E+01  0.23015634872E+02  0.59301929035E+02  0.49999972658E+02 0.  0.
         12    1    1    2    0    0 -0.21268599840E+02 -0.58863175109E+01 -0.23015634872E+02  0.31886070965E+02  0.00000000000E+00 0. -1.
         11    1    3    3    0    0  0.73736754264E+01  0.55933065978E+01 -0.51900388901E+01  0.10610969415E+02  0.51100000000E-03 0. -1.
        -11    1    3    3    0    0 -0.12924465674E+01  0.16286126479E+02  0.60294495464E+01  0.17414436423E+02  0.51100000000E-03 0.  1.
        -12    1    3    3    0    0  0.15187370981E+02 -0.15993115566E+02  0.22176224216E+02  0.31276523197E+02  0.00000000000E+00 0.  1.
</event>
<event>
 7    1  0.5634483E-012  0.5930195E+02  0.7816164E-02  0.1266605E+00
        -11   -1    0    0    0    0  0.00000000000E+00  0.00000000000E+00  0.45593999997E+02  0.45594000000E+02  0.51100000000E-03 0.  1.
         11   -1    0    0    0    0 -0.00000000000E+00 -0.00000000000E+00 -0.45593999997E+02  0.45594000000E+02  0.51100000000E-03 0. -1.
    9900012    2    1    2    0    0 -0.81546538076E+01  0.17467236359E+02  0.25399165680E+02  0.59301947533E+02  0.50000006392E+02 0.  0.
         12    1    1    2    0    0  0.81546538076E+01 -0.17467236359E+02 -0.25399165680E+02  0.31886052467E+02  0.00000000000E+00 0. -1.
         11    1    3    3    0    0  0.11699567252E+02  0.21644317763E+02  0.11714553658E+02  0.27250451978E+02  0.51100000000E-03 0. -1.
        -11    1    3    3    0    0  0.29741305704E+01  0.28627828886E+01  0.53340862551E+01  0.67448836131E+01  0.51100000000E-03 0.  1.
         12    1    3    3    0    0 -0.22828351630E+02 -0.70398642933E+01  0.83505257663E+01  0.25306611942E+02  0.00000000000E+00 0. -1.
</event>
<event>
 7    1  0.5634483E-012  0.5930194E+02  0.7816164E-02  0.1266605E+00
        -11   -1    0    0    0    0  0.00000000000E+00  0.00000000000E+00  0.45593999997E+02  0.45594000000E+02  0.51100000000E-03 0. -1.
         11   -1    0    0    0    0 -0.00000000000E+00 -0.00000000000E+00 -0.45593999997E+02  0.45594000000E+02  0.51100000000E-03 0.  1.
    9900012    2    1    2    0    0 -0.27560810140E+02 -0.14429449491E+02 -0.69938002793E+01  0.59301944889E+02  0.50000001571E+02 0.  0.
         12    1    1    2    0    0  0.27560810140E+02  0.14429449491E+02  0.69938002793E+01  0.31886055111E+02  0.00000000000E+00 0. -1.
         11    1    3    3    0    0  0.20291340747E+01  0.91129648505E+01  0.92751235910E+00  0.93820995996E+01  0.51100000000E-03 0. -1.
        -11    1    3    3    0    0  0.34191243089E-02 -0.19388535920E+02 -0.37261952830E+01  0.19743349978E+02  0.51100000000E-03 0.  1.
        -12    1    3    3    0    0 -0.29593363339E+02 -0.41538784211E+01 -0.41951173553E+01  0.30176495312E+02  0.00000000000E+00 0.  1.
</event>
<event>
 7    1  0.5634483E-012  0.5930192E+02  0.7816164E-02  0.1266605E+00
        -11   -1    0    0    0    0  0.00000000000E+00  0.00000000000E+00  0.45593999997E+02  0.45594000000E+02  0.51100000000E-03 0. -1.
         11   -1    0    0    0    0 -0.00000000000E+00 -0.00000000000E+00 -0.45593999997E+02  0.45594000000E+02  0.51100000000E-03 0.  1.
    9900012    2    1    2    0    0  0.31870548308E+02 -0.99192677033E+00  0.80863238468E-01  0.59301916719E+02  0.49999950195E+02 0.  0.
         12    1    1    2    0    0 -0.31870548308E+02  0.99192677033E+00 -0.80863238468E-01  0.31886083281E+02  0.00000000000E+00 0. -1.
         11    1    3    3    0    0  0.63284238589E+01 -0.14152354760E+01  0.14202457160E+02  0.15612867438E+02  0.51100000000E-03 0. -1.
        -11    1    3    3    0    0  0.11872223891E+02 -0.35195790429E+01  0.98437113843E+01  0.15818842904E+02  0.51100000000E-03 0.  1.
        -12    1    3    3    0    0  0.13669900558E+02  0.39428877486E+01 -0.23965305306E+02  0.27870206376E+02  0.00000000000E+00 0.  1.
</event>
<event>
 7    1  0.5634483E-012  0.5930213E+02  0.7816164E-02  0.1266604E+00
        -11   -1    0    0    0    0  0.00000000000E+00  0.00000000000E+00  0.45593999997E+02  0.45594000000E+02  0.51100000000E-03 0.  1.
         11   -1    0    0    0    0 -0.00000000000E+00 -0.00000000000E+00 -0.45593999997E+02  0.45594000000E+02  0.51100000000E-03 0. -1.
    9900012    2    1    2    0    0 -0.11869278076E+02 -0.24013139040E+02  0.17297347285E+02  0.59302128023E+02  0.50000335563E+02 0.  0.
         12    1    1    2    0    0  0.11869278076E+02  0.24013139040E+02 -0.17297347285E+02  0.31885871977E+02  0.00000000000E+00 0. -1.
         11    1    3    3    0    0 -0.42631405728E+00  0.23851634035E+01 -0.66347500792E+01  0.70633318633E+01  0.51100000000E-03 0. -1.
        -11    1    3    3    0    0  0.77900296927E+01 -0.23693231028E+02  0.56659068118E+01  0.25576478636E+02  0.51100000000E-03 0.  1.
         12    1    3    3    0    0 -0.19232993711E+02 -0.27050714157E+01  0.18266190553E+02  0.26662317524E+02  0.00000000000E+00 0. -1.
</event>
<event>
 7    1  0.5634483E-012  0.5930193E+02  0.7816164E-02  0.1266605E+00
        -11   -1    0    0    0    0  0.00000000000E+00  0.00000000000E+00  0.45593999997E+02  0.45594000000E+02  0.51100000000E-03 0. -1.
         11   -1    0    0    0    0 -0.00000000000E+00 -0.00000000000E+00 -0.45593999997E+02  0.45594000000E+02  0.51100000000E-03 0.  1.
    9900012    2    1    2    0    0  0.27878526943E+02 -0.23273747018E+01  0.15300083384E+02  0.59301929545E+02  0.49999973587E+02 0.  0.
         12    1    1    2    0    0 -0.27878526943E+02  0.23273747018E+01 -0.15300083384E+02  0.31886070455E+02  0.00000000000E+00 0. -1.
         11    1    3    3    0    0  0.14535034455E+02  0.31969883821E+01  0.16939012002E+02  0.22548128286E+02  0.51100000000E-03 0. -1.
        -11    1    3    3    0    0  0.15131640571E+02 -0.17014334934E+02 -0.71772389320E+01  0.23873979529E+02  0.51100000000E-03 0.  1.
         12    1    3    3    0    0 -0.17881480832E+01  0.11489971850E+02  0.55383103137E+01  0.12879821731E+02  0.00000000000E+00 0. -1.
</event>
<event>
 7    1  0.5634483E-012  0.5930193E+02  0.7816164E-02  0.1266605E+00
        -11   -1    0    0    0    0  0.00000000000E+00  0.00000000000E+00  0.45593999997E+02  0.45594000000E+02  0.51100000000E-03 0. -1.
         11   -1    0    0    0    0 -0.00000000000E+00 -0.00000000000E+00 -0.45593999997E+02  0.45594000000E+02  0.51100000000E-03 0.  1.
    9900012    2    1    2    0    0  0.22184862192E+02 -0.99618881537E+01  0.20623145769E+02  0.59301929884E+02  0.49999974204E+02 0.  0.
         12    1    1    2    0    0 -0.22184862192E+02  0.99618881537E+01 -0.20623145769E+02  0.31886070116E+02  0.00000000000E+00 0. -1.
         11    1    3    3    0    0  0.12772990481E+02 -0.17977874908E+02  0.22709449164E+02  0.31655526431E+02  0.51100000000E-03 0. -1.
        -11    1    3    3    0    0  0.76965231529E+01  0.63445272340E+01  0.10705649318E+02  0.14632170790E+02  0.51100000000E-03 0.  1.
        -12    1    3    3    0    0  0.17153485580E+01  0.16714595197E+01 -0.12791952712E+02  0.13014232663E+02  0.00000000000E+00 0.  1.
</event>
<event>
 7    1  0.5634483E-012  0.5930193E+02  0.7816164E-02  0.1266605E+00
        -11   -1    0    0    0    0  0.00000000000E+00  0.00000000000E+00  0.45593999997E+02  0.45594000000E+02  0.51100000000E-03 0. -1.
         11   -1    0    0    0    0 -0.00000000000E+00 -0.00000000000E+00 -0.45593999997E+02  0.45594000000E+02  0.51100000000E-03 0.  1.
    9900012    2    1    2    0    0 -0.27195104822E+02  0.64200680482E+01 -0.15360022402E+02  0.59301932695E+02  0.49999979331E+02 0.  0.
         12    1    1    2    0    0  0.27195104822E+02 -0.64200680482E+01  0.15360022402E+02  0.31886067305E+02  0.00000000000E+00 0. -1.
         11    1    3    3    0    0 -0.19882060025E+02  0.45087016022E+01 -0.12743527056E+02  0.24042091903E+02  0.51100000000E-03 0.  1.
        -11    1    3    3    0    0 -0.20929193843E+02 -0.12685261024E+01 -0.34632510802E+01  0.21251692208E+02  0.51100000000E-03 0. -1.
         12    1    3    3    0    0  0.13616149046E+02  0.31798925483E+01  0.84675573472E+00  0.14008148584E+02  0.00000000000E+00 0. -1.
</event>
<event>
 7    1  0.5634483E-012  0.5930196E+02  0.7816164E-02  0.1266605E+00
        -11   -1    0    0    0    0  0.00000000000E+00  0.00000000000E+00  0.45593999997E+02  0.45594000000E+02  0.51100000000E-03 0.  1.
         11   -1    0    0    0    0 -0.00000000000E+00 -0.00000000000E+00 -0.45593999997E+02  0.45594000000E+02  0.51100000000E-03 0. -1.
    9900012    2    1    2    0    0 -0.27909322951E+02 -0.97910780690E+01  0.11913199369E+02  0.59301955458E+02  0.50000020846E+02 0.  0.
         12    1    1    2    0    0  0.27909322951E+02  0.97910780690E+01 -0.11913199369E+02  0.31886044542E+02  0.00000000000E+00 0. -1.
         11    1    3    3    0    0 -0.16870643760E+01 -0.16959424703E+02  0.42568310922E+01  0.17566698143E+02  0.51100000000E-03 0. -1.
        -11    1    3    3    0    0  0.59088237728E+01  0.12117274424E+01  0.67385592096E+01  0.90438190083E+01  0.51100000000E-03 0.  1.
        -12    1    3    3    0    0 -0.32131082348E+02  0.59566191913E+01  0.91780906752E+00  0.32691438306E+02  0.00000000000E+00 0.  1.
</event>
<event>
 7    1  0.5634483E-012  0.5930194E+02  0.7816164E-02  0.1266605E+00
        -11   -1    0    0    0    0  0.00000000000E+00  0.00000000000E+00  0.45593999997E+02  0.45594000000E+02  0.51100000000E-03 0.  1.
         11   -1    0    0    0    0 -0.00000000000E+00 -0.00000000000E+00 -0.45593999997E+02  0.45594000000E+02  0.51100000000E-03 0. -1.
    9900012    2    1    2    0    0 -0.21840090604E+02 -0.40511109334E+01  0.22876185563E+02  0.59301938416E+02  0.49999989766E+02 0.  0.
         12    1    1    2    0    0  0.21840090604E+02  0.40511109334E+01 -0.22876185563E+02  0.31886061584E+02  0.00000000000E+00 0. -1.
         11    1    3    3    0    0  0.27320270029E+01  0.87965401725E+00 -0.97576335326E+00  0.30314810106E+01  0.51100000000E-03 0. -1.
        -11    1    3    3    0    0  0.60320133639E+00 -0.19450312746E+02  0.18239397115E+02  0.26671222790E+02  0.51100000000E-03 0.  1.
         12    1    3    3    0    0 -0.25175318944E+02  0.14519547795E+02  0.56125518014E+01  0.29599234615E+02  0.00000000000E+00 0. -1.
</event>
<event>
 7    1  0.5634483E-012  0.5930195E+02  0.7816164E-02  0.1266605E+00
        -11   -1    0    0    0    0  0.00000000000E+00  0.00000000000E+00  0.45593999997E+02  0.45594000000E+02  0.51100000000E-03 0.  1.
         11   -1    0    0    0    0 -0.00000000000E+00 -0.00000000000E+00 -0.45593999997E+02  0.45594000000E+02  0.51100000000E-03 0. -1.
    9900012    2    1    2    0    0  0.93845931265E+01 -0.79866294805E+01  0.29408554599E+02  0.59301954115E+02  0.50000018396E+02 0.  0.
         12    1    1    2    0    0 -0.93845931265E+01  0.79866294805E+01 -0.29408554599E+02  0.31886045885E+02  0.00000000000E+00 0. -1.
         11    1    3    3    0    0  0.10945434792E+02  0.83699409539E+00  0.87678435672E+01  0.14049134599E+02  0.51100000000E-03 0. -1.
        -11    1    3    3    0    0  0.11093546020E+02 -0.10408184991E+02 -0.54931824389E+01  0.16173191759E+02  0.51100000000E-03 0.  1.
         12    1    3    3    0    0 -0.12654387685E+02  0.15845614148E+01  0.26133893470E+02  0.29079627757E+02  0.00000000000E+00 0. -1.
</event>
<event>
 7    1  0.5634483E-012  0.5930194E+02  0.7816164E-02  0.1266605E+00
        -11   -1    0    0    0    0  0.00000000000E+00  0.00000000000E+00  0.45593999997E+02  0.45594000000E+02  0.51100000000E-03 0. -1.
         11   -1    0    0    0    0 -0.00000000000E+00 -0.00000000000E+00 -0.45593999997E+02  0.45594000000E+02  0.51100000000E-03 0.  1.
    9900012    2    1    2    0    0  0.30123565932E+02  0.60875083767E+01 -0.84990439358E+01  0.59301941440E+02  0.49999995281E+02 0.  0.
         12    1    1    2    0    0 -0.30123565932E+02 -0.60875083767E+01  0.84990439358E+01  0.31886058560E+02  0.00000000000E+00 0. -1.
         11    1    3    3    0    0  0.22587438171E+02  0.25140147835E+02 -0.45150331506E+01  0.34096992843E+02  0.51100000000E-03 0. -1.
        -11    1    3    3    0    0  0.52121825948E+01 -0.16374666021E+01  0.30762616891E+01  0.62698907897E+01  0.51100000000E-03 0.  1.
        -12    1    3    3    0    0  0.23239451658E+01 -0.17415172857E+02 -0.70602724743E+01  0.18935057807E+02  0.00000000000E+00 0.  1.
</event>
<event>
 7    1  0.5634483E-012  0.5930188E+02  0.7816164E-02  0.1266605E+00
        -11   -1    0    0    0    0  0.00000000000E+00  0.00000000000E+00  0.45593999997E+02  0.45594000000E+02  0.51100000000E-03 0.  1.
         11   -1    0    0    0    0 -0.00000000000E+00 -0.00000000000E+00 -0.45593999997E+02  0.45594000000E+02  0.51100000000E-03 0. -1.
    9900012    2    1    2    0    0 -0.23501642812E+02  0.18663469042E+02  0.10773693732E+02  0.59301878125E+02  0.49999879810E+02 0.  0.
         12    1    1    2    0    0  0.23501642812E+02 -0.18663469042E+02 -0.10773693732E+02  0.31886121875E+02  0.00000000000E+00 0. -1.
         11    1    3    3    0    0  0.22327784541E+00 -0.21783648112E+01 -0.81517548890E+01  0.84407484431E+01  0.51100000000E-03 0. -1.
        -11    1    3    3    0    0 -0.16061786143E+02 -0.55892862686E+01  0.15713750749E+02  0.23154763181E+02  0.51100000000E-03 0.  1.
        -12    1    3    3    0    0 -0.76631345145E+01  0.26431120122E+02  0.32116978729E+01  0.27706366502E+02  0.00000000000E+00 0.  1.
</event>
<event>
 7    1  0.5634483E-012  0.5930194E+02  0.7816164E-02  0.1266605E+00
        -11   -1    0    0    0    0  0.00000000000E+00  0.00000000000E+00  0.45593999997E+02  0.45594000000E+02  0.51100000000E-03 0.  1.
         11   -1    0    0    0    0 -0.00000000000E+00 -0.00000000000E+00 -0.45593999997E+02  0.45594000000E+02  0.51100000000E-03 0. -1.
    9900012    2    1    2    0    0 -0.94076496117E+01  0.28014164340E+02  0.11975953812E+02  0.59301941218E+02  0.49999994877E+02 0.  0.
         12    1    1    2    0    0  0.94076496117E+01 -0.28014164340E+02 -0.11975953812E+02  0.31886058782E+02  0.00000000000E+00 0. -1.
         11    1    3    3    0    0  0.32126742100E+01 -0.11939716855E+01  0.80038707548E+01  0.87068244089E+01  0.51100000000E-03 0. -1.
        -11    1    3    3    0    0 -0.23150271102E+02  0.21255756403E+02  0.13616052588E+02  0.34251118532E+02  0.51100000000E-03 0.  1.
         12    1    3    3    0    0  0.10529947280E+02  0.79523796230E+01 -0.96439695304E+01  0.16343998278E+02  0.00000000000E+00 0. -1.
</event>
<event>
 7    1  0.5634483E-012  0.5930211E+02  0.7816164E-02  0.1266604E+00
        -11   -1    0    0    0    0  0.00000000000E+00  0.00000000000E+00  0.45593999997E+02  0.45594000000E+02  0.51100000000E-03 0.  1.
         11   -1    0    0    0    0 -0.00000000000E+00 -0.00000000000E+00 -0.45593999997E+02  0.45594000000E+02  0.51100000000E-03 0. -1.
    9900012    2    1    2    0    0 -0.21350320932E+01 -0.13719389206E+02  0.28704184542E+02  0.59302106372E+02  0.50000296077E+02 0.  0.
         12    1    1    2    0    0  0.21350320932E+01  0.13719389206E+02 -0.28704184542E+02  0.31885893628E+02  0.00000000000E+00 0. -1.
         11    1    3    3    0    0 -0.17992685188E+02 -0.25210277285E+02  0.16729178672E+02  0.35201707634E+02  0.51100000000E-03 0.  1.
        -11    1    3    3    0    0  0.49493926839E+01  0.33883569051E+01  0.14626628760E-01  0.59981384324E+01  0.51100000000E-03 0. -1.
        -12    1    3    3    0    0  0.10908260411E+02  0.81025311737E+01  0.11960379241E+02  0.18102260306E+02  0.00000000000E+00 0.  1.
</event>
<event>
 7    1  0.5634483E-012  0.5930195E+02  0.7816164E-02  0.1266605E+00
        -11   -1    0    0    0    0  0.00000000000E+00  0.00000000000E+00  0.45593999997E+02  0.45594000000E+02  0.51100000000E-03 0.  1.
         11   -1    0    0    0    0 -0.00000000000E+00 -0.00000000000E+00 -0.45593999997E+02  0.45594000000E+02  0.51100000000E-03 0. -1.
    9900012    2    1    2    0    0  0.10735537883E+02  0.30003625858E+02 -0.11184408615E+01  0.59301949002E+02  0.50000009073E+02 0.  0.
         12    1    1    2    0    0 -0.10735537883E+02 -0.30003625858E+02  0.11184408615E+01  0.31886050998E+02  0.00000000000E+00 0. -1.
         11    1    3    3    0    0  0.91329323916E+01  0.32961437173E+02 -0.40570391910E+01  0.34443088738E+02  0.51100000000E-03 0. -1.
        -11    1    3    3    0    0 -0.59219560725E+01 -0.24099818379E+01  0.11677883611E+02  0.13313547314E+02  0.51100000000E-03 0.  1.
         12    1    3    3    0    0  0.75245615644E+01 -0.54782947759E+00 -0.87392852818E+01  0.11545312950E+02  0.00000000000E+00 0. -1.
</event>
<event>
 7    1  0.5634483E-012  0.5930214E+02  0.7816164E-02  0.1266604E+00
        -11   -1    0    0    0    0  0.00000000000E+00  0.00000000000E+00  0.45593999997E+02  0.45594000000E+02  0.51100000000E-03 0. -1.
         11   -1    0    0    0    0 -0.00000000000E+00 -0.00000000000E+00 -0.45593999997E+02  0.45594000000E+02  0.51100000000E-03 0.  1.
    9900012    2    1    2    0    0 -0.24388880021E+02 -0.19980527199E+02  0.47611879242E+01  0.59302143476E+02  0.50000363744E+02 0.  0.
         12    1    1    2    0    0  0.24388880021E+02  0.19980527199E+02 -0.47611879242E+01  0.31885856524E+02  0.00000000000E+00 0. -1.
         11    1    3    3    0    0 -0.20601595550E+01  0.44866634513E+01  0.71264501510E+00  0.49882130564E+01  0.51100000000E-03 0. -1.
        -11    1    3    3    0    0 -0.19976986931E+01  0.12132183755E+02  0.88821166383E+00  0.12327595181E+02  0.51100000000E-03 0.  1.
        -12    1    3    3    0    0 -0.20331021773E+02 -0.36599374405E+02  0.31603312452E+01  0.41986335238E+02  0.00000000000E+00 0.  1.
</event>
<event>
 7    1  0.5634483E-012  0.5930192E+02  0.7816164E-02  0.1266605E+00
        -11   -1    0    0    0    0  0.00000000000E+00  0.00000000000E+00  0.45593999997E+02  0.45594000000E+02  0.51100000000E-03 0.  1.
         11   -1    0    0    0    0 -0.00000000000E+00 -0.00000000000E+00 -0.45593999997E+02  0.45594000000E+02  0.51100000000E-03 0. -1.
    9900012    2    1    2    0    0  0.24079876559E+01  0.15515808568E+02  0.27752181624E+02  0.59301916751E+02  0.49999950253E+02 0.  0.
         12    1    1    2    0    0 -0.24079876559E+01 -0.15515808568E+02 -0.27752181624E+02  0.31886083249E+02  0.00000000000E+00 0. -1.
         11    1    3    3    0    0  0.80510695681E+01 -0.73085343423E+01  0.42576453898E+01  0.11677411526E+02  0.51100000000E-03 0.  1.
        -11    1    3    3    0    0  0.17433531358E+01 -0.54443465646E+01  0.16666278264E+02  0.17619450080E+02  0.51100000000E-03 0. -1.
        -12    1    3    3    0    0 -0.73864350479E+01  0.28268689475E+02  0.68282579702E+01  0.30005055145E+02  0.00000000000E+00 0.  1.
</event>
<event>
 7    1  0.5634483E-012  0.5930195E+02  0.7816164E-02  0.1266605E+00
        -11   -1    0    0    0    0  0.00000000000E+00  0.00000000000E+00  0.45593999997E+02  0.45594000000E+02  0.51100000000E-03 0.  1.
         11   -1    0    0    0    0 -0.00000000000E+00 -0.00000000000E+00 -0.45593999997E+02  0.45594000000E+02  0.51100000000E-03 0. -1.
    9900012    2    1    2    0    0  0.46613255356E+01 -0.20927578787E+02  0.23601449605E+02  0.59301953944E+02  0.50000018085E+02 0.  0.
         12    1    1    2    0    0 -0.46613255356E+01  0.20927578787E+02 -0.23601449605E+02  0.31886046056E+02  0.00000000000E+00 0. -1.
         11    1    3    3    0    0  0.13776936752E+02 -0.69456440430E+01  0.17928573113E+02  0.23653323056E+02  0.51100000000E-03 0. -1.
        -11    1    3    3    0    0 -0.22615521428E+01 -0.11492230445E+02  0.17912141303E+02  0.21401653791E+02  0.51100000000E-03 0.  1.
         12    1    3    3    0    0 -0.68540590731E+01 -0.24897042993E+01 -0.12239264812E+02  0.14246977097E+02  0.00000000000E+00 0. -1.
</event>
<event>
 7    1  0.5634483E-012  0.5930180E+02  0.7816164E-02  0.1266605E+00
        -11   -1    0    0    0    0  0.00000000000E+00  0.00000000000E+00  0.45593999997E+02  0.45594000000E+02  0.51100000000E-03 0.  1.
         11   -1    0    0    0    0 -0.00000000000E+00 -0.00000000000E+00 -0.45593999997E+02  0.45594000000E+02  0.51100000000E-03 0. -1.
    9900012    2    1    2    0    0  0.57510678835E+01  0.17530786472E+02  0.26006272624E+02  0.59301804368E+02  0.49999745293E+02 0.  0.
         12    1    1    2    0    0 -0.57510678835E+01 -0.17530786472E+02 -0.26006272624E+02  0.31886195632E+02  0.00000000000E+00 0. -1.
         11    1    3    3    0    0  0.12131458681E+02 -0.31480579905E+01 -0.73031677639E+01  0.14505820159E+02  0.51100000000E-03 0. -1.
        -11    1    3    3    0    0  0.27678788144E+01  0.54703050297E+01 -0.95811259137E+00  0.62051083994E+01  0.51100000000E-03 0.  1.
         12    1    3    3    0    0 -0.91482696119E+01  0.15208539433E+02  0.34267552979E+02  0.38590875809E+02  0.00000000000E+00 0. -1.
</event>
<event>
 7    1  0.5634483E-012  0.5930191E+02  0.7816164E-02  0.1266605E+00
        -11   -1    0    0    0    0  0.00000000000E+00  0.00000000000E+00  0.45593999997E+02  0.45594000000E+02  0.51100000000E-03 0. -1.
         11   -1    0    0    0    0 -0.00000000000E+00 -0.00000000000E+00 -0.45593999997E+02  0.45594000000E+02  0.51100000000E-03 0.  1.
    9900012    2    1    2    0    0  0.30779848057E+02 -0.11586735640E+01 -0.82450628129E+01  0.59301911628E+02  0.49999940912E+02 0.  0.
         12    1    1    2    0    0 -0.30779848057E+02  0.11586735640E+01  0.82450628129E+01  0.31886088372E+02  0.00000000000E+00 0. -1.
         11    1    3    3    0    0  0.23561697532E+02  0.74975931605E+01 -0.75425920472E+01  0.25850690297E+02  0.51100000000E-03 0. -1.
        -11    1    3    3    0    0  0.17077077397E+02 -0.10484397233E+02  0.65436098874E+01  0.21080037675E+02  0.51100000000E-03 0.  1.
        -12    1    3    3    0    0 -0.98589268719E+01  0.18281305087E+01 -0.72460806531E+01  0.12371183656E+02  0.00000000000E+00 0.  1.
</event>
<event>
 7    1  0.5634483E-012  0.5930196E+02  0.7816164E-02  0.1266605E+00
        -11   -1    0    0    0    0  0.00000000000E+00  0.00000000000E+00  0.45593999997E+02  0.45594000000E+02  0.51100000000E-03 0.  1.
         11   -1    0    0    0    0 -0.00000000000E+00 -0.00000000000E+00 -0.45593999997E+02  0.45594000000E+02  0.51100000000E-03 0. -1.
    9900012    2    1    2    0    0  0.25704050942E+02  0.14979402292E+02  0.11473397993E+02  0.59301959334E+02  0.50000027914E+02 0.  0.
         12    1    1    2    0    0 -0.25704050942E+02 -0.14979402292E+02 -0.11473397993E+02  0.31886040666E+02  0.00000000000E+00 0. -1.
         11    1    3    3    0    0  0.12027915602E+02 -0.11331152450E+01 -0.16131087165E+02  0.20153577282E+02  0.51100000000E-03 0. -1.
        -11    1    3    3    0    0  0.19402214911E+00 -0.34945860923E+01  0.63128035261E+01  0.72181206121E+01  0.51100000000E-03 0.  1.
        -12    1    3    3    0    0  0.13482113191E+02  0.19607103630E+02  0.21291681632E+02  0.31930261439E+02  0.00000000000E+00 0.  1.
</event>
<event>
 7    1  0.5634483E-012  0.5930186E+02  0.7816164E-02  0.1266605E+00
        -11   -1    0    0    0    0  0.00000000000E+00  0.00000000000E+00  0.45593999997E+02  0.45594000000E+02  0.51100000000E-03 0.  1.
         11   -1    0    0    0    0 -0.00000000000E+00 -0.00000000000E+00 -0.45593999997E+02  0.45594000000E+02  0.51100000000E-03 0. -1.
    9900012    2    1    2    0    0  0.79627113509E+01 -0.22167466643E+02  0.21492430673E+02  0.59301859975E+02  0.49999846708E+02 0.  0.
         12    1    1    2    0    0 -0.79627113509E+01  0.22167466643E+02 -0.21492430673E+02  0.31886140025E+02  0.00000000000E+00 0. -1.
         11    1    3    3    0    0  0.36815648117E+01  0.49689843751E+01 -0.11084432119E+02  0.12692886230E+02  0.51100000000E-03 0. -1.
        -11    1    3    3    0    0 -0.62169835357E+01 -0.27993485291E+01  0.61917124136E+01  0.92100238514E+01  0.51100000000E-03 0.  1.
        -12    1    3    3    0    0  0.10498130075E+02 -0.24337102489E+02  0.26385150379E+02  0.37398949894E+02  0.00000000000E+00 0.  1.
</event>
<event>
 7    1  0.5634483E-012  0.5930194E+02  0.7816164E-02  0.1266605E+00
        -11   -1    0    0    0    0  0.00000000000E+00  0.00000000000E+00  0.45593999997E+02  0.45594000000E+02  0.51100000000E-03 0.  1.
         11   -1    0    0    0    0 -0.00000000000E+00 -0.00000000000E+00 -0.45593999997E+02  0.45594000000E+02  0.51100000000E-03 0. -1.
    9900012    2    1    2    0    0  0.92763206808E+01 -0.11654033665E+02  0.28193157756E+02  0.59301940816E+02  0.49999994142E+02 0.  0.
         12    1    1    2    0    0 -0.92763206808E+01  0.11654033665E+02 -0.28193157756E+02  0.31886059184E+02  0.00000000000E+00 0. -1.
         11    1    3    3    0    0 -0.14007449034E+01  0.14043169547E+02  0.82810472380E+00  0.14137130363E+02  0.51100000000E-03 0. -1.
        -11    1    3    3    0    0  0.14843685843E+02 -0.64493507154E+01  0.13565917151E+02  0.21117841804E+02  0.51100000000E-03 0.  1.
        -12    1    3    3    0    0 -0.41666202589E+01 -0.19247852496E+02  0.13799135882E+02  0.24046968649E+02  0.00000000000E+00 0.  1.
</event>
<event>
 7    1  0.5634483E-012  0.5930191E+02  0.7816164E-02  0.1266605E+00
        -11   -1    0    0    0    0  0.00000000000E+00  0.00000000000E+00  0.45593999997E+02  0.45594000000E+02  0.51100000000E-03 0. -1.
         11   -1    0    0    0    0 -0.00000000000E+00 -0.00000000000E+00 -0.45593999997E+02  0.45594000000E+02  0.51100000000E-03 0.  1.
    9900012    2    1    2    0    0 -0.15905908304E+02 -0.12055839028E+02 -0.24867276301E+02  0.59301912057E+02  0.49999941694E+02 0.  0.
         12    1    1    2    0    0  0.15905908304E+02  0.12055839028E+02  0.24867276301E+02  0.31886087943E+02  0.00000000000E+00 0. -1.
         11    1    3    3    0    0 -0.77061423137E+01  0.21865976582E+00  0.11568261936E+02  0.13901695074E+02  0.51100000000E-03 0. -1.
        -11    1    3    3    0    0 -0.29977831329E+01  0.61087604099E+01 -0.16197946870E+02  0.17569210014E+02  0.51100000000E-03 0.  1.
        -12    1    3    3    0    0 -0.52019828576E+01 -0.18383259204E+02 -0.20237591367E+02  0.27831006970E+02  0.00000000000E+00 0.  1.
</event>
<event>
 7    1  0.5634483E-012  0.5930193E+02  0.7816164E-02  0.1266605E+00
        -11   -1    0    0    0    0  0.00000000000E+00  0.00000000000E+00  0.45593999997E+02  0.45594000000E+02  0.51100000000E-03 0. -1.
         11   -1    0    0    0    0 -0.00000000000E+00 -0.00000000000E+00 -0.45593999997E+02  0.45594000000E+02  0.51100000000E-03 0.  1.
    9900012    2    1    2    0    0 -0.23143912357E+02  0.79417785739E+01 -0.20445259138E+02  0.59301934904E+02  0.49999983360E+02 0.  0.
         12    1    1    2    0    0  0.23143912357E+02 -0.79417785739E+01  0.20445259138E+02  0.31886065096E+02  0.00000000000E+00 0. -1.
         11    1    3    3    0    0  0.24990676015E+01 -0.50435134011E+01 -0.11963185841E+02  0.13221201989E+02  0.51100000000E-03 0. -1.
        -11    1    3    3    0    0 -0.10757678167E+02 -0.37697654434E+00 -0.20206536367E+02  0.22894843591E+02  0.51100000000E-03 0.  1.
         12    1    3    3    0    0 -0.14885301792E+02  0.13362268519E+02  0.11724463070E+02  0.23185889323E+02  0.00000000000E+00 0. -1.
</event>
<event>
 7    1  0.5634483E-012  0.5930194E+02  0.7816164E-02  0.1266605E+00
        -11   -1    0    0    0    0  0.00000000000E+00  0.00000000000E+00  0.45593999997E+02  0.45594000000E+02  0.51100000000E-03 0.  1.
         11   -1    0    0    0    0 -0.00000000000E+00 -0.00000000000E+00 -0.45593999997E+02  0.45594000000E+02  0.51100000000E-03 0. -1.
    9900012    2    1    2    0    0 -0.75949664305E+01 -0.22626378046E+02  0.21144364252E+02  0.59301942887E+02  0.49999997920E+02 0.  0.
         12    1    1    2    0    0  0.75949664305E+01  0.22626378046E+02 -0.21144364252E+02  0.31886057113E+02  0.00000000000E+00 0. -1.
         11    1    3    3    0    0 -0.12917092916E+02 -0.19121195407E+02  0.18340145795E+02  0.29475962261E+02  0.51100000000E-03 0. -1.
        -11    1    3    3    0    0  0.52846038580E+01 -0.16174032067E+02  0.12344638102E+01  0.17060194970E+02  0.51100000000E-03 0.  1.
        -12    1    3    3    0    0  0.37522627707E-01  0.12668849428E+02  0.15697546467E+01  0.12765785656E+02  0.00000000000E+00 0.  1.
</event>
<event>
 7    1  0.5634483E-012  0.5930196E+02  0.7816164E-02  0.1266605E+00
        -11   -1    0    0    0    0  0.00000000000E+00  0.00000000000E+00  0.45593999997E+02  0.45594000000E+02  0.51100000000E-03 0.  1.
         11   -1    0    0    0    0 -0.00000000000E+00 -0.00000000000E+00 -0.45593999997E+02  0.45594000000E+02  0.51100000000E-03 0. -1.
    9900012    2    1    2    0    0 -0.13431223969E+02  0.94402901951E+01  0.27335004644E+02  0.59301963320E+02  0.50000035184E+02 0.  0.
         12    1    1    2    0    0  0.13431223969E+02 -0.94402901951E+01 -0.27335004644E+02  0.31886036680E+02  0.00000000000E+00 0. -1.
         11    1    3    3    0    0  0.57119541437E+01  0.29829401256E+01  0.19673087242E+02  0.20701563077E+02  0.51100000000E-03 0. -1.
        -11    1    3    3    0    0 -0.14972885255E+02  0.29348107997E+01  0.19972562214E+02  0.25133715383E+02  0.51100000000E-03 0.  1.
        -12    1    3    3    0    0 -0.41702928578E+01  0.35225392698E+01 -0.12310644812E+02  0.13466684860E+02  0.00000000000E+00 0.  1.
</event>
<event>
 7    1  0.5634483E-012  0.5930194E+02  0.7816164E-02  0.1266605E+00
        -11   -1    0    0    0    0  0.00000000000E+00  0.00000000000E+00  0.45593999997E+02  0.45594000000E+02  0.51100000000E-03 0. -1.
         11   -1    0    0    0    0 -0.00000000000E+00 -0.00000000000E+00 -0.45593999997E+02  0.45594000000E+02  0.51100000000E-03 0.  1.
    9900012    2    1    2    0    0  0.19186319073E+02  0.12353485530E+02 -0.22270993725E+02  0.59301943396E+02  0.49999998847E+02 0.  0.
         12    1    1    2    0    0 -0.19186319073E+02 -0.12353485530E+02  0.22270993725E+02  0.31886056604E+02  0.00000000000E+00 0. -1.
         11    1    3    3    0    0  0.19102233547E+02  0.54317070014E+01 -0.14194836174E+02  0.24410902108E+02  0.51100000000E-03 0. -1.
        -11    1    3    3    0    0 -0.52076834694E+01 -0.89305772243E+01 -0.13784805459E+02  0.17230671446E+02  0.51100000000E-03 0.  1.
         12    1    3    3    0    0  0.52917689944E+01  0.15852355753E+02  0.57086479081E+01  0.17660369842E+02  0.00000000000E+00 0. -1.
</event>
<event>
 7    1  0.5634483E-012  0.5930194E+02  0.7816164E-02  0.1266605E+00
        -11   -1    0    0    0    0  0.00000000000E+00  0.00000000000E+00  0.45593999997E+02  0.45594000000E+02  0.51100000000E-03 0.  1.
         11   -1    0    0    0    0 -0.00000000000E+00 -0.00000000000E+00 -0.45593999997E+02  0.45594000000E+02  0.51100000000E-03 0. -1.
    9900012    2    1    2    0    0  0.36323178648E+01 -0.64366694092E+01  0.31017678014E+02  0.59301940420E+02  0.49999993420E+02 0.  0.
         12    1    1    2    0    0 -0.36323178648E+01  0.64366694092E+01 -0.31017678014E+02  0.31886059580E+02  0.00000000000E+00 0. -1.
         11    1    3    3    0    0  0.48218324634E+01 -0.32365173724E+01  0.14218068514E+01  0.59788500559E+01  0.51100000000E-03 0. -1.
        -11    1    3    3    0    0  0.18698454304E+02 -0.47243525634E+01  0.21653957919E+01  0.19407231634E+02  0.51100000000E-03 0.  1.
        -12    1    3    3    0    0 -0.19887968903E+02  0.15242005266E+01  0.27430475371E+02  0.33915858730E+02  0.00000000000E+00 0.  1.
</event>
<event>
 7    1  0.5634483E-012  0.5930202E+02  0.7816164E-02  0.1266604E+00
        -11   -1    0    0    0    0  0.00000000000E+00  0.00000000000E+00  0.45593999997E+02  0.45594000000E+02  0.51100000000E-03 0.  1.
         11   -1    0    0    0    0 -0.00000000000E+00 -0.00000000000E+00 -0.45593999997E+02  0.45594000000E+02  0.51100000000E-03 0. -1.
    9900012    2    1    2    0    0  0.18866195552E+02  0.11684304657E+02  0.22896711952E+02  0.59302019882E+02  0.50000138339E+02 0.  0.
         12    1    1    2    0    0 -0.18866195552E+02 -0.11684304657E+02 -0.22896711952E+02  0.31885980118E+02  0.00000000000E+00 0. -1.
         11    1    3    3    0    0  0.96261937923E+01  0.17141553989E+02 -0.77657721473E+00  0.19674845680E+02  0.51100000000E-03 0. -1.
        -11    1    3    3    0    0  0.16614890846E+02  0.30933471426E+01  0.22690537861E+02  0.28292824232E+02  0.51100000000E-03 0.  1.
         12    1    3    3    0    0 -0.73748890864E+01 -0.85505964747E+01  0.98275130584E+00  0.11334349970E+02  0.00000000000E+00 0. -1.
</event>
<event>
 7    1  0.5634483E-012  0.5930193E+02  0.7816164E-02  0.1266605E+00
        -11   -1    0    0    0    0  0.00000000000E+00  0.00000000000E+00  0.45593999997E+02  0.45594000000E+02  0.51100000000E-03 0.  1.
         11   -1    0    0    0    0 -0.00000000000E+00 -0.00000000000E+00 -0.45593999997E+02  0.45594000000E+02  0.51100000000E-03 0. -1.
    9900012    2    1    2    0    0 -0.14186486827E+02 -0.18554546538E+02  0.21706998141E+02  0.59301931349E+02  0.49999976877E+02 0.  0.
         12    1    1    2    0    0  0.14186486827E+02  0.18554546538E+02 -0.21706998141E+02  0.31886068651E+02  0.00000000000E+00 0. -1.
         11    1    3    3    0    0 -0.18486484536E+01  0.39320358558E+00  0.40524947280E+01  0.44715572171E+01  0.51100000000E-03 0. -1.
        -11    1    3    3    0    0  0.84830960893E+01 -0.16433566627E+02  0.26295533404E+02  0.32147785438E+02  0.51100000000E-03 0.  1.
         12    1    3    3    0    0 -0.20820934462E+02 -0.25141834968E+01 -0.86410299907E+01  0.22682588693E+02  0.00000000000E+00 0. -1.
</event>
<event>
 7    1  0.5634483E-012  0.5930192E+02  0.7816164E-02  0.1266605E+00
        -11   -1    0    0    0    0  0.00000000000E+00  0.00000000000E+00  0.45593999997E+02  0.45594000000E+02  0.51100000000E-03 0.  1.
         11   -1    0    0    0    0 -0.00000000000E+00 -0.00000000000E+00 -0.45593999997E+02  0.45594000000E+02  0.51100000000E-03 0. -1.
    9900012    2    1    2    0    0  0.15546711581E+02  0.21825193424E+02 -0.17282439054E+02  0.59301921398E+02  0.49999958729E+02 0.  0.
         12    1    1    2    0    0 -0.15546711581E+02 -0.21825193424E+02  0.17282439054E+02  0.31886078602E+02  0.00000000000E+00 0. -1.
         11    1    3    3    0    0  0.12787582349E+02  0.39333355446E+01 -0.76921208226E+01  0.15432501866E+02  0.51100000000E-03 0. -1.
        -11    1    3    3    0    0  0.17309605417E+02  0.21437919747E+02 -0.38081470833E+01  0.27815622000E+02  0.51100000000E-03 0.  1.
        -12    1    3    3    0    0 -0.14550476186E+02 -0.35460618677E+01 -0.57821711480E+01  0.16053797532E+02  0.00000000000E+00 0.  1.
</event>
<event>
 7    1  0.5634483E-012  0.5930188E+02  0.7816164E-02  0.1266605E+00
        -11   -1    0    0    0    0  0.00000000000E+00  0.00000000000E+00  0.45593999997E+02  0.45594000000E+02  0.51100000000E-03 0.  1.
         11   -1    0    0    0    0 -0.00000000000E+00 -0.00000000000E+00 -0.45593999997E+02  0.45594000000E+02  0.51100000000E-03 0. -1.
    9900012    2    1    2    0    0  0.88595359943E+01 -0.16591040833E+02  0.25748220766E+02  0.59301876269E+02  0.49999876424E+02 0.  0.
         12    1    1    2    0    0 -0.88595359943E+01  0.16591040833E+02 -0.25748220766E+02  0.31886123731E+02  0.00000000000E+00 0. -1.
         11    1    3    3    0    0  0.15225405251E+00 -0.20936069725E+01  0.24697932476E+02  0.24786977232E+02  0.51100000000E-03 0. -1.
        -11    1    3    3    0    0  0.44861867200E+00  0.69405062656E+01  0.79159174283E+01  0.10537249875E+02  0.51100000000E-03 0.  1.
         12    1    3    3    0    0  0.82586632698E+01 -0.21437940126E+02 -0.68656291379E+01  0.23977649162E+02  0.00000000000E+00 0. -1.
</event>
<event>
 7    1  0.5634483E-012  0.5930198E+02  0.7816164E-02  0.1266605E+00
        -11   -1    0    0    0    0  0.00000000000E+00  0.00000000000E+00  0.45593999997E+02  0.45594000000E+02  0.51100000000E-03 0.  1.
         11   -1    0    0    0    0 -0.00000000000E+00 -0.00000000000E+00 -0.45593999997E+02  0.45594000000E+02  0.51100000000E-03 0. -1.
    9900012    2    1    2    0    0  0.42262646734E+01 -0.25824289238E+02  0.18219846258E+02  0.59301983858E+02  0.50000072641E+02 0.  0.
         12    1    1    2    0    0 -0.42262646734E+01  0.25824289238E+02 -0.18219846258E+02  0.31886016142E+02  0.00000000000E+00 0. -1.
         11    1    3    3    0    0  0.74604962372E+01 -0.47249893083E+01  0.25432664613E+01  0.91898167894E+01  0.51100000000E-03 0. -1.
        -11    1    3    3    0    0  0.10350483438E+02 -0.21659789834E+02  0.24182427054E+02  0.34074459372E+02  0.51100000000E-03 0.  1.
         12    1    3    3    0    0 -0.13584715001E+02  0.56048990408E+00 -0.85058472571E+01  0.16037707697E+02  0.00000000000E+00 0. -1.
</event>
<event>
 7    1  0.5634483E-012  0.5930194E+02  0.7816164E-02  0.1266605E+00
        -11   -1    0    0    0    0  0.00000000000E+00  0.00000000000E+00  0.45593999997E+02  0.45594000000E+02  0.51100000000E-03 0. -1.
         11   -1    0    0    0    0 -0.00000000000E+00 -0.00000000000E+00 -0.45593999997E+02  0.45594000000E+02  0.51100000000E-03 0.  1.
    9900012    2    1    2    0    0 -0.17549815052E+02 -0.26170866825E+02  0.48796004458E+01  0.59301940675E+02  0.49999993886E+02 0.  0.
         12    1    1    2    0    0  0.17549815052E+02  0.26170866825E+02 -0.48796004458E+01  0.31886059325E+02  0.00000000000E+00 0. -1.
         11    1    3    3    0    0 -0.92439140942E+01  0.12372260741E+02  0.14630612324E+01  0.15513327562E+02  0.51100000000E-03 0. -1.
        -11    1    3    3    0    0  0.49233911770E+01 -0.12097584190E+02  0.54418912996E+01  0.14149399461E+02  0.51100000000E-03 0.  1.
        -12    1    3    3    0    0 -0.13229292135E+02 -0.26445543376E+02 -0.20253520862E+01  0.29639213652E+02  0.00000000000E+00 0.  1.
</event>
<event>
 7    1  0.5634483E-012  0.5930193E+02  0.7816164E-02  0.1266605E+00
        -11   -1    0    0    0    0  0.00000000000E+00  0.00000000000E+00  0.45593999997E+02  0.45594000000E+02  0.51100000000E-03 0.  1.
         11   -1    0    0    0    0 -0.00000000000E+00 -0.00000000000E+00 -0.45593999997E+02  0.45594000000E+02  0.51100000000E-03 0. -1.
    9900012    2    1    2    0    0  0.82162222449E+01 -0.13400647377E+02  0.27742344320E+02  0.59301932095E+02  0.49999978237E+02 0.  0.
         12    1    1    2    0    0 -0.82162222449E+01  0.13400647377E+02 -0.27742344320E+02  0.31886067905E+02  0.00000000000E+00 0. -1.
         11    1    3    3    0    0 -0.90461420491E+00  0.26557738506E+01  0.39515842124E+01  0.48462851396E+01  0.51100000000E-03 0. -1.
        -11    1    3    3    0    0  0.17207074502E+02  0.45761447637E+01  0.26713161376E+02  0.32103231999E+02  0.51100000000E-03 0.  1.
         12    1    3    3    0    0 -0.80862380521E+01 -0.20632565991E+02 -0.29224012682E+01  0.22352414956E+02  0.00000000000E+00 0. -1.
</event>
<event>
 7    1  0.5634483E-012  0.5930193E+02  0.7816164E-02  0.1266605E+00
        -11   -1    0    0    0    0  0.00000000000E+00  0.00000000000E+00  0.45593999997E+02  0.45594000000E+02  0.51100000000E-03 0.  1.
         11   -1    0    0    0    0 -0.00000000000E+00 -0.00000000000E+00 -0.45593999997E+02  0.45594000000E+02  0.51100000000E-03 0. -1.
    9900012    2    1    2    0    0  0.16732997628E+02  0.22305712125E+02  0.15465566243E+02  0.59301925575E+02  0.49999966346E+02 0.  0.
         12    1    1    2    0    0 -0.16732997628E+02 -0.22305712125E+02 -0.15465566243E+02  0.31886074425E+02  0.00000000000E+00 0. -1.
         11    1    3    3    0    0  0.52787800818E+01  0.25548849135E+02  0.19802197300E+02  0.32752652250E+02  0.51100000000E-03 0. -1.
        -11    1    3    3    0    0  0.87351942001E+01  0.31764316524E+01  0.80757280967E+01  0.12313030509E+02  0.51100000000E-03 0.  1.
        -12    1    3    3    0    0  0.27190233460E+01 -0.64195686616E+01 -0.12412359153E+02  0.14236242816E+02  0.00000000000E+00 0.  1.
</event>
<event>
 7    1  0.5634483E-012  0.5930200E+02  0.7816164E-02  0.1266605E+00
        -11   -1    0    0    0    0  0.00000000000E+00  0.00000000000E+00  0.45593999997E+02  0.45594000000E+02  0.51100000000E-03 0. -1.
         11   -1    0    0    0    0 -0.00000000000E+00 -0.00000000000E+00 -0.45593999997E+02  0.45594000000E+02  0.51100000000E-03 0.  1.
    9900012    2    1    2    0    0  0.69994680210E+01 -0.25318406660E+02 -0.18074919294E+02  0.59302000316E+02  0.50000102656E+02 0.  0.
         12    1    1    2    0    0 -0.69994680210E+01  0.25318406660E+02  0.18074919294E+02  0.31885999684E+02  0.00000000000E+00 0. -1.
         11    1    3    3    0    0 -0.55276123737E+01 -0.20363214932E+02  0.24262048063E+01  0.21239149958E+02  0.51100000000E-03 0. -1.
        -11    1    3    3    0    0  0.61112286071E+01 -0.14671365162E+02 -0.17479003307E+01  0.15989097117E+02  0.51100000000E-03 0.  1.
        -12    1    3    3    0    0  0.64158517876E+01  0.97161734344E+01 -0.18753223769E+02  0.22073753240E+02  0.00000000000E+00 0.  1.
</event>
<event>
 7    1  0.5634483E-012  0.5930194E+02  0.7816164E-02  0.1266605E+00
        -11   -1    0    0    0    0  0.00000000000E+00  0.00000000000E+00  0.45593999997E+02  0.45594000000E+02  0.51100000000E-03 0.  1.
         11   -1    0    0    0    0 -0.00000000000E+00 -0.00000000000E+00 -0.45593999997E+02  0.45594000000E+02  0.51100000000E-03 0. -1.
    9900012    2    1    2    0    0  0.22481054869E+01  0.31535391435E+02  0.41455705790E+01  0.59301942754E+02  0.49999997678E+02 0.  0.
         12    1    1    2    0    0 -0.22481054869E+01 -0.31535391435E+02 -0.41455705790E+01  0.31886057246E+02  0.00000000000E+00 0. -1.
         11    1    3    3    0    0 -0.22394828392E+01  0.17638816191E+02 -0.15734499290E+02  0.23742737588E+02  0.51100000000E-03 0. -1.
        -11    1    3    3    0    0  0.40963124698E+01  0.16321800872E+02  0.13665110676E+01  0.16883373842E+02  0.51100000000E-03 0.  1.
        -12    1    3    3    0    0  0.39127585631E+00 -0.24252256274E+01  0.18513558802E+02  0.18675831324E+02  0.00000000000E+00 0.  1.
</event>
<event>
 7    1  0.5634483E-012  0.5930195E+02  0.7816164E-02  0.1266605E+00
        -11   -1    0    0    0    0  0.00000000000E+00  0.00000000000E+00  0.45593999997E+02  0.45594000000E+02  0.51100000000E-03 0. -1.
         11   -1    0    0    0    0 -0.00000000000E+00 -0.00000000000E+00 -0.45593999997E+02  0.45594000000E+02  0.51100000000E-03 0.  1.
    9900012    2    1    2    0    0  0.21706944886E+02 -0.99857441914E+00  0.23335200674E+02  0.59301949796E+02  0.50000010519E+02 0.  0.
         12    1    1    2    0    0 -0.21706944886E+02  0.99857441914E+00 -0.23335200674E+02  0.31886050204E+02  0.00000000000E+00 0. -1.
         11    1    3    3    0    0 -0.86657082250E+01 -0.41531873960E+01  0.16017740696E+01  0.97421324677E+01  0.51100000000E-03 0. -1.
        -11    1    3    3    0    0  0.12091805925E+02  0.14499185304E+02 -0.13796972174E+00  0.18880073647E+02  0.51100000000E-03 0.  1.
         12    1    3    3    0    0  0.18280847186E+02 -0.11344572327E+02  0.21871396326E+02  0.30679743681E+02  0.00000000000E+00 0. -1.
</event>
<event>
 7    1  0.5634483E-012  0.5930190E+02  0.7816164E-02  0.1266605E+00
        -11   -1    0    0    0    0  0.00000000000E+00  0.00000000000E+00  0.45593999997E+02  0.45594000000E+02  0.51100000000E-03 0.  1.
         11   -1    0    0    0    0 -0.00000000000E+00 -0.00000000000E+00 -0.45593999997E+02  0.45594000000E+02  0.51100000000E-03 0. -1.
    9900012    2    1    2    0    0 -0.21870273669E+02 -0.31022664691E+01  0.22995440058E+02  0.59301902857E+02  0.49999924914E+02 0.  0.
         12    1    1    2    0    0  0.21870273669E+02  0.31022664691E+01 -0.22995440058E+02  0.31886097143E+02  0.00000000000E+00 0. -1.
         11    1    3    3    0    0 -0.10279337560E+01 -0.36235536902E+01 -0.40698100410E+01  0.55452811636E+01  0.51100000000E-03 0. -1.
        -11    1    3    3    0    0 -0.58504017729E+01 -0.48286060105E+01  0.35110851009E+02  0.35920947868E+02  0.51100000000E-03 0.  1.
         12    1    3    3    0    0 -0.14991938140E+02  0.53498932316E+01 -0.80456009104E+01  0.17835673825E+02  0.00000000000E+00 0. -1.
</event>
<event>
 7    1  0.5634483E-012  0.5930200E+02  0.7816164E-02  0.1266605E+00
        -11   -1    0    0    0    0  0.00000000000E+00  0.00000000000E+00  0.45593999997E+02  0.45594000000E+02  0.51100000000E-03 0.  1.
         11   -1    0    0    0    0 -0.00000000000E+00 -0.00000000000E+00 -0.45593999997E+02  0.45594000000E+02  0.51100000000E-03 0. -1.
    9900012    2    1    2    0    0 -0.28755928244E+02 -0.13761048345E+02  0.66866386273E+00  0.59302000375E+02  0.50000102763E+02 0.  0.
         12    1    1    2    0    0  0.28755928244E+02  0.13761048345E+02 -0.66866386273E+00  0.31885999625E+02  0.00000000000E+00 0. -1.
         11    1    3    3    0    0 -0.18801584146E+02 -0.60311743624E+01  0.26129109795E+01  0.19917377705E+02  0.51100000000E-03 0. -1.
        -11    1    3    3    0    0 -0.18682888463E+02 -0.16747812713E+02 -0.66896503304E+01  0.25967113313E+02  0.51100000000E-03 0.  1.
         12    1    3    3    0    0  0.87285443654E+01  0.90179387302E+01  0.47454032136E+01  0.13417509357E+02  0.00000000000E+00 0. -1.
</event>
<event>
 7    1  0.5634483E-012  0.5930192E+02  0.7816164E-02  0.1266605E+00
        -11   -1    0    0    0    0  0.00000000000E+00  0.00000000000E+00  0.45593999997E+02  0.45594000000E+02  0.51100000000E-03 0.  1.
         11   -1    0    0    0    0 -0.00000000000E+00 -0.00000000000E+00 -0.45593999997E+02  0.45594000000E+02  0.51100000000E-03 0. -1.
    9900012    2    1    2    0    0 -0.57042951060E+01  0.12269010527E+02  0.28873072713E+02  0.59301922633E+02  0.49999960981E+02 0.  0.
         12    1    1    2    0    0  0.57042951060E+01 -0.12269010527E+02 -0.28873072713E+02  0.31886077367E+02  0.00000000000E+00 0. -1.
         11    1    3    3    0    0  0.10012785733E+01 -0.11204355816E+02  0.75887874994E+01  0.13569445236E+02  0.51100000000E-03 0. -1.
        -11    1    3    3    0    0 -0.91903949328E+01 -0.30068825969E+01  0.15879915792E+02  0.18592375528E+02  0.51100000000E-03 0.  1.
         12    1    3    3    0    0  0.24848212535E+01  0.26480248940E+02  0.54043694218E+01  0.27140101868E+02  0.00000000000E+00 0. -1.
</event>
<event>
 7    1  0.5634483E-012  0.5930196E+02  0.7816164E-02  0.1266605E+00
        -11   -1    0    0    0    0  0.00000000000E+00  0.00000000000E+00  0.45593999997E+02  0.45594000000E+02  0.51100000000E-03 0.  1.
         11   -1    0    0    0    0 -0.00000000000E+00 -0.00000000000E+00 -0.45593999997E+02  0.45594000000E+02  0.51100000000E-03 0. -1.
    9900012    2    1    2    0    0 -0.27105515088E+02 -0.16786849303E+02 -0.46095795276E+00  0.59301956972E+02  0.50000023608E+02 0.  0.
         12    1    1    2    0    0  0.27105515088E+02  0.16786849303E+02  0.46095795276E+00  0.31886043028E+02  0.00000000000E+00 0. -1.
         11    1    3    3    0    0 -0.19800061943E+02 -0.10923243949E+01 -0.38202150173E+01  0.20194793105E+02  0.51100000000E-03 0. -1.
        -11    1    3    3    0    0 -0.32929530252E+01 -0.70684937263E+01  0.19147299871E+02  0.20674289245E+02  0.51100000000E-03 0.  1.
         12    1    3    3    0    0 -0.40125001200E+01 -0.86260311821E+01 -0.15788042806E+02  0.18432874622E+02  0.00000000000E+00 0. -1.
</event>
<event>
 7    1  0.5634483E-012  0.5930195E+02  0.7816164E-02  0.1266605E+00
        -11   -1    0    0    0    0  0.00000000000E+00  0.00000000000E+00  0.45593999997E+02  0.45594000000E+02  0.51100000000E-03 0.  1.
         11   -1    0    0    0    0 -0.00000000000E+00 -0.00000000000E+00 -0.45593999997E+02  0.45594000000E+02  0.51100000000E-03 0. -1.
    9900012    2    1    2    0    0 -0.30793411502E+02  0.70199677652E+01  0.43824640115E+01  0.59301950854E+02  0.50000012449E+02 0.  0.
         12    1    1    2    0    0  0.30793411502E+02 -0.70199677652E+01 -0.43824640115E+01  0.31886049146E+02  0.00000000000E+00 0. -1.
         11    1    3    3    0    0 -0.86358514816E+01 -0.15237606153E+02  0.24853580017E+01  0.17690098268E+02  0.51100000000E-03 0. -1.
        -11    1    3    3    0    0 -0.26718369803E+02  0.24393302049E+02  0.34470692304E+01  0.36342630014E+02  0.51100000000E-03 0.  1.
         12    1    3    3    0    0  0.45608097828E+01 -0.21357281307E+01 -0.15499632205E+01  0.52692225715E+01  0.00000000000E+00 0. -1.
</event>
<event>
 7    1  0.5634483E-012  0.5930193E+02  0.7816164E-02  0.1266605E+00
        -11   -1    0    0    0    0  0.00000000000E+00  0.00000000000E+00  0.45593999997E+02  0.45594000000E+02  0.51100000000E-03 0.  1.
         11   -1    0    0    0    0 -0.00000000000E+00 -0.00000000000E+00 -0.45593999997E+02  0.45594000000E+02  0.51100000000E-03 0. -1.
    9900012    2    1    2    0    0  0.25870123732E+02  0.90745089678E+00  0.18618135248E+02  0.59301925780E+02  0.49999966720E+02 0.  0.
         12    1    1    2    0    0 -0.25870123732E+02 -0.90745089678E+00 -0.18618135248E+02  0.31886074220E+02  0.00000000000E+00 0. -1.
         11    1    3    3    0    0 -0.90129622568E+01  0.79067375903E+01  0.10213220463E+02  0.15749916205E+02  0.51100000000E-03 0. -1.
        -11    1    3    3    0    0  0.77574792986E+01  0.79609884484E+00 -0.77813804316E+01  0.11016448617E+02  0.51100000000E-03 0.  1.
         12    1    3    3    0    0  0.27125606691E+02 -0.77953855384E+01  0.16186295217E+02  0.32535560958E+02  0.00000000000E+00 0. -1.
</event>
<event>
 7    1  0.5634483E-012  0.5930185E+02  0.7816164E-02  0.1266605E+00
        -11   -1    0    0    0    0  0.00000000000E+00  0.00000000000E+00  0.45593999997E+02  0.45594000000E+02  0.51100000000E-03 0.  1.
         11   -1    0    0    0    0 -0.00000000000E+00 -0.00000000000E+00 -0.45593999997E+02  0.45594000000E+02  0.51100000000E-03 0. -1.
    9900012    2    1    2    0    0 -0.12710931848E+02  0.11409526332E+02  0.26925485720E+02  0.59301845312E+02  0.49999819965E+02 0.  0.
         12    1    1    2    0    0  0.12710931848E+02 -0.11409526332E+02 -0.26925485720E+02  0.31886154688E+02  0.00000000000E+00 0. -1.
         11    1    3    3    0    0  0.72423158567E+01 -0.77870568888E+01  0.34215882506E+01  0.11171242562E+02  0.51100000000E-03 0. -1.
        -11    1    3    3    0    0  0.15525285108E+01  0.45873052288E+01  0.21517974782E+02  0.22056222547E+02  0.51100000000E-03 0.  1.
        -12    1    3    3    0    0 -0.21505776215E+02  0.14609277992E+02  0.19859226874E+01  0.26074380203E+02  0.00000000000E+00 0.  1.
</event>
<event>
 7    1  0.5634483E-012  0.5930192E+02  0.7816164E-02  0.1266605E+00
        -11   -1    0    0    0    0  0.00000000000E+00  0.00000000000E+00  0.45593999997E+02  0.45594000000E+02  0.51100000000E-03 0.  1.
         11   -1    0    0    0    0 -0.00000000000E+00 -0.00000000000E+00 -0.45593999997E+02  0.45594000000E+02  0.51100000000E-03 0. -1.
    9900012    2    1    2    0    0  0.22601475193E+02  0.22285900017E+02  0.30387741319E+01  0.59301918888E+02  0.49999954151E+02 0.  0.
         12    1    1    2    0    0 -0.22601475193E+02 -0.22285900017E+02 -0.30387741319E+01  0.31886081112E+02  0.00000000000E+00 0. -1.
         11    1    3    3    0    0 -0.62627559048E+01 -0.85893379274E+01 -0.23520164714E+01  0.10887186014E+02  0.51100000000E-03 0. -1.
        -11    1    3    3    0    0  0.45819960830E+00 -0.29443239194E+01  0.29314142323E+01  0.41799736705E+01  0.51100000000E-03 0.  1.
        -12    1    3    3    0    0  0.28406031490E+02  0.33819561864E+02  0.24593763710E+01  0.44234759203E+02  0.00000000000E+00 0.  1.
</event>
<event>
 7    1  0.5634483E-012  0.5930195E+02  0.7816164E-02  0.1266605E+00
        -11   -1    0    0    0    0  0.00000000000E+00  0.00000000000E+00  0.45593999997E+02  0.45594000000E+02  0.51100000000E-03 0.  1.
         11   -1    0    0    0    0 -0.00000000000E+00 -0.00000000000E+00 -0.45593999997E+02  0.45594000000E+02  0.51100000000E-03 0. -1.
    9900012    2    1    2    0    0 -0.26050391880E+02  0.12805562691E+02  0.13195246056E+02  0.59301954911E+02  0.50000019849E+02 0.  0.
         12    1    1    2    0    0  0.26050391880E+02 -0.12805562691E+02 -0.13195246056E+02  0.31886045089E+02  0.00000000000E+00 0. -1.
         11    1    3    3    0    0 -0.31454761374E+01  0.89163121672E+01  0.61967467729E+01  0.11304614705E+02  0.51100000000E-03 0. -1.
        -11    1    3    3    0    0 -0.27607740139E+02  0.17638922552E+02  0.68235084438E+01  0.33464595800E+02  0.51100000000E-03 0.  1.
         12    1    3    3    0    0  0.47028243960E+01 -0.13749672028E+02  0.17499083910E+00  0.14532744406E+02  0.00000000000E+00 0. -1.
</event>
<event>
 7    1  0.5634483E-012  0.5930195E+02  0.7816164E-02  0.1266605E+00
        -11   -1    0    0    0    0  0.00000000000E+00  0.00000000000E+00  0.45593999997E+02  0.45594000000E+02  0.51100000000E-03 0.  1.
         11   -1    0    0    0    0 -0.00000000000E+00 -0.00000000000E+00 -0.45593999997E+02  0.45594000000E+02  0.51100000000E-03 0. -1.
    9900012    2    1    2    0    0 -0.23717114893E+00  0.23800487356E+01  0.31796219956E+02  0.59301945280E+02  0.50000002283E+02 0.  0.
         12    1    1    2    0    0  0.23717114893E+00 -0.23800487356E+01 -0.31796219956E+02  0.31886054720E+02  0.00000000000E+00 0. -1.
         11    1    3    3    0    0 -0.62498231763E+01 -0.11134418842E+02  0.38539716982E+01  0.13337491173E+02  0.51100000000E-03 0. -1.
        -11    1    3    3    0    0  0.85848134992E+01 -0.57067722941E+01 -0.17940226531E+01  0.10463497999E+02  0.51100000000E-03 0.  1.
        -12    1    3    3    0    0 -0.25721614718E+01  0.19221239872E+02  0.29736270911E+02  0.35500956107E+02  0.00000000000E+00 0.  1.
</event>
<event>
 7    1  0.5634483E-012  0.5930196E+02  0.7816164E-02  0.1266605E+00
        -11   -1    0    0    0    0  0.00000000000E+00  0.00000000000E+00  0.45593999997E+02  0.45594000000E+02  0.51100000000E-03 0.  1.
         11   -1    0    0    0    0 -0.00000000000E+00 -0.00000000000E+00 -0.45593999997E+02  0.45594000000E+02  0.51100000000E-03 0. -1.
    9900012    2    1    2    0    0  0.18495798968E+02 -0.19111936761E+02  0.17588590876E+02  0.59301964887E+02  0.50000038041E+02 0.  0.
         12    1    1    2    0    0 -0.18495798968E+02  0.19111936761E+02 -0.17588590876E+02  0.31886035113E+02  0.00000000000E+00 0. -1.
         11    1    3    3    0    0  0.30019694467E+00 -0.27454705592E+02  0.10656068501E+02  0.29451702387E+02  0.51100000000E-03 0. -1.
        -11    1    3    3    0    0 -0.35843739564E+01  0.20923637821E+01  0.58403247081E+01  0.71648528117E+01  0.51100000000E-03 0.  1.
         12    1    3    3    0    0  0.21779975980E+02  0.62504050486E+01  0.10921976677E+01  0.22685409688E+02  0.00000000000E+00 0. -1.
</event>
<event>
 7    1  0.5634483E-012  0.5930195E+02  0.7816164E-02  0.1266605E+00
        -11   -1    0    0    0    0  0.00000000000E+00  0.00000000000E+00  0.45593999997E+02  0.45594000000E+02  0.51100000000E-03 0.  1.
         11   -1    0    0    0    0 -0.00000000000E+00 -0.00000000000E+00 -0.45593999997E+02  0.45594000000E+02  0.51100000000E-03 0. -1.
    9900012    2    1    2    0    0  0.24088935765E+02  0.20883487712E+02 -0.56855590895E+00  0.59301950681E+02  0.50000012134E+02 0.  0.
         12    1    1    2    0    0 -0.24088935765E+02 -0.20883487712E+02  0.56855590895E+00  0.31886049319E+02  0.00000000000E+00 0. -1.
         11    1    3    3    0    0  0.96511637388E+00  0.10864598677E+01 -0.61138248964E+01  0.62841626160E+01  0.51100000000E-03 0. -1.
        -11    1    3    3    0    0  0.28896461927E+02  0.14028353877E+02 -0.11501131234E+02  0.34118561581E+02  0.51100000000E-03 0.  1.
        -12    1    3    3    0    0 -0.57726425356E+01  0.57686739676E+01  0.17046400222E+02  0.18899226484E+02  0.00000000000E+00 0.  1.
</event>
<event>
 7    1  0.5634483E-012  0.5930195E+02  0.7816164E-02  0.1266605E+00
        -11   -1    0    0    0    0  0.00000000000E+00  0.00000000000E+00  0.45593999997E+02  0.45594000000E+02  0.51100000000E-03 0. -1.
         11   -1    0    0    0    0 -0.00000000000E+00 -0.00000000000E+00 -0.45593999997E+02  0.45594000000E+02  0.51100000000E-03 0.  1.
    9900012    2    1    2    0    0  0.17877245516E+02 -0.17020176140E+01 -0.26348200001E+02  0.59301946395E+02  0.50000004318E+02 0.  0.
         12    1    1    2    0    0 -0.17877245516E+02  0.17020176140E+01  0.26348200001E+02  0.31886053605E+02  0.00000000000E+00 0. -1.
         11    1    3    3    0    0  0.18512505972E+01  0.11510485076E+01  0.11067880356E+02  0.11280514938E+02  0.51100000000E-03 0. -1.
        -11    1    3    3    0    0  0.12651990118E+02 -0.65076749211E+01 -0.47808000671E+01  0.15009288336E+02  0.51100000000E-03 0.  1.
        -12    1    3    3    0    0  0.33740048007E+01  0.36546087995E+01 -0.32635280289E+02  0.33012143121E+02  0.00000000000E+00 0.  1.
</event>
<event>
 7    1  0.5634483E-012  0.5930194E+02  0.7816164E-02  0.1266605E+00
        -11   -1    0    0    0    0  0.00000000000E+00  0.00000000000E+00  0.45593999997E+02  0.45594000000E+02  0.51100000000E-03 0.  1.
         11   -1    0    0    0    0 -0.00000000000E+00 -0.00000000000E+00 -0.45593999997E+02  0.45594000000E+02  0.51100000000E-03 0. -1.
    9900012    2    1    2    0    0 -0.16642534087E+02 -0.21085328743E+02 -0.17180091467E+02  0.59301943927E+02  0.49999999817E+02 0.  0.
         12    1    1    2    0    0  0.16642534087E+02  0.21085328743E+02  0.17180091467E+02  0.31886056073E+02  0.00000000000E+00 0. -1.
         11    1    3    3    0    0  0.11462110110E+02 -0.73095437606E+00  0.12740498843E+01  0.11555841200E+02  0.51100000000E-03 0. -1.
        -11    1    3    3    0    0 -0.10159629538E+02 -0.19799468974E+02 -0.36075177862E+00  0.22256845826E+02  0.51100000000E-03 0.  1.
         12    1    3    3    0    0 -0.17945014660E+02 -0.55490539272E+00 -0.18093389573E+02  0.25489256901E+02  0.00000000000E+00 0. -1.
</event>
<event>
 7    1  0.5634483E-012  0.5930197E+02  0.7816164E-02  0.1266605E+00
        -11   -1    0    0    0    0  0.00000000000E+00  0.00000000000E+00  0.45593999997E+02  0.45594000000E+02  0.51100000000E-03 0.  1.
         11   -1    0    0    0    0 -0.00000000000E+00 -0.00000000000E+00 -0.45593999997E+02  0.45594000000E+02  0.51100000000E-03 0. -1.
    9900012    2    1    2    0    0  0.36097451078E+00 -0.59265785610E+01  0.31328328235E+02  0.59301971930E+02  0.50000050887E+02 0.  0.
         12    1    1    2    0    0 -0.36097451078E+00  0.59265785610E+01 -0.31328328235E+02  0.31886028070E+02  0.00000000000E+00 0. -1.
         11    1    3    3    0    0  0.14518187262E+02  0.11393209425E+02  0.43865027187E+01  0.18969037633E+02  0.51100000000E-03 0. -1.
        -11    1    3    3    0    0 -0.14759517934E+01  0.32389685429E+01  0.10567446136E+02  0.11150796788E+02  0.51100000000E-03 0.  1.
        -12    1    3    3    0    0 -0.12681260957E+02 -0.20558756529E+02  0.16374379381E+02  0.29182137509E+02  0.00000000000E+00 0.  1.
</event>
<event>
 7    1  0.5634483E-012  0.5930202E+02  0.7816164E-02  0.1266604E+00
        -11   -1    0    0    0    0  0.00000000000E+00  0.00000000000E+00  0.45593999997E+02  0.45594000000E+02  0.51100000000E-03 0.  1.
         11   -1    0    0    0    0 -0.00000000000E+00 -0.00000000000E+00 -0.45593999997E+02  0.45594000000E+02  0.51100000000E-03 0. -1.
    9900012    2    1    2    0    0 -0.30022122490E+02  0.71161925191E+01 -0.80465813500E+01  0.59302023362E+02  0.50000144686E+02 0.  0.
         12    1    1    2    0    0  0.30022122490E+02 -0.71161925191E+01  0.80465813500E+01  0.31885976638E+02  0.00000000000E+00 0. -1.
         11    1    3    3    0    0  0.75472601211E+01 -0.47688851214E+01  0.59940908590E+01  0.10753256536E+02  0.51100000000E-03 0. -1.
        -11    1    3    3    0    0 -0.11949886332E+02  0.92925224544E+01 -0.16843562543E+02  0.22646332072E+02  0.51100000000E-03 0.  1.
        -12    1    3    3    0    0 -0.25619496279E+02  0.25925551860E+01  0.28028903337E+01  0.25902434754E+02  0.00000000000E+00 0.  1.
</event>
<event>
 7    1  0.5634483E-012  0.5930192E+02  0.7816164E-02  0.1266605E+00
        -11   -1    0    0    0    0  0.00000000000E+00  0.00000000000E+00  0.45593999997E+02  0.45594000000E+02  0.51100000000E-03 0.  1.
         11   -1    0    0    0    0 -0.00000000000E+00 -0.00000000000E+00 -0.45593999997E+02  0.45594000000E+02  0.51100000000E-03 0. -1.
    9900012    2    1    2    0    0  0.12055901404E+02 -0.13267538381E+02  0.26369485116E+02  0.59301920300E+02  0.49999956726E+02 0.  0.
         12    1    1    2    0    0 -0.12055901404E+02  0.13267538381E+02 -0.26369485116E+02  0.31886079700E+02  0.00000000000E+00 0. -1.
         11    1    3    3    0    0  0.59666714490E+01  0.19235771858E+01 -0.22311768235E+01  0.66542819033E+01  0.51100000000E-03 0. -1.
        -11    1    3    3    0    0  0.68948256036E+01 -0.79460076471E+01  0.38749405337E+02  0.40152136579E+02  0.51100000000E-03 0.  1.
         12    1    3    3    0    0 -0.80559564815E+00 -0.72451079198E+01 -0.10148743398E+02  0.12495501818E+02  0.00000000000E+00 0. -1.
</event>
<event>
 7    1  0.5634483E-012  0.5930191E+02  0.7816164E-02  0.1266605E+00
        -11   -1    0    0    0    0  0.00000000000E+00  0.00000000000E+00  0.45593999997E+02  0.45594000000E+02  0.51100000000E-03 0.  1.
         11   -1    0    0    0    0 -0.00000000000E+00 -0.00000000000E+00 -0.45593999997E+02  0.45594000000E+02  0.51100000000E-03 0. -1.
    9900012    2    1    2    0    0 -0.17364525517E+01 -0.31158524248E+02  0.65462713788E+01  0.59301912599E+02  0.49999942682E+02 0.  0.
         12    1    1    2    0    0  0.17364525517E+01  0.31158524248E+02 -0.65462713788E+01  0.31886087401E+02  0.00000000000E+00 0. -1.
         11    1    3    3    0    0 -0.63484921442E+00  0.10150469455E+02  0.88907338654E+00  0.10209089844E+02  0.51100000000E-03 0. -1.
        -11    1    3    3    0    0  0.69292370363E+01 -0.17337072592E+01 -0.30766014215E+01  0.77772452278E+01  0.51100000000E-03 0.  1.
        -12    1    3    3    0    0 -0.80308403735E+01 -0.39575286444E+02  0.87337994138E+01  0.41315577528E+02  0.00000000000E+00 0.  1.
</event>
<event>
 7    1  0.5634483E-012  0.5930195E+02  0.7816164E-02  0.1266605E+00
        -11   -1    0    0    0    0  0.00000000000E+00  0.00000000000E+00  0.45593999997E+02  0.45594000000E+02  0.51100000000E-03 0.  1.
         11   -1    0    0    0    0 -0.00000000000E+00 -0.00000000000E+00 -0.45593999997E+02  0.45594000000E+02  0.51100000000E-03 0. -1.
    9900012    2    1    2    0    0 -0.13240034194E+01  0.28253637379E+02  0.14720710193E+02  0.59301947896E+02  0.50000007055E+02 0.  0.
         12    1    1    2    0    0  0.13240034194E+01 -0.28253637379E+02 -0.14720710193E+02  0.31886052104E+02  0.00000000000E+00 0. -1.
         11    1    3    3    0    0  0.11550871310E+02  0.14151029026E+01  0.99610807507E+01  0.15318233391E+02  0.51100000000E-03 0. -1.
        -11    1    3    3    0    0  0.49854011205E+00  0.25340727385E+02  0.12709674157E+02  0.28353779714E+02  0.51100000000E-03 0.  1.
        -12    1    3    3    0    0 -0.13373414841E+02  0.14978070919E+01 -0.79500447152E+01  0.15629934791E+02  0.00000000000E+00 0.  1.
</event>
<event>
 7    1  0.5634483E-012  0.5930184E+02  0.7816164E-02  0.1266605E+00
        -11   -1    0    0    0    0  0.00000000000E+00  0.00000000000E+00  0.45593999997E+02  0.45594000000E+02  0.51100000000E-03 0.  1.
         11   -1    0    0    0    0 -0.00000000000E+00 -0.00000000000E+00 -0.45593999997E+02  0.45594000000E+02  0.51100000000E-03 0. -1.
    9900012    2    1    2    0    0  0.20200511248E+02 -0.24670014042E+02  0.23905477533E+00  0.59301836940E+02  0.49999804697E+02 0.  0.
         12    1    1    2    0    0 -0.20200511248E+02  0.24670014042E+02 -0.23905477533E+00  0.31886163060E+02  0.00000000000E+00 0. -1.
         11    1    3    3    0    0  0.26226126300E+01 -0.93384136479E+01 -0.75109011007E+01  0.12267750489E+02  0.51100000000E-03 0. -1.
        -11    1    3    3    0    0 -0.83331044678E+01 -0.18280729342E+02  0.10961212528E+01  0.20120317527E+02  0.51100000000E-03 0.  1.
        -12    1    3    3    0    0  0.25911003086E+02  0.29491289476E+01  0.66538346232E+01  0.26913768923E+02  0.00000000000E+00 0.  1.
</event>
<event>
 7    1  0.5634483E-012  0.5930191E+02  0.7816164E-02  0.1266605E+00
        -11   -1    0    0    0    0  0.00000000000E+00  0.00000000000E+00  0.45593999997E+02  0.45594000000E+02  0.51100000000E-03 0. -1.
         11   -1    0    0    0    0 -0.00000000000E+00 -0.00000000000E+00 -0.45593999997E+02  0.45594000000E+02  0.51100000000E-03 0.  1.
    9900012    2    1    2    0    0  0.10526585719E+02 -0.58453515176E+01 -0.29525340900E+02  0.59301907475E+02  0.49999933337E+02 0.  0.
         12    1    1    2    0    0 -0.10526585719E+02  0.58453515176E+01  0.29525340900E+02  0.31886092525E+02  0.00000000000E+00 0. -1.
         11    1    3    3    0    0 -0.48745742341E+01 -0.63712168412E+00 -0.40520586491E+01  0.63707595748E+01  0.51100000000E-03 0. -1.
        -11    1    3    3    0    0 -0.37833087056E+00 -0.20804869715E+02 -0.22330977817E+02  0.30523078295E+02  0.51100000000E-03 0.  1.
        -12    1    3    3    0    0  0.15779490824E+02  0.15596639882E+02 -0.31423044339E+01  0.22408069605E+02  0.00000000000E+00 0.  1.
</event>
<event>
 7    1  0.5634483E-012  0.5930191E+02  0.7816164E-02  0.1266605E+00
        -11   -1    0    0    0    0  0.00000000000E+00  0.00000000000E+00  0.45593999997E+02  0.45594000000E+02  0.51100000000E-03 0.  1.
         11   -1    0    0    0    0 -0.00000000000E+00 -0.00000000000E+00 -0.45593999997E+02  0.45594000000E+02  0.51100000000E-03 0. -1.
    9900012    2    1    2    0    0 -0.26744028875E+02 -0.99012159932E+01  0.14263445157E+02  0.59301905439E+02  0.49999929624E+02 0.  0.
         12    1    1    2    0    0  0.26744028875E+02  0.99012159932E+01 -0.14263445157E+02  0.31886094561E+02  0.00000000000E+00 0. -1.
         11    1    3    3    0    0  0.50247868914E+01  0.11505634968E+02  0.17347524729E+01  0.12674284426E+02  0.51100000000E-03 0. -1.
        -11    1    3    3    0    0 -0.74987228653E+01  0.48098254458E+01  0.46250401648E+01  0.10037741888E+02  0.51100000000E-03 0.  1.
         12    1    3    3    0    0 -0.24270092901E+02 -0.26216676407E+02  0.79036525187E+01  0.36589879125E+02  0.00000000000E+00 0. -1.
</event>
<event>
 7    1  0.5634483E-012  0.5930195E+02  0.7816164E-02  0.1266605E+00
        -11   -1    0    0    0    0  0.00000000000E+00  0.00000000000E+00  0.45593999997E+02  0.45594000000E+02  0.51100000000E-03 0.  1.
         11   -1    0    0    0    0 -0.00000000000E+00 -0.00000000000E+00 -0.45593999997E+02  0.45594000000E+02  0.51100000000E-03 0. -1.
    9900012    2    1    2    0    0 -0.19353145695E+02 -0.19007985978E+02  0.16759243879E+02  0.59301952352E+02  0.50000015181E+02 0.  0.
         12    1    1    2    0    0  0.19353145695E+02  0.19007985978E+02 -0.16759243879E+02  0.31886047648E+02  0.00000000000E+00 0. -1.
         11    1    3    3    0    0 -0.62167740553E+01  0.45758947156E+01  0.90739713394E+01  0.11913187996E+02  0.51100000000E-03 0. -1.
        -11    1    3    3    0    0 -0.22137731984E+02 -0.71453530244E+00  0.45602016114E+01  0.22613827122E+02  0.51100000000E-03 0.  1.
        -12    1    3    3    0    0  0.90013603436E+01 -0.22869345391E+02  0.31250709278E+01  0.24774937234E+02  0.00000000000E+00 0.  1.
</event>
<event>
 7    1  0.5634483E-012  0.5930195E+02  0.7816164E-02  0.1266605E+00
        -11   -1    0    0    0    0  0.00000000000E+00  0.00000000000E+00  0.45593999997E+02  0.45594000000E+02  0.51100000000E-03 0. -1.
         11   -1    0    0    0    0 -0.00000000000E+00 -0.00000000000E+00 -0.45593999997E+02  0.45594000000E+02  0.51100000000E-03 0.  1.
    9900012    2    1    2    0    0  0.16392576210E+02  0.17366391809E+02 -0.21128470563E+02  0.59301946817E+02  0.50000005087E+02 0.  0.
         12    1    1    2    0    0 -0.16392576210E+02 -0.17366391809E+02  0.21128470563E+02  0.31886053183E+02  0.00000000000E+00 0. -1.
         11    1    3    3    0    0  0.87395699738E+01  0.83104186627E+00 -0.21593180261E+01  0.90406508897E+01  0.51100000000E-03 0. -1.
        -11    1    3    3    0    0  0.21641371755E+02  0.15075722633E+02 -0.23663461122E+02  0.35434245821E+02  0.51100000000E-03 0.  1.
         12    1    3    3    0    0 -0.13988365519E+02  0.14596273100E+01  0.46943085854E+01  0.14827050106E+02  0.00000000000E+00 0. -1.
</event>
<event>
 7    1  0.5634483E-012  0.5930195E+02  0.7816164E-02  0.1266605E+00
        -11   -1    0    0    0    0  0.00000000000E+00  0.00000000000E+00  0.45593999997E+02  0.45594000000E+02  0.51100000000E-03 0.  1.
         11   -1    0    0    0    0 -0.00000000000E+00 -0.00000000000E+00 -0.45593999997E+02  0.45594000000E+02  0.51100000000E-03 0. -1.
    9900012    2    1    2    0    0 -0.13652724471E+02 -0.25124739409E+02  0.14109239232E+02  0.59301952149E+02  0.50000014811E+02 0.  0.
         12    1    1    2    0    0  0.13652724471E+02  0.25124739409E+02 -0.14109239232E+02  0.31886047851E+02  0.00000000000E+00 0. -1.
         11    1    3    3    0    0 -0.16862773876E+02  0.25297753467E+01  0.15046878956E+02  0.22741184505E+02  0.51100000000E-03 0. -1.
        -11    1    3    3    0    0 -0.71032584886E+01 -0.10771639596E+02  0.76426772518E+01  0.14996500144E+02  0.51100000000E-03 0.  1.
         12    1    3    3    0    0  0.10313307894E+02 -0.16882875160E+02 -0.85803169760E+01  0.21564267499E+02  0.00000000000E+00 0. -1.
</event>
<event>
 7    1  0.5634483E-012  0.5930188E+02  0.7816164E-02  0.1266605E+00
        -11   -1    0    0    0    0  0.00000000000E+00  0.00000000000E+00  0.45593999997E+02  0.45594000000E+02  0.51100000000E-03 0.  1.
         11   -1    0    0    0    0 -0.00000000000E+00 -0.00000000000E+00 -0.45593999997E+02  0.45594000000E+02  0.51100000000E-03 0. -1.
    9900012    2    1    2    0    0  0.22937255722E+02 -0.50675996299E+01  0.21562150888E+02  0.59301880496E+02  0.49999884134E+02 0.  0.
         12    1    1    2    0    0 -0.22937255722E+02  0.50675996299E+01 -0.21562150888E+02  0.31886119504E+02  0.00000000000E+00 0. -1.
         11    1    3    3    0    0  0.10572887076E+02  0.10432984728E+02 -0.35954441052E+01  0.15282680722E+02  0.51100000000E-03 0. -1.
        -11    1    3    3    0    0  0.21891094380E+01 -0.18382215390E+01 -0.70370201687E+01  0.75954533554E+01  0.51100000000E-03 0.  1.
        -12    1    3    3    0    0  0.10175259208E+02 -0.13662362819E+02  0.32194615162E+02  0.36423746419E+02  0.00000000000E+00 0.  1.
</event>
<event>
 7    1  0.5634483E-012  0.5930195E+02  0.7816164E-02  0.1266605E+00
        -11   -1    0    0    0    0  0.00000000000E+00  0.00000000000E+00  0.45593999997E+02  0.45594000000E+02  0.51100000000E-03 0. -1.
         11   -1    0    0    0    0 -0.00000000000E+00 -0.00000000000E+00 -0.45593999997E+02  0.45594000000E+02  0.51100000000E-03 0.  1.
    9900012    2    1    2    0    0  0.22472826426E+02  0.17396223926E+02 -0.14459044304E+02  0.59301945108E+02  0.50000001969E+02 0.  0.
         12    1    1    2    0    0 -0.22472826426E+02 -0.17396223926E+02  0.14459044304E+02  0.31886054892E+02  0.00000000000E+00 0. -1.
         11    1    3    3    0    0  0.23502914124E+02  0.26702583200E+01  0.35857533426E+01  0.23924357444E+02  0.51100000000E-03 0. -1.
        -11    1    3    3    0    0  0.11565858327E+02  0.74796589420E+00 -0.62057584879E+01  0.13146861621E+02  0.51100000000E-03 0.  1.
         12    1    3    3    0    0 -0.12595946025E+02  0.13977999711E+02 -0.11839039158E+02  0.22230726043E+02  0.00000000000E+00 0. -1.
</event>
<event>
 7    1  0.5634483E-012  0.5930195E+02  0.7816164E-02  0.1266605E+00
        -11   -1    0    0    0    0  0.00000000000E+00  0.00000000000E+00  0.45593999997E+02  0.45594000000E+02  0.51100000000E-03 0.  1.
         11   -1    0    0    0    0 -0.00000000000E+00 -0.00000000000E+00 -0.45593999997E+02  0.45594000000E+02  0.51100000000E-03 0. -1.
    9900012    2    1    2    0    0  0.26542118557E+01  0.18732562577E+02  0.25666442448E+02  0.59301952750E+02  0.50000015908E+02 0.  0.
         12    1    1    2    0    0 -0.26542118557E+01 -0.18732562577E+02 -0.25666442448E+02  0.31886047250E+02  0.00000000000E+00 0. -1.
         11    1    3    3    0    0  0.12599936653E+02  0.77852666564E+01 -0.57329608135E+01  0.15881927481E+02  0.51100000000E-03 0. -1.
        -11    1    3    3    0    0 -0.10779978184E+02  0.77594665400E+01  0.15307241692E+01  0.13370129670E+02  0.51100000000E-03 0.  1.
        -12    1    3    3    0    0  0.83425338721E+00  0.31878293809E+01  0.29868679092E+02  0.30049895600E+02  0.00000000000E+00 0.  1.
</event>
<event>
 7    1  0.5634483E-012  0.5930197E+02  0.7816164E-02  0.1266605E+00
        -11   -1    0    0    0    0  0.00000000000E+00  0.00000000000E+00  0.45593999997E+02  0.45594000000E+02  0.51100000000E-03 0.  1.
         11   -1    0    0    0    0 -0.00000000000E+00 -0.00000000000E+00 -0.45593999997E+02  0.45594000000E+02  0.51100000000E-03 0. -1.
    9900012    2    1    2    0    0 -0.13262504418E+02  0.20652566195E+02  0.20354277132E+02  0.59301966828E+02  0.50000041582E+02 0.  0.
         12    1    1    2    0    0  0.13262504418E+02 -0.20652566195E+02 -0.20354277132E+02  0.31886033172E+02  0.00000000000E+00 0. -1.
         11    1    3    3    0    0 -0.12537862601E+01 -0.56576496770E+01 -0.38663965964E+01  0.69663478779E+01  0.51100000000E-03 0. -1.
        -11    1    3    3    0    0 -0.14604829658E+02  0.51201995514E+01 -0.48948839374E+01  0.16231986379E+02  0.51100000000E-03 0.  1.
        -12    1    3    3    0    0  0.25961115000E+01  0.21190016321E+02  0.29115557666E+02  0.36103632571E+02  0.00000000000E+00 0.  1.
</event>
<event>
 7    1  0.5634483E-012  0.5930197E+02  0.7816164E-02  0.1266605E+00
        -11   -1    0    0    0    0  0.00000000000E+00  0.00000000000E+00  0.45593999997E+02  0.45594000000E+02  0.51100000000E-03 0. -1.
         11   -1    0    0    0    0 -0.00000000000E+00 -0.00000000000E+00 -0.45593999997E+02  0.45594000000E+02  0.51100000000E-03 0.  1.
    9900012    2    1    2    0    0 -0.12508281196E+02  0.28585455465E+01 -0.29190591982E+02  0.59301967926E+02  0.50000043585E+02 0.  0.
         12    1    1    2    0    0  0.12508281196E+02 -0.28585455465E+01  0.29190591982E+02  0.31886032074E+02  0.00000000000E+00 0. -1.
         11    1    3    3    0    0  0.50295981121E+01 -0.37656231450E+01  0.18767500613E+01  0.65573596740E+01  0.51100000000E-03 0. -1.
        -11    1    3    3    0    0 -0.21153208924E+01 -0.11125121450E+02  0.26572987250E+01  0.11632031058E+02  0.51100000000E-03 0.  1.
        -12    1    3    3    0    0 -0.15422558416E+02  0.17749290141E+02 -0.33724640769E+02  0.41112577195E+02  0.00000000000E+00 0.  1.
</event>
<event>
 7    1  0.5634483E-012  0.5930193E+02  0.7816164E-02  0.1266605E+00
        -11   -1    0    0    0    0  0.00000000000E+00  0.00000000000E+00  0.45593999997E+02  0.45594000000E+02  0.51100000000E-03 0. -1.
         11   -1    0    0    0    0 -0.00000000000E+00 -0.00000000000E+00 -0.45593999997E+02  0.45594000000E+02  0.51100000000E-03 0.  1.
    9900012    2    1    2    0    0 -0.26885672819E+02  0.74005600074E+01 -0.15463304208E+02  0.59301929869E+02  0.49999974179E+02 0.  0.
         12    1    1    2    0    0  0.26885672819E+02 -0.74005600074E+01  0.15463304208E+02  0.31886070131E+02  0.00000000000E+00 0. -1.
         11    1    3    3    0    0  0.28645814868E+01  0.59934768808E+01  0.10663132382E+02  0.12563040423E+02  0.51100000000E-03 0. -1.
        -11    1    3    3    0    0 -0.10289151403E+01  0.68846385181E+01 -0.12876800515E+02  0.14637926959E+02  0.51100000000E-03 0.  1.
         12    1    3    3    0    0 -0.28721339165E+02 -0.54775553915E+01 -0.13249636075E+02  0.32100962487E+02  0.00000000000E+00 0. -1.
</event>
<event>
 7    1  0.5634483E-012  0.5930199E+02  0.7816164E-02  0.1266605E+00
        -11   -1    0    0    0    0  0.00000000000E+00  0.00000000000E+00  0.45593999997E+02  0.45594000000E+02  0.51100000000E-03 0. -1.
         11   -1    0    0    0    0 -0.00000000000E+00 -0.00000000000E+00 -0.45593999997E+02  0.45594000000E+02  0.51100000000E-03 0.  1.
    9900012    2    1    2    0    0 -0.21941640209E+02  0.20430592815E+02 -0.10856927302E+02  0.59301991026E+02  0.50000085714E+02 0.  0.
         12    1    1    2    0    0  0.21941640209E+02 -0.20430592815E+02  0.10856927302E+02  0.31886008974E+02  0.00000000000E+00 0. -1.
         11    1    3    3    0    0 -0.80943014677E+01  0.28503143076E+01  0.77230486945E+01  0.11545020108E+02  0.51100000000E-03 0. -1.
        -11    1    3    3    0    0 -0.10857881698E+02  0.63354256458E+01  0.10535856908E+02  0.16402301489E+02  0.51100000000E-03 0.  1.
        -12    1    3    3    0    0 -0.29894570433E+01  0.11244852861E+02 -0.29115832905E+02  0.31354669429E+02  0.00000000000E+00 0.  1.
</event>
<event>
 7    1  0.5634483E-012  0.5930195E+02  0.7816164E-02  0.1266605E+00
        -11   -1    0    0    0    0  0.00000000000E+00  0.00000000000E+00  0.45593999997E+02  0.45594000000E+02  0.51100000000E-03 0. -1.
         11   -1    0    0    0    0 -0.00000000000E+00 -0.00000000000E+00 -0.45593999997E+02  0.45594000000E+02  0.51100000000E-03 0.  1.
    9900012    2    1    2    0    0 -0.62526453752E+01 -0.16204379086E+02 -0.26740284348E+02  0.59301948460E+02  0.50000008084E+02 0.  0.
         12    1    1    2    0    0  0.62526453752E+01  0.16204379086E+02  0.26740284348E+02  0.31886051540E+02  0.00000000000E+00 0. -1.
         11    1    3    3    0    0 -0.97493877809E+01 -0.89202265954E+01 -0.14505801413E+02  0.19622417780E+02  0.51100000000E-03 0. -1.
        -11    1    3    3    0    0  0.19363472562E+02  0.13203921983E+01 -0.87810023591E+01  0.21302429624E+02  0.51100000000E-03 0.  1.
         12    1    3    3    0    0 -0.15866730156E+02 -0.86045446892E+01 -0.34534805759E+01  0.18377101056E+02  0.00000000000E+00 0. -1.
</event>
<event>
 7    1  0.5634483E-012  0.5930196E+02  0.7816164E-02  0.1266605E+00
        -11   -1    0    0    0    0  0.00000000000E+00  0.00000000000E+00  0.45593999997E+02  0.45594000000E+02  0.51100000000E-03 0.  1.
         11   -1    0    0    0    0 -0.00000000000E+00 -0.00000000000E+00 -0.45593999997E+02  0.45594000000E+02  0.51100000000E-03 0. -1.
    9900012    2    1    2    0    0 -0.48608298156E+01 -0.19709021862E+02  0.24589563887E+02  0.59301955068E+02  0.50000020135E+02 0.  0.
         12    1    1    2    0    0  0.48608298156E+01  0.19709021862E+02 -0.24589563887E+02  0.31886044932E+02  0.00000000000E+00 0. -1.
         11    1    3    3    0    0 -0.16302634509E+02 -0.12033734198E+02  0.23236516733E+02  0.30830542662E+02  0.51100000000E-03 0. -1.
        -11    1    3    3    0    0 -0.67236934402E+01 -0.40030869971E+00 -0.44357785136E+01  0.80650128218E+01  0.51100000000E-03 0.  1.
        -12    1    3    3    0    0  0.18165498134E+02 -0.72749789639E+01  0.57888256683E+01  0.20406399584E+02  0.00000000000E+00 0.  1.
</event>
<event>
 7    1  0.5634483E-012  0.5930219E+02  0.7816164E-02  0.1266604E+00
        -11   -1    0    0    0    0  0.00000000000E+00  0.00000000000E+00  0.45593999997E+02  0.45594000000E+02  0.51100000000E-03 0. -1.
         11   -1    0    0    0    0 -0.00000000000E+00 -0.00000000000E+00 -0.45593999997E+02  0.45594000000E+02  0.51100000000E-03 0.  1.
    9900012    2    1    2    0    0  0.51890592234E+01 -0.30601446557E+02  0.73027338624E+01  0.59302191419E+02  0.50000451180E+02 0.  0.
         12    1    1    2    0    0 -0.51890592234E+01  0.30601446557E+02 -0.73027338624E+01  0.31885808581E+02  0.00000000000E+00 0. -1.
         11    1    3    3    0    0  0.57191155731E+01 -0.18079193206E+02  0.26832980076E+01  0.19151125251E+02  0.51100000000E-03 0. -1.
        -11    1    3    3    0    0  0.92758301253E+01 -0.10626372404E+01 -0.13601572015E+02  0.16497666016E+02  0.51100000000E-03 0.  1.
         12    1    3    3    0    0 -0.98058864750E+01 -0.11459616110E+02  0.18221007870E+02  0.23653400152E+02  0.00000000000E+00 0. -1.
</event>
<event>
 7    1  0.5634483E-012  0.5930194E+02  0.7816164E-02  0.1266605E+00
        -11   -1    0    0    0    0  0.00000000000E+00  0.00000000000E+00  0.45593999997E+02  0.45594000000E+02  0.51100000000E-03 0.  1.
         11   -1    0    0    0    0 -0.00000000000E+00 -0.00000000000E+00 -0.45593999997E+02  0.45594000000E+02  0.51100000000E-03 0. -1.
    9900012    2    1    2    0    0  0.97125689446E+01 -0.30136385275E+02  0.37662948423E+01  0.59301942079E+02  0.49999996445E+02 0.  0.
         12    1    1    2    0    0 -0.97125689446E+01  0.30136385275E+02 -0.37662948423E+01  0.31886057921E+02  0.00000000000E+00 0. -1.
         11    1    3    3    0    0  0.53352664701E+01 -0.94529216111E+01 -0.17434963580E+02  0.20537788357E+02  0.51100000000E-03 0.  1.
        -11    1    3    3    0    0 -0.80573900288E+01 -0.79082341518E+00  0.17344549184E+01  0.82798109807E+01  0.51100000000E-03 0. -1.
        -12    1    3    3    0    0  0.12434692503E+02 -0.19892640248E+02  0.19466803504E+02  0.30484342741E+02  0.00000000000E+00 0.  1.
</event>
<event>
 7    1  0.5634483E-012  0.5930197E+02  0.7816164E-02  0.1266605E+00
        -11   -1    0    0    0    0  0.00000000000E+00  0.00000000000E+00  0.45593999997E+02  0.45594000000E+02  0.51100000000E-03 0. -1.
         11   -1    0    0    0    0 -0.00000000000E+00 -0.00000000000E+00 -0.45593999997E+02  0.45594000000E+02  0.51100000000E-03 0.  1.
    9900012    2    1    2    0    0 -0.88950254475E+01 -0.30498049666E+02 -0.27324570415E+01  0.59301971200E+02  0.50000049556E+02 0.  0.
         12    1    1    2    0    0  0.88950254475E+01  0.30498049666E+02  0.27324570415E+01  0.31886028800E+02  0.00000000000E+00 0. -1.
         11    1    3    3    0    0  0.16482429001E+02 -0.15209446639E+00  0.48956791723E+00  0.16490399495E+02  0.51100000000E-03 0. -1.
        -11    1    3    3    0    0 -0.38882602997E+01 -0.16256518991E+02 -0.36622310830E+01  0.17111543315E+02  0.51100000000E-03 0.  1.
        -12    1    3    3    0    0 -0.21489194149E+02 -0.14089436209E+02  0.44020612426E+00  0.25700028391E+02  0.00000000000E+00 0.  1.
</event>
<event>
 7    1  0.5634483E-012  0.5930193E+02  0.7816164E-02  0.1266605E+00
        -11   -1    0    0    0    0  0.00000000000E+00  0.00000000000E+00  0.45593999997E+02  0.45594000000E+02  0.51100000000E-03 0. -1.
         11   -1    0    0    0    0 -0.00000000000E+00 -0.00000000000E+00 -0.45593999997E+02  0.45594000000E+02  0.51100000000E-03 0.  1.
    9900012    2    1    2    0    0 -0.26331813238E+02  0.16901476697E+02  0.61397948141E+01  0.59301931203E+02  0.49999976611E+02 0.  0.
         12    1    1    2    0    0  0.26331813238E+02 -0.16901476697E+02 -0.61397948141E+01  0.31886068797E+02  0.00000000000E+00 0. -1.
         11    1    3    3    0    0 -0.14646533677E+02  0.29922250969E+01 -0.77441729660E+01  0.16835871672E+02  0.51100000000E-03 0. -1.
        -11    1    3    3    0    0 -0.88620445965E+01  0.21374378500E+02 -0.34390589017E+01  0.23392883899E+02  0.51100000000E-03 0.  1.
         12    1    3    3    0    0 -0.28232349650E+01 -0.74651268999E+01  0.17323026682E+02  0.19073175633E+02  0.00000000000E+00 0. -1.
</event>
<event>
 7    1  0.5634483E-012  0.5930197E+02  0.7816164E-02  0.1266605E+00
        -11   -1    0    0    0    0  0.00000000000E+00  0.00000000000E+00  0.45593999997E+02  0.45594000000E+02  0.51100000000E-03 0. -1.
         11   -1    0    0    0    0 -0.00000000000E+00 -0.00000000000E+00 -0.45593999997E+02  0.45594000000E+02  0.51100000000E-03 0.  1.
    9900012    2    1    2    0    0  0.19309493796E+02  0.62625860480E+01 -0.24589480512E+02  0.59301967219E+02  0.50000042296E+02 0.  0.
         12    1    1    2    0    0 -0.19309493796E+02 -0.62625860480E+01  0.24589480512E+02  0.31886032781E+02  0.00000000000E+00 0. -1.
         11    1    3    3    0    0 -0.74775069690E+00  0.68803935275E+01 -0.17392365599E+02  0.18718796104E+02  0.51100000000E-03 0. -1.
        -11    1    3    3    0    0  0.10839140822E+02 -0.83861509873E+00 -0.21195392890E+02  0.23820892701E+02  0.51100000000E-03 0.  1.
         12    1    3    3    0    0  0.92181036714E+01  0.22080761922E+00  0.13998277978E+02  0.16762278414E+02  0.00000000000E+00 0. -1.
</event>
<event>
 7    1  0.5634483E-012  0.5930195E+02  0.7816164E-02  0.1266605E+00
        -11   -1    0    0    0    0  0.00000000000E+00  0.00000000000E+00  0.45593999997E+02  0.45594000000E+02  0.51100000000E-03 0.  1.
         11   -1    0    0    0    0 -0.00000000000E+00 -0.00000000000E+00 -0.45593999997E+02  0.45594000000E+02  0.51100000000E-03 0. -1.
    9900012    2    1    2    0    0  0.56158704542E+01  0.12383431082E+02  0.28841513164E+02  0.59301949007E+02  0.50000009082E+02 0.  0.
         12    1    1    2    0    0 -0.56158704542E+01 -0.12383431082E+02 -0.28841513164E+02  0.31886050993E+02  0.00000000000E+00 0. -1.
         11    1    3    3    0    0 -0.86684308175E+01 -0.70278769876E+01  0.53724652641E+01  0.12385319175E+02  0.51100000000E-03 0. -1.
        -11    1    3    3    0    0 -0.43581073603E+01 -0.33723472292E+00  0.18873147049E+02  0.19372725849E+02  0.51100000000E-03 0.  1.
         12    1    3    3    0    0  0.18642408632E+02  0.19748542793E+02  0.45959008509E+01  0.27543903984E+02  0.00000000000E+00 0. -1.
</event>
<event>
 7    1  0.5634483E-012  0.5930195E+02  0.7816164E-02  0.1266605E+00
        -11   -1    0    0    0    0  0.00000000000E+00  0.00000000000E+00  0.45593999997E+02  0.45594000000E+02  0.51100000000E-03 0. -1.
         11   -1    0    0    0    0 -0.00000000000E+00 -0.00000000000E+00 -0.45593999997E+02  0.45594000000E+02  0.51100000000E-03 0.  1.
    9900012    2    1    2    0    0  0.29280212720E+01  0.48460053809E+01 -0.31379345671E+02  0.59301946443E+02  0.50000004404E+02 0.  0.
         12    1    1    2    0    0 -0.29280212720E+01 -0.48460053809E+01  0.31379345671E+02  0.31886053557E+02  0.00000000000E+00 0. -1.
         11    1    3    3    0    0 -0.67972732517E+01  0.49786219147E+01  0.39259165640E+01  0.92952902567E+01  0.51100000000E-03 0. -1.
        -11    1    3    3    0    0  0.98818530902E+01 -0.30727201647E+01  0.36250931019E+01  0.10965123345E+02  0.51100000000E-03 0.  1.
         12    1    3    3    0    0 -0.15655856646E+00  0.29401036309E+01 -0.38930355337E+02  0.39041532841E+02  0.00000000000E+00 0. -1.
</event>
<event>
 7    1  0.5634483E-012  0.5930178E+02  0.7816164E-02  0.1266605E+00
        -11   -1    0    0    0    0  0.00000000000E+00  0.00000000000E+00  0.45593999997E+02  0.45594000000E+02  0.51100000000E-03 0.  1.
         11   -1    0    0    0    0 -0.00000000000E+00 -0.00000000000E+00 -0.45593999997E+02  0.45594000000E+02  0.51100000000E-03 0. -1.
    9900012    2    1    2    0    0  0.12613743009E+02 -0.17588319690E+02  0.23415283812E+02  0.59301780120E+02  0.49999701071E+02 0.  0.
         12    1    1    2    0    0 -0.12613743009E+02  0.17588319690E+02 -0.23415283812E+02  0.31886219880E+02  0.00000000000E+00 0. -1.
         11    1    3    3    0    0  0.23082390866E+02 -0.93861196614E+01  0.20696722085E+01  0.25003590816E+02  0.51100000000E-03 0. -1.
        -11    1    3    3    0    0 -0.50239592738E+01  0.70055368002E+01  0.15675927448E+01  0.87621378624E+01  0.51100000000E-03 0.  1.
        -12    1    3    3    0    0 -0.54446885831E+01 -0.15207736829E+02  0.19778018859E+02  0.25536051441E+02  0.00000000000E+00 0.  1.
</event>
<event>
 7    1  0.5634483E-012  0.5930194E+02  0.7816164E-02  0.1266605E+00
        -11   -1    0    0    0    0  0.00000000000E+00  0.00000000000E+00  0.45593999997E+02  0.45594000000E+02  0.51100000000E-03 0.  1.
         11   -1    0    0    0    0 -0.00000000000E+00 -0.00000000000E+00 -0.45593999997E+02  0.45594000000E+02  0.51100000000E-03 0. -1.
    9900012    2    1    2    0    0 -0.52330584615E+01  0.12126181944E+02  0.29022265874E+02  0.59301935554E+02  0.49999984545E+02 0.  0.
         12    1    1    2    0    0  0.52330584615E+01 -0.12126181944E+02 -0.29022265874E+02  0.31886064446E+02  0.00000000000E+00 0. -1.
         11    1    3    3    0    0  0.87471957896E+01  0.93451066901E+01  0.29171393899E+02  0.31856156006E+02  0.51100000000E-03 0. -1.
        -11    1    3    3    0    0  0.46940047089E+01  0.55019580374E+01  0.37937083060E+01  0.81668503981E+01  0.51100000000E-03 0.  1.
         12    1    3    3    0    0 -0.18674258960E+02 -0.27208827840E+01 -0.39428363302E+01  0.19278929150E+02  0.00000000000E+00 0. -1.
</event>
<event>
 7    1  0.5634483E-012  0.5930193E+02  0.7816164E-02  0.1266605E+00
        -11   -1    0    0    0    0  0.00000000000E+00  0.00000000000E+00  0.45593999997E+02  0.45594000000E+02  0.51100000000E-03 0. -1.
         11   -1    0    0    0    0 -0.00000000000E+00 -0.00000000000E+00 -0.45593999997E+02  0.45594000000E+02  0.51100000000E-03 0.  1.
    9900012    2    1    2    0    0 -0.22023210362E+02  0.18847720837E+02 -0.13283944135E+02  0.59301928634E+02  0.49999971926E+02 0.  0.
         12    1    1    2    0    0  0.22023210362E+02 -0.18847720837E+02  0.13283944135E+02  0.31886071366E+02  0.00000000000E+00 0. -1.
         11    1    3    3    0    0 -0.22428367104E+00 -0.42904882974E+01  0.87733642510E+01  0.97688542592E+01  0.51100000000E-03 0. -1.
        -11    1    3    3    0    0 -0.26243898169E+02  0.12955267937E+02 -0.57918784863E+01  0.29834996482E+02  0.51100000000E-03 0.  1.
        -12    1    3    3    0    0  0.44449714783E+01  0.10182941198E+02 -0.16265429899E+02  0.19698077893E+02  0.00000000000E+00 0.  1.
</event>
<event>
 7    1  0.5634483E-012  0.5930213E+02  0.7816164E-02  0.1266604E+00
        -11   -1    0    0    0    0  0.00000000000E+00  0.00000000000E+00  0.45593999997E+02  0.45594000000E+02  0.51100000000E-03 0. -1.
         11   -1    0    0    0    0 -0.00000000000E+00 -0.00000000000E+00 -0.45593999997E+02  0.45594000000E+02  0.51100000000E-03 0.  1.
    9900012    2    1    2    0    0  0.26321925326E+02  0.14143987861E+02 -0.11127120121E+02  0.59302126205E+02  0.50000332246E+02 0.  0.
         12    1    1    2    0    0 -0.26321925326E+02 -0.14143987861E+02  0.11127120121E+02  0.31885873795E+02  0.00000000000E+00 0. -1.
         11    1    3    3    0    0 -0.40196623834E+01 -0.22157432619E+00  0.57735670817E+00  0.40669548667E+01  0.51100000000E-03 0. -1.
        -11    1    3    3    0    0  0.43651232364E+01  0.99778121912E+01  0.14461988352E+02  0.18104147159E+02  0.51100000000E-03 0.  1.
        -12    1    3    3    0    0  0.25976464473E+02  0.43877499963E+01 -0.26166465181E+02  0.37131024179E+02  0.00000000000E+00 0.  1.
</event>
<event>
 7    1  0.5634483E-012  0.5930198E+02  0.7816164E-02  0.1266605E+00
        -11   -1    0    0    0    0  0.00000000000E+00  0.00000000000E+00  0.45593999997E+02  0.45594000000E+02  0.51100000000E-03 0. -1.
         11   -1    0    0    0    0 -0.00000000000E+00 -0.00000000000E+00 -0.45593999997E+02  0.45594000000E+02  0.51100000000E-03 0.  1.
    9900012    2    1    2    0    0  0.27330266908E+02  0.19430474588E+01 -0.16309493654E+02  0.59301976323E+02  0.50000058899E+02 0.  0.
         12    1    1    2    0    0 -0.27330266908E+02 -0.19430474588E+01  0.16309493654E+02  0.31886023677E+02  0.00000000000E+00 0. -1.
         11    1    3    3    0    0  0.22981316020E+02 -0.10051748040E+02  0.40283669521E+01  0.25404847278E+02  0.51100000000E-03 0.  1.
        -11    1    3    3    0    0  0.12518324865E+02  0.41523223518E+00 -0.12532522966E+02  0.17718493373E+02  0.51100000000E-03 0. -1.
         12    1    3    3    0    0 -0.81693739773E+01  0.11579563263E+02 -0.78053376397E+01  0.16178635672E+02  0.00000000000E+00 0. -1.
</event>
<event>
 7    1  0.5634483E-012  0.5930194E+02  0.7816164E-02  0.1266605E+00
        -11   -1    0    0    0    0  0.00000000000E+00  0.00000000000E+00  0.45593999997E+02  0.45594000000E+02  0.51100000000E-03 0.  1.
         11   -1    0    0    0    0 -0.00000000000E+00 -0.00000000000E+00 -0.45593999997E+02  0.45594000000E+02  0.51100000000E-03 0. -1.
    9900012    2    1    2    0    0 -0.73706893114E+00 -0.80549679160E+01  0.30843074655E+02  0.59301936698E+02  0.49999986632E+02 0.  0.
         12    1    1    2    0    0  0.73706893114E+00  0.80549679160E+01 -0.30843074655E+02  0.31886063302E+02  0.00000000000E+00 0. -1.
         11    1    3    3    0    0 -0.39881914742E+01 -0.35170575283E+01 -0.33706914370E+01  0.62957863621E+01  0.51100000000E-03 0. -1.
        -11    1    3    3    0    0 -0.13991693543E+02  0.82856702263E+01  0.55500923926E+01  0.17182064635E+02  0.51100000000E-03 0.  1.
        -12    1    3    3    0    0  0.17242816086E+02 -0.12823580614E+02  0.28663673700E+02  0.35824085701E+02  0.00000000000E+00 0.  1.
</event>
<event>
 7    1  0.5634483E-012  0.5930197E+02  0.7816164E-02  0.1266605E+00
        -11   -1    0    0    0    0  0.00000000000E+00  0.00000000000E+00  0.45593999997E+02  0.45594000000E+02  0.51100000000E-03 0. -1.
         11   -1    0    0    0    0 -0.00000000000E+00 -0.00000000000E+00 -0.45593999997E+02  0.45594000000E+02  0.51100000000E-03 0.  1.
    9900012    2    1    2    0    0  0.28751770154E+02  0.97801140088E+01 -0.97161697791E+01  0.59301970579E+02  0.50000048424E+02 0.  0.
         12    1    1    2    0    0 -0.28751770154E+02 -0.97801140088E+01  0.97161697791E+01  0.31886029421E+02  0.00000000000E+00 0. -1.
         11    1    3    3    0    0  0.13497634877E+02 -0.32912341466E+01  0.37413138177E+01  0.14388043606E+02  0.51100000000E-03 0. -1.
        -11    1    3    3    0    0  0.15919372948E+02  0.13701268512E+02  0.87024383667E+01  0.22735074833E+02  0.51100000000E-03 0.  1.
         12    1    3    3    0    0 -0.66523767002E+00 -0.62992035636E+00 -0.22159921963E+02  0.22178852140E+02  0.00000000000E+00 0. -1.
</event>
<event>
 7    1  0.5634483E-012  0.5930195E+02  0.7816164E-02  0.1266605E+00
        -11   -1    0    0    0    0  0.00000000000E+00  0.00000000000E+00  0.45593999997E+02  0.45594000000E+02  0.51100000000E-03 0.  1.
         11   -1    0    0    0    0 -0.00000000000E+00 -0.00000000000E+00 -0.45593999997E+02  0.45594000000E+02  0.51100000000E-03 0. -1.
    9900012    2    1    2    0    0  0.11240595135E+02 -0.18380622686E+02  0.23505786120E+02  0.59301948968E+02  0.50000009009E+02 0.  0.
         12    1    1    2    0    0 -0.11240595135E+02  0.18380622686E+02 -0.23505786120E+02  0.31886051032E+02  0.00000000000E+00 0. -1.
         11    1    3    3    0    0  0.89033155172E+01 -0.18559401209E+02  0.30845573861E+01  0.20814295447E+02  0.51100000000E-03 0. -1.
        -11    1    3    3    0    0 -0.26365110387E+01 -0.15678375304E+02  0.84377992709E+01  0.17998863837E+02  0.51100000000E-03 0.  1.
        -12    1    3    3    0    0  0.49737906569E+01  0.15857153827E+02  0.11983429463E+02  0.20488789683E+02  0.00000000000E+00 0.  1.
</event>
<event>
 7    1  0.5634483E-012  0.5930199E+02  0.7816164E-02  0.1266605E+00
        -11   -1    0    0    0    0  0.00000000000E+00  0.00000000000E+00  0.45593999997E+02  0.45594000000E+02  0.51100000000E-03 0.  1.
         11   -1    0    0    0    0 -0.00000000000E+00 -0.00000000000E+00 -0.45593999997E+02  0.45594000000E+02  0.51100000000E-03 0. -1.
    9900012    2    1    2    0    0  0.25352683557E+02  0.16539517293E+02  0.10020162771E+02  0.59301986486E+02  0.50000077434E+02 0.  0.
         12    1    1    2    0    0 -0.25352683557E+02 -0.16539517293E+02 -0.10020162771E+02  0.31886013514E+02  0.00000000000E+00 0. -1.
         11    1    3    3    0    0 -0.30033046531E+01  0.72455295722E+01 -0.79550923329E+01  0.11171438220E+02  0.51100000000E-03 0. -1.
        -11    1    3    3    0    0 -0.58176793358E+01  0.80672063921E+01  0.71955105800E+01  0.12276016642E+02  0.51100000000E-03 0.  1.
        -12    1    3    3    0    0  0.34173667546E+02  0.12267813285E+01  0.10779744524E+02  0.35854531624E+02  0.00000000000E+00 0.  1.
</event>
<event>
 7    1  0.5634483E-012  0.5930195E+02  0.7816164E-02  0.1266605E+00
        -11   -1    0    0    0    0  0.00000000000E+00  0.00000000000E+00  0.45593999997E+02  0.45594000000E+02  0.51100000000E-03 0. -1.
         11   -1    0    0    0    0 -0.00000000000E+00 -0.00000000000E+00 -0.45593999997E+02  0.45594000000E+02  0.51100000000E-03 0.  1.
    9900012    2    1    2    0    0 -0.19485024707E+02  0.18665612893E+02 -0.16989663690E+02  0.59301953447E+02  0.50000017178E+02 0.  0.
         12    1    1    2    0    0  0.19485024707E+02 -0.18665612893E+02  0.16989663690E+02  0.31886046553E+02  0.00000000000E+00 0. -1.
         11    1    3    3    0    0  0.15363359235E+02  0.16848623166E+01 -0.14526259753E+01  0.15523584976E+02  0.51100000000E-03 0. -1.
        -11    1    3    3    0    0 -0.89387916562E+01  0.99662813993E+01 -0.14551057209E+01  0.13466480391E+02  0.51100000000E-03 0.  1.
        -12    1    3    3    0    0 -0.25909592286E+02  0.70144691774E+01 -0.14081931994E+02  0.30311888079E+02  0.00000000000E+00 0.  1.
</event>
<event>
 7    1  0.5634483E-012  0.5930196E+02  0.7816164E-02  0.1266605E+00
        -11   -1    0    0    0    0  0.00000000000E+00  0.00000000000E+00  0.45593999997E+02  0.45594000000E+02  0.51100000000E-03 0.  1.
         11   -1    0    0    0    0 -0.00000000000E+00 -0.00000000000E+00 -0.45593999997E+02  0.45594000000E+02  0.51100000000E-03 0. -1.
    9900012    2    1    2    0    0 -0.61882069563E+01 -0.10660668487E+02  0.29407072667E+02  0.59301957901E+02  0.50000025302E+02 0.  0.
         12    1    1    2    0    0  0.61882069563E+01  0.10660668487E+02 -0.29407072667E+02  0.31886042099E+02  0.00000000000E+00 0. -1.
         11    1    3    3    0    0 -0.11976052915E+02  0.76390967672E+01  0.13143649801E+02  0.19352962905E+02  0.51100000000E-03 0.  1.
        -11    1    3    3    0    0  0.42156836923E+01 -0.21268438987E+01 -0.88536526568E+01  0.10034072931E+02  0.51100000000E-03 0. -1.
         12    1    3    3    0    0  0.15721622663E+01 -0.16172921355E+02  0.25117075523E+02  0.29914922065E+02  0.00000000000E+00 0. -1.
</event>
<event>
 7    1  0.5634483E-012  0.5930198E+02  0.7816164E-02  0.1266605E+00
        -11   -1    0    0    0    0  0.00000000000E+00  0.00000000000E+00  0.45593999997E+02  0.45594000000E+02  0.51100000000E-03 0. -1.
         11   -1    0    0    0    0 -0.00000000000E+00 -0.00000000000E+00 -0.45593999997E+02  0.45594000000E+02  0.51100000000E-03 0.  1.
    9900012    2    1    2    0    0 -0.29433051316E+02 -0.10076269058E+02  0.69916198941E+01  0.59301977096E+02  0.50000060309E+02 0.  0.
         12    1    1    2    0    0  0.29433051316E+02  0.10076269058E+02 -0.69916198941E+01  0.31886022904E+02  0.00000000000E+00 0. -1.
         11    1    3    3    0    0 -0.25433322517E+00 -0.12192471742E+02 -0.35808630935E+01  0.12709981641E+02  0.51100000000E-03 0. -1.
        -11    1    3    3    0    0 -0.22869674234E+02 -0.11788336495E+01 -0.98769693843E+01  0.24939249645E+02  0.51100000000E-03 0.  1.
         12    1    3    3    0    0 -0.63090438559E+01  0.32950363335E+01  0.20449452372E+02  0.21652745810E+02  0.00000000000E+00 0. -1.
</event>
<event>
 7    1  0.5634483E-012  0.5930196E+02  0.7816164E-02  0.1266605E+00
        -11   -1    0    0    0    0  0.00000000000E+00  0.00000000000E+00  0.45593999997E+02  0.45594000000E+02  0.51100000000E-03 0.  1.
         11   -1    0    0    0    0 -0.00000000000E+00 -0.00000000000E+00 -0.45593999997E+02  0.45594000000E+02  0.51100000000E-03 0. -1.
    9900012    2    1    2    0    0 -0.26953709433E+02  0.14769851300E+02  0.84893254728E+01  0.59301959063E+02  0.50000027421E+02 0.  0.
         12    1    1    2    0    0  0.26953709433E+02 -0.14769851300E+02 -0.84893254728E+01  0.31886040937E+02  0.00000000000E+00 0. -1.
         11    1    3    3    0    0 -0.12011651860E+02  0.83624040890E+00  0.16858221929E+02  0.20716629197E+02  0.51100000000E-03 0.  1.
        -11    1    3    3    0    0 -0.12210868993E+02 -0.46552051729E+01 -0.13821922812E+02  0.19021614213E+02  0.51100000000E-03 0. -1.
        -12    1    3    3    0    0 -0.27311885800E+01  0.18588816064E+02  0.54530263556E+01  0.19563715653E+02  0.00000000000E+00 0.  1.
</event>
<event>
 7    1  0.5634483E-012  0.5930193E+02  0.7816164E-02  0.1266605E+00
        -11   -1    0    0    0    0  0.00000000000E+00  0.00000000000E+00  0.45593999997E+02  0.45594000000E+02  0.51100000000E-03 0.  1.
         11   -1    0    0    0    0 -0.00000000000E+00 -0.00000000000E+00 -0.45593999997E+02  0.45594000000E+02  0.51100000000E-03 0. -1.
    9900012    2    1    2    0    0  0.81623648365E+01  0.88068159870E+01  0.29538740067E+02  0.59301931376E+02  0.49999976926E+02 0.  0.
         12    1    1    2    0    0 -0.81623648365E+01 -0.88068159870E+01 -0.29538740067E+02  0.31886068624E+02  0.00000000000E+00 0. -1.
         11    1    3    3    0    0  0.12653460664E+02  0.14150748024E+02  0.17243600901E+02  0.25645574837E+02  0.51100000000E-03 0. -1.
        -11    1    3    3    0    0  0.98745097313E+01 -0.46462030399E+01 -0.42700614343E+01  0.11718641988E+02  0.51100000000E-03 0.  1.
        -12    1    3    3    0    0 -0.14365605559E+02 -0.69772899731E+00  0.16565200600E+02  0.21937714552E+02  0.00000000000E+00 0.  1.
</event>
<event>
 7    1  0.5634483E-012  0.5930198E+02  0.7816164E-02  0.1266605E+00
        -11   -1    0    0    0    0  0.00000000000E+00  0.00000000000E+00  0.45593999997E+02  0.45594000000E+02  0.51100000000E-03 0. -1.
         11   -1    0    0    0    0 -0.00000000000E+00 -0.00000000000E+00 -0.45593999997E+02  0.45594000000E+02  0.51100000000E-03 0.  1.
    9900012    2    1    2    0    0  0.31802125690E+02  0.14218764039E+01 -0.18223802684E+01  0.59301984244E+02  0.50000073345E+02 0.  0.
         12    1    1    2    0    0 -0.31802125690E+02 -0.14218764039E+01  0.18223802684E+01  0.31886015756E+02  0.00000000000E+00 0. -1.
         11    1    3    3    0    0  0.15023797399E+02  0.39123145909E+01 -0.12260664607E+02  0.19782431363E+02  0.51100000000E-03 0. -1.
        -11    1    3    3    0    0  0.18077402189E+02 -0.15987918922E+02  0.38298565223E+01  0.24435094078E+02  0.51100000000E-03 0.  1.
         12    1    3    3    0    0 -0.12990738979E+01  0.13497480735E+02  0.66084278165E+01  0.15084458803E+02  0.00000000000E+00 0. -1.
</event>
<event>
 7    1  0.5634483E-012  0.5930194E+02  0.7816164E-02  0.1266605E+00
        -11   -1    0    0    0    0  0.00000000000E+00  0.00000000000E+00  0.45593999997E+02  0.45594000000E+02  0.51100000000E-03 0.  1.
         11   -1    0    0    0    0 -0.00000000000E+00 -0.00000000000E+00 -0.45593999997E+02  0.45594000000E+02  0.51100000000E-03 0. -1.
    9900012    2    1    2    0    0  0.18130299038E+02  0.11669695718E+02  0.23491092103E+02  0.59301938005E+02  0.49999989017E+02 0.  0.
         12    1    1    2    0    0 -0.18130299038E+02 -0.11669695718E+02 -0.23491092103E+02  0.31886061995E+02  0.00000000000E+00 0. -1.
         11    1    3    3    0    0  0.91282891022E+01  0.15732512662E+01  0.99106404913E+01  0.13565455270E+02  0.51100000000E-03 0. -1.
        -11    1    3    3    0    0  0.11818137840E+02 -0.14370186675E+02  0.26565622487E+01  0.18794360067E+02  0.51100000000E-03 0.  1.
         12    1    3    3    0    0 -0.28161279044E+01  0.24466631127E+02  0.10923889363E+02  0.26942122669E+02  0.00000000000E+00 0. -1.
</event>
<event>
 7    1  0.5634483E-012  0.5930195E+02  0.7816164E-02  0.1266605E+00
        -11   -1    0    0    0    0  0.00000000000E+00  0.00000000000E+00  0.45593999997E+02  0.45594000000E+02  0.51100000000E-03 0.  1.
         11   -1    0    0    0    0 -0.00000000000E+00 -0.00000000000E+00 -0.45593999997E+02  0.45594000000E+02  0.51100000000E-03 0. -1.
    9900012    2    1    2    0    0 -0.41300623981E+01 -0.31464816542E+02  0.31029005205E+01  0.59301951530E+02  0.50000013682E+02 0.  0.
         12    1    1    2    0    0  0.41300623981E+01  0.31464816542E+02 -0.31029005205E+01  0.31886048470E+02  0.00000000000E+00 0. -1.
         11    1    3    3    0    0 -0.22374121463E+02 -0.82506819544E+01 -0.34467432296E+01  0.24094711102E+02  0.51100000000E-03 0. -1.
        -11    1    3    3    0    0  0.38706177683E+01  0.25763744204E+01 -0.94680608732E+00  0.47450847295E+01  0.51100000000E-03 0.  1.
        -12    1    3    3    0    0  0.14373441297E+02 -0.25790509008E+02  0.74964498374E+01  0.30462155698E+02  0.00000000000E+00 0.  1.
</event>
<event>
 7    1  0.5634483E-012  0.5930193E+02  0.7816164E-02  0.1266605E+00
        -11   -1    0    0    0    0  0.00000000000E+00  0.00000000000E+00  0.45593999997E+02  0.45594000000E+02  0.51100000000E-03 0.  1.
         11   -1    0    0    0    0 -0.00000000000E+00 -0.00000000000E+00 -0.45593999997E+02  0.45594000000E+02  0.51100000000E-03 0. -1.
    9900012    2    1    2    0    0 -0.15213284135E+02  0.32783902129E+01  0.27830369741E+02  0.59301931938E+02  0.49999977951E+02 0.  0.
         12    1    1    2    0    0  0.15213284135E+02 -0.32783902129E+01 -0.27830369741E+02  0.31886068062E+02  0.00000000000E+00 0. -1.
         11    1    3    3    0    0 -0.12354575534E+02  0.16810115068E+02  0.15389870527E+02  0.25924189868E+02  0.51100000000E-03 0. -1.
        -11    1    3    3    0    0  0.63510333459E+01 -0.79152265498E+01  0.18429973423E+02  0.21039257509E+02  0.51100000000E-03 0.  1.
        -12    1    3    3    0    0 -0.92097419466E+01 -0.56164983053E+01 -0.59894742096E+01  0.12338484560E+02  0.00000000000E+00 0.  1.
</event>
<event>
 7    1  0.5634483E-012  0.5930191E+02  0.7816164E-02  0.1266605E+00
        -11   -1    0    0    0    0  0.00000000000E+00  0.00000000000E+00  0.45593999997E+02  0.45594000000E+02  0.51100000000E-03 0.  1.
         11   -1    0    0    0    0 -0.00000000000E+00 -0.00000000000E+00 -0.45593999997E+02  0.45594000000E+02  0.51100000000E-03 0. -1.
    9900012    2    1    2    0    0  0.15118504527E+02 -0.14951982167E+02  0.23761136407E+02  0.59301912859E+02  0.49999943155E+02 0.  0.
         12    1    1    2    0    0 -0.15118504527E+02  0.14951982167E+02 -0.23761136407E+02  0.31886087141E+02  0.00000000000E+00 0. -1.
         11    1    3    3    0    0  0.99501502215E+01 -0.16337529729E+02  0.66561158574E+01  0.20253993326E+02  0.51100000000E-03 0. -1.
        -11    1    3    3    0    0  0.16600015669E+02 -0.48103624542E+01 -0.34469114203E+00  0.17286379592E+02  0.51100000000E-03 0.  1.
        -12    1    3    3    0    0 -0.11431661364E+02  0.61959100167E+01  0.17449711692E+02  0.21761539941E+02  0.00000000000E+00 0.  1.
</event>
<event>
 7    1  0.5634483E-012  0.5930186E+02  0.7816164E-02  0.1266605E+00
        -11   -1    0    0    0    0  0.00000000000E+00  0.00000000000E+00  0.45593999997E+02  0.45594000000E+02  0.51100000000E-03 0.  1.
         11   -1    0    0    0    0 -0.00000000000E+00 -0.00000000000E+00 -0.45593999997E+02  0.45594000000E+02  0.51100000000E-03 0. -1.
    9900012    2    1    2    0    0  0.90917207435E+01 -0.15145318840E+02  0.26545918604E+02  0.59301860952E+02  0.49999848489E+02 0.  0.
         12    1    1    2    0    0 -0.90917207435E+01  0.15145318840E+02 -0.26545918604E+02  0.31886139048E+02  0.00000000000E+00 0. -1.
         11    1    3    3    0    0  0.19306836332E+02 -0.24551981016E+01 -0.30332615619E+00  0.19464684274E+02  0.51100000000E-03 0. -1.
        -11    1    3    3    0    0  0.18916965677E+01 -0.35383358444E+01 -0.38693376761E+01  0.55740569394E+01  0.51100000000E-03 0.  1.
        -12    1    3    3    0    0 -0.12106812156E+02 -0.91517848945E+01  0.30718582436E+02  0.34263119739E+02  0.00000000000E+00 0.  1.
</event>
<event>
 7    1  0.5634483E-012  0.5930193E+02  0.7816164E-02  0.1266605E+00
        -11   -1    0    0    0    0  0.00000000000E+00  0.00000000000E+00  0.45593999997E+02  0.45594000000E+02  0.51100000000E-03 0.  1.
         11   -1    0    0    0    0 -0.00000000000E+00 -0.00000000000E+00 -0.45593999997E+02  0.45594000000E+02  0.51100000000E-03 0. -1.
    9900012    2    1    2    0    0  0.90191526650E+01  0.21431425990E+02  0.21819041233E+02  0.59301926314E+02  0.49999967694E+02 0.  0.
         12    1    1    2    0    0 -0.90191526650E+01 -0.21431425990E+02 -0.21819041233E+02  0.31886073686E+02  0.00000000000E+00 0. -1.
         11    1    3    3    0    0 -0.39920527164E+01 -0.49674984050E+01  0.42750508285E+01  0.76738898312E+01  0.51100000000E-03 0. -1.
        -11    1    3    3    0    0  0.25328571638E+00 -0.62657650384E+00  0.21474552331E+02  0.21485184427E+02  0.51100000000E-03 0.  1.
        -12    1    3    3    0    0  0.12757919665E+02  0.27025500899E+02 -0.39305619262E+01  0.30142852056E+02  0.00000000000E+00 0.  1.
</event>
<event>
 7    1  0.5634483E-012  0.5930199E+02  0.7816164E-02  0.1266605E+00
        -11   -1    0    0    0    0  0.00000000000E+00  0.00000000000E+00  0.45593999997E+02  0.45594000000E+02  0.51100000000E-03 0.  1.
         11   -1    0    0    0    0 -0.00000000000E+00 -0.00000000000E+00 -0.45593999997E+02  0.45594000000E+02  0.51100000000E-03 0. -1.
    9900012    2    1    2    0    0  0.30603678026E+02  0.56456354324E+01  0.69468995914E+01  0.59301988615E+02  0.50000081316E+02 0.  0.
         12    1    1    2    0    0 -0.30603678026E+02 -0.56456354324E+01 -0.69468995914E+01  0.31886011385E+02  0.00000000000E+00 0. -1.
         11    1    3    3    0    0 -0.14046716146E+01 -0.44792828691E+00  0.12462884013E+01  0.19305380430E+01  0.51100000000E-03 0. -1.
        -11    1    3    3    0    0  0.38153036847E+02  0.12788358414E+02  0.16295272402E+02  0.43413502905E+02  0.51100000000E-03 0.  1.
         12    1    3    3    0    0 -0.61446872066E+01 -0.66947946947E+01 -0.10594661212E+02  0.13957947667E+02  0.00000000000E+00 0. -1.
</event>
<event>
 7    1  0.5634483E-012  0.5930195E+02  0.7816164E-02  0.1266605E+00
        -11   -1    0    0    0    0  0.00000000000E+00  0.00000000000E+00  0.45593999997E+02  0.45594000000E+02  0.51100000000E-03 0.  1.
         11   -1    0    0    0    0 -0.00000000000E+00 -0.00000000000E+00 -0.45593999997E+02  0.45594000000E+02  0.51100000000E-03 0. -1.
    9900012    2    1    2    0    0  0.39888541301E+01  0.18590677400E+00  0.31635022844E+02  0.59301949932E+02  0.50000010769E+02 0.  0.
         12    1    1    2    0    0 -0.39888541301E+01 -0.18590677400E+00 -0.31635022844E+02  0.31886050068E+02  0.00000000000E+00 0. -1.
         11    1    3    3    0    0  0.64384377663E+01 -0.11276768230E+02 -0.41065725852E+01  0.13619211476E+02  0.51100000000E-03 0. -1.
        -11    1    3    3    0    0  0.37394845330E+01  0.96606701974E+01  0.10668931828E+01  0.10413959600E+02  0.51100000000E-03 0.  1.
        -12    1    3    3    0    0 -0.61890681692E+01  0.18020048065E+01  0.34674702246E+02  0.35268778856E+02  0.00000000000E+00 0.  1.
</event>
<event>
 7    1  0.5634483E-012  0.5930198E+02  0.7816164E-02  0.1266605E+00
        -11   -1    0    0    0    0  0.00000000000E+00  0.00000000000E+00  0.45593999997E+02  0.45594000000E+02  0.51100000000E-03 0. -1.
         11   -1    0    0    0    0 -0.00000000000E+00 -0.00000000000E+00 -0.45593999997E+02  0.45594000000E+02  0.51100000000E-03 0.  1.
    9900012    2    1    2    0    0  0.59695848529E+00 -0.12188850144E+02 -0.29458343197E+02  0.59301977809E+02  0.50000061608E+02 0.  0.
         12    1    1    2    0    0 -0.59695848529E+00  0.12188850144E+02  0.29458343197E+02  0.31886022191E+02  0.00000000000E+00 0. -1.
         11    1    3    3    0    0 -0.17923072261E+02  0.25288940446E+01 -0.17497224879E+02  0.25175080995E+02  0.51100000000E-03 0. -1.
        -11    1    3    3    0    0  0.12058524551E+01 -0.40107532110E+01  0.57704264968E+01  0.71300802014E+01  0.51100000000E-03 0.  1.
        -12    1    3    3    0    0  0.17314178291E+02 -0.10706990978E+02 -0.17731544814E+02  0.26996816612E+02  0.00000000000E+00 0.  1.
</event>
<event>
 7    1  0.7042400E-012  0.5930194E+02  0.7816164E-02  0.1266605E+00
        -11   -1    0    0    0    0  0.00000000000E+00  0.00000000000E+00  0.45593999997E+02  0.45594000000E+02  0.51100000000E-03 0. -1.
         11   -1    0    0    0    0 -0.00000000000E+00 -0.00000000000E+00 -0.45593999997E+02  0.45594000000E+02  0.51100000000E-03 0.  1.
    9900012    2    1    2    0    0 -0.96107870345E+01 -0.14988328744E+02 -0.26451905636E+02  0.59301944463E+02  0.50000000793E+02 0.  0.
         12    1    1    2    0    0  0.96107870345E+01  0.14988328744E+02  0.26451905636E+02  0.31886055537E+02  0.00000000000E+00 0. -1.
         11    1    3    3    0    0 -0.10728785155E+02  0.18246116757E+01  0.20245542442E+01  0.11069546459E+02  0.51100000000E-03 0. -1.
        -11    1    3    3    0    0  0.11966180879E+01 -0.51660715533E+01 -0.34647837693E+02  0.35051288809E+02  0.51100000000E-03 0.  1.
         12    1    3    3    0    0 -0.78619967664E-01 -0.11646868866E+02  0.61713778124E+01  0.13181109194E+02  0.00000000000E+00 0. -1.
</event>
<event>
 7    1  0.5634483E-012  0.5930195E+02  0.7816164E-02  0.1266605E+00
        -11   -1    0    0    0    0  0.00000000000E+00  0.00000000000E+00  0.45593999997E+02  0.45594000000E+02  0.51100000000E-03 0.  1.
         11   -1    0    0    0    0 -0.00000000000E+00 -0.00000000000E+00 -0.45593999997E+02  0.45594000000E+02  0.51100000000E-03 0. -1.
    9900012    2    1    2    0    0 -0.20344884052E+02  0.93587391489E+01  0.22698455155E+02  0.59301950198E+02  0.50000011252E+02 0.  0.
         12    1    1    2    0    0  0.20344884052E+02 -0.93587391489E+01 -0.22698455155E+02  0.31886049802E+02  0.00000000000E+00 0. -1.
         11    1    3    3    0    0  0.35446044149E+01  0.59690278808E+01  0.14126235935E+02  0.15739887428E+02  0.51100000000E-03 0. -1.
        -11    1    3    3    0    0 -0.97620140985E+01  0.18436627440E+02 -0.83801135272E+00  0.20878419813E+02  0.51100000000E-03 0.  1.
         12    1    3    3    0    0 -0.14127474369E+02 -0.15046916172E+02  0.94102305729E+01  0.22683642956E+02  0.00000000000E+00 0. -1.
</event>
<event>
 7    1  0.5634483E-012  0.5930172E+02  0.7816164E-02  0.1266606E+00
        -11   -1    0    0    0    0  0.00000000000E+00  0.00000000000E+00  0.45593999997E+02  0.45594000000E+02  0.51100000000E-03 0. -1.
         11   -1    0    0    0    0 -0.00000000000E+00 -0.00000000000E+00 -0.45593999997E+02  0.45594000000E+02  0.51100000000E-03 0.  1.
    9900012    2    1    2    0    0  0.24941330640E+02 -0.19858905695E+02 -0.53720853202E+00  0.59301722347E+02  0.49999595707E+02 0.  0.
         12    1    1    2    0    0 -0.24941330640E+02  0.19858905695E+02  0.53720853202E+00  0.31886277653E+02  0.00000000000E+00 0. -1.
         11    1    3    3    0    0  0.13941009657E+02  0.57849886831E+01 -0.10669923413E+02  0.18484185408E+02  0.51100000000E-03 0. -1.
        -11    1    3    3    0    0  0.97549988581E+01 -0.22893816245E+02 -0.50032491824E+01  0.25383445937E+02  0.51100000000E-03 0.  1.
         12    1    3    3    0    0  0.12453221257E+01 -0.27500781336E+01  0.15135964064E+02  0.15434091002E+02  0.00000000000E+00 0. -1.
</event>
<event>
 7    1  0.5634483E-012  0.5930195E+02  0.7816164E-02  0.1266605E+00
        -11   -1    0    0    0    0  0.00000000000E+00  0.00000000000E+00  0.45593999997E+02  0.45594000000E+02  0.51100000000E-03 0.  1.
         11   -1    0    0    0    0 -0.00000000000E+00 -0.00000000000E+00 -0.45593999997E+02  0.45594000000E+02  0.51100000000E-03 0. -1.
    9900012    2    1    2    0    0  0.59472522477E+00  0.10464680006E+01  0.31863325118E+02  0.59301948489E+02  0.50000008137E+02 0.  0.
         12    1    1    2    0    0 -0.59472522477E+00 -0.10464680006E+01 -0.31863325118E+02  0.31886051511E+02  0.00000000000E+00 0. -1.
         11    1    3    3    0    0  0.85595563364E+01  0.14939493622E+02  0.26709899893E+02  0.31778502590E+02  0.51100000000E-03 0.  1.
        -11    1    3    3    0    0  0.14600433040E+01  0.38570519490E+01 -0.37205326060E+01  0.55543621885E+01  0.51100000000E-03 0. -1.
         12    1    3    3    0    0 -0.94248744157E+01 -0.17750077570E+02  0.88739578310E+01  0.21969083710E+02  0.00000000000E+00 0. -1.
</event>
<event>
 7    1  0.5634483E-012  0.5930183E+02  0.7816164E-02  0.1266605E+00
        -11   -1    0    0    0    0  0.00000000000E+00  0.00000000000E+00  0.45593999997E+02  0.45594000000E+02  0.51100000000E-03 0. -1.
         11   -1    0    0    0    0 -0.00000000000E+00 -0.00000000000E+00 -0.45593999997E+02  0.45594000000E+02  0.51100000000E-03 0.  1.
    9900012    2    1    2    0    0 -0.17784967807E+02 -0.34757234130E+01 -0.26236273236E+02  0.59301831111E+02  0.49999794066E+02 0.  0.
         12    1    1    2    0    0  0.17784967807E+02  0.34757234130E+01  0.26236273236E+02  0.31886168889E+02  0.00000000000E+00 0. -1.
         11    1    3    3    0    0  0.20900893046E+01 -0.75930371468E+00  0.15421578548E+01  0.27061534588E+01  0.51100000000E-03 0. -1.
        -11    1    3    3    0    0  0.29424439925E+01 -0.93598388488E+01 -0.31089703788E+02  0.32601138658E+02  0.51100000000E-03 0.  1.
         12    1    3    3    0    0 -0.22817501104E+02  0.66434191505E+01  0.33112726971E+01  0.23994538994E+02  0.00000000000E+00 0. -1.
</event>
<event>
 7    1  0.5634483E-012  0.5930198E+02  0.7816164E-02  0.1266605E+00
        -11   -1    0    0    0    0  0.00000000000E+00  0.00000000000E+00  0.45593999997E+02  0.45594000000E+02  0.51100000000E-03 0.  1.
         11   -1    0    0    0    0 -0.00000000000E+00 -0.00000000000E+00 -0.45593999997E+02  0.45594000000E+02  0.51100000000E-03 0. -1.
    9900012    2    1    2    0    0  0.27139143485E+02 -0.10577748458E+02  0.12972915201E+02  0.59301977979E+02  0.50000061918E+02 0.  0.
         12    1    1    2    0    0 -0.27139143485E+02  0.10577748458E+02 -0.12972915201E+02  0.31886022021E+02  0.00000000000E+00 0. -1.
         11    1    3    3    0    0  0.55075588185E+01 -0.22194789895E+02  0.32101909290E+01  0.23092146472E+02  0.51100000000E-03 0. -1.
        -11    1    3    3    0    0  0.15689279351E+02 -0.55848524112E+01  0.52115468756E+01  0.17450051121E+02  0.51100000000E-03 0.  1.
        -12    1    3    3    0    0  0.59423053151E+01  0.17201893848E+02  0.45511773961E+01  0.18759780386E+02  0.00000000000E+00 0.  1.
</event>
<event>
 7    1  0.5634483E-012  0.5930196E+02  0.7816164E-02  0.1266605E+00
        -11   -1    0    0    0    0  0.00000000000E+00  0.00000000000E+00  0.45593999997E+02  0.45594000000E+02  0.51100000000E-03 0.  1.
         11   -1    0    0    0    0 -0.00000000000E+00 -0.00000000000E+00 -0.45593999997E+02  0.45594000000E+02  0.51100000000E-03 0. -1.
    9900012    2    1    2    0    0 -0.10685671831E+02  0.16992907433E+01  0.29994135916E+02  0.59301962917E+02  0.50000034450E+02 0.  0.
         12    1    1    2    0    0  0.10685671831E+02 -0.16992907433E+01 -0.29994135916E+02  0.31886037083E+02  0.00000000000E+00 0. -1.
         11    1    3    3    0    0 -0.60078340367E+01 -0.11379553608E+02  0.24704665822E+02  0.27855139988E+02  0.51100000000E-03 0. -1.
        -11    1    3    3    0    0 -0.88213602852E+01 -0.64895867138E+01  0.26851239558E+01  0.11275682858E+02  0.51100000000E-03 0.  1.
         12    1    3    3    0    0  0.41435224908E+01  0.19568431065E+02  0.26043461380E+01  0.20171140071E+02  0.00000000000E+00 0. -1.
</event>
<event>
 7    1  0.5634483E-012  0.5930194E+02  0.7816164E-02  0.1266605E+00
        -11   -1    0    0    0    0  0.00000000000E+00  0.00000000000E+00  0.45593999997E+02  0.45594000000E+02  0.51100000000E-03 0.  1.
         11   -1    0    0    0    0 -0.00000000000E+00 -0.00000000000E+00 -0.45593999997E+02  0.45594000000E+02  0.51100000000E-03 0. -1.
    9900012    2    1    2    0    0 -0.13715198500E+02 -0.20312099339E+02  0.20396886366E+02  0.59301936855E+02  0.49999986919E+02 0.  0.
         12    1    1    2    0    0  0.13715198500E+02  0.20312099339E+02 -0.20396886366E+02  0.31886063145E+02  0.00000000000E+00 0. -1.
         11    1    3    3    0    0  0.72509977477E+01  0.41920992893E+01  0.88050128462E+01  0.12152321436E+02  0.51100000000E-03 0. -1.
        -11    1    3    3    0    0 -0.40837287850E+01 -0.65767736602E+01  0.19745981554E+02  0.21209304099E+02  0.51100000000E-03 0.  1.
         12    1    3    3    0    0 -0.16882467463E+02 -0.17927424968E+02 -0.81541080340E+01  0.25940311321E+02  0.00000000000E+00 0. -1.
</event>
<event>
 7    1  0.5634483E-012  0.5930193E+02  0.7816164E-02  0.1266605E+00
        -11   -1    0    0    0    0  0.00000000000E+00  0.00000000000E+00  0.45593999997E+02  0.45594000000E+02  0.51100000000E-03 0. -1.
         11   -1    0    0    0    0 -0.00000000000E+00 -0.00000000000E+00 -0.45593999997E+02  0.45594000000E+02  0.51100000000E-03 0.  1.
    9900012    2    1    2    0    0  0.10394130079E+02  0.53876341801E+01 -0.29659014522E+02  0.59301926479E+02  0.49999967995E+02 0.  0.
         12    1    1    2    0    0 -0.10394130079E+02 -0.53876341801E+01  0.29659014522E+02  0.31886073521E+02  0.00000000000E+00 0. -1.
         11    1    3    3    0    0  0.21174438220E+01  0.14791689763E+02  0.21950355385E+01  0.15102841973E+02  0.51100000000E-03 0. -1.
        -11    1    3    3    0    0 -0.96839212358E+00 -0.11134633874E+02 -0.20134067577E+00  0.11178479017E+02  0.51100000000E-03 0.  1.
        -12    1    3    3    0    0  0.92450783805E+01  0.17305782912E+01 -0.31652709385E+02  0.33020605489E+02  0.00000000000E+00 0.  1.
</event>
<event>
 7    1  0.5634483E-012  0.5930196E+02  0.7816164E-02  0.1266605E+00
        -11   -1    0    0    0    0  0.00000000000E+00  0.00000000000E+00  0.45593999997E+02  0.45594000000E+02  0.51100000000E-03 0.  1.
         11   -1    0    0    0    0 -0.00000000000E+00 -0.00000000000E+00 -0.45593999997E+02  0.45594000000E+02  0.51100000000E-03 0. -1.
    9900012    2    1    2    0    0  0.22188785698E+02 -0.58241840235E+01  0.22146248475E+02  0.59301958354E+02  0.50000026129E+02 0.  0.
         12    1    1    2    0    0 -0.22188785698E+02  0.58241840235E+01 -0.22146248475E+02  0.31886041646E+02  0.00000000000E+00 0. -1.
         11    1    3    3    0    0 -0.59027906938E+01  0.70999004087E+01  0.22766585163E+01  0.95097159815E+01  0.51100000000E-03 0. -1.
        -11    1    3    3    0    0  0.32816595158E+00  0.70618627396E+01  0.13149775338E+02  0.14929641320E+02  0.51100000000E-03 0.  1.
         12    1    3    3    0    0  0.27763410441E+02 -0.19985947172E+02  0.67198146207E+01  0.34862601053E+02  0.00000000000E+00 0. -1.
</event>
<event>
 7    1  0.5634483E-012  0.5930203E+02  0.7816164E-02  0.1266604E+00
        -11   -1    0    0    0    0  0.00000000000E+00  0.00000000000E+00  0.45593999997E+02  0.45594000000E+02  0.51100000000E-03 0.  1.
         11   -1    0    0    0    0 -0.00000000000E+00 -0.00000000000E+00 -0.45593999997E+02  0.45594000000E+02  0.51100000000E-03 0. -1.
    9900012    2    1    2    0    0 -0.12584970938E+02 -0.29233258871E+02 -0.19365995859E+01  0.59302026035E+02  0.50000149561E+02 0.  0.
         12    1    1    2    0    0  0.12584970938E+02  0.29233258871E+02  0.19365995859E+01  0.31885973965E+02  0.00000000000E+00 0. -1.
         11    1    3    3    0    0 -0.69429572259E+01 -0.55244989766E+01 -0.10641873263E+02  0.13855475841E+02  0.51100000000E-03 0. -1.
        -11    1    3    3    0    0 -0.12325559283E+01 -0.30909424216E+01 -0.14041946751E+02  0.14430848485E+02  0.51100000000E-03 0.  1.
        -12    1    3    3    0    0 -0.44094577843E+01 -0.20617817473E+02  0.22747220428E+02  0.31015701709E+02  0.00000000000E+00 0.  1.
</event>
<event>
 7    1  0.5634483E-012  0.5930193E+02  0.7816164E-02  0.1266605E+00
        -11   -1    0    0    0    0  0.00000000000E+00  0.00000000000E+00  0.45593999997E+02  0.45594000000E+02  0.51100000000E-03 0. -1.
         11   -1    0    0    0    0 -0.00000000000E+00 -0.00000000000E+00 -0.45593999997E+02  0.45594000000E+02  0.51100000000E-03 0.  1.
    9900012    2    1    2    0    0  0.18252972025E+02  0.12943311567E+02 -0.22716094544E+02  0.59301933240E+02  0.49999980326E+02 0.  0.
         12    1    1    2    0    0 -0.18252972025E+02 -0.12943311567E+02  0.22716094544E+02  0.31886066760E+02  0.00000000000E+00 0. -1.
         11    1    3    3    0    0  0.16583414972E+02  0.20241287627E+01 -0.69809982359E+01  0.18106382467E+02  0.51100000000E-03 0. -1.
        -11    1    3    3    0    0 -0.16455592392E+02  0.88651229608E+01 -0.29570809585E+01  0.18924091897E+02  0.51100000000E-03 0.  1.
         12    1    3    3    0    0  0.18125149444E+02  0.20540598439E+01 -0.12778015350E+02  0.22271458877E+02  0.00000000000E+00 0. -1.
</event>
<event>
 7    1  0.5634483E-012  0.5930196E+02  0.7816164E-02  0.1266605E+00
        -11   -1    0    0    0    0  0.00000000000E+00  0.00000000000E+00  0.45593999997E+02  0.45594000000E+02  0.51100000000E-03 0.  1.
         11   -1    0    0    0    0 -0.00000000000E+00 -0.00000000000E+00 -0.45593999997E+02  0.45594000000E+02  0.51100000000E-03 0. -1.
    9900012    2    1    2    0    0  0.41823902925E+01 -0.13067552863E+02  0.28783087144E+02  0.59301961803E+02  0.50000032417E+02 0.  0.
         12    1    1    2    0    0 -0.41823902925E+01  0.13067552863E+02 -0.28783087144E+02  0.31886038197E+02  0.00000000000E+00 0. -1.
         11    1    3    3    0    0 -0.73954716008E+01 -0.18687138252E+02  0.16790187913E+02  0.26188022962E+02  0.51100000000E-03 0. -1.
        -11    1    3    3    0    0  0.20584331397E+01  0.42768961633E+01  0.20029122298E+02  0.20583846289E+02  0.51100000000E-03 0.  1.
         12    1    3    3    0    0  0.95194287537E+01  0.13426892258E+01 -0.80362230670E+01  0.12530092551E+02  0.00000000000E+00 0. -1.
</event>
<event>
 7    1  0.5634483E-012  0.5930194E+02  0.7816164E-02  0.1266605E+00
        -11   -1    0    0    0    0  0.00000000000E+00  0.00000000000E+00  0.45593999997E+02  0.45594000000E+02  0.51100000000E-03 0.  1.
         11   -1    0    0    0    0 -0.00000000000E+00 -0.00000000000E+00 -0.45593999997E+02  0.45594000000E+02  0.51100000000E-03 0. -1.
    9900012    2    1    2    0    0 -0.11811497830E+02 -0.73122478682E+01  0.28700876729E+02  0.59301940744E+02  0.49999994011E+02 0.  0.
         12    1    1    2    0    0  0.11811497830E+02  0.73122478682E+01 -0.28700876729E+02  0.31886059256E+02  0.00000000000E+00 0. -1.
         11    1    3    3    0    0 -0.53238870982E+01  0.55330269731E+01  0.11054892706E+02  0.13459896520E+02  0.51100000000E-03 0. -1.
        -11    1    3    3    0    0 -0.17679010716E+02  0.58732537999E+01  0.14662973620E+01  0.18686694686E+02  0.51100000000E-03 0.  1.
         12    1    3    3    0    0  0.11191399984E+02 -0.18718528641E+02  0.16179686660E+02  0.27155349538E+02  0.00000000000E+00 0. -1.
</event>
<event>
 7    1  0.5634483E-012  0.5930191E+02  0.7816164E-02  0.1266605E+00
        -11   -1    0    0    0    0  0.00000000000E+00  0.00000000000E+00  0.45593999997E+02  0.45594000000E+02  0.51100000000E-03 0. -1.
         11   -1    0    0    0    0 -0.00000000000E+00 -0.00000000000E+00 -0.45593999997E+02  0.45594000000E+02  0.51100000000E-03 0.  1.
    9900012    2    1    2    0    0 -0.15464057404E+02 -0.41167471916E+01 -0.27579671822E+02  0.59301906218E+02  0.49999931045E+02 0.  0.
         12    1    1    2    0    0  0.15464057404E+02  0.41167471916E+01  0.27579671822E+02  0.31886093782E+02  0.00000000000E+00 0. -1.
         11    1    3    3    0    0 -0.15545016597E+02  0.47302386154E+01 -0.70814874734E+01  0.17724845936E+02  0.51100000000E-03 0. -1.
        -11    1    3    3    0    0 -0.42669332376E+01  0.12092986766E+02 -0.14516993624E+02  0.19369825820E+02  0.51100000000E-03 0.  1.
        -12    1    3    3    0    0  0.43478924311E+01 -0.20939972573E+02 -0.59811907249E+01  0.22207234462E+02  0.00000000000E+00 0.  1.
</event>
<event>
 7    1  0.5634483E-012  0.5930194E+02  0.7816164E-02  0.1266605E+00
        -11   -1    0    0    0    0  0.00000000000E+00  0.00000000000E+00  0.45593999997E+02  0.45594000000E+02  0.51100000000E-03 0. -1.
         11   -1    0    0    0    0 -0.00000000000E+00 -0.00000000000E+00 -0.45593999997E+02  0.45594000000E+02  0.51100000000E-03 0.  1.
    9900012    2    1    2    0    0 -0.16850303546E+02 -0.93513360332E+01 -0.25403552864E+02  0.59301941710E+02  0.49999995772E+02 0.  0.
         12    1    1    2    0    0  0.16850303546E+02  0.93513360332E+01  0.25403552864E+02  0.31886058290E+02  0.00000000000E+00 0. -1.
         11    1    3    3    0    0 -0.35054136403E+01 -0.30218824773E+01  0.18137662537E+01  0.49708597627E+01  0.51100000000E-03 0. -1.
        -11    1    3    3    0    0  0.78394562730E+01 -0.12856277094E+02  0.44269128793E+01  0.15695174203E+02  0.51100000000E-03 0.  1.
        -12    1    3    3    0    0 -0.21184346179E+02  0.65268235378E+01 -0.31644231997E+02  0.38635907744E+02  0.00000000000E+00 0.  1.
</event>
<event>
 7    1  0.5634483E-012  0.5930195E+02  0.7816164E-02  0.1266605E+00
        -11   -1    0    0    0    0  0.00000000000E+00  0.00000000000E+00  0.45593999997E+02  0.45594000000E+02  0.51100000000E-03 0.  1.
         11   -1    0    0    0    0 -0.00000000000E+00 -0.00000000000E+00 -0.45593999997E+02  0.45594000000E+02  0.51100000000E-03 0. -1.
    9900012    2    1    2    0    0  0.31855631333E+02 -0.10926782446E+01  0.86322354617E+00  0.59301947434E+02  0.50000006211E+02 0.  0.
         12    1    1    2    0    0 -0.31855631333E+02  0.10926782446E+01 -0.86322354617E+00  0.31886052566E+02  0.00000000000E+00 0. -1.
         11    1    3    3    0    0  0.11529278776E+02 -0.18425606570E+01 -0.87852994065E+01  0.14611666051E+02  0.51100000000E-03 0. -1.
        -11    1    3    3    0    0  0.13344877479E+02  0.17956035993E+02 -0.24839502883E+01  0.22509442303E+02  0.51100000000E-03 0.  1.
         12    1    3    3    0    0  0.69814750782E+01 -0.17206153581E+02  0.12132473241E+02  0.22180839079E+02  0.00000000000E+00 0. -1.
</event>
<event>
 7    1  0.5634483E-012  0.5930195E+02  0.7816164E-02  0.1266605E+00
        -11   -1    0    0    0    0  0.00000000000E+00  0.00000000000E+00  0.45593999997E+02  0.45594000000E+02  0.51100000000E-03 0. -1.
         11   -1    0    0    0    0 -0.00000000000E+00 -0.00000000000E+00 -0.45593999997E+02  0.45594000000E+02  0.51100000000E-03 0.  1.
    9900012    2    1    2    0    0  0.31408723589E+02 -0.45797993776E+01 -0.30393864189E+01  0.59301947412E+02  0.50000006173E+02 0.  0.
         12    1    1    2    0    0 -0.31408723589E+02  0.45797993776E+01  0.30393864189E+01  0.31886052588E+02  0.00000000000E+00 0. -1.
         11    1    3    3    0    0  0.32275525170E+02 -0.15170443163E+02 -0.55848621708E+01  0.36097680764E+02  0.51100000000E-03 0.  1.
        -11    1    3    3    0    0  0.83574999907E+01  0.56001447519E+01  0.65203863959E+01  0.11988530617E+02  0.51100000000E-03 0. -1.
        -12    1    3    3    0    0 -0.92243015723E+01  0.49904990339E+01 -0.39749106441E+01  0.11215736032E+02  0.00000000000E+00 0.  1.
</event>
<event>
 7    1  0.5634483E-012  0.5930195E+02  0.7816164E-02  0.1266605E+00
        -11   -1    0    0    0    0  0.00000000000E+00  0.00000000000E+00  0.45593999997E+02  0.45594000000E+02  0.51100000000E-03 0.  1.
         11   -1    0    0    0    0 -0.00000000000E+00 -0.00000000000E+00 -0.45593999997E+02  0.45594000000E+02  0.51100000000E-03 0. -1.
    9900012    2    1    2    0    0  0.18615215319E+02 -0.11451260977E+02  0.23217723156E+02  0.59301948381E+02  0.50000007939E+02 0.  0.
         12    1    1    2    0    0 -0.18615215319E+02  0.11451260977E+02 -0.23217723156E+02  0.31886051619E+02  0.00000000000E+00 0. -1.
         11    1    3    3    0    0  0.21786256710E+01  0.33140442814E+01 -0.58575816348E+01  0.70739354099E+01  0.51100000000E-03 0. -1.
        -11    1    3    3    0    0  0.15745057942E+02  0.86073076596E+01  0.49142615763E+01  0.18604906929E+02  0.51100000000E-03 0.  1.
        -12    1    3    3    0    0  0.69153170646E+00 -0.23372612918E+02  0.24161043214E+02  0.33623106042E+02  0.00000000000E+00 0.  1.
</event>
<event>
 7    1  0.5634483E-012  0.5930192E+02  0.7816164E-02  0.1266605E+00
        -11   -1    0    0    0    0  0.00000000000E+00  0.00000000000E+00  0.45593999997E+02  0.45594000000E+02  0.51100000000E-03 0. -1.
         11   -1    0    0    0    0 -0.00000000000E+00 -0.00000000000E+00 -0.45593999997E+02  0.45594000000E+02  0.51100000000E-03 0.  1.
    9900012    2    1    2    0    0  0.21925709114E+02 -0.22731093549E+02  0.43912011628E+01  0.59301921819E+02  0.49999959497E+02 0.  0.
         12    1    1    2    0    0 -0.21925709114E+02  0.22731093549E+02 -0.43912011628E+01  0.31886078181E+02  0.00000000000E+00 0. -1.
         11    1    3    3    0    0 -0.36248932681E+01 -0.13643494592E+02  0.63270741294E+01  0.15469863063E+02  0.51100000000E-03 0. -1.
        -11    1    3    3    0    0  0.14272466222E+02 -0.21950543825E+02 -0.43957069552E+01  0.26549047180E+02  0.51100000000E-03 0.  1.
        -12    1    3    3    0    0  0.11278136160E+02  0.12862944868E+02  0.24598339885E+01  0.17283011577E+02  0.00000000000E+00 0.  1.
</event>
<event>
 7    1  0.5634483E-012  0.5930196E+02  0.7816164E-02  0.1266605E+00
        -11   -1    0    0    0    0  0.00000000000E+00  0.00000000000E+00  0.45593999997E+02  0.45594000000E+02  0.51100000000E-03 0.  1.
         11   -1    0    0    0    0 -0.00000000000E+00 -0.00000000000E+00 -0.45593999997E+02  0.45594000000E+02  0.51100000000E-03 0. -1.
    9900012    2    1    2    0    0 -0.20974715929E+02 -0.62788100251E+01  0.23180972899E+02  0.59301958098E+02  0.50000025661E+02 0.  0.
         12    1    1    2    0    0  0.20974715929E+02  0.62788100251E+01 -0.23180972899E+02  0.31886041902E+02  0.00000000000E+00 0. -1.
         11    1    3    3    0    0  0.58836447652E+01  0.39502989633E+01  0.38914014842E+01  0.80848712665E+01  0.51100000000E-03 0. -1.
        -11    1    3    3    0    0  0.70087171522E+01 -0.62293296611E+01  0.13786975407E+02  0.16673552569E+02  0.51100000000E-03 0.  1.
        -12    1    3    3    0    0 -0.33867077846E+02 -0.39997793273E+01  0.55025960081E+01  0.34543534262E+02  0.00000000000E+00 0.  1.
</event>
<event>
 7    1  0.5634483E-012  0.5930192E+02  0.7816164E-02  0.1266605E+00
        -11   -1    0    0    0    0  0.00000000000E+00  0.00000000000E+00  0.45593999997E+02  0.45594000000E+02  0.51100000000E-03 0. -1.
         11   -1    0    0    0    0 -0.00000000000E+00 -0.00000000000E+00 -0.45593999997E+02  0.45594000000E+02  0.51100000000E-03 0.  1.
    9900012    2    1    2    0    0  0.11300733791E+02  0.57632531079E+01 -0.29254062900E+02  0.59301923622E+02  0.49999962785E+02 0.  0.
         12    1    1    2    0    0 -0.11300733791E+02 -0.57632531079E+01  0.29254062900E+02  0.31886076378E+02  0.00000000000E+00 0. -1.
         11    1    3    3    0    0 -0.74384905194E+01 -0.55205278883E+01  0.29903706331E+01  0.97339450459E+01  0.51100000000E-03 0. -1.
        -11    1    3    3    0    0 -0.59659131876E+01 -0.51773507563E+01 -0.79539608383E+01  0.11209931949E+02  0.51100000000E-03 0.  1.
         12    1    3    3    0    0  0.24705137498E+02  0.16461131752E+02 -0.24290472695E+02  0.38358046628E+02  0.00000000000E+00 0. -1.
</event>
<event>
 7    1  0.5634483E-012  0.5930188E+02  0.7816164E-02  0.1266605E+00
        -11   -1    0    0    0    0  0.00000000000E+00  0.00000000000E+00  0.45593999997E+02  0.45594000000E+02  0.51100000000E-03 0. -1.
         11   -1    0    0    0    0 -0.00000000000E+00 -0.00000000000E+00 -0.45593999997E+02  0.45594000000E+02  0.51100000000E-03 0.  1.
    9900012    2    1    2    0    0 -0.22289939983E+01 -0.41526487494E+01 -0.31535880943E+02  0.59301879309E+02  0.49999881969E+02 0.  0.
         12    1    1    2    0    0  0.22289939983E+01  0.41526487494E+01  0.31535880943E+02  0.31886120691E+02  0.00000000000E+00 0. -1.
         11    1    3    3    0    0  0.55115293112E+01 -0.12801264825E+02 -0.84134176713E+00  0.13962707213E+02  0.51100000000E-03 0. -1.
        -11    1    3    3    0    0  0.95888229042E+01  0.11927379288E+02 -0.10676513793E+02  0.18660006656E+02  0.51100000000E-03 0.  1.
        -12    1    3    3    0    0 -0.17329346214E+02 -0.32787632120E+01 -0.20018025382E+02  0.26679165441E+02  0.00000000000E+00 0.  1.
</event>
<event>
 7    1  0.5634483E-012  0.5930167E+02  0.7816164E-02  0.1266606E+00
        -11   -1    0    0    0    0  0.00000000000E+00  0.00000000000E+00  0.45593999997E+02  0.45594000000E+02  0.51100000000E-03 0. -1.
         11   -1    0    0    0    0 -0.00000000000E+00 -0.00000000000E+00 -0.45593999997E+02  0.45594000000E+02  0.51100000000E-03 0.  1.
    9900012    2    1    2    0    0 -0.13975013819E+02 -0.22241880411E+02  0.18075834441E+02  0.59301669916E+02  0.49999500084E+02 0.  0.
         12    1    1    2    0    0  0.13975013819E+02  0.22241880411E+02 -0.18075834441E+02  0.31886330084E+02  0.00000000000E+00 0. -1.
         11    1    3    3    0    0  0.62288049240E+01 -0.94926019396E+01  0.99687592334E+01  0.15109058981E+02  0.51100000000E-03 0. -1.
        -11    1    3    3    0    0 -0.11831922199E+02 -0.25539884245E+02  0.48408561738E+01  0.28560706555E+02  0.51100000000E-03 0.  1.
         12    1    3    3    0    0 -0.83718965443E+01  0.12790605773E+02  0.32662190341E+01  0.15631904381E+02  0.00000000000E+00 0. -1.
</event>
<event>
 7    1  0.5634483E-012  0.5930192E+02  0.7816164E-02  0.1266605E+00
        -11   -1    0    0    0    0  0.00000000000E+00  0.00000000000E+00  0.45593999997E+02  0.45594000000E+02  0.51100000000E-03 0. -1.
         11   -1    0    0    0    0 -0.00000000000E+00 -0.00000000000E+00 -0.45593999997E+02  0.45594000000E+02  0.51100000000E-03 0.  1.
    9900012    2    1    2    0    0  0.31311998261E+02 -0.58231823005E+01  0.15400155801E+01  0.59301916277E+02  0.49999949390E+02 0.  0.
         12    1    1    2    0    0 -0.31311998261E+02  0.58231823005E+01 -0.15400155801E+01  0.31886083723E+02  0.00000000000E+00 0. -1.
         11    1    3    3    0    0  0.10053194003E+02 -0.72641894873E+01  0.35690105774E+00  0.12408164135E+02  0.51100000000E-03 0. -1.
        -11    1    3    3    0    0  0.33088034616E+02 -0.17506939252E+01 -0.44077089719E+01  0.33426200242E+02  0.51100000000E-03 0.  1.
         12    1    3    3    0    0 -0.11829230358E+02  0.31917011119E+01  0.55908234942E+01  0.13467551901E+02  0.00000000000E+00 0. -1.
</event>
<event>
 7    1  0.5634483E-012  0.5930195E+02  0.7816164E-02  0.1266605E+00
        -11   -1    0    0    0    0  0.00000000000E+00  0.00000000000E+00  0.45593999997E+02  0.45594000000E+02  0.51100000000E-03 0. -1.
         11   -1    0    0    0    0 -0.00000000000E+00 -0.00000000000E+00 -0.45593999997E+02  0.45594000000E+02  0.51100000000E-03 0.  1.
    9900012    2    1    2    0    0 -0.16696530011E+02 -0.23200737272E+02 -0.14130538889E+02  0.59301945781E+02  0.50000003197E+02 0.  0.
         12    1    1    2    0    0  0.16696530011E+02  0.23200737272E+02  0.14130538889E+02  0.31886054219E+02  0.00000000000E+00 0. -1.
         11    1    3    3    0    0  0.83870975951E+01 -0.42439776742E+01 -0.22536686877E+01  0.96661148030E+01  0.51100000000E-03 0. -1.
        -11    1    3    3    0    0 -0.31341186303E+02 -0.23680721312E+02 -0.13671238803E+02  0.41592659104E+02  0.51100000000E-03 0.  1.
         12    1    3    3    0    0  0.62575586963E+01  0.47239617135E+01  0.17943686016E+01  0.80431718735E+01  0.00000000000E+00 0. -1.
</event>
<event>
 7    1  0.5634483E-012  0.5930195E+02  0.7816164E-02  0.1266605E+00
        -11   -1    0    0    0    0  0.00000000000E+00  0.00000000000E+00  0.45593999997E+02  0.45594000000E+02  0.51100000000E-03 0.  1.
         11   -1    0    0    0    0 -0.00000000000E+00 -0.00000000000E+00 -0.45593999997E+02  0.45594000000E+02  0.51100000000E-03 0. -1.
    9900012    2    1    2    0    0 -0.67701724718E+01  0.28893933291E+01  0.31024773893E+02  0.59301946243E+02  0.50000004040E+02 0.  0.
         12    1    1    2    0    0  0.67701724718E+01 -0.28893933291E+01 -0.31024773893E+02  0.31886053757E+02  0.00000000000E+00 0. -1.
         11    1    3    3    0    0 -0.56400481005E+00 -0.49445824979E+01  0.16158516196E+02  0.16907532150E+02  0.51100000000E-03 0. -1.
        -11    1    3    3    0    0 -0.17691053065E+02  0.14239939262E+01  0.21322585933E+02  0.27742634850E+02  0.51100000000E-03 0.  1.
         12    1    3    3    0    0  0.11484885403E+02  0.64099819009E+01 -0.64563282363E+01  0.14651779243E+02  0.00000000000E+00 0. -1.
</event>
<event>
 7    1  0.5634483E-012  0.5930198E+02  0.7816164E-02  0.1266605E+00
        -11   -1    0    0    0    0  0.00000000000E+00  0.00000000000E+00  0.45593999997E+02  0.45594000000E+02  0.51100000000E-03 0. -1.
         11   -1    0    0    0    0 -0.00000000000E+00 -0.00000000000E+00 -0.45593999997E+02  0.45594000000E+02  0.51100000000E-03 0.  1.
    9900012    2    1    2    0    0 -0.31269206160E+02 -0.45540208366E+01 -0.42680284515E+01  0.59301977568E+02  0.50000061170E+02 0.  0.
         12    1    1    2    0    0  0.31269206160E+02  0.45540208366E+01  0.42680284515E+01  0.31886022432E+02  0.00000000000E+00 0. -1.
         11    1    3    3    0    0 -0.38383038866E+02 -0.52708014428E+01 -0.49832914825E+01  0.39062414348E+02  0.51100000000E-03 0. -1.
        -11    1    3    3    0    0 -0.11947168421E+01  0.82396915050E+01 -0.22905838521E+01  0.86351976860E+01  0.51100000000E-03 0.  1.
        -12    1    3    3    0    0  0.83085495478E+01 -0.75229108989E+01  0.30058468831E+01  0.11604365535E+02  0.00000000000E+00 0.  1.
</event>
<event>
 7    1  0.5634483E-012  0.5930195E+02  0.7816164E-02  0.1266605E+00
        -11   -1    0    0    0    0  0.00000000000E+00  0.00000000000E+00  0.45593999997E+02  0.45594000000E+02  0.51100000000E-03 0.  1.
         11   -1    0    0    0    0 -0.00000000000E+00 -0.00000000000E+00 -0.45593999997E+02  0.45594000000E+02  0.51100000000E-03 0. -1.
    9900012    2    1    2    0    0  0.15453865007E+02  0.16111105852E+02  0.22766873128E+02  0.59301949955E+02  0.50000010810E+02 0.  0.
         12    1    1    2    0    0 -0.15453865007E+02 -0.16111105852E+02 -0.22766873128E+02  0.31886050045E+02  0.00000000000E+00 0. -1.
         11    1    3    3    0    0  0.29825808815E+01 -0.42264834559E+01 -0.10551777014E+02  0.11751550941E+02  0.51100000000E-03 0. -1.
        -11    1    3    3    0    0  0.36072256613E+01  0.99483012131E+01 -0.98534531764E+00  0.10627872772E+02  0.51100000000E-03 0.  1.
        -12    1    3    3    0    0  0.88640584647E+01  0.10389288095E+02  0.34303995460E+02  0.36922526242E+02  0.00000000000E+00 0.  1.
</event>
<event>
 7    1  0.5634483E-012  0.5930197E+02  0.7816164E-02  0.1266605E+00
        -11   -1    0    0    0    0  0.00000000000E+00  0.00000000000E+00  0.45593999997E+02  0.45594000000E+02  0.51100000000E-03 0.  1.
         11   -1    0    0    0    0 -0.00000000000E+00 -0.00000000000E+00 -0.45593999997E+02  0.45594000000E+02  0.51100000000E-03 0. -1.
    9900012    2    1    2    0    0 -0.19231076903E+02  0.25362525462E+02 -0.19045005224E+01  0.59301966397E+02  0.50000040797E+02 0.  0.
         12    1    1    2    0    0  0.19231076903E+02 -0.25362525462E+02  0.19045005224E+01  0.31886033603E+02  0.00000000000E+00 0. -1.
         11    1    3    3    0    0  0.78238145081E+01 -0.52637346784E+01  0.49108135989E+01  0.10631795083E+02  0.51100000000E-03 0. -1.
        -11    1    3    3    0    0 -0.19669649853E+02  0.53446786641E+01 -0.89175428179E+01  0.22248219828E+02  0.51100000000E-03 0.  1.
        -12    1    3    3    0    0 -0.73852415583E+01  0.25281581476E+02  0.21022286965E+01  0.26421951486E+02  0.00000000000E+00 0.  1.
</event>
<event>
 7    1  0.5634483E-012  0.5930195E+02  0.7816164E-02  0.1266605E+00
        -11   -1    0    0    0    0  0.00000000000E+00  0.00000000000E+00  0.45593999997E+02  0.45594000000E+02  0.51100000000E-03 0.  1.
         11   -1    0    0    0    0 -0.00000000000E+00 -0.00000000000E+00 -0.45593999997E+02  0.45594000000E+02  0.51100000000E-03 0. -1.
    9900012    2    1    2    0    0 -0.25673481364E+02 -0.17644903120E+02  0.68007329034E+01  0.59301949453E+02  0.50000009895E+02 0.  0.
         12    1    1    2    0    0  0.25673481364E+02  0.17644903120E+02 -0.68007329034E+01  0.31886050547E+02  0.00000000000E+00 0. -1.
         11    1    3    3    0    0 -0.64881945326E+01  0.10895825154E+02  0.92192430841E+01  0.15678332736E+02  0.51100000000E-03 0.  1.
        -11    1    3    3    0    0 -0.21623931571E+02 -0.14804835255E+02  0.65834157054E+01  0.27020712909E+02  0.51100000000E-03 0. -1.
         12    1    3    3    0    0  0.24386447401E+01 -0.13735893019E+02 -0.90019258861E+01  0.16602903808E+02  0.00000000000E+00 0. -1.
</event>
<event>
 7    1  0.5634483E-012  0.5930194E+02  0.7816164E-02  0.1266605E+00
        -11   -1    0    0    0    0  0.00000000000E+00  0.00000000000E+00  0.45593999997E+02  0.45594000000E+02  0.51100000000E-03 0. -1.
         11   -1    0    0    0    0 -0.00000000000E+00 -0.00000000000E+00 -0.45593999997E+02  0.45594000000E+02  0.51100000000E-03 0.  1.
    9900012    2    1    2    0    0 -0.55428802506E+01  0.19109919267E+02 -0.24916029544E+02  0.59301936209E+02  0.49999985740E+02 0.  0.
         12    1    1    2    0    0  0.55428802506E+01 -0.19109919267E+02  0.24916029544E+02  0.31886063791E+02  0.00000000000E+00 0. -1.
         11    1    3    3    0    0  0.11158835421E+01  0.19871982678E+01 -0.81876657887E+01  0.84989425438E+01  0.51100000000E-03 0. -1.
        -11    1    3    3    0    0 -0.10734940160E+02 -0.10111016804E+02 -0.17959697921E+02  0.23238380983E+02  0.51100000000E-03 0.  1.
        -12    1    3    3    0    0  0.40761763671E+01  0.27233737803E+02  0.12313341650E+01  0.27564612682E+02  0.00000000000E+00 0.  1.
</event>
<event>
 7    1  0.5634483E-012  0.5930201E+02  0.7816164E-02  0.1266605E+00
        -11   -1    0    0    0    0  0.00000000000E+00  0.00000000000E+00  0.45593999997E+02  0.45594000000E+02  0.51100000000E-03 0. -1.
         11   -1    0    0    0    0 -0.00000000000E+00 -0.00000000000E+00 -0.45593999997E+02  0.45594000000E+02  0.51100000000E-03 0.  1.
    9900012    2    1    2    0    0 -0.73431803039E+01 -0.15398585324E+02 -0.26938402700E+02  0.59302011431E+02  0.50000122928E+02 0.  0.
         12    1    1    2    0    0  0.73431803039E+01  0.15398585324E+02  0.26938402700E+02  0.31885988569E+02  0.00000000000E+00 0. -1.
         11    1    3    3    0    0  0.79201118775E+01  0.52502149173E+00 -0.98029191417E+00  0.79977992108E+01  0.51100000000E-03 0. -1.
        -11    1    3    3    0    0  0.57008887421E+01 -0.28030604192E+01 -0.25801686904E+02  0.26572247318E+02  0.51100000000E-03 0.  1.
         12    1    3    3    0    0 -0.20964180924E+02 -0.13120546396E+02 -0.15642388243E+00  0.24731964903E+02  0.00000000000E+00 0. -1.
</event>
<event>
 7    1  0.5634483E-012  0.5930192E+02  0.7816164E-02  0.1266605E+00
        -11   -1    0    0    0    0  0.00000000000E+00  0.00000000000E+00  0.45593999997E+02  0.45594000000E+02  0.51100000000E-03 0.  1.
         11   -1    0    0    0    0 -0.00000000000E+00 -0.00000000000E+00 -0.45593999997E+02  0.45594000000E+02  0.51100000000E-03 0. -1.
    9900012    2    1    2    0    0  0.25180624167E+02 -0.12366398241E+02  0.15156869711E+02  0.59301916228E+02  0.49999949300E+02 0.  0.
         12    1    1    2    0    0 -0.25180624167E+02  0.12366398241E+02 -0.15156869711E+02  0.31886083772E+02  0.00000000000E+00 0. -1.
         11    1    3    3    0    0  0.13772297042E+02  0.86768012738E+01 -0.86371630613E+01  0.18427252431E+02  0.51100000000E-03 0. -1.
        -11    1    3    3    0    0 -0.66479519757E+01 -0.77872136874E+01  0.11209449933E+02  0.15181822372E+02  0.51100000000E-03 0.  1.
        -12    1    3    3    0    0  0.18056279101E+02 -0.13255985828E+02  0.12584582839E+02  0.25692841425E+02  0.00000000000E+00 0.  1.
</event>
<event>
 7    1  0.5634483E-012  0.5930167E+02  0.7816164E-02  0.1266606E+00
        -11   -1    0    0    0    0  0.00000000000E+00  0.00000000000E+00  0.45593999997E+02  0.45594000000E+02  0.51100000000E-03 0. -1.
         11   -1    0    0    0    0 -0.00000000000E+00 -0.00000000000E+00 -0.45593999997E+02  0.45594000000E+02  0.51100000000E-03 0.  1.
    9900012    2    1    2    0    0 -0.27612556064E+02  0.64868400793E+00  0.15933117081E+02  0.59301666513E+02  0.49999493878E+02 0.  0.
         12    1    1    2    0    0  0.27612556064E+02 -0.64868400793E+00 -0.15933117081E+02  0.31886333487E+02  0.00000000000E+00 0. -1.
         11    1    3    3    0    0  0.12750419950E+01  0.29042869576E+01 -0.29003987183E+01  0.42980144029E+01  0.51100000000E-03 0.  1.
        -11    1    3    3    0    0 -0.17709115861E+02  0.14694153592E+02  0.24809493657E+02  0.33838467905E+02  0.51100000000E-03 0. -1.
        -12    1    3    3    0    0 -0.11178482198E+02 -0.16949756542E+02 -0.59759778582E+01  0.21165184205E+02  0.00000000000E+00 0.  1.
</event>
<event>
 7    1  0.5634483E-012  0.5930193E+02  0.7816164E-02  0.1266605E+00
        -11   -1    0    0    0    0  0.00000000000E+00  0.00000000000E+00  0.45593999997E+02  0.45594000000E+02  0.51100000000E-03 0.  1.
         11   -1    0    0    0    0 -0.00000000000E+00 -0.00000000000E+00 -0.45593999997E+02  0.45594000000E+02  0.51100000000E-03 0. -1.
    9900012    2    1    2    0    0  0.19113729804E+02 -0.16993680214E+02  0.19042106846E+02  0.59301926749E+02  0.49999968488E+02 0.  0.
         12    1    1    2    0    0 -0.19113729804E+02  0.16993680214E+02 -0.19042106846E+02  0.31886073251E+02  0.00000000000E+00 0. -1.
         11    1    3    3    0    0  0.16103082045E+01 -0.24553082014E+02  0.55731020351E+01  0.25229078371E+02  0.51100000000E-03 0. -1.
        -11    1    3    3    0    0  0.46703415959E+00 -0.66119052783E+01  0.94632672732E+01  0.11553737060E+02  0.51100000000E-03 0.  1.
         12    1    3    3    0    0  0.17036387440E+02  0.14171307079E+02  0.40057375377E+01  0.22519111318E+02  0.00000000000E+00 0. -1.
</event>
<event>
 7    1  0.5634483E-012  0.5930201E+02  0.7816164E-02  0.1266605E+00
        -11   -1    0    0    0    0  0.00000000000E+00  0.00000000000E+00  0.45593999997E+02  0.45594000000E+02  0.51100000000E-03 0. -1.
         11   -1    0    0    0    0 -0.00000000000E+00 -0.00000000000E+00 -0.45593999997E+02  0.45594000000E+02  0.51100000000E-03 0.  1.
    9900012    2    1    2    0    0  0.31474845721E+02 -0.32096706716E+01 -0.39684171396E+01  0.59302011955E+02  0.50000123884E+02 0.  0.
         12    1    1    2    0    0 -0.31474845721E+02  0.32096706716E+01  0.39684171396E+01  0.31885988045E+02  0.00000000000E+00 0. -1.
         11    1    3    3    0    0  0.32776829495E+02  0.30195596549E+01  0.14187666444E+02  0.35843104939E+02  0.51100000000E-03 0. -1.
        -11    1    3    3    0    0  0.24163370396E-01  0.24455531045E+01 -0.13109625239E+02  0.13335800989E+02  0.51100000000E-03 0.  1.
        -12    1    3    3    0    0 -0.13261471445E+01 -0.86747834310E+01 -0.50464583446E+01  0.10123106028E+02  0.00000000000E+00 0.  1.
</event>
<event>
 7    1  0.5634483E-012  0.5930197E+02  0.7816164E-02  0.1266605E+00
        -11   -1    0    0    0    0  0.00000000000E+00  0.00000000000E+00  0.45593999997E+02  0.45594000000E+02  0.51100000000E-03 0.  1.
         11   -1    0    0    0    0 -0.00000000000E+00 -0.00000000000E+00 -0.45593999997E+02  0.45594000000E+02  0.51100000000E-03 0. -1.
    9900012    2    1    2    0    0  0.21823830273E+02  0.49066821318E+01  0.22723638057E+02  0.59301971338E+02  0.50000049807E+02 0.  0.
         12    1    1    2    0    0 -0.21823830273E+02 -0.49066821318E+01 -0.22723638057E+02  0.31886028662E+02  0.00000000000E+00 0. -1.
         11    1    3    3    0    0  0.69201956899E+01  0.13984050548E+02  0.70141101301E+01  0.17106739002E+02  0.51100000000E-03 0. -1.
        -11    1    3    3    0    0  0.19856762131E+02 -0.10400953932E+02  0.23750923147E+02  0.32658493468E+02  0.51100000000E-03 0.  1.
         12    1    3    3    0    0 -0.49531275484E+01  0.13235855159E+01 -0.80413952204E+01  0.95367388671E+01  0.00000000000E+00 0. -1.
</event>
<event>
 7    1  0.5634483E-012  0.5930194E+02  0.7816164E-02  0.1266605E+00
        -11   -1    0    0    0    0  0.00000000000E+00  0.00000000000E+00  0.45593999997E+02  0.45594000000E+02  0.51100000000E-03 0. -1.
         11   -1    0    0    0    0 -0.00000000000E+00 -0.00000000000E+00 -0.45593999997E+02  0.45594000000E+02  0.51100000000E-03 0.  1.
    9900012    2    1    2    0    0  0.30584840429E+01 -0.30123667590E+02 -0.99965628260E+01  0.59301938123E+02  0.49999989231E+02 0.  0.
         12    1    1    2    0    0 -0.30584840429E+01  0.30123667590E+02  0.99965628260E+01  0.31886061877E+02  0.00000000000E+00 0. -1.
         11    1    3    3    0    0  0.73412623716E+01 -0.85236927711E+01 -0.52796723086E+01  0.12426681440E+02  0.51100000000E-03 0. -1.
        -11    1    3    3    0    0  0.94823146423E+01 -0.28732747648E+02  0.12009989252E+01  0.30280810377E+02  0.51100000000E-03 0.  1.
        -12    1    3    3    0    0 -0.13765092971E+02  0.71327728298E+01 -0.59178894427E+01  0.16594446306E+02  0.00000000000E+00 0.  1.
</event>
<event>
 7    1  0.5634483E-012  0.5930195E+02  0.7816164E-02  0.1266605E+00
        -11   -1    0    0    0    0  0.00000000000E+00  0.00000000000E+00  0.45593999997E+02  0.45594000000E+02  0.51100000000E-03 0. -1.
         11   -1    0    0    0    0 -0.00000000000E+00 -0.00000000000E+00 -0.45593999997E+02  0.45594000000E+02  0.51100000000E-03 0.  1.
    9900012    2    1    2    0    0 -0.51366333196E+01  0.55402354454E+01 -0.30978070122E+02  0.59301952281E+02  0.50000015051E+02 0.  0.
         12    1    1    2    0    0  0.51366333196E+01 -0.55402354454E+01  0.30978070122E+02  0.31886047719E+02  0.00000000000E+00 0. -1.
         11    1    3    3    0    0  0.31717736859E+00  0.18293525170E+01 -0.15163333841E+02  0.15276577678E+02  0.51100000000E-03 0. -1.
        -11    1    3    3    0    0 -0.52346747941E+01  0.16069584668E+02 -0.23887787669E+02  0.29261916745E+02  0.51100000000E-03 0.  1.
         12    1    3    3    0    0 -0.21913589410E+00 -0.12358701739E+02  0.80730513877E+01  0.14763457858E+02  0.00000000000E+00 0. -1.
</event>
<event>
 7    1  0.5634483E-012  0.5930193E+02  0.7816164E-02  0.1266605E+00
        -11   -1    0    0    0    0  0.00000000000E+00  0.00000000000E+00  0.45593999997E+02  0.45594000000E+02  0.51100000000E-03 0.  1.
         11   -1    0    0    0    0 -0.00000000000E+00 -0.00000000000E+00 -0.45593999997E+02  0.45594000000E+02  0.51100000000E-03 0. -1.
    9900012    2    1    2    0    0  0.20364088699E+02  0.52244188294E+00  0.24530644357E+02  0.59301928328E+02  0.49999971368E+02 0.  0.
         12    1    1    2    0    0 -0.20364088699E+02 -0.52244188294E+00 -0.24530644357E+02  0.31886071672E+02  0.00000000000E+00 0. -1.
         11    1    3    3    0    0  0.14793557151E+02 -0.28810295464E+00 -0.14700409622E+00  0.14797092517E+02  0.51100000000E-03 0. -1.
        -11    1    3    3    0    0  0.16207726695E+02 -0.12119270587E+02  0.14714378262E+02  0.25021591718E+02  0.51100000000E-03 0.  1.
        -12    1    3    3    0    0 -0.10637195147E+02  0.12929815425E+02  0.99632701908E+01  0.19483244093E+02  0.00000000000E+00 0.  1.
</event>
<event>
 7    1  0.5634483E-012  0.5930195E+02  0.7816164E-02  0.1266605E+00
        -11   -1    0    0    0    0  0.00000000000E+00  0.00000000000E+00  0.45593999997E+02  0.45594000000E+02  0.51100000000E-03 0.  1.
         11   -1    0    0    0    0 -0.00000000000E+00 -0.00000000000E+00 -0.45593999997E+02  0.45594000000E+02  0.51100000000E-03 0. -1.
    9900012    2    1    2    0    0  0.21395788382E+02  0.34640908215E+01  0.23386759142E+02  0.59301949932E+02  0.50000010769E+02 0.  0.
         12    1    1    2    0    0 -0.21395788382E+02 -0.34640908215E+01 -0.23386759142E+02  0.31886050068E+02  0.00000000000E+00 0. -1.
         11    1    3    3    0    0  0.60646069568E+01 -0.18695549090E+02  0.17601543904E+02  0.26384036108E+02  0.51100000000E-03 0. -1.
        -11    1    3    3    0    0  0.12933907421E+02  0.12329520225E+02  0.11545977428E+02  0.21274694479E+02  0.51100000000E-03 0.  1.
        -12    1    3    3    0    0  0.23972740049E+01  0.98301196867E+01 -0.57607621897E+01  0.11643219345E+02  0.00000000000E+00 0.  1.
</event>
<event>
 7    1  0.5634483E-012  0.5930195E+02  0.7816164E-02  0.1266605E+00
        -11   -1    0    0    0    0  0.00000000000E+00  0.00000000000E+00  0.45593999997E+02  0.45594000000E+02  0.51100000000E-03 0.  1.
         11   -1    0    0    0    0 -0.00000000000E+00 -0.00000000000E+00 -0.45593999997E+02  0.45594000000E+02  0.51100000000E-03 0. -1.
    9900012    2    1    2    0    0 -0.18391591765E+02  0.15633482635E+02  0.20834189712E+02  0.59301954652E+02  0.50000019377E+02 0.  0.
         12    1    1    2    0    0  0.18391591765E+02 -0.15633482635E+02 -0.20834189712E+02  0.31886045348E+02  0.00000000000E+00 0. -1.
         11    1    3    3    0    0 -0.14329786378E+02 -0.47597712998E+01  0.11817302062E+02  0.19174118722E+02  0.51100000000E-03 0. -1.
        -11    1    3    3    0    0 -0.13122345119E+02  0.10825481262E+02  0.17540143491E+02  0.24434476052E+02  0.51100000000E-03 0.  1.
         12    1    3    3    0    0  0.90605397328E+01  0.95677726733E+01 -0.85232558405E+01  0.15693359879E+02  0.00000000000E+00 0. -1.
</event>
<event>
 7    1  0.5634483E-012  0.5930201E+02  0.7816164E-02  0.1266605E+00
        -11   -1    0    0    0    0  0.00000000000E+00  0.00000000000E+00  0.45593999997E+02  0.45594000000E+02  0.51100000000E-03 0.  1.
         11   -1    0    0    0    0 -0.00000000000E+00 -0.00000000000E+00 -0.45593999997E+02  0.45594000000E+02  0.51100000000E-03 0. -1.
    9900012    2    1    2    0    0 -0.24411369719E+02  0.90844980884E+01 -0.18392209070E+02  0.59302008851E+02  0.50000118222E+02 0.  0.
         12    1    1    2    0    0  0.24411369719E+02 -0.90844980884E+01  0.18392209070E+02  0.31885991149E+02  0.00000000000E+00 0. -1.
         11    1    3    3    0    0 -0.71870769926E+01 -0.40949018264E+01 -0.74329111205E+01  0.11120722308E+02  0.51100000000E-03 0. -1.
        -11    1    3    3    0    0 -0.10481411963E+02 -0.14077140575E+02  0.11821524936E+01  0.17590433999E+02  0.51100000000E-03 0.  1.
         12    1    3    3    0    0 -0.67428807641E+01  0.27256540490E+02 -0.12141450443E+02  0.30590852544E+02  0.00000000000E+00 0. -1.
</event>
<event>
 7    1  0.5634483E-012  0.5930193E+02  0.7816164E-02  0.1266605E+00
        -11   -1    0    0    0    0  0.00000000000E+00  0.00000000000E+00  0.45593999997E+02  0.45594000000E+02  0.51100000000E-03 0. -1.
         11   -1    0    0    0    0 -0.00000000000E+00 -0.00000000000E+00 -0.45593999997E+02  0.45594000000E+02  0.51100000000E-03 0.  1.
    9900012    2    1    2    0    0  0.15671122618E+02 -0.16934893144E+02 -0.22007875132E+02  0.59301933172E+02  0.49999980203E+02 0.  0.
         12    1    1    2    0    0 -0.15671122618E+02  0.16934893144E+02  0.22007875132E+02  0.31886066828E+02  0.00000000000E+00 0. -1.
         11    1    3    3    0    0  0.16945941674E+02 -0.13897257464E+02 -0.31362506296E+02  0.38261018095E+02  0.51100000000E-03 0.  1.
        -11    1    3    3    0    0 -0.67775373727E+01  0.42824543831E+01  0.95009273016E-01  0.80176963901E+01  0.51100000000E-03 0. -1.
        -12    1    3    3    0    0  0.55027183168E+01 -0.73200900631E+01  0.92596218913E+01  0.13023218687E+02  0.00000000000E+00 0.  1.
</event>
<event>
 7    1  0.5634483E-012  0.5930233E+02  0.7816164E-02  0.1266603E+00
        -11   -1    0    0    0    0  0.00000000000E+00  0.00000000000E+00  0.45593999997E+02  0.45594000000E+02  0.51100000000E-03 0.  1.
         11   -1    0    0    0    0 -0.00000000000E+00 -0.00000000000E+00 -0.45593999997E+02  0.45594000000E+02  0.51100000000E-03 0. -1.
    9900012    2    1    2    0    0  0.88646891507E+01 -0.29071141435E+02  0.96427222875E+01  0.59302328120E+02  0.50000700488E+02 0.  0.
         12    1    1    2    0    0 -0.88646891507E+01  0.29071141435E+02 -0.96427222875E+01  0.31885671880E+02  0.00000000000E+00 0. -1.
         11    1    3    3    0    0 -0.10321183145E+01  0.10072031164E+01  0.17384720140E+02  0.17444432376E+02  0.51100000000E-03 0. -1.
        -11    1    3    3    0    0  0.61538737909E+01 -0.13950257584E+02  0.94912011963E+01  0.17960032007E+02  0.51100000000E-03 0.  1.
         12    1    3    3    0    0  0.37429336743E+01 -0.16128086968E+02 -0.17233199049E+02  0.23897863737E+02  0.00000000000E+00 0. -1.
</event>
<event>
 7    1  0.5634483E-012  0.5930195E+02  0.7816164E-02  0.1266605E+00
        -11   -1    0    0    0    0  0.00000000000E+00  0.00000000000E+00  0.45593999997E+02  0.45594000000E+02  0.51100000000E-03 0. -1.
         11   -1    0    0    0    0 -0.00000000000E+00 -0.00000000000E+00 -0.45593999997E+02  0.45594000000E+02  0.51100000000E-03 0.  1.
    9900012    2    1    2    0    0  0.26299698539E+02  0.10762001273E+02 -0.14464630380E+02  0.59301947458E+02  0.50000006257E+02 0.  0.
         12    1    1    2    0    0 -0.26299698539E+02 -0.10762001273E+02  0.14464630380E+02  0.31886052542E+02  0.00000000000E+00 0. -1.
         11    1    3    3    0    0  0.13816123139E+02 -0.24413687181E+01  0.20802468596E+01  0.14183545645E+02  0.51100000000E-03 0. -1.
        -11    1    3    3    0    0  0.14702219723E+02  0.97905170020E+01  0.86000419485E+01  0.19646124547E+02  0.51100000000E-03 0.  1.
         12    1    3    3    0    0 -0.22186443223E+01  0.34128529895E+01 -0.25144919188E+02  0.25472277266E+02  0.00000000000E+00 0. -1.
</event>
<event>
 7    1  0.5634483E-012  0.5930195E+02  0.7816164E-02  0.1266605E+00
        -11   -1    0    0    0    0  0.00000000000E+00  0.00000000000E+00  0.45593999997E+02  0.45594000000E+02  0.51100000000E-03 0.  1.
         11   -1    0    0    0    0 -0.00000000000E+00 -0.00000000000E+00 -0.45593999997E+02  0.45594000000E+02  0.51100000000E-03 0. -1.
    9900012    2    1    2    0    0 -0.31598158560E+02  0.25438431023E+01 -0.34359254500E+01  0.59301947473E+02  0.50000006283E+02 0.  0.
         12    1    1    2    0    0  0.31598158560E+02 -0.25438431023E+01  0.34359254500E+01  0.31886052527E+02  0.00000000000E+00 0. -1.
         11    1    3    3    0    0 -0.37515471665E+02  0.91773340568E+01 -0.49648624312E+00  0.38624869883E+02  0.51100000000E-03 0. -1.
        -11    1    3    3    0    0  0.56351611075E+01  0.87297079902E+00 -0.92499578380E+01  0.10866408744E+02  0.51100000000E-03 0.  1.
        -12    1    3    3    0    0  0.28215199782E+00 -0.75064617535E+01  0.63105186312E+01  0.98106688458E+01  0.00000000000E+00 0.  1.
</event>
<event>
 7    1  0.5634483E-012  0.5930192E+02  0.7816164E-02  0.1266605E+00
        -11   -1    0    0    0    0  0.00000000000E+00  0.00000000000E+00  0.45593999997E+02  0.45594000000E+02  0.51100000000E-03 0. -1.
         11   -1    0    0    0    0 -0.00000000000E+00 -0.00000000000E+00 -0.45593999997E+02  0.45594000000E+02  0.51100000000E-03 0.  1.
    9900012    2    1    2    0    0 -0.24387087378E+02 -0.73917852045E+01 -0.19166471883E+02  0.59301918966E+02  0.49999954293E+02 0.  0.
         12    1    1    2    0    0  0.24387087378E+02  0.73917852045E+01  0.19166471883E+02  0.31886081034E+02  0.00000000000E+00 0. -1.
         11    1    3    3    0    0 -0.23591274446E+01  0.46607085303E-01  0.76008380692E+01  0.79586678619E+01  0.51100000000E-03 0. -1.
        -11    1    3    3    0    0  0.51292171238E+01 -0.97716876083E+01  0.25350128104E+01  0.11323472843E+02  0.51100000000E-03 0.  1.
         12    1    3    3    0    0 -0.27157177057E+02  0.23332953185E+01 -0.29302322763E+02  0.40019778261E+02  0.00000000000E+00 0. -1.
</event>
<event>
 7    1  0.5634483E-012  0.5930201E+02  0.7816164E-02  0.1266605E+00
        -11   -1    0    0    0    0  0.00000000000E+00  0.00000000000E+00  0.45593999997E+02  0.45594000000E+02  0.51100000000E-03 0.  1.
         11   -1    0    0    0    0 -0.00000000000E+00 -0.00000000000E+00 -0.45593999997E+02  0.45594000000E+02  0.51100000000E-03 0. -1.
    9900012    2    1    2    0    0 -0.10532329909E+02 -0.30079055745E+02 -0.10183075931E+01  0.59302007493E+02  0.50000115745E+02 0.  0.
         12    1    1    2    0    0  0.10532329909E+02  0.30079055745E+02  0.10183075931E+01  0.31885992507E+02  0.00000000000E+00 0. -1.
         11    1    3    3    0    0 -0.19861276314E+02  0.45383456306E+01 -0.40413839009E+01  0.20770162781E+02  0.51100000000E-03 0. -1.
        -11    1    3    3    0    0  0.13070104335E+01 -0.11845247897E+02 -0.52330038849E+01  0.13015471714E+02  0.51100000000E-03 0.  1.
        -12    1    3    3    0    0  0.80219359716E+01 -0.22772153478E+02  0.82560801928E+01  0.25516372997E+02  0.00000000000E+00 0.  1.
</event>
<event>
 7    1  0.5634483E-012  0.5930195E+02  0.7816164E-02  0.1266605E+00
        -11   -1    0    0    0    0  0.00000000000E+00  0.00000000000E+00  0.45593999997E+02  0.45594000000E+02  0.51100000000E-03 0.  1.
         11   -1    0    0    0    0 -0.00000000000E+00 -0.00000000000E+00 -0.45593999997E+02  0.45594000000E+02  0.51100000000E-03 0. -1.
    9900012    2    1    2    0    0 -0.54071422355E+00 -0.42457800376E+00  0.31878636192E+02  0.59301951581E+02  0.50000013775E+02 0.  0.
         12    1    1    2    0    0  0.54071422355E+00  0.42457800376E+00 -0.31878636192E+02  0.31886048419E+02  0.00000000000E+00 0. -1.
         11    1    3    3    0    0 -0.51117409226E+01 -0.58078935402E+01  0.52728467537E+01  0.93629288037E+01  0.51100000000E-03 0. -1.
        -11    1    3    3    0    0  0.58624294330E+01  0.38874621867E+01 -0.10577688514E+02  0.12703067963E+02  0.51100000000E-03 0.  1.
        -12    1    3    3    0    0 -0.12914027340E+01  0.14958533497E+01  0.37183477952E+02  0.37235954814E+02  0.00000000000E+00 0.  1.
</event>
<event>
 7    1  0.6126238E-012  0.5930196E+02  0.7816164E-02  0.1266605E+00
        -11   -1    0    0    0    0  0.00000000000E+00  0.00000000000E+00  0.45593999997E+02  0.45594000000E+02  0.51100000000E-03 0.  1.
         11   -1    0    0    0    0 -0.00000000000E+00 -0.00000000000E+00 -0.45593999997E+02  0.45594000000E+02  0.51100000000E-03 0. -1.
    9900012    2    1    2    0    0 -0.44036625746E+01  0.30645741481E+02  0.76266372774E+01  0.59301963697E+02  0.50000035871E+02 0.  0.
         12    1    1    2    0    0  0.44036625746E+01 -0.30645741481E+02 -0.76266372774E+01  0.31886036303E+02  0.00000000000E+00 0. -1.
         11    1    3    3    0    0  0.12092420587E+02  0.13144576166E+02  0.30210142023E+01  0.18114443003E+02  0.51100000000E-03 0. -1.
        -11    1    3    3    0    0 -0.16371680408E+02  0.11469632820E+02  0.17744879438E+02  0.26729480783E+02  0.51100000000E-03 0.  1.
         12    1    3    3    0    0 -0.12440275373E+00  0.60315324949E+01 -0.13139256363E+02  0.14458039911E+02  0.00000000000E+00 0. -1.
</event>
<event>
 7    1  0.5634483E-012  0.5930201E+02  0.7816164E-02  0.1266605E+00
        -11   -1    0    0    0    0  0.00000000000E+00  0.00000000000E+00  0.45593999997E+02  0.45594000000E+02  0.51100000000E-03 0.  1.
         11   -1    0    0    0    0 -0.00000000000E+00 -0.00000000000E+00 -0.45593999997E+02  0.45594000000E+02  0.51100000000E-03 0. -1.
    9900012    2    1    2    0    0  0.15147384905E+02  0.26682361368E+02 -0.86789711289E+01  0.59302012208E+02  0.50000124344E+02 0.  0.
         12    1    1    2    0    0 -0.15147384905E+02 -0.26682361368E+02  0.86789711289E+01  0.31885987792E+02  0.00000000000E+00 0. -1.
         11    1    3    3    0    0  0.94430541843E+01  0.26022214944E+02 -0.24712475426E+02  0.37108400462E+02  0.51100000000E-03 0. -1.
        -11    1    3    3    0    0  0.44130036194E+01  0.56127199863E+01  0.22428374372E+01  0.74838189863E+01  0.51100000000E-03 0.  1.
        -12    1    3    3    0    0  0.12913271011E+01 -0.49525735615E+01  0.13790666860E+02  0.14709792759E+02  0.00000000000E+00 0.  1.
</event>
<event>
 7    1  0.5634483E-012  0.5930195E+02  0.7816164E-02  0.1266605E+00
        -11   -1    0    0    0    0  0.00000000000E+00  0.00000000000E+00  0.45593999997E+02  0.45594000000E+02  0.51100000000E-03 0. -1.
         11   -1    0    0    0    0 -0.00000000000E+00 -0.00000000000E+00 -0.45593999997E+02  0.45594000000E+02  0.51100000000E-03 0.  1.
    9900012    2    1    2    0    0 -0.87904507629E+01  0.30256123650E+02 -0.49005490930E+01  0.59301946241E+02  0.50000004036E+02 0.  0.
         12    1    1    2    0    0  0.87904507629E+01 -0.30256123650E+02  0.49005490930E+01  0.31886053759E+02  0.00000000000E+00 0. -1.
         11    1    3    3    0    0  0.26395913181E+01  0.11682069047E+02 -0.19822248106E+02  0.23159440835E+02  0.51100000000E-03 0. -1.
        -11    1    3    3    0    0 -0.92884397253E+01  0.95754713742E+01 -0.49454890267E+01  0.14227530585E+02  0.51100000000E-03 0.  1.
        -12    1    3    3    0    0 -0.21416023557E+01  0.89985832290E+01  0.19867188040E+02  0.21914974821E+02  0.00000000000E+00 0.  1.
</event>
<event>
 7    1  0.5634483E-012  0.5930197E+02  0.7816164E-02  0.1266605E+00
        -11   -1    0    0    0    0  0.00000000000E+00  0.00000000000E+00  0.45593999997E+02  0.45594000000E+02  0.51100000000E-03 0.  1.
         11   -1    0    0    0    0 -0.00000000000E+00 -0.00000000000E+00 -0.45593999997E+02  0.45594000000E+02  0.51100000000E-03 0. -1.
    9900012    2    1    2    0    0 -0.21989137748E+01 -0.25175520989E+02  0.19444193214E+02  0.59301972831E+02  0.50000052531E+02 0.  0.
         12    1    1    2    0    0  0.21989137748E+01  0.25175520989E+02 -0.19444193214E+02  0.31886027169E+02  0.00000000000E+00 0. -1.
         11    1    3    3    0    0 -0.48082050665E+00 -0.55989228876E+01 -0.32771636755E+01  0.65052999838E+01  0.51100000000E-03 0. -1.
        -11    1    3    3    0    0 -0.55131142878E+01  0.71431492281E+01 -0.78907413892E+01  0.11986776463E+02  0.51100000000E-03 0.  1.
        -12    1    3    3    0    0  0.37950210197E+01 -0.26719747330E+02  0.30612098278E+02  0.40809896384E+02  0.00000000000E+00 0.  1.
</event>
<event>
 7    1  0.5634483E-012  0.5930197E+02  0.7816164E-02  0.1266605E+00
        -11   -1    0    0    0    0  0.00000000000E+00  0.00000000000E+00  0.45593999997E+02  0.45594000000E+02  0.51100000000E-03 0.  1.
         11   -1    0    0    0    0 -0.00000000000E+00 -0.00000000000E+00 -0.45593999997E+02  0.45594000000E+02  0.51100000000E-03 0. -1.
    9900012    2    1    2    0    0  0.26279250092E+01 -0.30780479026E+02  0.78977819855E+01  0.59301971097E+02  0.50000049368E+02 0.  0.
         12    1    1    2    0    0 -0.26279250092E+01  0.30780479026E+02 -0.78977819855E+01  0.31886028903E+02  0.00000000000E+00 0. -1.
         11    1    3    3    0    0 -0.77858288853E+01  0.17275908379E+01  0.40406887342E+01  0.89404064361E+01  0.51100000000E-03 0. -1.
        -11    1    3    3    0    0 -0.12805292786E+02 -0.39370330623E+01  0.11421080211E+01  0.13445451411E+02  0.51100000000E-03 0.  1.
         12    1    3    3    0    0  0.23219046680E+02 -0.28571036801E+02  0.27149852301E+01  0.36916113250E+02  0.00000000000E+00 0. -1.
</event>
<event>
 7    1  0.5634483E-012  0.5930196E+02  0.7816164E-02  0.1266605E+00
        -11   -1    0    0    0    0  0.00000000000E+00  0.00000000000E+00  0.45593999997E+02  0.45594000000E+02  0.51100000000E-03 0.  1.
         11   -1    0    0    0    0 -0.00000000000E+00 -0.00000000000E+00 -0.45593999997E+02  0.45594000000E+02  0.51100000000E-03 0. -1.
    9900012    2    1    2    0    0 -0.45788957470E+01  0.31092933299E+02  0.53835349969E+01  0.59301964868E+02  0.50000038007E+02 0.  0.
         12    1    1    2    0    0  0.45788957470E+01 -0.31092933299E+02 -0.53835349969E+01  0.31886035132E+02  0.00000000000E+00 0. -1.
         11    1    3    3    0    0 -0.31912908168E+01  0.54139819649E+00 -0.77898823951E+01  0.84356219139E+01  0.51100000000E-03 0. -1.
        -11    1    3    3    0    0  0.17020085186E+02  0.52394814006E+01  0.55585482079E+01  0.18655640528E+02  0.51100000000E-03 0.  1.
         12    1    3    3    0    0 -0.18407690116E+02  0.25312053702E+02  0.76148691842E+01  0.32210702425E+02  0.00000000000E+00 0. -1.
</event>
<event>
 7    1  0.5634483E-012  0.5930177E+02  0.7816164E-02  0.1266605E+00
        -11   -1    0    0    0    0  0.00000000000E+00  0.00000000000E+00  0.45593999997E+02  0.45594000000E+02  0.51100000000E-03 0.  1.
         11   -1    0    0    0    0 -0.00000000000E+00 -0.00000000000E+00 -0.45593999997E+02  0.45594000000E+02  0.51100000000E-03 0. -1.
    9900012    2    1    2    0    0 -0.46919196230E+01 -0.17608165683E+02  0.26166203148E+02  0.59301767930E+02  0.49999678838E+02 0.  0.
         12    1    1    2    0    0  0.46919196230E+01  0.17608165683E+02 -0.26166203148E+02  0.31886232070E+02  0.00000000000E+00 0. -1.
         11    1    3    3    0    0 -0.11498268579E+02  0.10991357141E+02  0.54409360134E+01  0.16811421626E+02  0.51100000000E-03 0. -1.
        -11    1    3    3    0    0  0.90392918170E+01 -0.40019354130E+01  0.13545604204E+02  0.16769247959E+02  0.51100000000E-03 0.  1.
         12    1    3    3    0    0 -0.22329428612E+01 -0.24597587411E+02  0.71796629310E+01  0.25721098345E+02  0.00000000000E+00 0. -1.
</event>
<event>
 7    1  0.5634483E-012  0.5930194E+02  0.7816164E-02  0.1266605E+00
        -11   -1    0    0    0    0  0.00000000000E+00  0.00000000000E+00  0.45593999997E+02  0.45594000000E+02  0.51100000000E-03 0.  1.
         11   -1    0    0    0    0 -0.00000000000E+00 -0.00000000000E+00 -0.45593999997E+02  0.45594000000E+02  0.51100000000E-03 0. -1.
    9900012    2    1    2    0    0  0.49052859968E+01 -0.12173951898E+02  0.29059484317E+02  0.59301944046E+02  0.50000000033E+02 0.  0.
         12    1    1    2    0    0 -0.49052859968E+01  0.12173951898E+02 -0.29059484317E+02  0.31886055954E+02  0.00000000000E+00 0. -1.
         11    1    3    3    0    0  0.61065627874E+01  0.85498490071E+01  0.18385098130E+02  0.21175501426E+02  0.51100000000E-03 0. -1.
        -11    1    3    3    0    0 -0.64068234227E+01  0.33384994879E+01  0.11400468876E+02  0.13496801697E+02  0.51100000000E-03 0.  1.
         12    1    3    3    0    0  0.52055466322E+01 -0.24062300393E+02 -0.72608268841E+00  0.24629640923E+02  0.00000000000E+00 0. -1.
</event>
<event>
 7    1  0.5634483E-012  0.5930192E+02  0.7816164E-02  0.1266605E+00
        -11   -1    0    0    0    0  0.00000000000E+00  0.00000000000E+00  0.45593999997E+02  0.45594000000E+02  0.51100000000E-03 0. -1.
         11   -1    0    0    0    0 -0.00000000000E+00 -0.00000000000E+00 -0.45593999997E+02  0.45594000000E+02  0.51100000000E-03 0.  1.
    9900012    2    1    2    0    0  0.15031714802E+02 -0.10917617147E+02 -0.25914768578E+02  0.59301920835E+02  0.49999957702E+02 0.  0.
         12    1    1    2    0    0 -0.15031714802E+02  0.10917617147E+02  0.25914768578E+02  0.31886079165E+02  0.00000000000E+00 0. -1.
         11    1    3    3    0    0  0.14347859191E+01  0.89340101634E+01  0.49527955440E+01  0.10315296030E+02  0.51100000000E-03 0. -1.
        -11    1    3    3    0    0  0.12363114887E+02  0.42917874159E+01 -0.63178190923E+01  0.14532064109E+02  0.51100000000E-03 0.  1.
        -12    1    3    3    0    0  0.12338139957E+01 -0.24143414727E+02 -0.24549745030E+02  0.34454560695E+02  0.00000000000E+00 0.  1.
</event>
<event>
 7    1  0.5634483E-012  0.5930215E+02  0.7816164E-02  0.1266604E+00
        -11   -1    0    0    0    0  0.00000000000E+00  0.00000000000E+00  0.45593999997E+02  0.45594000000E+02  0.51100000000E-03 0. -1.
         11   -1    0    0    0    0 -0.00000000000E+00 -0.00000000000E+00 -0.45593999997E+02  0.45594000000E+02  0.51100000000E-03 0.  1.
    9900012    2    1    2    0    0 -0.16943144713E+02 -0.26647401397E+02 -0.44219224810E+01  0.59302148084E+02  0.50000372148E+02 0.  0.
         12    1    1    2    0    0  0.16943144713E+02  0.26647401397E+02  0.44219224810E+01  0.31885851916E+02  0.00000000000E+00 0. -1.
         11    1    3    3    0    0 -0.10387460730E+02 -0.22341461371E+02 -0.10808115189E+02  0.26904564498E+02  0.51100000000E-03 0. -1.
        -11    1    3    3    0    0 -0.15954227872E+02 -0.78324232963E+01 -0.37144044786E+01  0.18157120988E+02  0.51100000000E-03 0.  1.
         12    1    3    3    0    0  0.93985438888E+01  0.35264832698E+01  0.10100597186E+02  0.14240462598E+02  0.00000000000E+00 0. -1.
</event>
<event>
 7    1  0.5634483E-012  0.5930193E+02  0.7816164E-02  0.1266605E+00
        -11   -1    0    0    0    0  0.00000000000E+00  0.00000000000E+00  0.45593999997E+02  0.45594000000E+02  0.51100000000E-03 0. -1.
         11   -1    0    0    0    0 -0.00000000000E+00 -0.00000000000E+00 -0.45593999997E+02  0.45594000000E+02  0.51100000000E-03 0.  1.
    9900012    2    1    2    0    0  0.16603987799E+02 -0.21396836509E+02 -0.16828686431E+02  0.59301926074E+02  0.49999967257E+02 0.  0.
         12    1    1    2    0    0 -0.16603987799E+02  0.21396836509E+02  0.16828686431E+02  0.31886073926E+02  0.00000000000E+00 0. -1.
         11    1    3    3    0    0 -0.10137614321E+01 -0.39949309431E+01 -0.58797819738E+01  0.71804611135E+01  0.51100000000E-03 0. -1.
        -11    1    3    3    0    0  0.23270703254E+02 -0.27811017014E+02 -0.15494406442E+02  0.39434184771E+02  0.51100000000E-03 0.  1.
         12    1    3    3    0    0 -0.56529540224E+01  0.10409111448E+02  0.45455019848E+01  0.12687280190E+02  0.00000000000E+00 0. -1.
</event>
<event>
 7    1  0.5634483E-012  0.5930182E+02  0.7816164E-02  0.1266605E+00
        -11   -1    0    0    0    0  0.00000000000E+00  0.00000000000E+00  0.45593999997E+02  0.45594000000E+02  0.51100000000E-03 0. -1.
         11   -1    0    0    0    0 -0.00000000000E+00 -0.00000000000E+00 -0.45593999997E+02  0.45594000000E+02  0.51100000000E-03 0.  1.
    9900012    2    1    2    0    0  0.27129105617E+02  0.59947856522E+01 -0.15646178046E+02  0.59301816251E+02  0.49999766966E+02 0.  0.
         12    1    1    2    0    0 -0.27129105617E+02 -0.59947856522E+01  0.15646178046E+02  0.31886183749E+02  0.00000000000E+00 0. -1.
         11    1    3    3    0    0 -0.11401609883E+01 -0.10269139099E+02  0.11305368906E+02  0.15315565653E+02  0.51100000000E-03 0. -1.
        -11    1    3    3    0    0  0.89341543167E+01 -0.41317852311E+00 -0.46289054743E+01  0.10070580718E+02  0.51100000000E-03 0.  1.
        -12    1    3    3    0    0  0.19335112289E+02  0.16677103274E+02 -0.22322641478E+02  0.33915669880E+02  0.00000000000E+00 0.  1.
</event>
<event>
 7    1  0.5634483E-012  0.5930191E+02  0.7816164E-02  0.1266605E+00
        -11   -1    0    0    0    0  0.00000000000E+00  0.00000000000E+00  0.45593999997E+02  0.45594000000E+02  0.51100000000E-03 0.  1.
         11   -1    0    0    0    0 -0.00000000000E+00 -0.00000000000E+00 -0.45593999997E+02  0.45594000000E+02  0.51100000000E-03 0. -1.
    9900012    2    1    2    0    0 -0.20252761136E+02  0.19604628743E+02  0.14906603990E+02  0.59301911430E+02  0.49999940549E+02 0.  0.
         12    1    1    2    0    0  0.20252761136E+02 -0.19604628743E+02 -0.14906603990E+02  0.31886088570E+02  0.00000000000E+00 0. -1.
         11    1    3    3    0    0  0.46166163180E+01  0.14753168104E+01 -0.31192127030E+01  0.57636094652E+01  0.51100000000E-03 0. -1.
        -11    1    3    3    0    0  0.35069590064E+00  0.53284470388E+01 -0.11483235740E+02  0.12664124082E+02  0.51100000000E-03 0.  1.
        -12    1    3    3    0    0 -0.25220073355E+02  0.12800864894E+02  0.29509052433E+02  0.40874177882E+02  0.00000000000E+00 0.  1.
</event>
<event>
 7    1  0.5634483E-012  0.5930195E+02  0.7816164E-02  0.1266605E+00
        -11   -1    0    0    0    0  0.00000000000E+00  0.00000000000E+00  0.45593999997E+02  0.45594000000E+02  0.51100000000E-03 0.  1.
         11   -1    0    0    0    0 -0.00000000000E+00 -0.00000000000E+00 -0.45593999997E+02  0.45594000000E+02  0.51100000000E-03 0. -1.
    9900012    2    1    2    0    0  0.16689886876E+02 -0.22851735440E+02  0.14695792259E+02  0.59301945891E+02  0.50000003398E+02 0.  0.
         12    1    1    2    0    0 -0.16689886876E+02  0.22851735440E+02 -0.14695792259E+02  0.31886054109E+02  0.00000000000E+00 0. -1.
         11    1    3    3    0    0 -0.48551379196E+01 -0.18854161634E+02 -0.99168388932E+01  0.21849381434E+02  0.51100000000E-03 0. -1.
        -11    1    3    3    0    0  0.17848624315E+01 -0.75331878322E+01  0.98831163437E+01  0.12554307696E+02  0.51100000000E-03 0.  1.
        -12    1    3    3    0    0  0.19760162365E+02  0.35356140267E+01  0.14729514808E+02  0.24898256760E+02  0.00000000000E+00 0.  1.
</event>
<event>
 7    1  0.5634483E-012  0.5930189E+02  0.7816164E-02  0.1266605E+00
        -11   -1    0    0    0    0  0.00000000000E+00  0.00000000000E+00  0.45593999997E+02  0.45594000000E+02  0.51100000000E-03 0.  1.
         11   -1    0    0    0    0 -0.00000000000E+00 -0.00000000000E+00 -0.45593999997E+02  0.45594000000E+02  0.51100000000E-03 0. -1.
    9900012    2    1    2    0    0 -0.49700382585E+01  0.12366656719E+02  0.28967024892E+02  0.59301890018E+02  0.49999901500E+02 0.  0.
         12    1    1    2    0    0  0.49700382585E+01 -0.12366656719E+02 -0.28967024892E+02  0.31886109982E+02  0.00000000000E+00 0. -1.
         11    1    3    3    0    0  0.52435018909E+00  0.15433832818E+02  0.94291453248E+01  0.18093836530E+02  0.51100000000E-03 0. -1.
        -11    1    3    3    0    0  0.13999355355E+02 -0.21813546804E+01  0.16008051795E+02  0.21377511107E+02  0.51100000000E-03 0.  1.
        -12    1    3    3    0    0 -0.19493743803E+02 -0.88582141893E+00  0.35298277720E+01  0.19830542381E+02  0.00000000000E+00 0.  1.
</event>
<event>
 7    1  0.5634483E-012  0.5930195E+02  0.7816164E-02  0.1266605E+00
        -11   -1    0    0    0    0  0.00000000000E+00  0.00000000000E+00  0.45593999997E+02  0.45594000000E+02  0.51100000000E-03 0. -1.
         11   -1    0    0    0    0 -0.00000000000E+00 -0.00000000000E+00 -0.45593999997E+02  0.45594000000E+02  0.51100000000E-03 0.  1.
    9900012    2    1    2    0    0  0.96184277812E+01 -0.11400004910E+01 -0.30379375682E+02  0.59301949431E+02  0.50000009854E+02 0.  0.
         12    1    1    2    0    0 -0.96184277812E+01  0.11400004910E+01  0.30379375682E+02  0.31886050569E+02  0.00000000000E+00 0. -1.
         11    1    3    3    0    0 -0.80475203634E+01 -0.67213462479E+01  0.68134519907E+01  0.12504487501E+02  0.51100000000E-03 0. -1.
        -11    1    3    3    0    0  0.59714185534E+01  0.54323994877E+01 -0.28156530634E+00  0.80776285515E+01  0.51100000000E-03 0.  1.
        -12    1    3    3    0    0  0.11694529591E+02  0.14894626926E+00 -0.36911262366E+02  0.38719833378E+02  0.00000000000E+00 0.  1.
</event>
<event>
 7    1  0.5634483E-012  0.5930195E+02  0.7816164E-02  0.1266605E+00
        -11   -1    0    0    0    0  0.00000000000E+00  0.00000000000E+00  0.45593999997E+02  0.45594000000E+02  0.51100000000E-03 0. -1.
         11   -1    0    0    0    0 -0.00000000000E+00 -0.00000000000E+00 -0.45593999997E+02  0.45594000000E+02  0.51100000000E-03 0.  1.
    9900012    2    1    2    0    0  0.25275372540E+02  0.17809079646E+02 -0.77918108922E+01  0.59301951455E+02  0.50000013545E+02 0.  0.
         12    1    1    2    0    0 -0.25275372540E+02 -0.17809079646E+02  0.77918108922E+01  0.31886048545E+02  0.00000000000E+00 0. -1.
         11    1    3    3    0    0  0.33046461834E+01  0.98301802385E+00 -0.12637200487E+02  0.13099078107E+02  0.51100000000E-03 0. -1.
        -11    1    3    3    0    0  0.53741698018E+01  0.14952699736E+02 -0.13889457981E+02  0.21104074813E+02  0.51100000000E-03 0.  1.
         12    1    3    3    0    0  0.16596556554E+02  0.18733618854E+01  0.18734847576E+02  0.25098798535E+02  0.00000000000E+00 0. -1.
</event>
<event>
 7    1  0.5634483E-012  0.5930197E+02  0.7816164E-02  0.1266605E+00
        -11   -1    0    0    0    0  0.00000000000E+00  0.00000000000E+00  0.45593999997E+02  0.45594000000E+02  0.51100000000E-03 0. -1.
         11   -1    0    0    0    0 -0.00000000000E+00 -0.00000000000E+00 -0.45593999997E+02  0.45594000000E+02  0.51100000000E-03 0.  1.
    9900012    2    1    2    0    0  0.12308144944E+02  0.46743573445E+01 -0.29040980679E+02  0.59301974733E+02  0.50000055998E+02 0.  0.
         12    1    1    2    0    0 -0.12308144944E+02 -0.46743573445E+01  0.29040980679E+02  0.31886025267E+02  0.00000000000E+00 0. -1.
         11    1    3    3    0    0  0.17181725974E+01  0.32802708717E+01  0.64959084107E+01  0.74772401599E+01  0.51100000000E-03 0. -1.
        -11    1    3    3    0    0  0.13359887676E+02 -0.14484156514E+02 -0.11291614152E+02  0.22710745013E+02  0.51100000000E-03 0.  1.
        -12    1    3    3    0    0 -0.27699153292E+01  0.15878242986E+02 -0.24245274938E+02  0.29113989560E+02  0.00000000000E+00 0.  1.
</event>
<event>
 7    1  0.5634483E-012  0.5930212E+02  0.7816164E-02  0.1266604E+00
        -11   -1    0    0    0    0  0.00000000000E+00  0.00000000000E+00  0.45593999997E+02  0.45594000000E+02  0.51100000000E-03 0. -1.
         11   -1    0    0    0    0 -0.00000000000E+00 -0.00000000000E+00 -0.45593999997E+02  0.45594000000E+02  0.51100000000E-03 0.  1.
    9900012    2    1    2    0    0 -0.15409982116E+02 -0.31155717140E+01 -0.27740489076E+02  0.59302124285E+02  0.50000328745E+02 0.  0.
         12    1    1    2    0    0  0.15409982116E+02  0.31155717140E+01  0.27740489076E+02  0.31885875715E+02  0.00000000000E+00 0. -1.
         11    1    3    3    0    0 -0.11996320880E-01  0.13649649502E+01 -0.52942575245E+01  0.54673975732E+01  0.51100000000E-03 0. -1.
        -11    1    3    3    0    0  0.15570578906E+02 -0.73168171630E+01 -0.12205047005E+02  0.21093646283E+02  0.51100000000E-03 0.  1.
        -12    1    3    3    0    0 -0.30968564701E+02  0.28362804987E+01 -0.10241184547E+02  0.32741080429E+02  0.00000000000E+00 0.  1.
</event>
<event>
 7    1  0.5634483E-012  0.5930171E+02  0.7816164E-02  0.1266606E+00
        -11   -1    0    0    0    0  0.00000000000E+00  0.00000000000E+00  0.45593999997E+02  0.45594000000E+02  0.51100000000E-03 0.  1.
         11   -1    0    0    0    0 -0.00000000000E+00 -0.00000000000E+00 -0.45593999997E+02  0.45594000000E+02  0.51100000000E-03 0. -1.
    9900012    2    1    2    0    0  0.21912323427E+02  0.12255961964E+02  0.19656466208E+02  0.59301714776E+02  0.49999581897E+02 0.  0.
         12    1    1    2    0    0 -0.21912323427E+02 -0.12255961964E+02 -0.19656466208E+02  0.31886285224E+02  0.00000000000E+00 0. -1.
         11    1    3    3    0    0  0.33147379011E+01  0.83267285887E+01 -0.42459796654E+01  0.99171689470E+01  0.51100000000E-03 0. -1.
        -11    1    3    3    0    0 -0.10332420112E+02  0.91073372937E+01  0.87628089114E+01  0.16324500551E+02  0.51100000000E-03 0.  1.
        -12    1    3    3    0    0  0.28930005638E+02 -0.51781039181E+01  0.15139636962E+02  0.33060045277E+02  0.00000000000E+00 0.  1.
</event>
<event>
 7    1  0.5634483E-012  0.5930196E+02  0.7816164E-02  0.1266605E+00
        -11   -1    0    0    0    0  0.00000000000E+00  0.00000000000E+00  0.45593999997E+02  0.45594000000E+02  0.51100000000E-03 0. -1.
         11   -1    0    0    0    0 -0.00000000000E+00 -0.00000000000E+00 -0.45593999997E+02  0.45594000000E+02  0.51100000000E-03 0.  1.
    9900012    2    1    2    0    0 -0.21675600535E+02 -0.23267284091E+02 -0.23497522979E+01  0.59301960682E+02  0.50000030373E+02 0.  0.
         12    1    1    2    0    0  0.21675600535E+02  0.23267284091E+02  0.23497522979E+01  0.31886039318E+02  0.00000000000E+00 0. -1.
         11    1    3    3    0    0 -0.15643834826E+02 -0.89692866268E+01 -0.30005667654E+01  0.18280620117E+02  0.51100000000E-03 0. -1.
        -11    1    3    3    0    0  0.28836464158E+00 -0.26727099545E+02 -0.20921579259E+01  0.26810410838E+02  0.51100000000E-03 0.  1.
         12    1    3    3    0    0 -0.63201303506E+01  0.12429102081E+02  0.27429723934E+01  0.14210929728E+02  0.00000000000E+00 0. -1.
</event>
<event>
 7    1  0.5634483E-012  0.5930194E+02  0.7816164E-02  0.1266605E+00
        -11   -1    0    0    0    0  0.00000000000E+00  0.00000000000E+00  0.45593999997E+02  0.45594000000E+02  0.51100000000E-03 0.  1.
         11   -1    0    0    0    0 -0.00000000000E+00 -0.00000000000E+00 -0.45593999997E+02  0.45594000000E+02  0.51100000000E-03 0. -1.
    9900012    2    1    2    0    0  0.20612471155E+02 -0.10197363096E+02  0.22087568664E+02  0.59301939241E+02  0.49999991270E+02 0.  0.
         12    1    1    2    0    0 -0.20612471155E+02  0.10197363096E+02 -0.22087568664E+02  0.31886060759E+02  0.00000000000E+00 0. -1.
         11    1    3    3    0    0  0.49876338266E+01 -0.18519419661E+02  0.47555108675E+01  0.19760067805E+02  0.51100000000E-03 0. -1.
        -11    1    3    3    0    0  0.14639846770E+02  0.44987348286E+01  0.25910506401E+02  0.30098472897E+02  0.51100000000E-03 0.  1.
        -12    1    3    3    0    0  0.98499055778E+00  0.38233217364E+01 -0.85784486044E+01  0.94433985386E+01  0.00000000000E+00 0.  1.
</event>
<event>
 7    1  0.5634483E-012  0.5930188E+02  0.7816164E-02  0.1266605E+00
        -11   -1    0    0    0    0  0.00000000000E+00  0.00000000000E+00  0.45593999997E+02  0.45594000000E+02  0.51100000000E-03 0.  1.
         11   -1    0    0    0    0 -0.00000000000E+00 -0.00000000000E+00 -0.45593999997E+02  0.45594000000E+02  0.51100000000E-03 0. -1.
    9900012    2    1    2    0    0 -0.14616332199E+01  0.54476490131E+01  0.31383301655E+02  0.59301876463E+02  0.49999876779E+02 0.  0.
         12    1    1    2    0    0  0.14616332199E+01 -0.54476490131E+01 -0.31383301655E+02  0.31886123537E+02  0.00000000000E+00 0. -1.
         11    1    3    3    0    0 -0.13452048992E+02 -0.33481098691E+01  0.12072782183E+01  0.13914919429E+02  0.51100000000E-03 0. -1.
        -11    1    3    3    0    0  0.83616899604E+01 -0.71691438693E+01 -0.46946401183E-01  0.11014385459E+02  0.51100000000E-03 0.  1.
        -12    1    3    3    0    0  0.36287258113E+01  0.15964902751E+02  0.30222969838E+02  0.34372571575E+02  0.00000000000E+00 0.  1.
</event>
<event>
 7    1  0.5634483E-012  0.5930194E+02  0.7816164E-02  0.1266605E+00
        -11   -1    0    0    0    0  0.00000000000E+00  0.00000000000E+00  0.45593999997E+02  0.45594000000E+02  0.51100000000E-03 0.  1.
         11   -1    0    0    0    0 -0.00000000000E+00 -0.00000000000E+00 -0.45593999997E+02  0.45594000000E+02  0.51100000000E-03 0. -1.
    9900012    2    1    2    0    0 -0.14647345530E+02  0.15403599619E+02  0.23767728122E+02  0.59301944860E+02  0.50000001519E+02 0.  0.
         12    1    1    2    0    0  0.14647345530E+02 -0.15403599619E+02 -0.23767728122E+02  0.31886055140E+02  0.00000000000E+00 0. -1.
         11    1    3    3    0    0  0.28602739825E+01 -0.75682124909E+01 -0.10251368414E+02  0.13059462553E+02  0.51100000000E-03 0. -1.
        -11    1    3    3    0    0 -0.43917767364E+01  0.65317324720E+01  0.18502156704E+02  0.20106741033E+02  0.51100000000E-03 0.  1.
        -12    1    3    3    0    0 -0.13115842776E+02  0.16440079637E+02  0.15516939832E+02  0.26135741274E+02  0.00000000000E+00 0.  1.
</event>
<event>
 7    1  0.5634483E-012  0.5930174E+02  0.7816164E-02  0.1266605E+00
        -11   -1    0    0    0    0  0.00000000000E+00  0.00000000000E+00  0.45593999997E+02  0.45594000000E+02  0.51100000000E-03 0. -1.
         11   -1    0    0    0    0 -0.00000000000E+00 -0.00000000000E+00 -0.45593999997E+02  0.45594000000E+02  0.51100000000E-03 0.  1.
    9900012    2    1    2    0    0  0.13417125722E+02  0.19914875488E+02 -0.20978854222E+02  0.59301735672E+02  0.49999620007E+02 0.  0.
         12    1    1    2    0    0 -0.13417125722E+02 -0.19914875488E+02  0.20978854222E+02  0.31886264328E+02  0.00000000000E+00 0. -1.
         11    1    3    3    0    0 -0.15566234162E+01  0.55680633128E+01 -0.41981029701E+01  0.71449614641E+01  0.51100000000E-03 0. -1.
        -11    1    3    3    0    0 -0.41304160412E+01 -0.63039938903E+01  0.10529429350E+02  0.12948728058E+02  0.51100000000E-03 0.  1.
        -12    1    3    3    0    0  0.19104165180E+02  0.20650806065E+02 -0.27310180601E+02  0.39208046149E+02  0.00000000000E+00 0.  1.
</event>
<event>
 7    1  0.5634483E-012  0.5930193E+02  0.7816164E-02  0.1266605E+00
        -11   -1    0    0    0    0  0.00000000000E+00  0.00000000000E+00  0.45593999997E+02  0.45594000000E+02  0.51100000000E-03 0. -1.
         11   -1    0    0    0    0 -0.00000000000E+00 -0.00000000000E+00 -0.45593999997E+02  0.45594000000E+02  0.51100000000E-03 0.  1.
    9900012    2    1    2    0    0  0.76683709031E+01  0.16546829653E+02 -0.26155692628E+02  0.59301925599E+02  0.49999966390E+02 0.  0.
         12    1    1    2    0    0 -0.76683709031E+01 -0.16546829653E+02  0.26155692628E+02  0.31886074401E+02  0.00000000000E+00 0. -1.
         11    1    3    3    0    0  0.14072308805E+02  0.21597555038E+01 -0.13064613002E+02  0.19323005256E+02  0.51100000000E-03 0. -1.
        -11    1    3    3    0    0  0.98350534737E+01  0.17977263847E+02 -0.35244227686E+01  0.20792591190E+02  0.51100000000E-03 0.  1.
         12    1    3    3    0    0 -0.16238991376E+02 -0.35901896982E+01 -0.95666568566E+01  0.19186329154E+02  0.00000000000E+00 0. -1.
</event>
<event>
 7    1  0.5634483E-012  0.5930196E+02  0.7816164E-02  0.1266605E+00
        -11   -1    0    0    0    0  0.00000000000E+00  0.00000000000E+00  0.45593999997E+02  0.45594000000E+02  0.51100000000E-03 0.  1.
         11   -1    0    0    0    0 -0.00000000000E+00 -0.00000000000E+00 -0.45593999997E+02  0.45594000000E+02  0.51100000000E-03 0. -1.
    9900012    2    1    2    0    0 -0.16088375190E+02  0.14729298016E+02  0.23257938610E+02  0.59301956898E+02  0.50000023473E+02 0.  0.
         12    1    1    2    0    0  0.16088375190E+02 -0.14729298016E+02 -0.23257938610E+02  0.31886043102E+02  0.00000000000E+00 0. -1.
         11    1    3    3    0    0 -0.23183848300E+02  0.10225626074E+02 -0.73464461081E+00  0.25349436948E+02  0.51100000000E-03 0. -1.
        -11    1    3    3    0    0 -0.47432848294E+01  0.85600098846E+01  0.44597077861E+01  0.10754604316E+02  0.51100000000E-03 0.  1.
        -12    1    3    3    0    0  0.11838757939E+02 -0.40563379430E+01  0.19532875435E+02  0.23197915635E+02  0.00000000000E+00 0.  1.
</event>
<event>
 7    1  0.5634483E-012  0.5930198E+02  0.7816164E-02  0.1266605E+00
        -11   -1    0    0    0    0  0.00000000000E+00  0.00000000000E+00  0.45593999997E+02  0.45594000000E+02  0.51100000000E-03 0.  1.
         11   -1    0    0    0    0 -0.00000000000E+00 -0.00000000000E+00 -0.45593999997E+02  0.45594000000E+02  0.51100000000E-03 0. -1.
    9900012    2    1    2    0    0 -0.11998013889E+02  0.18379342277E+02  0.23129326045E+02  0.59301979817E+02  0.50000065271E+02 0.  0.
         12    1    1    2    0    0  0.11998013889E+02 -0.18379342277E+02 -0.23129326045E+02  0.31886020183E+02  0.00000000000E+00 0. -1.
         11    1    3    3    0    0 -0.56151032065E+01  0.17622846308E+02  0.30272063041E+02  0.35475229344E+02  0.51100000000E-03 0. -1.
        -11    1    3    3    0    0 -0.78064202293E+01  0.43454437512E+00  0.64624032638E+01  0.10143553707E+02  0.51100000000E-03 0.  1.
         12    1    3    3    0    0  0.14235095470E+01  0.32195159399E+00 -0.13605140259E+02  0.13683196766E+02  0.00000000000E+00 0. -1.
</event>
<event>
 7    1  0.5634483E-012  0.5930200E+02  0.7816164E-02  0.1266605E+00
        -11   -1    0    0    0    0  0.00000000000E+00  0.00000000000E+00  0.45593999997E+02  0.45594000000E+02  0.51100000000E-03 0.  1.
         11   -1    0    0    0    0 -0.00000000000E+00 -0.00000000000E+00 -0.45593999997E+02  0.45594000000E+02  0.51100000000E-03 0. -1.
    9900012    2    1    2    0    0  0.34251049808E+01 -0.11141699195E+02  0.29679087394E+02  0.59301999410E+02  0.50000101005E+02 0.  0.
         12    1    1    2    0    0 -0.34251049808E+01  0.11141699195E+02 -0.29679087394E+02  0.31886000590E+02  0.00000000000E+00 0. -1.
         11    1    3    3    0    0 -0.10434394296E+02  0.97971826671E+01 -0.17754702129E+00  0.14314080332E+02  0.51100000000E-03 0. -1.
        -11    1    3    3    0    0 -0.18679741990E+01  0.30982032139E+01  0.83618046765E+01  0.91108708954E+01  0.51100000000E-03 0.  1.
        -12    1    3    3    0    0  0.15727473476E+02 -0.24037085076E+02  0.21494829739E+02  0.35877048183E+02  0.00000000000E+00 0.  1.
</event>
<event>
 7    1  0.5634483E-012  0.5930195E+02  0.7816164E-02  0.1266605E+00
        -11   -1    0    0    0    0  0.00000000000E+00  0.00000000000E+00  0.45593999997E+02  0.45594000000E+02  0.51100000000E-03 0.  1.
         11   -1    0    0    0    0 -0.00000000000E+00 -0.00000000000E+00 -0.45593999997E+02  0.45594000000E+02  0.51100000000E-03 0. -1.
    9900012    2    1    2    0    0 -0.29352048042E+02  0.83486941116E+00  0.12429019811E+02  0.59301948745E+02  0.50000008604E+02 0.  0.
         12    1    1    2    0    0  0.29352048042E+02 -0.83486941116E+00 -0.12429019811E+02  0.31886051255E+02  0.00000000000E+00 0. -1.
         11    1    3    3    0    0 -0.14069493993E+02 -0.96423395593E+01  0.60902240713E+01  0.18111217598E+02  0.51100000000E-03 0. -1.
        -11    1    3    3    0    0 -0.25072744412E+02  0.12966036123E+01  0.10390148031E+02  0.27171287596E+02  0.51100000000E-03 0.  1.
         12    1    3    3    0    0  0.97901903628E+01  0.91806053582E+01 -0.40513522920E+01  0.14019443551E+02  0.00000000000E+00 0. -1.
</event>
<event>
 7    1  0.5634483E-012  0.5930196E+02  0.7816164E-02  0.1266605E+00
        -11   -1    0    0    0    0  0.00000000000E+00  0.00000000000E+00  0.45593999997E+02  0.45594000000E+02  0.51100000000E-03 0.  1.
         11   -1    0    0    0    0 -0.00000000000E+00 -0.00000000000E+00 -0.45593999997E+02  0.45594000000E+02  0.51100000000E-03 0. -1.
    9900012    2    1    2    0    0  0.16708585607E+01 -0.26745871235E+01  0.31729707766E+02  0.59301960115E+02  0.50000029339E+02 0.  0.
         12    1    1    2    0    0 -0.16708585607E+01  0.26745871235E+01 -0.31729707766E+02  0.31886039885E+02  0.00000000000E+00 0. -1.
         11    1    3    3    0    0 -0.77109370178E+01  0.10876667217E+02  0.23746925322E+02  0.27233745646E+02  0.51100000000E-03 0.  1.
        -11    1    3    3    0    0  0.10072761582E+02 -0.20775615875E+02  0.30408936288E+01  0.23288060787E+02  0.51100000000E-03 0. -1.
         12    1    3    3    0    0 -0.69096600373E+00  0.72243615351E+01  0.49418888158E+01  0.87801536818E+01  0.00000000000E+00 0. -1.
</event>
<event>
 7    1  0.5634483E-012  0.5930194E+02  0.7816164E-02  0.1266605E+00
        -11   -1    0    0    0    0  0.00000000000E+00  0.00000000000E+00  0.45593999997E+02  0.45594000000E+02  0.51100000000E-03 0. -1.
         11   -1    0    0    0    0 -0.00000000000E+00 -0.00000000000E+00 -0.45593999997E+02  0.45594000000E+02  0.51100000000E-03 0.  1.
    9900012    2    1    2    0    0 -0.87813805486E+01 -0.17282885917E+01 -0.30604266384E+02  0.59301941186E+02  0.49999994818E+02 0.  0.
         12    1    1    2    0    0  0.87813805486E+01  0.17282885917E+01  0.30604266384E+02  0.31886058814E+02  0.00000000000E+00 0. -1.
         11    1    3    3    0    0 -0.19564385318E+02  0.32724115305E+01 -0.20705127647E+02  0.28673614373E+02  0.51100000000E-03 0. -1.
        -11    1    3    3    0    0 -0.37224294587E+01 -0.28735091627E+01 -0.14515417604E+02  0.15258141579E+02  0.51100000000E-03 0.  1.
        -12    1    3    3    0    0  0.14505434228E+02 -0.21271909595E+01  0.46162788669E+01  0.15370185233E+02  0.00000000000E+00 0.  1.
</event>
<event>
 7    1  0.5634483E-012  0.5930195E+02  0.7816164E-02  0.1266605E+00
        -11   -1    0    0    0    0  0.00000000000E+00  0.00000000000E+00  0.45593999997E+02  0.45594000000E+02  0.51100000000E-03 0.  1.
         11   -1    0    0    0    0 -0.00000000000E+00 -0.00000000000E+00 -0.45593999997E+02  0.45594000000E+02  0.51100000000E-03 0. -1.
    9900012    2    1    2    0    0 -0.16105287265E+02 -0.11061302652E+02  0.25198958385E+02  0.59301949791E+02  0.50000010511E+02 0.  0.
         12    1    1    2    0    0  0.16105287265E+02  0.11061302652E+02 -0.25198958385E+02  0.31886050209E+02  0.00000000000E+00 0. -1.
         11    1    3    3    0    0  0.79000937395E+01 -0.14020508447E+02  0.24719869072E+01  0.16281795286E+02  0.51100000000E-03 0. -1.
        -11    1    3    3    0    0 -0.13039699388E+02 -0.48205494947E+01 -0.27884316608E+01  0.14179097607E+02  0.51100000000E-03 0.  1.
        -12    1    3    3    0    0 -0.10965681616E+02  0.77797552895E+01  0.25515403139E+02  0.28841056898E+02  0.00000000000E+00 0.  1.
</event>
<event>
 7    1  0.5634483E-012  0.5930196E+02  0.7816164E-02  0.1266605E+00
        -11   -1    0    0    0    0  0.00000000000E+00  0.00000000000E+00  0.45593999997E+02  0.45594000000E+02  0.51100000000E-03 0. -1.
         11   -1    0    0    0    0 -0.00000000000E+00 -0.00000000000E+00 -0.45593999997E+02  0.45594000000E+02  0.51100000000E-03 0.  1.
    9900012    2    1    2    0    0 -0.25416823799E+02 -0.49696288448E+01 -0.18601276754E+02  0.59301958543E+02  0.50000026472E+02 0.  0.
         12    1    1    2    0    0  0.25416823799E+02  0.49696288448E+01  0.18601276754E+02  0.31886041457E+02  0.00000000000E+00 0. -1.
         11    1    3    3    0    0  0.62299387702E+01  0.13922682013E+02 -0.26508036017E+01  0.15481601065E+02  0.51100000000E-03 0. -1.
        -11    1    3    3    0    0 -0.73841543402E+01  0.11660552100E+01 -0.87842229126E+01  0.11534643146E+02  0.51100000000E-03 0.  1.
        -12    1    3    3    0    0 -0.24262608229E+02 -0.20058366068E+02 -0.71662502402E+01  0.32285714332E+02  0.00000000000E+00 0.  1.
</event>
<event>
 7    1  0.5634483E-012  0.5930196E+02  0.7816164E-02  0.1266605E+00
        -11   -1    0    0    0    0  0.00000000000E+00  0.00000000000E+00  0.45593999997E+02  0.45594000000E+02  0.51100000000E-03 0.  1.
         11   -1    0    0    0    0 -0.00000000000E+00 -0.00000000000E+00 -0.45593999997E+02  0.45594000000E+02  0.51100000000E-03 0. -1.
    9900012    2    1    2    0    0  0.28465176935E+02 -0.46321046617E+01  0.13601359523E+02  0.59301958031E+02  0.50000025539E+02 0.  0.
         12    1    1    2    0    0 -0.28465176935E+02  0.46321046617E+01 -0.13601359523E+02  0.31886041969E+02  0.00000000000E+00 0. -1.
         11    1    3    3    0    0  0.16844390943E+02  0.34115581851E+01  0.18511889456E+02  0.25259894834E+02  0.51100000000E-03 0. -1.
        -11    1    3    3    0    0  0.40699704925E+01 -0.17695443525E+02  0.43629368298E+01  0.18674276409E+02  0.51100000000E-03 0.  1.
         12    1    3    3    0    0  0.75508154996E+01  0.96517806782E+01 -0.92734667634E+01  0.15367786789E+02  0.00000000000E+00 0. -1.
</event>
<event>
 7    1  0.5634483E-012  0.5930195E+02  0.7816164E-02  0.1266605E+00
        -11   -1    0    0    0    0  0.00000000000E+00  0.00000000000E+00  0.45593999997E+02  0.45594000000E+02  0.51100000000E-03 0. -1.
         11   -1    0    0    0    0 -0.00000000000E+00 -0.00000000000E+00 -0.45593999997E+02  0.45594000000E+02  0.51100000000E-03 0.  1.
    9900012    2    1    2    0    0 -0.22764915180E+02 -0.21656241108E+02  0.54301291785E+01  0.59301945917E+02  0.50000003446E+02 0.  0.
         12    1    1    2    0    0  0.22764915180E+02  0.21656241108E+02 -0.54301291785E+01  0.31886054083E+02  0.00000000000E+00 0. -1.
         11    1    3    3    0    0  0.11905106243E+02 -0.59993716252E+01 -0.69052163947E+01  0.15013528176E+02  0.51100000000E-03 0. -1.
        -11    1    3    3    0    0 -0.96611835834E+01 -0.11166330487E+02 -0.23341069261E+01  0.14949028737E+02  0.51100000000E-03 0.  1.
         12    1    3    3    0    0 -0.25008837839E+02 -0.44905389966E+01  0.14669452499E+02  0.29339389005E+02  0.00000000000E+00 0. -1.
</event>
<event>
 7    1  0.5634483E-012  0.5930194E+02  0.7816164E-02  0.1266605E+00
        -11   -1    0    0    0    0  0.00000000000E+00  0.00000000000E+00  0.45593999997E+02  0.45594000000E+02  0.51100000000E-03 0.  1.
         11   -1    0    0    0    0 -0.00000000000E+00 -0.00000000000E+00 -0.45593999997E+02  0.45594000000E+02  0.51100000000E-03 0. -1.
    9900012    2    1    2    0    0 -0.23648678316E+02  0.17442088336E+02 -0.12378785352E+02  0.59301941002E+02  0.49999994482E+02 0.  0.
         12    1    1    2    0    0  0.23648678316E+02 -0.17442088336E+02  0.12378785352E+02  0.31886058998E+02  0.00000000000E+00 0. -1.
         11    1    3    3    0    0 -0.41863431153E+01  0.85754628557E+01  0.16801350617E+01  0.96895245474E+01  0.51100000000E-03 0. -1.
        -11    1    3    3    0    0 -0.24609147214E+02 -0.49649667630E+01  0.49079588341E+01  0.25580247883E+02  0.51100000000E-03 0.  1.
         12    1    3    3    0    0  0.51468120134E+01  0.13831592243E+02 -0.18966879248E+02  0.24032168572E+02  0.00000000000E+00 0. -1.
</event>
<event>
 7    1  0.5634483E-012  0.5930193E+02  0.7816164E-02  0.1266605E+00
        -11   -1    0    0    0    0  0.00000000000E+00  0.00000000000E+00  0.45593999997E+02  0.45594000000E+02  0.51100000000E-03 0.  1.
         11   -1    0    0    0    0 -0.00000000000E+00 -0.00000000000E+00 -0.45593999997E+02  0.45594000000E+02  0.51100000000E-03 0. -1.
    9900012    2    1    2    0    0  0.29945632550E+02  0.10439368766E+02 -0.33166070017E+01  0.59301933905E+02  0.49999981538E+02 0.  0.
         12    1    1    2    0    0 -0.29945632550E+02 -0.10439368766E+02  0.33166070017E+01  0.31886066095E+02  0.00000000000E+00 0. -1.
         11    1    3    3    0    0  0.19477936687E+01  0.75965415992E+01  0.89336590577E+01  0.11887455946E+02  0.51100000000E-03 0. -1.
        -11    1    3    3    0    0  0.20735622474E+02  0.96362584546E+01  0.85082082056E+01  0.24396990051E+02  0.51100000000E-03 0.  1.
         12    1    3    3    0    0  0.72622164065E+01 -0.67934312874E+01 -0.20758474265E+02  0.23017487908E+02  0.00000000000E+00 0. -1.
</event>
<event>
 7    1  0.5634483E-012  0.5930197E+02  0.7816164E-02  0.1266605E+00
        -11   -1    0    0    0    0  0.00000000000E+00  0.00000000000E+00  0.45593999997E+02  0.45594000000E+02  0.51100000000E-03 0. -1.
         11   -1    0    0    0    0 -0.00000000000E+00 -0.00000000000E+00 -0.45593999997E+02  0.45594000000E+02  0.51100000000E-03 0.  1.
    9900012    2    1    2    0    0  0.75383104230E+01  0.26620162289E+02  0.15851175086E+02  0.59301969894E+02  0.50000047174E+02 0.  0.
         12    1    1    2    0    0 -0.75383104230E+01 -0.26620162289E+02 -0.15851175086E+02  0.31886030106E+02  0.00000000000E+00 0. -1.
         11    1    3    3    0    0 -0.36712506635E+01 -0.13867285857E+01  0.77182090879E+01  0.86586286091E+01  0.51100000000E-03 0. -1.
        -11    1    3    3    0    0 -0.59860365829E+01 -0.21764328103E+00 -0.10948762965E+02  0.12480200852E+02  0.51100000000E-03 0.  1.
         12    1    3    3    0    0  0.17195597669E+02  0.28224534155E+02  0.19081728963E+02  0.38163140433E+02  0.00000000000E+00 0. -1.
</event>
<event>
 7    1  0.5634483E-012  0.5930194E+02  0.7816164E-02  0.1266605E+00
        -11   -1    0    0    0    0  0.00000000000E+00  0.00000000000E+00  0.45593999997E+02  0.45594000000E+02  0.51100000000E-03 0.  1.
         11   -1    0    0    0    0 -0.00000000000E+00 -0.00000000000E+00 -0.45593999997E+02  0.45594000000E+02  0.51100000000E-03 0. -1.
    9900012    2    1    2    0    0 -0.27016334477E+02  0.16868122906E+02  0.15181869171E+01  0.59301940500E+02  0.49999993566E+02 0.  0.
         12    1    1    2    0    0  0.27016334477E+02 -0.16868122906E+02 -0.15181869171E+01  0.31886059500E+02  0.00000000000E+00 0. -1.
         11    1    3    3    0    0 -0.12238588368E+02  0.13416188742E+02 -0.19511278678E+02  0.26654589877E+02  0.51100000000E-03 0. -1.
        -11    1    3    3    0    0 -0.81080548582E+01  0.39482684938E+01 -0.15035104221E+01  0.91427524047E+01  0.51100000000E-03 0.  1.
        -12    1    3    3    0    0 -0.66696912515E+01 -0.49633433045E+00  0.22532976018E+02  0.23504598218E+02  0.00000000000E+00 0.  1.
</event>
<event>
 7    1  0.5634483E-012  0.5930199E+02  0.7816164E-02  0.1266605E+00
        -11   -1    0    0    0    0  0.00000000000E+00  0.00000000000E+00  0.45593999997E+02  0.45594000000E+02  0.51100000000E-03 0.  1.
         11   -1    0    0    0    0 -0.00000000000E+00 -0.00000000000E+00 -0.45593999997E+02  0.45594000000E+02  0.51100000000E-03 0. -1.
    9900012    2    1    2    0    0  0.79867457618E+01 -0.14012412748E+02  0.27506029293E+02  0.59301992624E+02  0.50000088628E+02 0.  0.
         12    1    1    2    0    0 -0.79867457618E+01  0.14012412748E+02 -0.27506029293E+02  0.31886007376E+02  0.00000000000E+00 0. -1.
         11    1    3    3    0    0  0.49947925864E+01  0.73526461040E+01  0.95357930961E+01  0.13036130866E+02  0.51100000000E-03 0. -1.
        -11    1    3    3    0    0 -0.70894258113E+01  0.60559295648E+01  0.13944255678E+02  0.16774281144E+02  0.51100000000E-03 0.  1.
         12    1    3    3    0    0  0.10081378987E+02 -0.27420988416E+02  0.40259805194E+01  0.29491580615E+02  0.00000000000E+00 0. -1.
</event>
<event>
 7    1  0.5757152E-012  0.5930200E+02  0.7816164E-02  0.1266605E+00
        -11   -1    0    0    0    0  0.00000000000E+00  0.00000000000E+00  0.45593999997E+02  0.45594000000E+02  0.51100000000E-03 0. -1.
         11   -1    0    0    0    0 -0.00000000000E+00 -0.00000000000E+00 -0.45593999997E+02  0.45594000000E+02  0.51100000000E-03 0.  1.
    9900012    2    1    2    0    0 -0.15438886216E+02  0.11788855495E+02 -0.25285973230E+02  0.59302003643E+02  0.50000108724E+02 0.  0.
         12    1    1    2    0    0  0.15438886216E+02 -0.11788855495E+02  0.25285973230E+02  0.31885996357E+02  0.00000000000E+00 0. -1.
         11    1    3    3    0    0  0.54637108693E+01  0.51915815238E+01 -0.30327991478E+01  0.81241938747E+01  0.51100000000E-03 0. -1.
        -11    1    3    3    0    0 -0.14257779196E+02  0.19876850829E+02 -0.26168254417E+02  0.35821097219E+02  0.51100000000E-03 0.  1.
         12    1    3    3    0    0 -0.66448178887E+01 -0.13279576858E+02  0.39150803348E+01  0.15356712549E+02  0.00000000000E+00 0. -1.
</event>
<event>
 7    1  0.5634483E-012  0.5930191E+02  0.7816164E-02  0.1266605E+00
        -11   -1    0    0    0    0  0.00000000000E+00  0.00000000000E+00  0.45593999997E+02  0.45594000000E+02  0.51100000000E-03 0. -1.
         11   -1    0    0    0    0 -0.00000000000E+00 -0.00000000000E+00 -0.45593999997E+02  0.45594000000E+02  0.51100000000E-03 0.  1.
    9900012    2    1    2    0    0 -0.10163095087E+01 -0.55035625851E+01 -0.31391088326E+02  0.59301913497E+02  0.49999944320E+02 0.  0.
         12    1    1    2    0    0  0.10163095087E+01  0.55035625851E+01  0.31391088326E+02  0.31886086503E+02  0.00000000000E+00 0. -1.
         11    1    3    3    0    0  0.87912303894E+01  0.10805598783E+01 -0.18045591428E+01  0.90393459593E+01  0.51100000000E-03 0. -1.
        -11    1    3    3    0    0  0.13410826090E+02 -0.10555841895E+02 -0.11891689614E+02  0.20801161906E+02  0.51100000000E-03 0.  1.
        -12    1    3    3    0    0 -0.23218365988E+02  0.39717194318E+01 -0.17694839570E+02  0.29461405632E+02  0.00000000000E+00 0.  1.
</event>
<event>
 7    1  0.5634483E-012  0.5930224E+02  0.7816164E-02  0.1266604E+00
        -11   -1    0    0    0    0  0.00000000000E+00  0.00000000000E+00  0.45593999997E+02  0.45594000000E+02  0.51100000000E-03 0.  1.
         11   -1    0    0    0    0 -0.00000000000E+00 -0.00000000000E+00 -0.45593999997E+02  0.45594000000E+02  0.51100000000E-03 0. -1.
    9900012    2    1    2    0    0 -0.53099058315E+01  0.25815144861E+02 -0.17946716129E+02  0.59302244184E+02  0.50000547410E+02 0.  0.
         12    1    1    2    0    0  0.53099058315E+01 -0.25815144861E+02  0.17946716129E+02  0.31885755816E+02  0.00000000000E+00 0. -1.
         11    1    3    3    0    0  0.10252574083E+02  0.31177783648E+02 -0.16982728359E+02  0.36953789133E+02  0.51100000000E-03 0. -1.
        -11    1    3    3    0    0 -0.86315854881E+01  0.44990323716E+01 -0.28632421349E+01  0.10146118278E+02  0.51100000000E-03 0.  1.
        -12    1    3    3    0    0 -0.69308944265E+01 -0.98616711585E+01  0.18992543652E+01  0.12202336773E+02  0.00000000000E+00 0.  1.
</event>
<event>
 7    1  0.5634483E-012  0.5930194E+02  0.7816164E-02  0.1266605E+00
        -11   -1    0    0    0    0  0.00000000000E+00  0.00000000000E+00  0.45593999997E+02  0.45594000000E+02  0.51100000000E-03 0.  1.
         11   -1    0    0    0    0 -0.00000000000E+00 -0.00000000000E+00 -0.45593999997E+02  0.45594000000E+02  0.51100000000E-03 0. -1.
    9900012    2    1    2    0    0 -0.15270977848E+02  0.26726204511E+02  0.83203427514E+01  0.59301939166E+02  0.49999991133E+02 0.  0.
         12    1    1    2    0    0  0.15270977848E+02 -0.26726204511E+02 -0.83203427514E+01  0.31886060834E+02  0.00000000000E+00 0. -1.
         11    1    3    3    0    0 -0.18044611471E+02  0.37218475651E+01  0.20668805926E+01  0.18540014781E+02  0.51100000000E-03 0. -1.
        -11    1    3    3    0    0  0.64252157466E+01  0.80284972974E+01  0.18439048343E+02  0.21112524015E+02  0.51100000000E-03 0.  1.
         12    1    3    3    0    0 -0.36515821235E+01  0.14975859649E+02 -0.12185586184E+02  0.19649400369E+02  0.00000000000E+00 0. -1.
</event>
<event>
 7    1  0.5634483E-012  0.5930195E+02  0.7816164E-02  0.1266605E+00
        -11   -1    0    0    0    0  0.00000000000E+00  0.00000000000E+00  0.45593999997E+02  0.45594000000E+02  0.51100000000E-03 0.  1.
         11   -1    0    0    0    0 -0.00000000000E+00 -0.00000000000E+00 -0.45593999997E+02  0.45594000000E+02  0.51100000000E-03 0. -1.
    9900012    2    1    2    0    0  0.71421779847E+01  0.16425242996E+02  0.26380310567E+02  0.59301951335E+02  0.50000013326E+02 0.  0.
         12    1    1    2    0    0 -0.71421779847E+01 -0.16425242996E+02 -0.26380310567E+02  0.31886048665E+02  0.00000000000E+00 0. -1.
         11    1    3    3    0    0 -0.45805202005E+01 -0.74755989604E+01 -0.12505435434E+01  0.88560490366E+01  0.51100000000E-03 0. -1.
        -11    1    3    3    0    0  0.61229876445E+01 -0.77856169083E+01  0.49089644426E+01  0.11054625299E+02  0.51100000000E-03 0.  1.
        -12    1    3    3    0    0  0.55997105407E+01  0.31686458865E+02  0.22721889668E+02  0.39391276999E+02  0.00000000000E+00 0.  1.
</event>
<event>
 7    1  0.5634483E-012  0.5930195E+02  0.7816164E-02  0.1266605E+00
        -11   -1    0    0    0    0  0.00000000000E+00  0.00000000000E+00  0.45593999997E+02  0.45594000000E+02  0.51100000000E-03 0.  1.
         11   -1    0    0    0    0 -0.00000000000E+00 -0.00000000000E+00 -0.45593999997E+02  0.45594000000E+02  0.51100000000E-03 0. -1.
    9900012    2    1    2    0    0  0.19541973457E+02  0.17677722877E+02  0.17953531600E+02  0.59301954312E+02  0.50000018755E+02 0.  0.
         12    1    1    2    0    0 -0.19541973457E+02 -0.17677722877E+02 -0.17953531600E+02  0.31886045688E+02  0.00000000000E+00 0. -1.
         11    1    3    3    0    0 -0.75606926227E+01  0.15317892220E+02 -0.10705978489E+01  0.17115725956E+02  0.51100000000E-03 0. -1.
        -11    1    3    3    0    0  0.16743468545E+02  0.12077854061E+02  0.18887867432E+02  0.27981598132E+02  0.51100000000E-03 0.  1.
         12    1    3    3    0    0  0.10359197535E+02 -0.97180234036E+01  0.13626201685E+00  0.14204630223E+02  0.00000000000E+00 0. -1.
</event>
<event>
 7    1  0.5650322E-012  0.5930193E+02  0.7816164E-02  0.1266605E+00
        -11   -1    0    0    0    0  0.00000000000E+00  0.00000000000E+00  0.45593999997E+02  0.45594000000E+02  0.51100000000E-03 0. -1.
         11   -1    0    0    0    0 -0.00000000000E+00 -0.00000000000E+00 -0.45593999997E+02  0.45594000000E+02  0.51100000000E-03 0.  1.
    9900012    2    1    2    0    0 -0.36717835640E+01  0.11752265109E+02 -0.29412987749E+02  0.59301928149E+02  0.49999971042E+02 0.  0.
         12    1    1    2    0    0  0.36717835640E+01 -0.11752265109E+02  0.29412987749E+02  0.31886071851E+02  0.00000000000E+00 0. -1.
         11    1    3    3    0    0  0.11266575702E+02  0.64877826789E+01 -0.10686765123E+02  0.16829557368E+02  0.51100000000E-03 0. -1.
        -11    1    3    3    0    0 -0.20689816813E+02  0.41627257518E+01 -0.25772100332E+02  0.33310628352E+02  0.51100000000E-03 0.  1.
         12    1    3    3    0    0  0.57514575474E+01  0.11017566780E+01  0.70458777059E+01  0.91617424294E+01  0.00000000000E+00 0. -1.
</event>
<event>
 7    1  0.5634483E-012  0.5930193E+02  0.7816164E-02  0.1266605E+00
        -11   -1    0    0    0    0  0.00000000000E+00  0.00000000000E+00  0.45593999997E+02  0.45594000000E+02  0.51100000000E-03 0. -1.
         11   -1    0    0    0    0 -0.00000000000E+00 -0.00000000000E+00 -0.45593999997E+02  0.45594000000E+02  0.51100000000E-03 0.  1.
    9900012    2    1    2    0    0  0.22773452600E+02 -0.54856282295E+01 -0.21633284625E+02  0.59301933073E+02  0.49999980021E+02 0.  0.
         12    1    1    2    0    0 -0.22773452600E+02  0.54856282295E+01  0.21633284625E+02  0.31886066927E+02  0.00000000000E+00 0. -1.
         11    1    3    3    0    0 -0.85585417796E+01 -0.85797976280E+01 -0.10168834541E+02  0.15819821773E+02  0.51100000000E-03 0. -1.
        -11    1    3    3    0    0  0.66766669607E+01 -0.30204951489E+01 -0.16073431946E+02  0.17665120646E+02  0.51100000000E-03 0.  1.
        -12    1    3    3    0    0  0.24655327419E+02  0.61146645474E+01  0.46089818620E+01  0.25816990654E+02  0.00000000000E+00 0.  1.
</event>
<event>
 7    1  0.5634483E-012  0.5930186E+02  0.7816164E-02  0.1266605E+00
        -11   -1    0    0    0    0  0.00000000000E+00  0.00000000000E+00  0.45593999997E+02  0.45594000000E+02  0.51100000000E-03 0.  1.
         11   -1    0    0    0    0 -0.00000000000E+00 -0.00000000000E+00 -0.45593999997E+02  0.45594000000E+02  0.51100000000E-03 0. -1.
    9900012    2    1    2    0    0 -0.20136165194E+02 -0.23259833357E+01  0.24614032028E+02  0.59301860066E+02  0.49999846874E+02 0.  0.
         12    1    1    2    0    0  0.20136165194E+02  0.23259833357E+01 -0.24614032028E+02  0.31886139934E+02  0.00000000000E+00 0. -1.
         11    1    3    3    0    0 -0.21361596473E+02 -0.43118082283E+01  0.23263859648E+02  0.31876584824E+02  0.51100000000E-03 0. -1.
        -11    1    3    3    0    0 -0.67672333326E+01 -0.82669635671E+01  0.74906774262E+01  0.13047926355E+02  0.51100000000E-03 0.  1.
         12    1    3    3    0    0  0.79926646112E+01  0.10252788460E+02 -0.61405050463E+01  0.14377348887E+02  0.00000000000E+00 0. -1.
</event>
<event>
 7    1  0.5634483E-012  0.5930195E+02  0.7816164E-02  0.1266605E+00
        -11   -1    0    0    0    0  0.00000000000E+00  0.00000000000E+00  0.45593999997E+02  0.45594000000E+02  0.51100000000E-03 0. -1.
         11   -1    0    0    0    0 -0.00000000000E+00 -0.00000000000E+00 -0.45593999997E+02  0.45594000000E+02  0.51100000000E-03 0.  1.
    9900012    2    1    2    0    0 -0.16531351772E+02 -0.13409314494E+02 -0.23740789308E+02  0.59301946880E+02  0.50000005202E+02 0.  0.
         12    1    1    2    0    0  0.16531351772E+02  0.13409314494E+02  0.23740789308E+02  0.31886053120E+02  0.00000000000E+00 0. -1.
         11    1    3    3    0    0  0.96672482019E+01  0.87024038172E+01  0.75551960510E+00  0.13029133898E+02  0.51100000000E-03 0. -1.
        -11    1    3    3    0    0 -0.94490040036E+00  0.15735218230E+01 -0.74658346901E+01  0.76881399295E+01  0.51100000000E-03 0.  1.
        -12    1    3    3    0    0 -0.25253699573E+02 -0.23685240134E+02 -0.17030474223E+02  0.38584673053E+02  0.00000000000E+00 0.  1.
</event>
<event>
 7    1  0.5634483E-012  0.5930180E+02  0.7816164E-02  0.1266605E+00
        -11   -1    0    0    0    0  0.00000000000E+00  0.00000000000E+00  0.45593999997E+02  0.45594000000E+02  0.51100000000E-03 0. -1.
         11   -1    0    0    0    0 -0.00000000000E+00 -0.00000000000E+00 -0.45593999997E+02  0.45594000000E+02  0.51100000000E-03 0.  1.
    9900012    2    1    2    0    0 -0.17257688700E+02 -0.26798103390E+02 -0.87382392208E+00  0.59301800277E+02  0.49999737832E+02 0.  0.
         12    1    1    2    0    0  0.17257688700E+02  0.26798103390E+02  0.87382392208E+00  0.31886199723E+02  0.00000000000E+00 0. -1.
         11    1    3    3    0    0  0.14511290476E+02 -0.15469878151E+02  0.59517680853E+01  0.22029939285E+02  0.51100000000E-03 0.  1.
        -11    1    3    3    0    0 -0.13186277298E+02 -0.34413713804E+00  0.30422538924E+01  0.13537047254E+02  0.51100000000E-03 0. -1.
        -12    1    3    3    0    0 -0.18582701878E+02 -0.10984088100E+02 -0.98678458998E+01  0.23734813738E+02  0.00000000000E+00 0.  1.
</event>
<event>
 7    1  0.5634483E-012  0.5930195E+02  0.7816164E-02  0.1266605E+00
        -11   -1    0    0    0    0  0.00000000000E+00  0.00000000000E+00  0.45593999997E+02  0.45594000000E+02  0.51100000000E-03 0.  1.
         11   -1    0    0    0    0 -0.00000000000E+00 -0.00000000000E+00 -0.45593999997E+02  0.45594000000E+02  0.51100000000E-03 0. -1.
    9900012    2    1    2    0    0 -0.30876865949E+02  0.48412410952E+01  0.63167684242E+01  0.59301952432E+02  0.50000015328E+02 0.  0.
         12    1    1    2    0    0  0.30876865949E+02 -0.48412410952E+01 -0.63167684242E+01  0.31886047568E+02  0.00000000000E+00 0. -1.
         11    1    3    3    0    0  0.57815935972E+01  0.87299634726E+01  0.17135783255E+01  0.10610157289E+02  0.51100000000E-03 0. -1.
        -11    1    3    3    0    0 -0.16397136383E+02 -0.77520634698E+01  0.16805611309E+02  0.24726284423E+02  0.51100000000E-03 0.  1.
         12    1    3    3    0    0 -0.20261323163E+02  0.38633410924E+01 -0.12202421210E+02  0.23965510721E+02  0.00000000000E+00 0. -1.
</event>
<event>
 7    1  0.5634483E-012  0.5930192E+02  0.7816164E-02  0.1266605E+00
        -11   -1    0    0    0    0  0.00000000000E+00  0.00000000000E+00  0.45593999997E+02  0.45594000000E+02  0.51100000000E-03 0.  1.
         11   -1    0    0    0    0 -0.00000000000E+00 -0.00000000000E+00 -0.45593999997E+02  0.45594000000E+02  0.51100000000E-03 0. -1.
    9900012    2    1    2    0    0 -0.24718156059E+01  0.29768478311E+02 -0.11155709397E+02  0.59301921133E+02  0.49999958246E+02 0.  0.
         12    1    1    2    0    0  0.24718156059E+01 -0.29768478311E+02  0.11155709397E+02  0.31886078867E+02  0.00000000000E+00 0. -1.
         11    1    3    3    0    0  0.64353566131E+01  0.14684880565E+01 -0.38963841272E+01  0.76649906352E+01  0.51100000000E-03 0. -1.
        -11    1    3    3    0    0  0.49043898235E+01  0.29035312972E+02  0.85195169999E+01  0.30654275544E+02  0.51100000000E-03 0.  1.
        -12    1    3    3    0    0 -0.13811562043E+02 -0.73532271770E+00 -0.15778842270E+02  0.20982654954E+02  0.00000000000E+00 0.  1.
</event>
<event>
 7    1  0.5634483E-012  0.5930186E+02  0.7816164E-02  0.1266605E+00
        -11   -1    0    0    0    0  0.00000000000E+00  0.00000000000E+00  0.45593999997E+02  0.45594000000E+02  0.51100000000E-03 0.  1.
         11   -1    0    0    0    0 -0.00000000000E+00 -0.00000000000E+00 -0.45593999997E+02  0.45594000000E+02  0.51100000000E-03 0. -1.
    9900012    2    1    2    0    0 -0.11072166801E+02 -0.38736516510E+01  0.29650092073E+02  0.59301858579E+02  0.49999844162E+02 0.  0.
         12    1    1    2    0    0  0.11072166801E+02  0.38736516510E+01 -0.29650092073E+02  0.31886141421E+02  0.00000000000E+00 0. -1.
         11    1    3    3    0    0 -0.20765150461E+01  0.15495375204E+02  0.21381176780E+02  0.26487228775E+02  0.51100000000E-03 0. -1.
        -11    1    3    3    0    0 -0.32067424022E+01 -0.14951969149E+02  0.16042595966E+02  0.22163245788E+02  0.51100000000E-03 0.  1.
        -12    1    3    3    0    0 -0.57889093528E+01 -0.44170577055E+01 -0.77736806723E+01  0.10651384016E+02  0.00000000000E+00 0.  1.
</event>
<event>
 7    1  0.5634483E-012  0.5930196E+02  0.7816164E-02  0.1266605E+00
        -11   -1    0    0    0    0  0.00000000000E+00  0.00000000000E+00  0.45593999997E+02  0.45594000000E+02  0.51100000000E-03 0. -1.
         11   -1    0    0    0    0 -0.00000000000E+00 -0.00000000000E+00 -0.45593999997E+02  0.45594000000E+02  0.51100000000E-03 0.  1.
    9900012    2    1    2    0    0 -0.28150239955E+02  0.99845038815E+01  0.11162130308E+02  0.59301961044E+02  0.50000031034E+02 0.  0.
         12    1    1    2    0    0  0.28150239955E+02 -0.99845038815E+01 -0.11162130308E+02  0.31886038956E+02  0.00000000000E+00 0. -1.
         11    1    3    3    0    0 -0.95835636162E+01 -0.13785228317E+02  0.49648953576E+00  0.16796538734E+02  0.51100000000E-03 0. -1.
        -11    1    3    3    0    0 -0.17781164357E+02  0.48003244007E+01 -0.35889231961E+01  0.18764149067E+02  0.51100000000E-03 0.  1.
        -12    1    3    3    0    0 -0.78551198148E+00  0.18969407798E+02  0.14254563968E+02  0.23741273243E+02  0.00000000000E+00 0.  1.
</event>
<event>
 7    1  0.5634483E-012  0.5930189E+02  0.7816164E-02  0.1266605E+00
        -11   -1    0    0    0    0  0.00000000000E+00  0.00000000000E+00  0.45593999997E+02  0.45594000000E+02  0.51100000000E-03 0.  1.
         11   -1    0    0    0    0 -0.00000000000E+00 -0.00000000000E+00 -0.45593999997E+02  0.45594000000E+02  0.51100000000E-03 0. -1.
    9900012    2    1    2    0    0 -0.17556365304E+02  0.20969671623E+01  0.26534895912E+02  0.59301891190E+02  0.49999903636E+02 0.  0.
         12    1    1    2    0    0  0.17556365304E+02 -0.20969671623E+01 -0.26534895912E+02  0.31886108810E+02  0.00000000000E+00 0. -1.
         11    1    3    3    0    0 -0.61324003500E+01 -0.66592382981E+01  0.73237982963E+01  0.11644303780E+02  0.51100000000E-03 0. -1.
        -11    1    3    3    0    0 -0.26026986325E+02 -0.64770677650E+00  0.13793674565E+02  0.29463350107E+02  0.51100000000E-03 0.  1.
         12    1    3    3    0    0  0.14603021372E+02  0.94039122369E+01  0.54174230513E+01  0.18194237304E+02  0.00000000000E+00 0. -1.
</event>
<event>
 7    1  0.5634483E-012  0.5930197E+02  0.7816164E-02  0.1266605E+00
        -11   -1    0    0    0    0  0.00000000000E+00  0.00000000000E+00  0.45593999997E+02  0.45594000000E+02  0.51100000000E-03 0. -1.
         11   -1    0    0    0    0 -0.00000000000E+00 -0.00000000000E+00 -0.45593999997E+02  0.45594000000E+02  0.51100000000E-03 0.  1.
    9900012    2    1    2    0    0 -0.13695967776E+00 -0.30362466871E+02 -0.97375832161E+01  0.59301973604E+02  0.50000053939E+02 0.  0.
         12    1    1    2    0    0  0.13695967776E+00  0.30362466871E+02  0.97375832161E+01  0.31886026396E+02  0.00000000000E+00 0. -1.
         11    1    3    3    0    0  0.68422398405E+01 -0.19477377533E+00 -0.10621819415E+02  0.12636345627E+02  0.51100000000E-03 0. -1.
        -11    1    3    3    0    0 -0.12935776022E+01  0.48532723473E+01  0.89662880118E+01  0.10277252379E+02  0.51100000000E-03 0.  1.
         12    1    3    3    0    0 -0.56856219161E+01 -0.35020965443E+02 -0.80820518132E+01  0.36388375598E+02  0.00000000000E+00 0. -1.
</event>
<event>
 7    1  0.5634483E-012  0.5930196E+02  0.7816164E-02  0.1266605E+00
        -11   -1    0    0    0    0  0.00000000000E+00  0.00000000000E+00  0.45593999997E+02  0.45594000000E+02  0.51100000000E-03 0. -1.
         11   -1    0    0    0    0 -0.00000000000E+00 -0.00000000000E+00 -0.45593999997E+02  0.45594000000E+02  0.51100000000E-03 0.  1.
    9900012    2    1    2    0    0 -0.49319410572E+01 -0.92715583920E+01 -0.30107033814E+02  0.59301963516E+02  0.50000035541E+02 0.  0.
         12    1    1    2    0    0  0.49319410572E+01  0.92715583920E+01  0.30107033814E+02  0.31886036484E+02  0.00000000000E+00 0. -1.
         11    1    3    3    0    0  0.15647922395E+02 -0.12279657572E+02 -0.25555570364E+02  0.32384172713E+02  0.51100000000E-03 0. -1.
        -11    1    3    3    0    0  0.79600690785E+00  0.47854542805E+01 -0.22418666383E+01  0.53441712129E+01  0.51100000000E-03 0.  1.
        -12    1    3    3    0    0 -0.21375870360E+02 -0.17773551005E+01 -0.23095968112E+01  0.21573619590E+02  0.00000000000E+00 0.  1.
</event>
<event>
 7    1  0.5634483E-012  0.5930194E+02  0.7816164E-02  0.1266605E+00
        -11   -1    0    0    0    0  0.00000000000E+00  0.00000000000E+00  0.45593999997E+02  0.45594000000E+02  0.51100000000E-03 0.  1.
         11   -1    0    0    0    0 -0.00000000000E+00 -0.00000000000E+00 -0.45593999997E+02  0.45594000000E+02  0.51100000000E-03 0. -1.
    9900012    2    1    2    0    0  0.30101923847E+01 -0.31543102408E+02 -0.35626443806E+01  0.59301937172E+02  0.49999987497E+02 0.  0.
         12    1    1    2    0    0 -0.30101923847E+01  0.31543102408E+02  0.35626443806E+01  0.31886062828E+02  0.00000000000E+00 0. -1.
         11    1    3    3    0    0 -0.14724669085E+01 -0.14449970283E+01  0.73110808776E+01  0.75965833813E+01  0.51100000000E-03 0. -1.
        -11    1    3    3    0    0  0.15689563853E+02 -0.13310184892E+02  0.98195012416E+01  0.22797939395E+02  0.51100000000E-03 0.  1.
        -12    1    3    3    0    0 -0.11206904560E+02 -0.16787920487E+02 -0.20693226500E+02  0.28907414396E+02  0.00000000000E+00 0.  1.
</event>
<event>
 7    1  0.5634483E-012  0.5930191E+02  0.7816164E-02  0.1266605E+00
        -11   -1    0    0    0    0  0.00000000000E+00  0.00000000000E+00  0.45593999997E+02  0.45594000000E+02  0.51100000000E-03 0.  1.
         11   -1    0    0    0    0 -0.00000000000E+00 -0.00000000000E+00 -0.45593999997E+02  0.45594000000E+02  0.51100000000E-03 0. -1.
    9900012    2    1    2    0    0 -0.10574271019E+01  0.23907472235E+02  0.21072187481E+02  0.59301914226E+02  0.49999945649E+02 0.  0.
         12    1    1    2    0    0  0.10574271019E+01 -0.23907472235E+02 -0.21072187481E+02  0.31886085774E+02  0.00000000000E+00 0. -1.
         11    1    3    3    0    0  0.11714732782E+01  0.56603658504E+01  0.88085769712E+01  0.10535801807E+02  0.51100000000E-03 0. -1.
        -11    1    3    3    0    0 -0.14851749679E+02  0.24960544142E+02  0.17061710068E+02  0.33685385304E+02  0.51100000000E-03 0.  1.
         12    1    3    3    0    0  0.12622849299E+02 -0.67134377573E+01 -0.47980995585E+01  0.15080727115E+02  0.00000000000E+00 0. -1.
</event>
<event>
 7    1  0.5634483E-012  0.5930194E+02  0.7816164E-02  0.1266605E+00
        -11   -1    0    0    0    0  0.00000000000E+00  0.00000000000E+00  0.45593999997E+02  0.45594000000E+02  0.51100000000E-03 0. -1.
         11   -1    0    0    0    0 -0.00000000000E+00 -0.00000000000E+00 -0.45593999997E+02  0.45594000000E+02  0.51100000000E-03 0.  1.
    9900012    2    1    2    0    0  0.11771844125E+02 -0.68289149975E+01 -0.28835925271E+02  0.59301937522E+02  0.49999988135E+02 0.  0.
         12    1    1    2    0    0 -0.11771844125E+02  0.68289149975E+01  0.28835925271E+02  0.31886062478E+02  0.00000000000E+00 0. -1.
         11    1    3    3    0    0 -0.15140813021E+02 -0.47735374016E+01  0.30643566551E+01  0.16168523750E+02  0.51100000000E-03 0. -1.
        -11    1    3    3    0    0  0.14630065358E+02 -0.30111103713E+01 -0.99034990734E+01  0.17921631962E+02  0.51100000000E-03 0.  1.
        -12    1    3    3    0    0  0.12282591789E+02  0.95573277535E+00 -0.21996782852E+02  0.25211781810E+02  0.00000000000E+00 0.  1.
</event>
<event>
 7    1  0.5634483E-012  0.5930194E+02  0.7816164E-02  0.1266605E+00
        -11   -1    0    0    0    0  0.00000000000E+00  0.00000000000E+00  0.45593999997E+02  0.45594000000E+02  0.51100000000E-03 0.  1.
         11   -1    0    0    0    0 -0.00000000000E+00 -0.00000000000E+00 -0.45593999997E+02  0.45594000000E+02  0.51100000000E-03 0. -1.
    9900012    2    1    2    0    0 -0.45132204117E+01 -0.75900219463E+01  0.30638919493E+02  0.59301937538E+02  0.49999988164E+02 0.  0.
         12    1    1    2    0    0  0.45132204117E+01  0.75900219463E+01 -0.30638919493E+02  0.31886062462E+02  0.00000000000E+00 0. -1.
         11    1    3    3    0    0  0.70657652763E+01  0.62257584247E+01  0.13549041374E+02  0.16500352400E+02  0.51100000000E-03 0.  1.
        -11    1    3    3    0    0 -0.96319251319E+01  0.67118964537E+01 -0.48415891982E+01  0.12698996889E+02  0.51100000000E-03 0. -1.
         12    1    3    3    0    0 -0.19470605562E+01 -0.20527676825E+02  0.21931467317E+02  0.30102588249E+02  0.00000000000E+00 0. -1.
</event>
<event>
 7    1  0.5634483E-012  0.5930195E+02  0.7816164E-02  0.1266605E+00
        -11   -1    0    0    0    0  0.00000000000E+00  0.00000000000E+00  0.45593999997E+02  0.45594000000E+02  0.51100000000E-03 0.  1.
         11   -1    0    0    0    0 -0.00000000000E+00 -0.00000000000E+00 -0.45593999997E+02  0.45594000000E+02  0.51100000000E-03 0. -1.
    9900012    2    1    2    0    0  0.24220700922E+02  0.12985128100E+02  0.16169852369E+02  0.59301952415E+02  0.50000015297E+02 0.  0.
         12    1    1    2    0    0 -0.24220700922E+02 -0.12985128100E+02 -0.16169852369E+02  0.31886047585E+02  0.00000000000E+00 0. -1.
         11    1    3    3    0    0 -0.47359270261E+01  0.75254832989E+00 -0.10943794174E+01  0.49186380590E+01  0.51100000000E-03 0. -1.
        -11    1    3    3    0    0 -0.22503700876E+00 -0.96103166816E+01  0.15058882950E+02  0.17865575399E+02  0.51100000000E-03 0.  1.
        -12    1    3    3    0    0  0.29181664957E+02  0.21842896451E+02  0.22053488369E+01  0.36517738957E+02  0.00000000000E+00 0.  1.
</event>
<event>
 7    1  0.5634483E-012  0.5930194E+02  0.7816164E-02  0.1266605E+00
        -11   -1    0    0    0    0  0.00000000000E+00  0.00000000000E+00  0.45593999997E+02  0.45594000000E+02  0.51100000000E-03 0.  1.
         11   -1    0    0    0    0 -0.00000000000E+00 -0.00000000000E+00 -0.45593999997E+02  0.45594000000E+02  0.51100000000E-03 0. -1.
    9900012    2    1    2    0    0  0.28216894077E+02 -0.92901918990E+01  0.11585348630E+02  0.59301935963E+02  0.49999985292E+02 0.  0.
         12    1    1    2    0    0 -0.28216894077E+02  0.92901918990E+01 -0.11585348630E+02  0.31886064037E+02  0.00000000000E+00 0. -1.
         11    1    3    3    0    0  0.32249029527E+02 -0.12292142385E+02  0.11577329466E+02  0.36402351953E+02  0.51100000000E-03 0.  1.
        -11    1    3    3    0    0  0.58221480312E+01  0.94442678098E+01  0.60518699752E+00  0.11111158973E+02  0.51100000000E-03 0. -1.
        -12    1    3    3    0    0 -0.98542834815E+01 -0.64423173239E+01 -0.59716783309E+00  0.11788425037E+02  0.00000000000E+00 0.  1.
</event>
<event>
 7    1  0.5634483E-012  0.5930195E+02  0.7816164E-02  0.1266605E+00
        -11   -1    0    0    0    0  0.00000000000E+00  0.00000000000E+00  0.45593999997E+02  0.45594000000E+02  0.51100000000E-03 0.  1.
         11   -1    0    0    0    0 -0.00000000000E+00 -0.00000000000E+00 -0.45593999997E+02  0.45594000000E+02  0.51100000000E-03 0. -1.
    9900012    2    1    2    0    0 -0.49656783274E+01 -0.17399886132E+02  0.26254642381E+02  0.59301949050E+02  0.50000009159E+02 0.  0.
         12    1    1    2    0    0  0.49656783274E+01  0.17399886132E+02 -0.26254642381E+02  0.31886050950E+02  0.00000000000E+00 0. -1.
         11    1    3    3    0    0 -0.13359524442E+02 -0.11802235170E+02 -0.49286702233E+01  0.18494903048E+02  0.51100000000E-03 0. -1.
        -11    1    3    3    0    0 -0.69330127502E+01  0.12575324246E+01  0.23250343368E+01  0.74198273916E+01  0.51100000000E-03 0.  1.
        -12    1    3    3    0    0  0.15326858865E+02 -0.68551833868E+01  0.28858278267E+02  0.33387218610E+02  0.00000000000E+00 0.  1.
</event>
<event>
 7    1  0.5634483E-012  0.5930194E+02  0.7816164E-02  0.1266605E+00
        -11   -1    0    0    0    0  0.00000000000E+00  0.00000000000E+00  0.45593999997E+02  0.45594000000E+02  0.51100000000E-03 0.  1.
         11   -1    0    0    0    0 -0.00000000000E+00 -0.00000000000E+00 -0.45593999997E+02  0.45594000000E+02  0.51100000000E-03 0. -1.
    9900012    2    1    2    0    0 -0.31995069666E+01  0.23807110272E+02  0.20969149832E+02  0.59301943658E+02  0.49999999327E+02 0.  0.
         12    1    1    2    0    0  0.31995069666E+01 -0.23807110272E+02 -0.20969149832E+02  0.31886056342E+02  0.00000000000E+00 0. -1.
         11    1    3    3    0    0 -0.49660548832E+01 -0.29855201471E+01 -0.85546438652E+01  0.10332326145E+02  0.51100000000E-03 0. -1.
        -11    1    3    3    0    0  0.67425967662E+01  0.23272488967E+02  0.64064355449E+01  0.25062198039E+02  0.51100000000E-03 0.  1.
        -12    1    3    3    0    0 -0.49760488496E+01  0.35201414523E+01  0.23117358152E+02  0.23907419475E+02  0.00000000000E+00 0.  1.
</event>
<event>
 7    1  0.5634483E-012  0.5930194E+02  0.7816164E-02  0.1266605E+00
        -11   -1    0    0    0    0  0.00000000000E+00  0.00000000000E+00  0.45593999997E+02  0.45594000000E+02  0.51100000000E-03 0.  1.
         11   -1    0    0    0    0 -0.00000000000E+00 -0.00000000000E+00 -0.45593999997E+02  0.45594000000E+02  0.51100000000E-03 0. -1.
    9900012    2    1    2    0    0 -0.21473102450E+01 -0.16633221631E+01  0.31770167425E+02  0.59301935331E+02  0.49999984139E+02 0.  0.
         12    1    1    2    0    0  0.21473102450E+01  0.16633221631E+01 -0.31770167425E+02  0.31886064669E+02  0.00000000000E+00 0. -1.
         11    1    3    3    0    0  0.60500120071E+01 -0.75187255890E+01  0.17081407063E+01  0.98005930791E+01  0.51100000000E-03 0. -1.
        -11    1    3    3    0    0  0.14991671986E+02 -0.12875402589E+01  0.12206801074E+02  0.19375602741E+02  0.51100000000E-03 0.  1.
        -12    1    3    3    0    0 -0.23188994238E+02  0.71429436848E+01  0.17855225645E+02  0.30125739511E+02  0.00000000000E+00 0.  1.
</event>
<event>
 7    1  0.5634483E-012  0.5930196E+02  0.7816164E-02  0.1266605E+00
        -11   -1    0    0    0    0  0.00000000000E+00  0.00000000000E+00  0.45593999997E+02  0.45594000000E+02  0.51100000000E-03 0. -1.
         11   -1    0    0    0    0 -0.00000000000E+00 -0.00000000000E+00 -0.45593999997E+02  0.45594000000E+02  0.51100000000E-03 0.  1.
    9900012    2    1    2    0    0  0.27526710597E+02 -0.11115632296E+02  0.11637965564E+02  0.59301963556E+02  0.50000035614E+02 0.  0.
         12    1    1    2    0    0 -0.27526710597E+02  0.11115632296E+02 -0.11637965564E+02  0.31886036444E+02  0.00000000000E+00 0. -1.
         11    1    3    3    0    0  0.22319714286E+02 -0.75932212201E+01  0.21783182184E+02  0.32098811202E+02  0.51100000000E-03 0. -1.
        -11    1    3    3    0    0  0.14054390693E+02  0.28457956610E+01 -0.57784197644E+01  0.15460096569E+02  0.51100000000E-03 0.  1.
         12    1    3    3    0    0 -0.88473943810E+01 -0.63682067371E+01 -0.43667968549E+01  0.11743055784E+02  0.00000000000E+00 0. -1.
</event>
<event>
 7    1  0.5634483E-012  0.5930192E+02  0.7816164E-02  0.1266605E+00
        -11   -1    0    0    0    0  0.00000000000E+00  0.00000000000E+00  0.45593999997E+02  0.45594000000E+02  0.51100000000E-03 0.  1.
         11   -1    0    0    0    0 -0.00000000000E+00 -0.00000000000E+00 -0.45593999997E+02  0.45594000000E+02  0.51100000000E-03 0. -1.
    9900012    2    1    2    0    0 -0.10462540477E+02  0.27458768465E+01  0.29995287495E+02  0.59301923653E+02  0.49999962841E+02 0.  0.
         12    1    1    2    0    0  0.10462540477E+02 -0.27458768465E+01 -0.29995287495E+02  0.31886076347E+02  0.00000000000E+00 0. -1.
         11    1    3    3    0    0 -0.87319580677E+01  0.82882671811E+01  0.31060098494E+01  0.12433413128E+02  0.51100000000E-03 0. -1.
        -11    1    3    3    0    0 -0.12022282073E+02 -0.18228511923E+02  0.17816993211E+02  0.28182603863E+02  0.51100000000E-03 0.  1.
         12    1    3    3    0    0  0.10291699664E+02  0.12686121588E+02  0.90722844350E+01  0.18685906662E+02  0.00000000000E+00 0. -1.
</event>
<event>
 7    1  0.5634483E-012  0.5930193E+02  0.7816164E-02  0.1266605E+00
        -11   -1    0    0    0    0  0.00000000000E+00  0.00000000000E+00  0.45593999997E+02  0.45594000000E+02  0.51100000000E-03 0.  1.
         11   -1    0    0    0    0 -0.00000000000E+00 -0.00000000000E+00 -0.45593999997E+02  0.45594000000E+02  0.51100000000E-03 0. -1.
    9900012    2    1    2    0    0  0.82709235040E+01  0.30322212873E+02  0.53736806420E+01  0.59301933878E+02  0.49999981489E+02 0.  0.
         12    1    1    2    0    0 -0.82709235040E+01 -0.30322212873E+02 -0.53736806420E+01  0.31886066122E+02  0.00000000000E+00 0. -1.
         11    1    3    3    0    0  0.14725866648E+02  0.17785798201E+02  0.99467662015E+01  0.25142074781E+02  0.51100000000E-03 0.  1.
        -11    1    3    3    0    0  0.95167437978E+01  0.10582571921E+02 -0.97558540658E+01  0.17255026218E+02  0.51100000000E-03 0. -1.
        -12    1    3    3    0    0 -0.15971686941E+02  0.19538427505E+01  0.51827685063E+01  0.16904832878E+02  0.00000000000E+00 0.  1.
</event>
<event>
 7    1  0.5634483E-012  0.5930194E+02  0.7816164E-02  0.1266605E+00
        -11   -1    0    0    0    0  0.00000000000E+00  0.00000000000E+00  0.45593999997E+02  0.45594000000E+02  0.51100000000E-03 0. -1.
         11   -1    0    0    0    0 -0.00000000000E+00 -0.00000000000E+00 -0.45593999997E+02  0.45594000000E+02  0.51100000000E-03 0.  1.
    9900012    2    1    2    0    0 -0.23615003629E+01 -0.31297632279E+02  0.56216216108E+01  0.59301935649E+02  0.49999984720E+02 0.  0.
         12    1    1    2    0    0  0.23615003629E+01  0.31297632279E+02 -0.56216216108E+01  0.31886064351E+02  0.00000000000E+00 0. -1.
         11    1    3    3    0    0  0.56623193087E+01 -0.19851734862E+01 -0.11040423434E+02  0.12565576930E+02  0.51100000000E-03 0. -1.
        -11    1    3    3    0    0 -0.37522455195E+01  0.55117879713E+01 -0.20465057103E+01  0.69747644378E+01  0.51100000000E-03 0.  1.
        -12    1    3    3    0    0 -0.42715741521E+01 -0.34824246764E+02  0.18708550755E+02  0.39761594281E+02  0.00000000000E+00 0.  1.
</event>
<event>
 7    1  0.5634483E-012  0.5930199E+02  0.7816164E-02  0.1266605E+00
        -11   -1    0    0    0    0  0.00000000000E+00  0.00000000000E+00  0.45593999997E+02  0.45594000000E+02  0.51100000000E-03 0.  1.
         11   -1    0    0    0    0 -0.00000000000E+00 -0.00000000000E+00 -0.45593999997E+02  0.45594000000E+02  0.51100000000E-03 0. -1.
    9900012    2    1    2    0    0 -0.10620380491E+02  0.24901786626E+02  0.16847139844E+02  0.59301990845E+02  0.50000085383E+02 0.  0.
         12    1    1    2    0    0  0.10620380491E+02 -0.24901786626E+02 -0.16847139844E+02  0.31886009155E+02  0.00000000000E+00 0. -1.
         11    1    3    3    0    0 -0.16987369408E+02 -0.24231610454E+00 -0.19047167492E+01  0.17095536922E+02  0.51100000000E-03 0. -1.
        -11    1    3    3    0    0 -0.92785548872E+01  0.84327099135E+01 -0.11949587577E+00  0.12538598678E+02  0.51100000000E-03 0.  1.
         12    1    3    3    0    0  0.15645543805E+02  0.16711392817E+02  0.18871352469E+02  0.29667855245E+02  0.00000000000E+00 0. -1.
</event>
<event>
 7    1  0.5634483E-012  0.5930197E+02  0.7816164E-02  0.1266605E+00
        -11   -1    0    0    0    0  0.00000000000E+00  0.00000000000E+00  0.45593999997E+02  0.45594000000E+02  0.51100000000E-03 0. -1.
         11   -1    0    0    0    0 -0.00000000000E+00 -0.00000000000E+00 -0.45593999997E+02  0.45594000000E+02  0.51100000000E-03 0.  1.
    9900012    2    1    2    0    0 -0.16273376304E+02 -0.16825303710E+01 -0.27369050427E+02  0.59301974752E+02  0.50000056034E+02 0.  0.
         12    1    1    2    0    0  0.16273376304E+02  0.16825303710E+01  0.27369050427E+02  0.31886025248E+02  0.00000000000E+00 0. -1.
         11    1    3    3    0    0 -0.19762474288E+02  0.94292347532E+01 -0.84215886266E+00  0.21912897796E+02  0.51100000000E-03 0. -1.
        -11    1    3    3    0    0 -0.63283322110E+01 -0.89944220169E+00 -0.21383361977E+02  0.22318265043E+02  0.51100000000E-03 0.  1.
        -12    1    3    3    0    0  0.98174301947E+01 -0.10212322922E+02 -0.51435295881E+01  0.15070811913E+02  0.00000000000E+00 0.  1.
</event>
<event>
 7    1  0.5634483E-012  0.5930195E+02  0.7816164E-02  0.1266605E+00
        -11   -1    0    0    0    0  0.00000000000E+00  0.00000000000E+00  0.45593999997E+02  0.45594000000E+02  0.51100000000E-03 0. -1.
         11   -1    0    0    0    0 -0.00000000000E+00 -0.00000000000E+00 -0.45593999997E+02  0.45594000000E+02  0.51100000000E-03 0.  1.
    9900012    2    1    2    0    0  0.30440031238E+02  0.93984914813E+01 -0.13391326961E+01  0.59301946305E+02  0.50000004152E+02 0.  0.
         12    1    1    2    0    0 -0.30440031238E+02 -0.93984914813E+01  0.13391326961E+01  0.31886053695E+02  0.00000000000E+00 0. -1.
         11    1    3    3    0    0  0.20480956936E+02 -0.88930732822E+00 -0.13976395416E+02  0.24811289641E+02  0.51100000000E-03 0.  1.
        -11    1    3    3    0    0  0.20142669950E+02  0.58290093854E+01  0.79391910366E+01  0.22421758578E+02  0.51100000000E-03 0. -1.
         12    1    3    3    0    0 -0.10183595649E+02  0.44587894241E+01  0.46980716830E+01  0.12068898086E+02  0.00000000000E+00 0. -1.
</event>
<event>
 7    1  0.5634483E-012  0.5930194E+02  0.7816164E-02  0.1266605E+00
        -11   -1    0    0    0    0  0.00000000000E+00  0.00000000000E+00  0.45593999997E+02  0.45594000000E+02  0.51100000000E-03 0.  1.
         11   -1    0    0    0    0 -0.00000000000E+00 -0.00000000000E+00 -0.45593999997E+02  0.45594000000E+02  0.51100000000E-03 0. -1.
    9900012    2    1    2    0    0  0.17520325673E+02 -0.17788649813E+02  0.19832366041E+02  0.59301943225E+02  0.49999998537E+02 0.  0.
         12    1    1    2    0    0 -0.17520325673E+02  0.17788649813E+02 -0.19832366041E+02  0.31886056775E+02  0.00000000000E+00 0. -1.
         11    1    3    3    0    0  0.11834908019E+02  0.89881617971E+01  0.16085692469E+02  0.21899808282E+02  0.51100000000E-03 0. -1.
        -11    1    3    3    0    0  0.95306321493E+01 -0.41434075971E+01  0.91170373289E+01  0.13824657160E+02  0.51100000000E-03 0.  1.
         12    1    3    3    0    0 -0.38452144953E+01 -0.22633404013E+02 -0.53703637572E+01  0.23577477783E+02  0.00000000000E+00 0. -1.
</event>
<event>
 7    1  0.5634483E-012  0.5930193E+02  0.7816164E-02  0.1266605E+00
        -11   -1    0    0    0    0  0.00000000000E+00  0.00000000000E+00  0.45593999997E+02  0.45594000000E+02  0.51100000000E-03 0.  1.
         11   -1    0    0    0    0 -0.00000000000E+00 -0.00000000000E+00 -0.45593999997E+02  0.45594000000E+02  0.51100000000E-03 0. -1.
    9900012    2    1    2    0    0  0.24943344169E+02  0.14092000010E+02 -0.13998810038E+02  0.59301928353E+02  0.49999971412E+02 0.  0.
         12    1    1    2    0    0 -0.24943344169E+02 -0.14092000010E+02  0.13998810038E+02  0.31886071647E+02  0.00000000000E+00 0. -1.
         11    1    3    3    0    0  0.14156526032E+02  0.68351595828E+01 -0.58734133257E+01  0.16781645336E+02  0.51100000000E-03 0. -1.
        -11    1    3    3    0    0  0.13998907324E+02 -0.64455086819E+01  0.10884520730E+02  0.18867611937E+02  0.51100000000E-03 0.  1.
         12    1    3    3    0    0 -0.32120891871E+01  0.13702349109E+02 -0.19009917442E+02  0.23652671080E+02  0.00000000000E+00 0. -1.
</event>
<event>
 7    1  0.5634483E-012  0.5930193E+02  0.7816164E-02  0.1266605E+00
        -11   -1    0    0    0    0  0.00000000000E+00  0.00000000000E+00  0.45593999997E+02  0.45594000000E+02  0.51100000000E-03 0.  1.
         11   -1    0    0    0    0 -0.00000000000E+00 -0.00000000000E+00 -0.45593999997E+02  0.45594000000E+02  0.51100000000E-03 0. -1.
    9900012    2    1    2    0    0  0.27037264877E+02 -0.52460837543E+01  0.16068178656E+02  0.59301930125E+02  0.49999974644E+02 0.  0.
         12    1    1    2    0    0 -0.27037264877E+02  0.52460837543E+01 -0.16068178656E+02  0.31886069875E+02  0.00000000000E+00 0. -1.
         11    1    3    3    0    0  0.18497085902E+01  0.21645430789E+00 -0.12310035296E+02  0.12450110184E+02  0.51100000000E-03 0. -1.
        -11    1    3    3    0    0  0.13917840033E+02 -0.16167407156E+02  0.12974258658E+02  0.24968434338E+02  0.51100000000E-03 0.  1.
         12    1    3    3    0    0  0.11269716254E+02  0.10704869094E+02  0.15403955293E+02  0.21883385603E+02  0.00000000000E+00 0. -1.
</event>
<event>
 7    1  0.5634483E-012  0.5930195E+02  0.7816164E-02  0.1266605E+00
        -11   -1    0    0    0    0  0.00000000000E+00  0.00000000000E+00  0.45593999997E+02  0.45594000000E+02  0.51100000000E-03 0.  1.
         11   -1    0    0    0    0 -0.00000000000E+00 -0.00000000000E+00 -0.45593999997E+02  0.45594000000E+02  0.51100000000E-03 0. -1.
    9900012    2    1    2    0    0 -0.49413110558E+01 -0.55147263387E+01  0.31014378413E+02  0.59301946154E+02  0.50000003878E+02 0.  0.
         12    1    1    2    0    0  0.49413110558E+01  0.55147263387E+01 -0.31014378413E+02  0.31886053846E+02  0.00000000000E+00 0. -1.
         11    1    3    3    0    0 -0.66286085022E+01 -0.17722975476E+01  0.11298522181E+02  0.13218778045E+02  0.51100000000E-03 0.  1.
        -11    1    3    3    0    0 -0.16117953630E+02 -0.13785272066E+02  0.10227499320E+02  0.23546207714E+02  0.51100000000E-03 0. -1.
         12    1    3    3    0    0  0.17805251076E+02  0.10042843275E+02  0.94883569122E+01  0.22536960394E+02  0.00000000000E+00 0. -1.
</event>
<event>
 7    1  0.5634483E-012  0.5930197E+02  0.7816164E-02  0.1266605E+00
        -11   -1    0    0    0    0  0.00000000000E+00  0.00000000000E+00  0.45593999997E+02  0.45594000000E+02  0.51100000000E-03 0.  1.
         11   -1    0    0    0    0 -0.00000000000E+00 -0.00000000000E+00 -0.45593999997E+02  0.45594000000E+02  0.51100000000E-03 0. -1.
    9900012    2    1    2    0    0 -0.15631717480E+02 -0.86882402636E+01  0.26398532776E+02  0.59301974174E+02  0.50000054980E+02 0.  0.
         12    1    1    2    0    0  0.15631717480E+02  0.86882402636E+01 -0.26398532776E+02  0.31886025826E+02  0.00000000000E+00 0. -1.
         11    1    3    3    0    0 -0.43336018468E+01  0.18866808318E+01  0.23681225393E+01  0.52865559820E+01  0.51100000000E-03 0. -1.
        -11    1    3    3    0    0 -0.11612629355E+01 -0.11983757375E+02  0.36179461534E+02  0.38130203377E+02  0.51100000000E-03 0.  1.
         12    1    3    3    0    0 -0.10136852698E+02  0.14088362792E+01 -0.12149051298E+02  0.15885214815E+02  0.00000000000E+00 0. -1.
</event>
<event>
 7    1  0.5634483E-012  0.5930189E+02  0.7816164E-02  0.1266605E+00
        -11   -1    0    0    0    0  0.00000000000E+00  0.00000000000E+00  0.45593999997E+02  0.45594000000E+02  0.51100000000E-03 0. -1.
         11   -1    0    0    0    0 -0.00000000000E+00 -0.00000000000E+00 -0.45593999997E+02  0.45594000000E+02  0.51100000000E-03 0.  1.
    9900012    2    1    2    0    0 -0.25307757596E+02 -0.18488046681E+02 -0.58679871144E+01  0.59301894290E+02  0.49999909290E+02 0.  0.
         12    1    1    2    0    0  0.25307757596E+02  0.18488046681E+02  0.58679871144E+01  0.31886105710E+02  0.00000000000E+00 0. -1.
         11    1    3    3    0    0 -0.74814076013E+01  0.14737067239E+01  0.83015198337E+01  0.11272023022E+02  0.51100000000E-03 0. -1.
        -11    1    3    3    0    0 -0.11665507461E+02  0.99137882127E+01 -0.60718233287E+01  0.16469192447E+02  0.51100000000E-03 0.  1.
         12    1    3    3    0    0 -0.61608425333E+01 -0.29875541617E+02 -0.80976836194E+01  0.31560678821E+02  0.00000000000E+00 0. -1.
</event>
<event>
 7    1  0.5634483E-012  0.5930187E+02  0.7816164E-02  0.1266605E+00
        -11   -1    0    0    0    0  0.00000000000E+00  0.00000000000E+00  0.45593999997E+02  0.45594000000E+02  0.51100000000E-03 0.  1.
         11   -1    0    0    0    0 -0.00000000000E+00 -0.00000000000E+00 -0.45593999997E+02  0.45594000000E+02  0.51100000000E-03 0. -1.
    9900012    2    1    2    0    0 -0.49911179417E+01 -0.12199487658E+02  0.29034226292E+02  0.59301873647E+02  0.49999871642E+02 0.  0.
         12    1    1    2    0    0  0.49911179417E+01  0.12199487658E+02 -0.29034226292E+02  0.31886126353E+02  0.00000000000E+00 0. -1.
         11    1    3    3    0    0  0.15841191909E+02  0.31151075710E+01  0.46147215554E+01  0.16791155754E+02  0.51100000000E-03 0. -1.
        -11    1    3    3    0    0  0.42693734251E+01 -0.71443929278E+01  0.70855658859E+01  0.10930468605E+02  0.51100000000E-03 0.  1.
        -12    1    3    3    0    0 -0.25101683276E+02 -0.81702023011E+01  0.17333938851E+02  0.31580249287E+02  0.00000000000E+00 0.  1.
</event>
<event>
 7    1  0.5634483E-012  0.5930196E+02  0.7816164E-02  0.1266605E+00
        -11   -1    0    0    0    0  0.00000000000E+00  0.00000000000E+00  0.45593999997E+02  0.45594000000E+02  0.51100000000E-03 0. -1.
         11   -1    0    0    0    0 -0.00000000000E+00 -0.00000000000E+00 -0.45593999997E+02  0.45594000000E+02  0.51100000000E-03 0.  1.
    9900012    2    1    2    0    0 -0.21724203974E+02 -0.15337452662E+02 -0.17593778052E+02  0.59301960443E+02  0.50000029938E+02 0.  0.
         12    1    1    2    0    0  0.21724203974E+02  0.15337452662E+02  0.17593778052E+02  0.31886039557E+02  0.00000000000E+00 0. -1.
         11    1    3    3    0    0 -0.39858819070E+00 -0.41465011669E+01  0.44573656405E+01  0.61008567585E+01  0.51100000000E-03 0. -1.
        -11    1    3    3    0    0 -0.19248725641E+02 -0.26615184754E+02 -0.15358106183E+02  0.36259521841E+02  0.51100000000E-03 0.  1.
        -12    1    3    3    0    0 -0.20768901420E+01  0.15424233259E+02 -0.66930375093E+01  0.16941581844E+02  0.00000000000E+00 0.  1.
</event>
<event>
 7    1  0.5634483E-012  0.5930196E+02  0.7816164E-02  0.1266605E+00
        -11   -1    0    0    0    0  0.00000000000E+00  0.00000000000E+00  0.45593999997E+02  0.45594000000E+02  0.51100000000E-03 0.  1.
         11   -1    0    0    0    0 -0.00000000000E+00 -0.00000000000E+00 -0.45593999997E+02  0.45594000000E+02  0.51100000000E-03 0. -1.
    9900012    2    1    2    0    0  0.17708862222E+02 -0.22074949183E+02  0.14690557091E+02  0.59301958379E+02  0.50000026173E+02 0.  0.
         12    1    1    2    0    0 -0.17708862222E+02  0.22074949183E+02 -0.14690557091E+02  0.31886041621E+02  0.00000000000E+00 0. -1.
         11    1    3    3    0    0 -0.90219229431E+01  0.33825745442E+01  0.95134779966E+01  0.13540427172E+02  0.51100000000E-03 0. -1.
        -11    1    3    3    0    0  0.12302844660E+02  0.21612132969E+01  0.74059749265E+01  0.14521683598E+02  0.51100000000E-03 0.  1.
        -12    1    3    3    0    0  0.14427940505E+02 -0.27618737024E+02 -0.22288958319E+01  0.31239847609E+02  0.00000000000E+00 0.  1.
</event>
<event>
 7    1  0.5634483E-012  0.5930195E+02  0.7816164E-02  0.1266605E+00
        -11   -1    0    0    0    0  0.00000000000E+00  0.00000000000E+00  0.45593999997E+02  0.45594000000E+02  0.51100000000E-03 0.  1.
         11   -1    0    0    0    0 -0.00000000000E+00 -0.00000000000E+00 -0.45593999997E+02  0.45594000000E+02  0.51100000000E-03 0. -1.
    9900012    2    1    2    0    0  0.86993038921E+01 -0.23565496632E+02  0.19639496820E+02  0.59301947327E+02  0.50000006018E+02 0.  0.
         12    1    1    2    0    0 -0.86993038921E+01  0.23565496632E+02 -0.19639496820E+02  0.31886052673E+02  0.00000000000E+00 0. -1.
         11    1    3    3    0    0  0.83392547943E+01 -0.81429153845E+01  0.26631741164E+02  0.29070601631E+02  0.51100000000E-03 0. -1.
        -11    1    3    3    0    0  0.49374568303E+01 -0.17446395220E+02  0.36278967735E+01  0.18490992980E+02  0.51100000000E-03 0.  1.
         12    1    3    3    0    0 -0.45774077325E+01  0.20238139728E+01 -0.10620141118E+02  0.11740352717E+02  0.00000000000E+00 0. -1.
</event>
<event>
 7    1  0.5634483E-012  0.5930192E+02  0.7816164E-02  0.1266605E+00
        -11   -1    0    0    0    0  0.00000000000E+00  0.00000000000E+00  0.45593999997E+02  0.45594000000E+02  0.51100000000E-03 0.  1.
         11   -1    0    0    0    0 -0.00000000000E+00 -0.00000000000E+00 -0.45593999997E+02  0.45594000000E+02  0.51100000000E-03 0. -1.
    9900012    2    1    2    0    0 -0.45476124181E+01  0.22495545537E+02  0.22135758732E+02  0.59301918987E+02  0.49999954332E+02 0.  0.
         12    1    1    2    0    0  0.45476124181E+01 -0.22495545537E+02 -0.22135758732E+02  0.31886081013E+02  0.00000000000E+00 0. -1.
         11    1    3    3    0    0 -0.19300890124E+01 -0.12282195946E+02 -0.55583560087E+00  0.12445341873E+02  0.51100000000E-03 0. -1.
        -11    1    3    3    0    0  0.34038515216E+00 -0.16016076637E+01  0.68928258732E+01  0.70846353427E+01  0.51100000000E-03 0.  1.
        -12    1    3    3    0    0 -0.29579085578E+01  0.36379349147E+02  0.15798768459E+02  0.39771941771E+02  0.00000000000E+00 0.  1.
</event>
<event>
 7    1  0.5634483E-012  0.5930194E+02  0.7816164E-02  0.1266605E+00
        -11   -1    0    0    0    0  0.00000000000E+00  0.00000000000E+00  0.45593999997E+02  0.45594000000E+02  0.51100000000E-03 0. -1.
         11   -1    0    0    0    0 -0.00000000000E+00 -0.00000000000E+00 -0.45593999997E+02  0.45594000000E+02  0.51100000000E-03 0.  1.
    9900012    2    1    2    0    0 -0.11573832065E+01  0.18569775990E+02 -0.25894883717E+02  0.59301935349E+02  0.49999984172E+02 0.  0.
         12    1    1    2    0    0  0.11573832065E+01 -0.18569775990E+02  0.25894883717E+02  0.31886064651E+02  0.00000000000E+00 0. -1.
         11    1    3    3    0    0  0.69445950655E+01 -0.39677952725E+01  0.77317100663E+01  0.11124304057E+02  0.51100000000E-03 0. -1.
        -11    1    3    3    0    0 -0.23866474465E+01  0.20215181739E+02 -0.80864469485E+01  0.21902974302E+02  0.51100000000E-03 0.  1.
         12    1    3    3    0    0 -0.57153308255E+01  0.23223895238E+01 -0.25540146835E+02  0.26274656989E+02  0.00000000000E+00 0. -1.
</event>
<event>
 7    1  0.5634483E-012  0.5930192E+02  0.7816164E-02  0.1266605E+00
        -11   -1    0    0    0    0  0.00000000000E+00  0.00000000000E+00  0.45593999997E+02  0.45594000000E+02  0.51100000000E-03 0.  1.
         11   -1    0    0    0    0 -0.00000000000E+00 -0.00000000000E+00 -0.45593999997E+02  0.45594000000E+02  0.51100000000E-03 0. -1.
    9900012    2    1    2    0    0 -0.23888836853E+01 -0.29307462223E+02  0.12332389072E+02  0.59301922671E+02  0.49999961050E+02 0.  0.
         12    1    1    2    0    0  0.23888836853E+01  0.29307462223E+02 -0.12332389072E+02  0.31886077329E+02  0.00000000000E+00 0. -1.
         11    1    3    3    0    0  0.44684416564E+01 -0.89678827881E+01 -0.90548701091E+01  0.13504834893E+02  0.51100000000E-03 0. -1.
        -11    1    3    3    0    0  0.13163807120E+02 -0.99905762484E+01  0.31914983421E+01  0.16831015822E+02  0.51100000000E-03 0.  1.
         12    1    3    3    0    0 -0.20021132462E+02 -0.10349003187E+02  0.18195760839E+02  0.28966071956E+02  0.00000000000E+00 0. -1.
</event>
<event>
 7    1  0.6169286E-012  0.5930195E+02  0.7816164E-02  0.1266605E+00
        -11   -1    0    0    0    0  0.00000000000E+00  0.00000000000E+00  0.45593999997E+02  0.45594000000E+02  0.51100000000E-03 0. -1.
         11   -1    0    0    0    0 -0.00000000000E+00 -0.00000000000E+00 -0.45593999997E+02  0.45594000000E+02  0.51100000000E-03 0.  1.
    9900012    2    1    2    0    0 -0.15204383888E+02  0.27420407723E+01 -0.27893155455E+02  0.59301949785E+02  0.50000010501E+02 0.  0.
         12    1    1    2    0    0  0.15204383888E+02 -0.27420407723E+01  0.27893155455E+02  0.31886050215E+02  0.00000000000E+00 0. -1.
         11    1    3    3    0    0 -0.35539705843E+01  0.63474422040E+01 -0.15904969979E+02  0.17489676948E+02  0.51100000000E-03 0. -1.
        -11    1    3    3    0    0  0.73605753701E+01  0.76657047590E+01 -0.16140037475E+02  0.19324645125E+02  0.51100000000E-03 0.  1.
         12    1    3    3    0    0 -0.19010988674E+02 -0.11271106191E+02  0.41518519987E+01  0.22487627713E+02  0.00000000000E+00 0. -1.
</event>
<event>
 7    1  0.5634483E-012  0.5930193E+02  0.7816164E-02  0.1266605E+00
        -11   -1    0    0    0    0  0.00000000000E+00  0.00000000000E+00  0.45593999997E+02  0.45594000000E+02  0.51100000000E-03 0.  1.
         11   -1    0    0    0    0 -0.00000000000E+00 -0.00000000000E+00 -0.45593999997E+02  0.45594000000E+02  0.51100000000E-03 0. -1.
    9900012    2    1    2    0    0  0.24229783830E+02  0.63058103788E+01 -0.19745267988E+02  0.59301932871E+02  0.49999979653E+02 0.  0.
         12    1    1    2    0    0 -0.24229783830E+02 -0.63058103788E+01  0.19745267988E+02  0.31886067129E+02  0.00000000000E+00 0. -1.
         11    1    3    3    0    0 -0.56991904790E+00  0.66223671665E+01 -0.24886527474E+02  0.25758878170E+02  0.51100000000E-03 0. -1.
        -11    1    3    3    0    0 -0.24703576061E+01 -0.41276294537E+01  0.35191566783E+01  0.59602395587E+01  0.51100000000E-03 0.  1.
        -12    1    3    3    0    0  0.27270060484E+02  0.38110726660E+01  0.16221028069E+01  0.27582815143E+02  0.00000000000E+00 0.  1.
</event>
<event>
 7    1  0.5634483E-012  0.5930196E+02  0.7816164E-02  0.1266605E+00
        -11   -1    0    0    0    0  0.00000000000E+00  0.00000000000E+00  0.45593999997E+02  0.45594000000E+02  0.51100000000E-03 0.  1.
         11   -1    0    0    0    0 -0.00000000000E+00 -0.00000000000E+00 -0.45593999997E+02  0.45594000000E+02  0.51100000000E-03 0. -1.
    9900012    2    1    2    0    0 -0.22089842604E+02  0.22267481247E+02 -0.57374093007E+01  0.59301957084E+02  0.50000023811E+02 0.  0.
         12    1    1    2    0    0  0.22089842604E+02 -0.22267481247E+02  0.57374093007E+01  0.31886042916E+02  0.00000000000E+00 0. -1.
         11    1    3    3    0    0 -0.10001297800E+01  0.53674902826E+01 -0.11186786488E+02  0.12448068272E+02  0.51100000000E-03 0. -1.
        -11    1    3    3    0    0 -0.78371610050E+01 -0.47189163115E+01 -0.12713368205E+02  0.15662662454E+02  0.51100000000E-03 0.  1.
        -12    1    3    3    0    0 -0.13252551819E+02  0.21618907276E+02  0.18162745392E+02  0.31191226358E+02  0.00000000000E+00 0.  1.
</event>
<event>
 7    1  0.5634483E-012  0.5930194E+02  0.7816164E-02  0.1266605E+00
        -11   -1    0    0    0    0  0.00000000000E+00  0.00000000000E+00  0.45593999997E+02  0.45594000000E+02  0.51100000000E-03 0.  1.
         11   -1    0    0    0    0 -0.00000000000E+00 -0.00000000000E+00 -0.45593999997E+02  0.45594000000E+02  0.51100000000E-03 0. -1.
    9900012    2    1    2    0    0 -0.23328748510E+02 -0.10167484324E+02  0.19212303331E+02  0.59301939663E+02  0.49999992040E+02 0.  0.
         12    1    1    2    0    0  0.23328748510E+02  0.10167484324E+02 -0.19212303331E+02  0.31886060337E+02  0.00000000000E+00 0. -1.
         11    1    3    3    0    0  0.31760909370E+01 -0.16620824204E+02  0.66028887182E-01  0.16921693501E+02  0.51100000000E-03 0. -1.
        -11    1    3    3    0    0 -0.39262691824E+01 -0.22948281024E+01 -0.59619013294E+01  0.74984060596E+01  0.51100000000E-03 0.  1.
        -12    1    3    3    0    0 -0.22578570265E+02  0.87481679826E+01  0.25108175774E+02  0.34881840102E+02  0.00000000000E+00 0.  1.
</event>
<event>
 7    1  0.5634483E-012  0.5930219E+02  0.7816164E-02  0.1266604E+00
        -11   -1    0    0    0    0  0.00000000000E+00  0.00000000000E+00  0.45593999997E+02  0.45594000000E+02  0.51100000000E-03 0.  1.
         11   -1    0    0    0    0 -0.00000000000E+00 -0.00000000000E+00 -0.45593999997E+02  0.45594000000E+02  0.51100000000E-03 0. -1.
    9900012    2    1    2    0    0  0.16014942165E+02 -0.13052790765E+02  0.24286850531E+02  0.59302190805E+02  0.50000450060E+02 0.  0.
         12    1    1    2    0    0 -0.16014942165E+02  0.13052790765E+02 -0.24286850531E+02  0.31885809195E+02  0.00000000000E+00 0. -1.
         11    1    3    3    0    0 -0.55357740577E+01 -0.52473637551E+01 -0.84770412876E+01  0.11403501657E+02  0.51100000000E-03 0. -1.
        -11    1    3    3    0    0  0.65552725153E+01 -0.16224041155E+02  0.19352225849E+02  0.26090223355E+02  0.51100000000E-03 0.  1.
         12    1    3    3    0    0  0.14995443707E+02  0.84186141458E+01  0.13411665970E+02  0.21808465792E+02  0.00000000000E+00 0. -1.
</event>
<event>
 7    1  0.5634483E-012  0.5930185E+02  0.7816164E-02  0.1266605E+00
        -11   -1    0    0    0    0  0.00000000000E+00  0.00000000000E+00  0.45593999997E+02  0.45594000000E+02  0.51100000000E-03 0.  1.
         11   -1    0    0    0    0 -0.00000000000E+00 -0.00000000000E+00 -0.45593999997E+02  0.45594000000E+02  0.51100000000E-03 0. -1.
    9900012    2    1    2    0    0  0.14922952749E+02 -0.73775730277E+01  0.27195653324E+02  0.59301848425E+02  0.49999825644E+02 0.  0.
         12    1    1    2    0    0 -0.14922952749E+02  0.73775730277E+01 -0.27195653324E+02  0.31886151575E+02  0.00000000000E+00 0. -1.
         11    1    3    3    0    0 -0.36524158975E+01 -0.12788929556E+02 -0.74586005536E+01  0.15248855156E+02  0.51100000000E-03 0.  1.
        -11    1    3    3    0    0  0.41546142937E+01  0.61980079914E+01  0.11254540723E+01  0.75460433421E+01  0.51100000000E-03 0. -1.
        -12    1    3    3    0    0  0.14420754353E+02 -0.78665146312E+00  0.33528799805E+02  0.36506949928E+02  0.00000000000E+00 0.  1.
</event>
<event>
 7    1  0.5634483E-012  0.5930196E+02  0.7816164E-02  0.1266605E+00
        -11   -1    0    0    0    0  0.00000000000E+00  0.00000000000E+00  0.45593999997E+02  0.45594000000E+02  0.51100000000E-03 0. -1.
         11   -1    0    0    0    0 -0.00000000000E+00 -0.00000000000E+00 -0.45593999997E+02  0.45594000000E+02  0.51100000000E-03 0.  1.
    9900012    2    1    2    0    0 -0.23727776111E+02  0.19814478837E+02  0.78165700183E+01  0.59301957637E+02  0.50000024820E+02 0.  0.
         12    1    1    2    0    0  0.23727776111E+02 -0.19814478837E+02 -0.78165700183E+01  0.31886042363E+02  0.00000000000E+00 0. -1.
         11    1    3    3    0    0 -0.75232953416E+01  0.12821103552E+02 -0.46487892397E+01  0.15575362299E+02  0.51100000000E-03 0. -1.
        -11    1    3    3    0    0 -0.71162129746E+00  0.93995730198E+01 -0.11635484041E+02  0.14974740965E+02  0.51100000000E-03 0.  1.
         12    1    3    3    0    0 -0.15492859472E+02 -0.24061977357E+01  0.24100843299E+02  0.28751854373E+02  0.00000000000E+00 0. -1.
</event>
<event>
 7    1  0.5634483E-012  0.5930192E+02  0.7816164E-02  0.1266605E+00
        -11   -1    0    0    0    0  0.00000000000E+00  0.00000000000E+00  0.45593999997E+02  0.45594000000E+02  0.51100000000E-03 0.  1.
         11   -1    0    0    0    0 -0.00000000000E+00 -0.00000000000E+00 -0.45593999997E+02  0.45594000000E+02  0.51100000000E-03 0. -1.
    9900012    2    1    2    0    0  0.25606889737E+01  0.31548591380E+02  0.38537079560E+01  0.59301924495E+02  0.49999964378E+02 0.  0.
         12    1    1    2    0    0 -0.25606889737E+01 -0.31548591380E+02 -0.38537079560E+01  0.31886075505E+02  0.00000000000E+00 0. -1.
         11    1    3    3    0    0 -0.39481824313E+01  0.16678476249E+02  0.19368000292E+02  0.25862698043E+02  0.51100000000E-03 0. -1.
        -11    1    3    3    0    0  0.71010700493E+01  0.52599827011E+01  0.54410515624E+01  0.10377748129E+02  0.51100000000E-03 0.  1.
         12    1    3    3    0    0 -0.59219864433E+00  0.96101324293E+01 -0.20955343898E+02  0.23061478323E+02  0.00000000000E+00 0. -1.
</event>
<event>
 7    1  0.5634483E-012  0.5930193E+02  0.7816164E-02  0.1266605E+00
        -11   -1    0    0    0    0  0.00000000000E+00  0.00000000000E+00  0.45593999997E+02  0.45594000000E+02  0.51100000000E-03 0.  1.
         11   -1    0    0    0    0 -0.00000000000E+00 -0.00000000000E+00 -0.45593999997E+02  0.45594000000E+02  0.51100000000E-03 0. -1.
    9900012    2    1    2    0    0  0.29583705273E+02 -0.84577813895E+01  0.83661091762E+01  0.59301929899E+02  0.49999974233E+02 0.  0.
         12    1    1    2    0    0 -0.29583705273E+02  0.84577813895E+01 -0.83661091762E+01  0.31886070101E+02  0.00000000000E+00 0. -1.
         11    1    3    3    0    0 -0.32471189229E+01 -0.11951396785E+02  0.30795206081E+01  0.12761783333E+02  0.51100000000E-03 0. -1.
        -11    1    3    3    0    0  0.15593023853E+01  0.10513089819E+02  0.94492555142E+01  0.14221283750E+02  0.51100000000E-03 0.  1.
        -12    1    3    3    0    0  0.31271521811E+02 -0.70194744238E+01 -0.41626669461E+01  0.32318862815E+02  0.00000000000E+00 0.  1.
</event>
<event>
 7    1  0.5634483E-012  0.5930195E+02  0.7816164E-02  0.1266605E+00
        -11   -1    0    0    0    0  0.00000000000E+00  0.00000000000E+00  0.45593999997E+02  0.45594000000E+02  0.51100000000E-03 0. -1.
         11   -1    0    0    0    0 -0.00000000000E+00 -0.00000000000E+00 -0.45593999997E+02  0.45594000000E+02  0.51100000000E-03 0.  1.
    9900012    2    1    2    0    0 -0.24852282406E+02  0.81905009732E+01 -0.18220866705E+02  0.59301949281E+02  0.50000009580E+02 0.  0.
         12    1    1    2    0    0  0.24852282406E+02 -0.81905009732E+01  0.18220866705E+02  0.31886050719E+02  0.00000000000E+00 0. -1.
         11    1    3    3    0    0  0.13311680907E+01  0.36696820559E+01  0.91402500703E+01  0.99389509751E+01  0.51100000000E-03 0. -1.
        -11    1    3    3    0    0  0.39995887553E+01  0.90352069885E+01 -0.30383707432E+01  0.10337474187E+02  0.51100000000E-03 0.  1.
         12    1    3    3    0    0 -0.30183039252E+02 -0.45143880712E+01 -0.24322746032E+02  0.39025524118E+02  0.00000000000E+00 0. -1.
</event>
<event>
 7    1  0.5634483E-012  0.5930195E+02  0.7816164E-02  0.1266605E+00
        -11   -1    0    0    0    0  0.00000000000E+00  0.00000000000E+00  0.45593999997E+02  0.45594000000E+02  0.51100000000E-03 0. -1.
         11   -1    0    0    0    0 -0.00000000000E+00 -0.00000000000E+00 -0.45593999997E+02  0.45594000000E+02  0.51100000000E-03 0.  1.
    9900012    2    1    2    0    0  0.14998705260E+02  0.23244088629E+01 -0.28042042584E+02  0.59301949942E+02  0.50000010786E+02 0.  0.
         12    1    1    2    0    0 -0.14998705260E+02 -0.23244088629E+01  0.28042042584E+02  0.31886050058E+02  0.00000000000E+00 0. -1.
         11    1    3    3    0    0  0.41587646738E+01  0.77130747315E+01 -0.17634654531E+02  0.19691822824E+02  0.51100000000E-03 0. -1.
        -11    1    3    3    0    0 -0.10082400674E+02 -0.61254468400E+01 -0.14065153876E+02  0.18357681121E+02  0.51100000000E-03 0.  1.
         12    1    3    3    0    0  0.20922341261E+02  0.73678097134E+00  0.36577658230E+01  0.21252445997E+02  0.00000000000E+00 0. -1.
</event>
<event>
 7    1  0.5634483E-012  0.5930190E+02  0.7816164E-02  0.1266605E+00
        -11   -1    0    0    0    0  0.00000000000E+00  0.00000000000E+00  0.45593999997E+02  0.45594000000E+02  0.51100000000E-03 0. -1.
         11   -1    0    0    0    0 -0.00000000000E+00 -0.00000000000E+00 -0.45593999997E+02  0.45594000000E+02  0.51100000000E-03 0.  1.
    9900012    2    1    2    0    0 -0.94768707858E+01  0.30135649158E+02 -0.43307110100E+01  0.59301898201E+02  0.49999916424E+02 0.  0.
         12    1    1    2    0    0  0.94768707858E+01 -0.30135649158E+02  0.43307110100E+01  0.31886101799E+02  0.00000000000E+00 0. -1.
         11    1    3    3    0    0 -0.33824057658E+01  0.46064360361E+01 -0.26415261578E+01  0.62958385004E+01  0.51100000000E-03 0. -1.
        -11    1    3    3    0    0 -0.15456751010E+02 -0.80984452079E+01 -0.43948530446E+01  0.17994740902E+02  0.51100000000E-03 0.  1.
         12    1    3    3    0    0  0.93622859900E+01  0.33627658330E+02  0.27056681924E+01  0.35011318799E+02  0.00000000000E+00 0. -1.
</event>
<event>
 7    1  0.5634483E-012  0.5930194E+02  0.7816164E-02  0.1266605E+00
        -11   -1    0    0    0    0  0.00000000000E+00  0.00000000000E+00  0.45593999997E+02  0.45594000000E+02  0.51100000000E-03 0.  1.
         11   -1    0    0    0    0 -0.00000000000E+00 -0.00000000000E+00 -0.45593999997E+02  0.45594000000E+02  0.51100000000E-03 0. -1.
    9900012    2    1    2    0    0 -0.24784815348E+02 -0.14672784166E+02 -0.13680039163E+02  0.59301935042E+02  0.49999983612E+02 0.  0.
         12    1    1    2    0    0  0.24784815348E+02  0.14672784166E+02  0.13680039163E+02  0.31886064958E+02  0.00000000000E+00 0. -1.
         11    1    3    3    0    0 -0.10556739794E+01 -0.18438781692E+02 -0.40926478451E+01  0.18916999881E+02  0.51100000000E-03 0. -1.
        -11    1    3    3    0    0  0.63337251374E+01  0.59310088253E+01  0.24617379066E+00  0.86806417734E+01  0.51100000000E-03 0.  1.
         12    1    3    3    0    0 -0.30062866506E+02 -0.21650112988E+01 -0.98335651086E+01  0.31704293388E+02  0.00000000000E+00 0. -1.
</event>
<event>
 7    1  0.5634483E-012  0.5930194E+02  0.7816164E-02  0.1266605E+00
        -11   -1    0    0    0    0  0.00000000000E+00  0.00000000000E+00  0.45593999997E+02  0.45594000000E+02  0.51100000000E-03 0.  1.
         11   -1    0    0    0    0 -0.00000000000E+00 -0.00000000000E+00 -0.45593999997E+02  0.45594000000E+02  0.51100000000E-03 0. -1.
    9900012    2    1    2    0    0 -0.19720588034E+02 -0.25041082695E+02 -0.87383531258E+00  0.59301937165E+02  0.49999987484E+02 0.  0.
         12    1    1    2    0    0  0.19720588034E+02  0.25041082695E+02  0.87383531258E+00  0.31886062835E+02  0.00000000000E+00 0. -1.
         11    1    3    3    0    0  0.97636085453E+01 -0.12389143409E+01 -0.78368105735E+01  0.12580880764E+02  0.51100000000E-03 0. -1.
        -11    1    3    3    0    0 -0.38481606656E+01 -0.18237170929E+02  0.84096347406E+01  0.20448097729E+02  0.51100000000E-03 0.  1.
        -12    1    3    3    0    0 -0.25636035914E+02 -0.55649974257E+01 -0.14466594797E+01  0.26272958672E+02  0.00000000000E+00 0.  1.
</event>
<event>
 7    1  0.5634483E-012  0.5930198E+02  0.7816164E-02  0.1266605E+00
        -11   -1    0    0    0    0  0.00000000000E+00  0.00000000000E+00  0.45593999997E+02  0.45594000000E+02  0.51100000000E-03 0.  1.
         11   -1    0    0    0    0 -0.00000000000E+00 -0.00000000000E+00 -0.45593999997E+02  0.45594000000E+02  0.51100000000E-03 0. -1.
    9900012    2    1    2    0    0 -0.93976687387E-01  0.22146314047E+02  0.22940141659E+02  0.59301981797E+02  0.50000068883E+02 0.  0.
         12    1    1    2    0    0  0.93976687387E-01 -0.22146314047E+02 -0.22940141659E+02  0.31886018203E+02  0.00000000000E+00 0. -1.
         11    1    3    3    0    0  0.24764570119E+01  0.12677856328E+02  0.18778720328E+01  0.13053248027E+02  0.51100000000E-03 0.  1.
        -11    1    3    3    0    0  0.14006969558E+02  0.51964014523E+01 -0.43931854663E+01  0.15572342889E+02  0.51100000000E-03 0. -1.
        -12    1    3    3    0    0 -0.16577403258E+02  0.42720562662E+01  0.25455455093E+02  0.30676390881E+02  0.00000000000E+00 0.  1.
</event>
<event>
 7    1  0.5634483E-012  0.5930193E+02  0.7816164E-02  0.1266605E+00
        -11   -1    0    0    0    0  0.00000000000E+00  0.00000000000E+00  0.45593999997E+02  0.45594000000E+02  0.51100000000E-03 0.  1.
         11   -1    0    0    0    0 -0.00000000000E+00 -0.00000000000E+00 -0.45593999997E+02  0.45594000000E+02  0.51100000000E-03 0. -1.
    9900012    2    1    2    0    0  0.11671798008E+02 -0.21317808109E+02  0.20640782103E+02  0.59301926282E+02  0.49999967636E+02 0.  0.
         12    1    1    2    0    0 -0.11671798008E+02  0.21317808109E+02 -0.20640782103E+02  0.31886073718E+02  0.00000000000E+00 0. -1.
         11    1    3    3    0    0  0.17200685653E+02 -0.33220379431E+01  0.39707881959E+01  0.17962925212E+02  0.51100000000E-03 0. -1.
        -11    1    3    3    0    0 -0.22447138382E+01  0.75685260072E+01  0.13132957045E+02  0.15323050843E+02  0.51100000000E-03 0.  1.
         12    1    3    3    0    0 -0.32841738068E+01 -0.25564296173E+02  0.35370368628E+01  0.26015950227E+02  0.00000000000E+00 0. -1.
</event>
<event>
 7    1  0.5634483E-012  0.5930193E+02  0.7816164E-02  0.1266605E+00
        -11   -1    0    0    0    0  0.00000000000E+00  0.00000000000E+00  0.45593999997E+02  0.45594000000E+02  0.51100000000E-03 0. -1.
         11   -1    0    0    0    0 -0.00000000000E+00 -0.00000000000E+00 -0.45593999997E+02  0.45594000000E+02  0.51100000000E-03 0.  1.
    9900012    2    1    2    0    0 -0.16571180502E+02  0.25814167166E+02  0.87032354428E+01  0.59301928481E+02  0.49999971647E+02 0.  0.
         12    1    1    2    0    0  0.16571180502E+02 -0.25814167166E+02 -0.87032354428E+01  0.31886071519E+02  0.00000000000E+00 0. -1.
         11    1    3    3    0    0  0.49324520056E+01  0.11736094414E+01 -0.11101607067E+02  0.12204594284E+02  0.51100000000E-03 0. -1.
        -11    1    3    3    0    0 -0.17092063182E+01  0.83902376897E+01 -0.62209614555E+01  0.10583847902E+02  0.51100000000E-03 0.  1.
         12    1    3    3    0    0 -0.19794426190E+02  0.16250320035E+02  0.26025803965E+02  0.36513486295E+02  0.00000000000E+00 0. -1.
</event>
<event>
 7    1  0.5634483E-012  0.5930192E+02  0.7816164E-02  0.1266605E+00
        -11   -1    0    0    0    0  0.00000000000E+00  0.00000000000E+00  0.45593999997E+02  0.45594000000E+02  0.51100000000E-03 0. -1.
         11   -1    0    0    0    0 -0.00000000000E+00 -0.00000000000E+00 -0.45593999997E+02  0.45594000000E+02  0.51100000000E-03 0.  1.
    9900012    2    1    2    0    0 -0.23918372166E+02 -0.17491900058E+02 -0.11775682805E+02  0.59301924666E+02  0.49999964688E+02 0.  0.
         12    1    1    2    0    0  0.23918372166E+02  0.17491900058E+02  0.11775682805E+02  0.31886075334E+02  0.00000000000E+00 0. -1.
         11    1    3    3    0    0 -0.15348045844E+02 -0.12213541258E+02  0.10732462879E+02  0.22358865378E+02  0.51100000000E-03 0. -1.
        -11    1    3    3    0    0 -0.13032424183E+02  0.66188103019E+01 -0.18585906039E+02  0.23645055159E+02  0.51100000000E-03 0.  1.
         12    1    3    3    0    0  0.44620978610E+01 -0.11897169102E+02 -0.39222396451E+01  0.13298004128E+02  0.00000000000E+00 0. -1.
</event>
<event>
 7    1  0.5634483E-012  0.5930199E+02  0.7816164E-02  0.1266605E+00
        -11   -1    0    0    0    0  0.00000000000E+00  0.00000000000E+00  0.45593999997E+02  0.45594000000E+02  0.51100000000E-03 0.  1.
         11   -1    0    0    0    0 -0.00000000000E+00 -0.00000000000E+00 -0.45593999997E+02  0.45594000000E+02  0.51100000000E-03 0. -1.
    9900012    2    1    2    0    0 -0.14957230270E+02  0.12503282665E+02  0.25232260456E+02  0.59301987667E+02  0.50000079588E+02 0.  0.
         12    1    1    2    0    0  0.14957230270E+02 -0.12503282665E+02 -0.25232260456E+02  0.31886012333E+02  0.00000000000E+00 0. -1.
         11    1    3    3    0    0 -0.18148920081E+02  0.70466835842E+00  0.73308298530E+00  0.18177383435E+02  0.51100000000E-03 0. -1.
        -11    1    3    3    0    0 -0.98705352984E+01  0.14229768461E+02  0.21311963977E+02  0.27461128643E+02  0.51100000000E-03 0.  1.
         12    1    3    3    0    0  0.13062225109E+02 -0.24311541547E+01  0.31872134941E+01  0.13663475590E+02  0.00000000000E+00 0. -1.
</event>
<event>
 7    1  0.5634483E-012  0.5930192E+02  0.7816164E-02  0.1266605E+00
        -11   -1    0    0    0    0  0.00000000000E+00  0.00000000000E+00  0.45593999997E+02  0.45594000000E+02  0.51100000000E-03 0.  1.
         11   -1    0    0    0    0 -0.00000000000E+00 -0.00000000000E+00 -0.45593999997E+02  0.45594000000E+02  0.51100000000E-03 0. -1.
    9900012    2    1    2    0    0 -0.94274892844E+01 -0.20764133394E+02  0.22286665793E+02  0.59301917425E+02  0.49999951483E+02 0.  0.
         12    1    1    2    0    0  0.94274892844E+01  0.20764133394E+02 -0.22286665793E+02  0.31886082575E+02  0.00000000000E+00 0. -1.
         11    1    3    3    0    0 -0.86551209003E+00  0.33168652369E+01 -0.10183517364E+01  0.35759959029E+01  0.51100000000E-03 0. -1.
        -11    1    3    3    0    0 -0.17629969893E+02 -0.16507618488E+02 -0.53442405178E+01  0.24736172168E+02  0.51100000000E-03 0.  1.
        -12    1    3    3    0    0  0.90679926984E+01 -0.75733801427E+01  0.28649258047E+02  0.30989749354E+02  0.00000000000E+00 0.  1.
</event>
<event>
 7    1  0.5634483E-012  0.5930194E+02  0.7816164E-02  0.1266605E+00
        -11   -1    0    0    0    0  0.00000000000E+00  0.00000000000E+00  0.45593999997E+02  0.45594000000E+02  0.51100000000E-03 0.  1.
         11   -1    0    0    0    0 -0.00000000000E+00 -0.00000000000E+00 -0.45593999997E+02  0.45594000000E+02  0.51100000000E-03 0. -1.
    9900012    2    1    2    0    0 -0.12026772068E+02 -0.12865968458E+02  0.26580899872E+02  0.59301943035E+02  0.49999998190E+02 0.  0.
         12    1    1    2    0    0  0.12026772068E+02  0.12865968458E+02 -0.26580899872E+02  0.31886056965E+02  0.00000000000E+00 0. -1.
         11    1    3    3    0    0 -0.93742736589E+01 -0.13282391090E+02  0.18490116800E+02  0.24620790793E+02  0.51100000000E-03 0.  1.
        -11    1    3    3    0    0  0.31668725023E+01 -0.15979730342E+02  0.47069847191E+01  0.16956903275E+02  0.51100000000E-03 0. -1.
         12    1    3    3    0    0 -0.58193709112E+01  0.16396152975E+02  0.33837983530E+01  0.17724248968E+02  0.00000000000E+00 0. -1.
</event>
<event>
 7    1  0.5634483E-012  0.5930195E+02  0.7816164E-02  0.1266605E+00
        -11   -1    0    0    0    0  0.00000000000E+00  0.00000000000E+00  0.45593999997E+02  0.45594000000E+02  0.51100000000E-03 0.  1.
         11   -1    0    0    0    0 -0.00000000000E+00 -0.00000000000E+00 -0.45593999997E+02  0.45594000000E+02  0.51100000000E-03 0. -1.
    9900012    2    1    2    0    0  0.13553147067E+02 -0.24755357049E+02 -0.14839303012E+02  0.59301946436E+02  0.50000004392E+02 0.  0.
         12    1    1    2    0    0 -0.13553147067E+02  0.24755357049E+02  0.14839303012E+02  0.31886053564E+02  0.00000000000E+00 0. -1.
         11    1    3    3    0    0 -0.11591591404E+02 -0.21600252015E+01 -0.26874457579E+01  0.12093513348E+02  0.51100000000E-03 0. -1.
        -11    1    3    3    0    0  0.61108879214E+01 -0.18729843358E+02 -0.18245713482E+02  0.26852486740E+02  0.51100000000E-03 0.  1.
        -12    1    3    3    0    0  0.19033850549E+02 -0.38654884896E+01  0.60938562279E+01  0.20355946348E+02  0.00000000000E+00 0.  1.
</event>
<event>
 7    1  0.5634483E-012  0.5930195E+02  0.7816164E-02  0.1266605E+00
        -11   -1    0    0    0    0  0.00000000000E+00  0.00000000000E+00  0.45593999997E+02  0.45594000000E+02  0.51100000000E-03 0. -1.
         11   -1    0    0    0    0 -0.00000000000E+00 -0.00000000000E+00 -0.45593999997E+02  0.45594000000E+02  0.51100000000E-03 0.  1.
    9900012    2    1    2    0    0  0.78610097008E+01  0.20456164988E+02 -0.23161823342E+02  0.59301949444E+02  0.50000009878E+02 0.  0.
         12    1    1    2    0    0 -0.78610097008E+01 -0.20456164988E+02  0.23161823342E+02  0.31886050556E+02  0.00000000000E+00 0. -1.
         11    1    3    3    0    0  0.29933555588E+01 -0.48589025447E+01 -0.21233600497E+02  0.21987153107E+02  0.51100000000E-03 0.  1.
        -11    1    3    3    0    0 -0.20423897556E+01  0.21316876496E+02 -0.11933284583E+02  0.24514972174E+02  0.51100000000E-03 0. -1.
         12    1    3    3    0    0  0.69100438976E+01  0.39981910364E+01  0.10005061738E+02  0.12799824163E+02  0.00000000000E+00 0. -1.
</event>
<event>
 7    1  0.5634483E-012  0.5930195E+02  0.7816164E-02  0.1266605E+00
        -11   -1    0    0    0    0  0.00000000000E+00  0.00000000000E+00  0.45593999997E+02  0.45594000000E+02  0.51100000000E-03 0.  1.
         11   -1    0    0    0    0 -0.00000000000E+00 -0.00000000000E+00 -0.45593999997E+02  0.45594000000E+02  0.51100000000E-03 0. -1.
    9900012    2    1    2    0    0 -0.13288279342E+02  0.63740181815E+00  0.28978188986E+02  0.59301951548E+02  0.50000013716E+02 0.  0.
         12    1    1    2    0    0  0.13288279342E+02 -0.63740181815E+00 -0.28978188986E+02  0.31886048452E+02  0.00000000000E+00 0. -1.
         11    1    3    3    0    0 -0.13185434597E+00  0.85075735541E+01  0.31024687260E+01  0.90565725196E+01  0.51100000000E-03 0. -1.
        -11    1    3    3    0    0  0.89489176143E+00  0.11709333049E+02  0.23193224987E+02  0.25996826677E+02  0.51100000000E-03 0.  1.
        -12    1    3    3    0    0 -0.14051316758E+02 -0.19579504785E+02  0.26824952731E+01  0.24248552352E+02  0.00000000000E+00 0.  1.
</event>
<event>
 7    1  0.5634483E-012  0.5930195E+02  0.7816164E-02  0.1266605E+00
        -11   -1    0    0    0    0  0.00000000000E+00  0.00000000000E+00  0.45593999997E+02  0.45594000000E+02  0.51100000000E-03 0. -1.
         11   -1    0    0    0    0 -0.00000000000E+00 -0.00000000000E+00 -0.45593999997E+02  0.45594000000E+02  0.51100000000E-03 0.  1.
    9900012    2    1    2    0    0  0.29725552420E+02  0.11534142503E+02  0.27438951710E+00  0.59301949766E+02  0.50000010465E+02 0.  0.
         12    1    1    2    0    0 -0.29725552420E+02 -0.11534142503E+02 -0.27438951710E+00  0.31886050234E+02  0.00000000000E+00 0. -1.
         11    1    3    3    0    0  0.76449243426E+01  0.60898966182E+00  0.33182393407E+01  0.83562221844E+01  0.51100000000E-03 0. -1.
        -11    1    3    3    0    0  0.20785486720E+02  0.23696815684E+02 -0.13596026062E+02  0.34328231191E+02  0.51100000000E-03 0.  1.
        -12    1    3    3    0    0  0.12951413575E+01 -0.12771662843E+02  0.10552176239E+02  0.16617496390E+02  0.00000000000E+00 0.  1.
</event>
<event>
 7    1  0.5634483E-012  0.5930225E+02  0.7816164E-02  0.1266604E+00
        -11   -1    0    0    0    0  0.00000000000E+00  0.00000000000E+00  0.45593999997E+02  0.45594000000E+02  0.51100000000E-03 0.  1.
         11   -1    0    0    0    0 -0.00000000000E+00 -0.00000000000E+00 -0.45593999997E+02  0.45594000000E+02  0.51100000000E-03 0. -1.
    9900012    2    1    2    0    0  0.24923957284E+01 -0.37250746442E+01  0.31569177622E+02  0.59302247801E+02  0.50000554007E+02 0.  0.
         12    1    1    2    0    0 -0.24923957284E+01  0.37250746442E+01 -0.31569177622E+02  0.31885752199E+02  0.00000000000E+00 0. -1.
         11    1    3    3    0    0  0.13256683990E+02 -0.59921729940E+01  0.33143469873E+01  0.14920814448E+02  0.51100000000E-03 0. -1.
        -11    1    3    3    0    0 -0.12225786883E+02 -0.48873100397E+01  0.33096955113E+02  0.35619715080E+02  0.51100000000E-03 0.  1.
         12    1    3    3    0    0  0.14614986223E+01  0.71544083896E+01 -0.48421244787E+01  0.87617182730E+01  0.00000000000E+00 0. -1.
</event>
<event>
 7    1  0.5634483E-012  0.5930195E+02  0.7816164E-02  0.1266605E+00
        -11   -1    0    0    0    0  0.00000000000E+00  0.00000000000E+00  0.45593999997E+02  0.45594000000E+02  0.51100000000E-03 0.  1.
         11   -1    0    0    0    0 -0.00000000000E+00 -0.00000000000E+00 -0.45593999997E+02  0.45594000000E+02  0.51100000000E-03 0. -1.
    9900012    2    1    2    0    0  0.23952871080E+02 -0.13603831042E+02  0.16059757433E+02  0.59301951941E+02  0.50000014432E+02 0.  0.
         12    1    1    2    0    0 -0.23952871080E+02  0.13603831042E+02 -0.16059757433E+02  0.31886048059E+02  0.00000000000E+00 0. -1.
         11    1    3    3    0    0  0.19502513982E+02 -0.46193319587E+01 -0.64254083445E+01  0.21046903621E+02  0.51100000000E-03 0. -1.
        -11    1    3    3    0    0  0.18764836632E+01  0.10495039146E+02  0.43449058924E+01  0.11512829586E+02  0.51100000000E-03 0.  1.
        -12    1    3    3    0    0  0.25738734349E+01 -0.19479538229E+02  0.18140259886E+02  0.26742218733E+02  0.00000000000E+00 0.  1.
</event>
<event>
 7    1  0.5634483E-012  0.5930194E+02  0.7816164E-02  0.1266605E+00
        -11   -1    0    0    0    0  0.00000000000E+00  0.00000000000E+00  0.45593999997E+02  0.45594000000E+02  0.51100000000E-03 0.  1.
         11   -1    0    0    0    0 -0.00000000000E+00 -0.00000000000E+00 -0.45593999997E+02  0.45594000000E+02  0.51100000000E-03 0. -1.
    9900012    2    1    2    0    0  0.11624662899E+02  0.25945029935E+02  0.14437561645E+02  0.59301944237E+02  0.50000000382E+02 0.  0.
         12    1    1    2    0    0 -0.11624662899E+02 -0.25945029935E+02 -0.14437561645E+02  0.31886055763E+02  0.00000000000E+00 0. -1.
         11    1    3    3    0    0  0.16878921669E+00  0.56070469363E+01 -0.14027077964E+02  0.15107163255E+02  0.51100000000E-03 0. -1.
        -11    1    3    3    0    0  0.11217832627E+02 -0.19861288670E+01  0.81192111553E+01  0.13989498446E+02  0.51100000000E-03 0.  1.
        -12    1    3    3    0    0  0.23804105545E+00  0.22324111866E+02  0.20345428453E+02  0.30205282536E+02  0.00000000000E+00 0.  1.
</event>
<event>
 7    1  0.5634483E-012  0.5930194E+02  0.7816164E-02  0.1266605E+00
        -11   -1    0    0    0    0  0.00000000000E+00  0.00000000000E+00  0.45593999997E+02  0.45594000000E+02  0.51100000000E-03 0.  1.
         11   -1    0    0    0    0 -0.00000000000E+00 -0.00000000000E+00 -0.45593999997E+02  0.45594000000E+02  0.51100000000E-03 0. -1.
    9900012    2    1    2    0    0 -0.12746593881E+02  0.30105422570E+01  0.29072011507E+02  0.59301939200E+02  0.49999991196E+02 0.  0.
         12    1    1    2    0    0  0.12746593881E+02 -0.30105422570E+01 -0.29072011507E+02  0.31886060800E+02  0.00000000000E+00 0. -1.
         11    1    3    3    0    0 -0.12710326981E+02 -0.10401588444E+01  0.25636789086E+02  0.28633534488E+02  0.51100000000E-03 0.  1.
        -11    1    3    3    0    0 -0.12836624063E+02  0.89890164420E+01  0.58695788966E+01  0.16734195249E+02  0.51100000000E-03 0. -1.
        -12    1    3    3    0    0  0.12800357163E+02 -0.49383153406E+01 -0.24343564758E+01  0.13934209463E+02  0.00000000000E+00 0.  1.
</event>
<event>
 7    1  0.5634483E-012  0.5930194E+02  0.7816164E-02  0.1266605E+00
        -11   -1    0    0    0    0  0.00000000000E+00  0.00000000000E+00  0.45593999997E+02  0.45594000000E+02  0.51100000000E-03 0.  1.
         11   -1    0    0    0    0 -0.00000000000E+00 -0.00000000000E+00 -0.45593999997E+02  0.45594000000E+02  0.51100000000E-03 0. -1.
    9900012    2    1    2    0    0 -0.14368136739E+02  0.22257447047E+02  0.17744965009E+02  0.59301935872E+02  0.49999985125E+02 0.  0.
         12    1    1    2    0    0  0.14368136739E+02 -0.22257447047E+02 -0.17744965009E+02  0.31886064128E+02  0.00000000000E+00 0. -1.
         11    1    3    3    0    0 -0.16800308686E+02  0.11926429921E+02  0.40649230247E+01  0.21000326237E+02  0.51100000000E-03 0.  1.
        -11    1    3    3    0    0  0.16505785320E+01  0.16682862985E+02 -0.58453430583E+01  0.17754164655E+02  0.51100000000E-03 0. -1.
         12    1    3    3    0    0  0.78159341507E+00 -0.63518458591E+01  0.19525385043E+02  0.20547444979E+02  0.00000000000E+00 0. -1.
</event>
<event>
 7    1  0.5634483E-012  0.5930190E+02  0.7816164E-02  0.1266605E+00
        -11   -1    0    0    0    0  0.00000000000E+00  0.00000000000E+00  0.45593999997E+02  0.45594000000E+02  0.51100000000E-03 0. -1.
         11   -1    0    0    0    0 -0.00000000000E+00 -0.00000000000E+00 -0.45593999997E+02  0.45594000000E+02  0.51100000000E-03 0.  1.
    9900012    2    1    2    0    0 -0.95252169728E+01  0.99582649624E+01 -0.28754588061E+02  0.59301903751E+02  0.49999926545E+02 0.  0.
         12    1    1    2    0    0  0.95252169728E+01 -0.99582649624E+01  0.28754588061E+02  0.31886096249E+02  0.00000000000E+00 0. -1.
         11    1    3    3    0    0 -0.10395756095E+02 -0.50084638713E+01 -0.23060693035E+01  0.11767515074E+02  0.51100000000E-03 0. -1.
        -11    1    3    3    0    0 -0.19871405884E+01 -0.11844196948E+02 -0.11856343515E+02  0.16876214352E+02  0.51100000000E-03 0.  1.
         12    1    3    3    0    0  0.28576797104E+01  0.26810925782E+02 -0.14592175243E+02  0.30658174324E+02  0.00000000000E+00 0. -1.
</event>
<event>
 7    1  0.5634483E-012  0.5930197E+02  0.7816164E-02  0.1266605E+00
        -11   -1    0    0    0    0  0.00000000000E+00  0.00000000000E+00  0.45593999997E+02  0.45594000000E+02  0.51100000000E-03 0.  1.
         11   -1    0    0    0    0 -0.00000000000E+00 -0.00000000000E+00 -0.45593999997E+02  0.45594000000E+02  0.51100000000E-03 0. -1.
    9900012    2    1    2    0    0 -0.43239459071E+01 -0.25858556341E+02  0.18148214010E+02  0.59301966757E+02  0.50000041452E+02 0.  0.
         12    1    1    2    0    0  0.43239459071E+01  0.25858556341E+02 -0.18148214010E+02  0.31886033243E+02  0.00000000000E+00 0. -1.
         11    1    3    3    0    0 -0.91118629624E+01 -0.16995139065E+02  0.10698528389E+02  0.22052648558E+02  0.51100000000E-03 0. -1.
        -11    1    3    3    0    0  0.27155280530E+00 -0.22304344311E+02  0.50066536779E+01  0.22860973238E+02  0.51100000000E-03 0.  1.
        -12    1    3    3    0    0  0.45163642499E+01  0.13440927036E+02  0.24430319435E+01  0.14388344960E+02  0.00000000000E+00 0.  1.
</event>
<event>
 7    1  0.5634483E-012  0.5930195E+02  0.7816164E-02  0.1266605E+00
        -11   -1    0    0    0    0  0.00000000000E+00  0.00000000000E+00  0.45593999997E+02  0.45594000000E+02  0.51100000000E-03 0. -1.
         11   -1    0    0    0    0 -0.00000000000E+00 -0.00000000000E+00 -0.45593999997E+02  0.45594000000E+02  0.51100000000E-03 0.  1.
    9900012    2    1    2    0    0 -0.37919957852E+01  0.27508062367E+02 -0.15673150809E+02  0.59301946881E+02  0.50000005204E+02 0.  0.
         12    1    1    2    0    0  0.37919957852E+01 -0.27508062367E+02  0.15673150809E+02  0.31886053119E+02  0.00000000000E+00 0. -1.
         11    1    3    3    0    0  0.24010727356E+00  0.46505237821E+01  0.14731529030E+02  0.15450015235E+02  0.51100000000E-03 0. -1.
        -11    1    3    3    0    0 -0.13147560171E+01  0.43163317004E+00 -0.18052473578E+02  0.18105432697E+02  0.51100000000E-03 0.  1.
        -12    1    3    3    0    0 -0.27173470417E+01  0.22425905415E+02 -0.12352206261E+02  0.25746498949E+02  0.00000000000E+00 0.  1.
</event>
<event>
 7    1  0.5634483E-012  0.5930194E+02  0.7816164E-02  0.1266605E+00
        -11   -1    0    0    0    0  0.00000000000E+00  0.00000000000E+00  0.45593999997E+02  0.45594000000E+02  0.51100000000E-03 0.  1.
         11   -1    0    0    0    0 -0.00000000000E+00 -0.00000000000E+00 -0.45593999997E+02  0.45594000000E+02  0.51100000000E-03 0. -1.
    9900012    2    1    2    0    0  0.16607249037E+02 -0.58140523418E+01  0.26591668869E+02  0.59301940688E+02  0.49999993909E+02 0.  0.
         12    1    1    2    0    0 -0.16607249037E+02  0.58140523418E+01 -0.26591668869E+02  0.31886059312E+02  0.00000000000E+00 0. -1.
         11    1    3    3    0    0  0.96199799562E+01  0.82067266060E+01 -0.88730019191E+00  0.12676027684E+02  0.51100000000E-03 0.  1.
        -11    1    3    3    0    0  0.13628554382E+02 -0.55928653394E+01 -0.23572047389E+01  0.14918915902E+02  0.51100000000E-03 0. -1.
         12    1    3    3    0    0 -0.66412853015E+01 -0.84279136084E+01  0.29836173800E+02  0.31706997102E+02  0.00000000000E+00 0. -1.
</event>
<event>
 7    1  0.5634483E-012  0.5930195E+02  0.7816164E-02  0.1266605E+00
        -11   -1    0    0    0    0  0.00000000000E+00  0.00000000000E+00  0.45593999997E+02  0.45594000000E+02  0.51100000000E-03 0.  1.
         11   -1    0    0    0    0 -0.00000000000E+00 -0.00000000000E+00 -0.45593999997E+02  0.45594000000E+02  0.51100000000E-03 0. -1.
    9900012    2    1    2    0    0  0.36641282871E+01  0.47591512224E+01  0.31315248594E+02  0.59301950527E+02  0.50000011853E+02 0.  0.
         12    1    1    2    0    0 -0.36641282871E+01 -0.47591512224E+01 -0.31315248594E+02  0.31886049473E+02  0.00000000000E+00 0. -1.
         11    1    3    3    0    0  0.16318788201E+02  0.65723767376E+01  0.10070794305E+02  0.20271158885E+02  0.51100000000E-03 0. -1.
        -11    1    3    3    0    0  0.78011218930E+01  0.21380364935E+01  0.15396056095E+02  0.17391585505E+02  0.51100000000E-03 0.  1.
         12    1    3    3    0    0 -0.20455781807E+02 -0.39512620087E+01  0.58483981942E+01  0.21639206137E+02  0.00000000000E+00 0. -1.
</event>
<event>
 7    1  0.5634483E-012  0.5930170E+02  0.7816164E-02  0.1266606E+00
        -11   -1    0    0    0    0  0.00000000000E+00  0.00000000000E+00  0.45593999997E+02  0.45594000000E+02  0.51100000000E-03 0.  1.
         11   -1    0    0    0    0 -0.00000000000E+00 -0.00000000000E+00 -0.45593999997E+02  0.45594000000E+02  0.51100000000E-03 0. -1.
    9900012    2    1    2    0    0 -0.63499048632E+01  0.77004538688E+01  0.30283956356E+02  0.59301697390E+02  0.49999550190E+02 0.  0.
         12    1    1    2    0    0  0.63499048632E+01 -0.77004538688E+01 -0.30283956356E+02  0.31886302610E+02  0.00000000000E+00 0. -1.
         11    1    3    3    0    0 -0.60323524554E+01  0.10749902494E+02 -0.17219416119E+01  0.12446475925E+02  0.51100000000E-03 0. -1.
        -11    1    3    3    0    0  0.72802368714E+01  0.13744774704E+02  0.11942343355E+02  0.19609697744E+02  0.51100000000E-03 0.  1.
         12    1    3    3    0    0 -0.75977892793E+01 -0.16794223328E+02  0.20063554613E+02  0.27245523721E+02  0.00000000000E+00 0. -1.
</event>
<event>
 7    1  0.5634483E-012  0.5930193E+02  0.7816164E-02  0.1266605E+00
        -11   -1    0    0    0    0  0.00000000000E+00  0.00000000000E+00  0.45593999997E+02  0.45594000000E+02  0.51100000000E-03 0.  1.
         11   -1    0    0    0    0 -0.00000000000E+00 -0.00000000000E+00 -0.45593999997E+02  0.45594000000E+02  0.51100000000E-03 0. -1.
    9900012    2    1    2    0    0 -0.30844474837E+02  0.80819665591E+01 -0.14730786491E+00  0.59301929200E+02  0.49999972958E+02 0.  0.
         12    1    1    2    0    0  0.30844474837E+02 -0.80819665591E+01  0.14730786491E+00  0.31886070800E+02  0.00000000000E+00 0. -1.
         11    1    3    3    0    0 -0.15026981597E+01 -0.68115675394E+00  0.10101007594E+02  0.10234863505E+02  0.51100000000E-03 0. -1.
        -11    1    3    3    0    0 -0.72758285742E+01  0.20856971994E+02 -0.53953890318E+00  0.22096200232E+02  0.51100000000E-03 0.  1.
        -12    1    3    3    0    0 -0.22065948103E+02 -0.12093848681E+02 -0.97087765560E+01  0.26970865463E+02  0.00000000000E+00 0.  1.
</event>
<event>
 7    1  0.5634483E-012  0.5930195E+02  0.7816164E-02  0.1266605E+00
        -11   -1    0    0    0    0  0.00000000000E+00  0.00000000000E+00  0.45593999997E+02  0.45594000000E+02  0.51100000000E-03 0. -1.
         11   -1    0    0    0    0 -0.00000000000E+00 -0.00000000000E+00 -0.45593999997E+02  0.45594000000E+02  0.51100000000E-03 0.  1.
    9900012    2    1    2    0    0  0.20293196447E+02  0.19791576377E+02 -0.14601374957E+02  0.59301945554E+02  0.50000002784E+02 0.  0.
         12    1    1    2    0    0 -0.20293196447E+02 -0.19791576377E+02  0.14601374957E+02  0.31886054446E+02  0.00000000000E+00 0. -1.
         11    1    3    3    0    0 -0.91021408379E+01  0.91065244967E+01  0.49368355632E+01  0.13789492445E+02  0.51100000000E-03 0. -1.
        -11    1    3    3    0    0 -0.50153068020E-01  0.83183002060E+01  0.24672338477E+01  0.86766281912E+01  0.51100000000E-03 0.  1.
        -12    1    3    3    0    0  0.29445490353E+02  0.23667516738E+01 -0.22005444367E+02  0.36835824918E+02  0.00000000000E+00 0.  1.
</event>
<event>
 7    1  0.5634483E-012  0.5930194E+02  0.7816164E-02  0.1266605E+00
        -11   -1    0    0    0    0  0.00000000000E+00  0.00000000000E+00  0.45593999997E+02  0.45594000000E+02  0.51100000000E-03 0.  1.
         11   -1    0    0    0    0 -0.00000000000E+00 -0.00000000000E+00 -0.45593999997E+02  0.45594000000E+02  0.51100000000E-03 0. -1.
    9900012    2    1    2    0    0  0.15825133581E+02  0.18768086182E+02  0.20348089983E+02  0.59301942268E+02  0.49999996790E+02 0.  0.
         12    1    1    2    0    0 -0.15825133581E+02 -0.18768086182E+02 -0.20348089983E+02  0.31886057732E+02  0.00000000000E+00 0. -1.
         11    1    3    3    0    0  0.12769421074E+02 -0.93749318458E+01 -0.37261816611E+01  0.16273656372E+02  0.51100000000E-03 0. -1.
        -11    1    3    3    0    0  0.35756147124E+01  0.57569367676E+01  0.18855025678E+02  0.20035951066E+02  0.51100000000E-03 0.  1.
        -12    1    3    3    0    0 -0.51990220592E+00  0.22386081260E+02  0.52192459653E+01  0.22992334830E+02  0.00000000000E+00 0.  1.
</event>
<event>
 7    1  0.5634483E-012  0.5930194E+02  0.7816164E-02  0.1266605E+00
        -11   -1    0    0    0    0  0.00000000000E+00  0.00000000000E+00  0.45593999997E+02  0.45594000000E+02  0.51100000000E-03 0. -1.
         11   -1    0    0    0    0 -0.00000000000E+00 -0.00000000000E+00 -0.45593999997E+02  0.45594000000E+02  0.51100000000E-03 0.  1.
    9900012    2    1    2    0    0 -0.23445551054E+02 -0.11535509771E+02 -0.18274538725E+02  0.59301943243E+02  0.49999998569E+02 0.  0.
         12    1    1    2    0    0  0.23445551054E+02  0.11535509771E+02  0.18274538725E+02  0.31886056757E+02  0.00000000000E+00 0. -1.
         11    1    3    3    0    0  0.12585511244E+01 -0.15368488832E+02  0.10837049435E+02  0.18847175932E+02  0.51100000000E-03 0. -1.
        -11    1    3    3    0    0 -0.22197540581E+01  0.19518518268E+01 -0.11381641212E+02  0.11759200252E+02  0.51100000000E-03 0.  1.
        -12    1    3    3    0    0 -0.22484348120E+02  0.18811272336E+01 -0.17729946948E+02  0.28695567059E+02  0.00000000000E+00 0.  1.
</event>
<event>
 7    1  0.5634483E-012  0.5930199E+02  0.7816164E-02  0.1266605E+00
        -11   -1    0    0    0    0  0.00000000000E+00  0.00000000000E+00  0.45593999997E+02  0.45594000000E+02  0.51100000000E-03 0. -1.
         11   -1    0    0    0    0 -0.00000000000E+00 -0.00000000000E+00 -0.45593999997E+02  0.45594000000E+02  0.51100000000E-03 0.  1.
    9900012    2    1    2    0    0  0.64306008152E+01 -0.15663840274E+02 -0.27018684804E+02  0.59301986647E+02  0.50000077728E+02 0.  0.
         12    1    1    2    0    0 -0.64306008152E+01  0.15663840274E+02  0.27018684804E+02  0.31886013353E+02  0.00000000000E+00 0. -1.
         11    1    3    3    0    0  0.13212593117E+02  0.46678886574E+01  0.34262905267E+01  0.14425715526E+02  0.51100000000E-03 0. -1.
        -11    1    3    3    0    0  0.10239230428E+01 -0.20091761818E+02 -0.89730711538E+01  0.22028239093E+02  0.51100000000E-03 0.  1.
        -12    1    3    3    0    0 -0.78059153445E+01 -0.23996711349E+00 -0.21471904177E+02  0.22848032028E+02  0.00000000000E+00 0.  1.
</event>
<event>
 7    1  0.5634483E-012  0.5930194E+02  0.7816164E-02  0.1266605E+00
        -11   -1    0    0    0    0  0.00000000000E+00  0.00000000000E+00  0.45593999997E+02  0.45594000000E+02  0.51100000000E-03 0.  1.
         11   -1    0    0    0    0 -0.00000000000E+00 -0.00000000000E+00 -0.45593999997E+02  0.45594000000E+02  0.51100000000E-03 0. -1.
    9900012    2    1    2    0    0  0.12424614167E+02 -0.10888575475E+01  0.29345604036E+02  0.59301935266E+02  0.49999984021E+02 0.  0.
         12    1    1    2    0    0 -0.12424614167E+02  0.10888575475E+01 -0.29345604036E+02  0.31886064734E+02  0.00000000000E+00 0. -1.
         11    1    3    3    0    0  0.13918459773E+02  0.10785740933E+01  0.12003030320E+02  0.18410854995E+02  0.51100000000E-03 0. -1.
        -11    1    3    3    0    0  0.36780659029E+00  0.10908029308E+02  0.23804784386E+02  0.26187557065E+02  0.51100000000E-03 0.  1.
         12    1    3    3    0    0 -0.18616521967E+01 -0.13075460949E+02 -0.64622106701E+01  0.14703523206E+02  0.00000000000E+00 0. -1.
</event>
<event>
 7    1  0.5634483E-012  0.5930196E+02  0.7816164E-02  0.1266605E+00
        -11   -1    0    0    0    0  0.00000000000E+00  0.00000000000E+00  0.45593999997E+02  0.45594000000E+02  0.51100000000E-03 0. -1.
         11   -1    0    0    0    0 -0.00000000000E+00 -0.00000000000E+00 -0.45593999997E+02  0.45594000000E+02  0.51100000000E-03 0.  1.
    9900012    2    1    2    0    0  0.53893078816E+01  0.15599930250E+02 -0.27282177792E+02  0.59301957782E+02  0.50000025085E+02 0.  0.
         12    1    1    2    0    0 -0.53893078816E+01 -0.15599930250E+02  0.27282177792E+02  0.31886042218E+02  0.00000000000E+00 0. -1.
         11    1    3    3    0    0  0.17806048133E+02  0.60296652325E+01  0.21592906281E+01  0.18922863135E+02  0.51100000000E-03 0. -1.
        -11    1    3    3    0    0  0.54735767110E+01 -0.45638216478E+00 -0.12935688600E+02  0.14053482362E+02  0.51100000000E-03 0.  1.
        -12    1    3    3    0    0 -0.17890316962E+02  0.10026647182E+02 -0.16505779820E+02  0.26325612285E+02  0.00000000000E+00 0.  1.
</event>
<event>
 7    1  0.5634483E-012  0.5930202E+02  0.7816164E-02  0.1266605E+00
        -11   -1    0    0    0    0  0.00000000000E+00  0.00000000000E+00  0.45593999997E+02  0.45594000000E+02  0.51100000000E-03 0. -1.
         11   -1    0    0    0    0 -0.00000000000E+00 -0.00000000000E+00 -0.45593999997E+02  0.45594000000E+02  0.51100000000E-03 0.  1.
    9900012    2    1    2    0    0 -0.27002946814E+02  0.27984019946E+01 -0.16725001566E+02  0.59302017692E+02  0.50000134346E+02 0.  0.
         12    1    1    2    0    0  0.27002946814E+02 -0.27984019946E+01  0.16725001566E+02  0.31885982308E+02  0.00000000000E+00 0. -1.
         11    1    3    3    0    0  0.35459969083E+01  0.96902649777E+01 -0.50948261038E+01  0.11507935640E+02  0.51100000000E-03 0. -1.
        -11    1    3    3    0    0 -0.83234148323E+01  0.13551863178E+02 -0.16480509337E+01  0.15989005667E+02  0.51100000000E-03 0.  1.
        -12    1    3    3    0    0 -0.22225528890E+02 -0.20443726161E+02 -0.99821245284E+01  0.31805076385E+02  0.00000000000E+00 0.  1.
</event>
<event>
 7    1  0.5634483E-012  0.5930198E+02  0.7816164E-02  0.1266605E+00
        -11   -1    0    0    0    0  0.00000000000E+00  0.00000000000E+00  0.45593999997E+02  0.45594000000E+02  0.51100000000E-03 0. -1.
         11   -1    0    0    0    0 -0.00000000000E+00 -0.00000000000E+00 -0.45593999997E+02  0.45594000000E+02  0.51100000000E-03 0.  1.
    9900012    2    1    2    0    0  0.31813506157E+02  0.63649489905E+00  0.20528306854E+01  0.59301977772E+02  0.50000061541E+02 0.  0.
         12    1    1    2    0    0 -0.31813506157E+02 -0.63649489905E+00 -0.20528306854E+01  0.31886022228E+02  0.00000000000E+00 0. -1.
         11    1    3    3    0    0  0.13229446325E+02 -0.20471656242E+02 -0.19109948509E+01  0.24449107569E+02  0.51100000000E-03 0. -1.
        -11    1    3    3    0    0 -0.27686248181E+01  0.51089410818E+01  0.56671974782E+01  0.81168768550E+01  0.51100000000E-03 0.  1.
        -12    1    3    3    0    0  0.21352684650E+02  0.15999210059E+02 -0.17033719419E+01  0.26735993347E+02  0.00000000000E+00 0.  1.
</event>
<event>
 7    1  0.5634483E-012  0.5930195E+02  0.7816164E-02  0.1266605E+00
        -11   -1    0    0    0    0  0.00000000000E+00  0.00000000000E+00  0.45593999997E+02  0.45594000000E+02  0.51100000000E-03 0.  1.
         11   -1    0    0    0    0 -0.00000000000E+00 -0.00000000000E+00 -0.45593999997E+02  0.45594000000E+02  0.51100000000E-03 0. -1.
    9900012    2    1    2    0    0  0.11113445889E+02  0.29128704667E+02 -0.66880429904E+01  0.59301952359E+02  0.50000015195E+02 0.  0.
         12    1    1    2    0    0 -0.11113445889E+02 -0.29128704667E+02  0.66880429904E+01  0.31886047641E+02  0.00000000000E+00 0. -1.
         11    1    3    3    0    0 -0.93225474306E+00 -0.98678301647E+00 -0.57992312823E+01  0.59559989384E+01  0.51100000000E-03 0. -1.
        -11    1    3    3    0    0 -0.15955793844E+02  0.11053342772E+02 -0.14803516555E+01  0.19466771302E+02  0.51100000000E-03 0.  1.
        -12    1    3    3    0    0  0.28001494476E+02  0.19062144912E+02  0.59153994745E+00  0.33879182119E+02  0.00000000000E+00 0.  1.
</event>
<event>
 7    1  0.5634483E-012  0.5930193E+02  0.7816164E-02  0.1266605E+00
        -11   -1    0    0    0    0  0.00000000000E+00  0.00000000000E+00  0.45593999997E+02  0.45594000000E+02  0.51100000000E-03 0.  1.
         11   -1    0    0    0    0 -0.00000000000E+00 -0.00000000000E+00 -0.45593999997E+02  0.45594000000E+02  0.51100000000E-03 0. -1.
    9900012    2    1    2    0    0 -0.46074223217E+01  0.87193394012E+01  0.30322698653E+02  0.59301932923E+02  0.49999979747E+02 0.  0.
         12    1    1    2    0    0  0.46074223217E+01 -0.87193394012E+01 -0.30322698653E+02  0.31886067077E+02  0.00000000000E+00 0. -1.
         11    1    3    3    0    0  0.67097382796E+01  0.14152246503E+02  0.12371398524E+02  0.19958912059E+02  0.51100000000E-03 0. -1.
        -11    1    3    3    0    0 -0.14919043291E+02  0.80185833480E+01  0.18908023876E+02  0.25384816303E+02  0.51100000000E-03 0.  1.
        -12    1    3    3    0    0  0.36018826894E+01 -0.13451490450E+02 -0.95672374609E+00  0.13958204561E+02  0.00000000000E+00 0.  1.
</event>
<event>
 7    1  0.5634483E-012  0.5930192E+02  0.7816164E-02  0.1266605E+00
        -11   -1    0    0    0    0  0.00000000000E+00  0.00000000000E+00  0.45593999997E+02  0.45594000000E+02  0.51100000000E-03 0.  1.
         11   -1    0    0    0    0 -0.00000000000E+00 -0.00000000000E+00 -0.45593999997E+02  0.45594000000E+02  0.51100000000E-03 0. -1.
    9900012    2    1    2    0    0  0.10964166187E+02 -0.19394752589E+02  0.22811247318E+02  0.59301915694E+02  0.49999948327E+02 0.  0.
         12    1    1    2    0    0 -0.10964166187E+02  0.19394752589E+02 -0.22811247318E+02  0.31886084306E+02  0.00000000000E+00 0. -1.
         11    1    3    3    0    0  0.20900857946E+02 -0.45093399762E+01  0.12086656529E+02  0.24561499877E+02  0.51100000000E-03 0. -1.
        -11    1    3    3    0    0  0.52970251552E+01  0.54705600766E+01  0.26930702223E+01  0.80770124755E+01  0.51100000000E-03 0.  1.
         12    1    3    3    0    0 -0.15233716914E+02 -0.20355972689E+02  0.80315205659E+01  0.26663403342E+02  0.00000000000E+00 0. -1.
</event>
<event>
 7    1  0.5634483E-012  0.5930223E+02  0.7816164E-02  0.1266604E+00
        -11   -1    0    0    0    0  0.00000000000E+00  0.00000000000E+00  0.45593999997E+02  0.45594000000E+02  0.51100000000E-03 0.  1.
         11   -1    0    0    0    0 -0.00000000000E+00 -0.00000000000E+00 -0.45593999997E+02  0.45594000000E+02  0.51100000000E-03 0. -1.
    9900012    2    1    2    0    0  0.20216036377E+02  0.20140190522E+02 -0.14226278111E+02  0.59302229036E+02  0.50000519785E+02 0.  0.
         12    1    1    2    0    0 -0.20216036377E+02 -0.20140190522E+02  0.14226278111E+02  0.31885770964E+02  0.00000000000E+00 0. -1.
         11    1    3    3    0    0 -0.90282891843E+01  0.14027094293E+01 -0.11339188823E+02  0.14562101591E+02  0.51100000000E-03 0. -1.
        -11    1    3    3    0    0  0.27575605107E+01  0.81651208935E+01 -0.12023839193E+02  0.14793446129E+02  0.51100000000E-03 0.  1.
        -12    1    3    3    0    0  0.26486765051E+02  0.10572360199E+02  0.91367499048E+01  0.29946681316E+02  0.00000000000E+00 0.  1.
</event>
<event>
 7    1  0.5634483E-012  0.5930223E+02  0.7816164E-02  0.1266604E+00
        -11   -1    0    0    0    0  0.00000000000E+00  0.00000000000E+00  0.45593999997E+02  0.45594000000E+02  0.51100000000E-03 0.  1.
         11   -1    0    0    0    0 -0.00000000000E+00 -0.00000000000E+00 -0.45593999997E+02  0.45594000000E+02  0.51100000000E-03 0. -1.
    9900012    2    1    2    0    0 -0.13726771598E+02  0.51115529247E+01  0.28322254880E+02  0.59302229611E+02  0.50000520833E+02 0.  0.
         12    1    1    2    0    0  0.13726771598E+02 -0.51115529247E+01 -0.28322254880E+02  0.31885770389E+02  0.00000000000E+00 0. -1.
         11    1    3    3    0    0 -0.69072244415E+01  0.17485582323E+02  0.22560692571E+01  0.18935289473E+02  0.51100000000E-03 0. -1.
        -11    1    3    3    0    0 -0.17135043811E+02 -0.41991828513E+01  0.15622345170E+02  0.23564815549E+02  0.51100000000E-03 0.  1.
        -12    1    3    3    0    0  0.10315496654E+02 -0.81748465473E+01  0.10443840453E+02  0.16802124589E+02  0.00000000000E+00 0.  1.
</event>
<event>
 7    1  0.5634483E-012  0.5930195E+02  0.7816164E-02  0.1266605E+00
        -11   -1    0    0    0    0  0.00000000000E+00  0.00000000000E+00  0.45593999997E+02  0.45594000000E+02  0.51100000000E-03 0. -1.
         11   -1    0    0    0    0 -0.00000000000E+00 -0.00000000000E+00 -0.45593999997E+02  0.45594000000E+02  0.51100000000E-03 0.  1.
    9900012    2    1    2    0    0  0.76499805840E+01  0.95577597352E+01 -0.29442266232E+02  0.59301952660E+02  0.50000015743E+02 0.  0.
         12    1    1    2    0    0 -0.76499805840E+01 -0.95577597352E+01  0.29442266232E+02  0.31886047340E+02  0.00000000000E+00 0. -1.
         11    1    3    3    0    0 -0.11981655747E+02  0.14941179945E+02 -0.16092681560E+02  0.25015461871E+02  0.51100000000E-03 0. -1.
        -11    1    3    3    0    0  0.98943006685E+01  0.79117943620E+01  0.61832660865E+00  0.12683690465E+02  0.51100000000E-03 0.  1.
        -12    1    3    3    0    0  0.97373356625E+01 -0.13295214571E+02 -0.13967911281E+02  0.21602800324E+02  0.00000000000E+00 0.  1.
</event>
<event>
 7    1  0.5634483E-012  0.5930193E+02  0.7816164E-02  0.1266605E+00
        -11   -1    0    0    0    0  0.00000000000E+00  0.00000000000E+00  0.45593999997E+02  0.45594000000E+02  0.51100000000E-03 0.  1.
         11   -1    0    0    0    0 -0.00000000000E+00 -0.00000000000E+00 -0.45593999997E+02  0.45594000000E+02  0.51100000000E-03 0. -1.
    9900012    2    1    2    0    0  0.14171863125E+02  0.28561419756E+02 -0.35331391360E+00  0.59301933550E+02  0.49999980892E+02 0.  0.
         12    1    1    2    0    0 -0.14171863125E+02 -0.28561419756E+02  0.35331391360E+00  0.31886066450E+02  0.00000000000E+00 0. -1.
         11    1    3    3    0    0  0.71956338928E+01  0.52520780666E+01  0.92143270649E+01  0.12816602306E+02  0.51100000000E-03 0. -1.
        -11    1    3    3    0    0  0.86903345140E+00  0.22695460879E+02  0.10845960597E+02  0.25168909893E+02  0.51100000000E-03 0.  1.
         12    1    3    3    0    0  0.61071957805E+01  0.61388081025E+00 -0.20413601576E+02  0.21316421352E+02  0.00000000000E+00 0. -1.
</event>
<event>
 7    1  0.5634483E-012  0.5930197E+02  0.7816164E-02  0.1266605E+00
        -11   -1    0    0    0    0  0.00000000000E+00  0.00000000000E+00  0.45593999997E+02  0.45594000000E+02  0.51100000000E-03 0. -1.
         11   -1    0    0    0    0 -0.00000000000E+00 -0.00000000000E+00 -0.45593999997E+02  0.45594000000E+02  0.51100000000E-03 0.  1.
    9900012    2    1    2    0    0 -0.30491552704E+02 -0.68359796953E+01 -0.63445503277E+01  0.59301972911E+02  0.50000052676E+02 0.  0.
         12    1    1    2    0    0  0.30491552704E+02  0.68359796953E+01  0.63445503277E+01  0.31886027089E+02  0.00000000000E+00 0. -1.
         11    1    3    3    0    0 -0.28596413854E+02 -0.17410975604E+02 -0.68976034898E+01  0.34182947371E+02  0.51100000000E-03 0. -1.
        -11    1    3    3    0    0 -0.91436177311E+01  0.84439099787E+01 -0.71298451576E+01  0.14343641559E+02  0.51100000000E-03 0.  1.
         12    1    3    3    0    0  0.72484788816E+01  0.21310859301E+01  0.76828983198E+01  0.10775383981E+02  0.00000000000E+00 0. -1.
</event>
<event>
 7    1  0.5634483E-012  0.5930194E+02  0.7816164E-02  0.1266605E+00
        -11   -1    0    0    0    0  0.00000000000E+00  0.00000000000E+00  0.45593999997E+02  0.45594000000E+02  0.51100000000E-03 0. -1.
         11   -1    0    0    0    0 -0.00000000000E+00 -0.00000000000E+00 -0.45593999997E+02  0.45594000000E+02  0.51100000000E-03 0.  1.
    9900012    2    1    2    0    0 -0.13236491074E+02  0.27906525511E+02 -0.79209993693E+01  0.59301935754E+02  0.49999984911E+02 0.  0.
         12    1    1    2    0    0  0.13236491074E+02 -0.27906525511E+02  0.79209993693E+01  0.31886064246E+02  0.00000000000E+00 0. -1.
         11    1    3    3    0    0  0.14278244062E+02  0.30686051529E+01  0.23318274617E+00  0.14606127671E+02  0.51100000000E-03 0. -1.
        -11    1    3    3    0    0 -0.20188139054E+02  0.22959885373E+02 -0.15390327345E+02  0.34228343092E+02  0.51100000000E-03 0.  1.
         12    1    3    3    0    0 -0.73265960824E+01  0.18780349857E+01  0.72361452293E+01  0.10467464991E+02  0.00000000000E+00 0. -1.
</event>
<event>
 7    1  0.5634483E-012  0.5930192E+02  0.7816164E-02  0.1266605E+00
        -11   -1    0    0    0    0  0.00000000000E+00  0.00000000000E+00  0.45593999997E+02  0.45594000000E+02  0.51100000000E-03 0. -1.
         11   -1    0    0    0    0 -0.00000000000E+00 -0.00000000000E+00 -0.45593999997E+02  0.45594000000E+02  0.51100000000E-03 0.  1.
    9900012    2    1    2    0    0 -0.22408089603E+02  0.17913279690E+02  0.13918111172E+02  0.59301923297E+02  0.49999962192E+02 0.  0.
         12    1    1    2    0    0  0.22408089603E+02 -0.17913279690E+02 -0.13918111172E+02  0.31886076703E+02  0.00000000000E+00 0. -1.
         11    1    3    3    0    0 -0.10673097050E+02  0.15176878077E+01 -0.33226054729E+01  0.11280872497E+02  0.51100000000E-03 0. -1.
        -11    1    3    3    0    0 -0.19476547470E+02  0.14881878577E+02 -0.44754841072E+01  0.24916584227E+02  0.51100000000E-03 0.  1.
         12    1    3    3    0    0  0.77415549161E+01  0.15137133057E+01  0.21716200752E+02  0.23104466572E+02  0.00000000000E+00 0. -1.
</event>
<event>
 7    1  0.5634483E-012  0.5930194E+02  0.7816164E-02  0.1266605E+00
        -11   -1    0    0    0    0  0.00000000000E+00  0.00000000000E+00  0.45593999997E+02  0.45594000000E+02  0.51100000000E-03 0. -1.
         11   -1    0    0    0    0 -0.00000000000E+00 -0.00000000000E+00 -0.45593999997E+02  0.45594000000E+02  0.51100000000E-03 0.  1.
    9900012    2    1    2    0    0  0.24029815693E+02 -0.68383088895E+01 -0.19812269062E+02  0.59301944802E+02  0.50000001412E+02 0.  0.
         12    1    1    2    0    0 -0.24029815693E+02  0.68383088895E+01  0.19812269062E+02  0.31886055198E+02  0.00000000000E+00 0. -1.
         11    1    3    3    0    0 -0.68123270296E+01  0.40333163192E+01  0.22428600029E+01  0.82283571472E+01  0.51100000000E-03 0. -1.
        -11    1    3    3    0    0 -0.11885269777E+01 -0.63783590051E+01  0.55597180942E+01  0.85443856141E+01  0.51100000000E-03 0.  1.
        -12    1    3    3    0    0  0.32030669700E+02 -0.44932662037E+01 -0.27614847159E+02  0.42529202041E+02  0.00000000000E+00 0.  1.
</event>
<event>
 7    1  0.5634483E-012  0.5930190E+02  0.7816164E-02  0.1266605E+00
        -11   -1    0    0    0    0  0.00000000000E+00  0.00000000000E+00  0.45593999997E+02  0.45594000000E+02  0.51100000000E-03 0. -1.
         11   -1    0    0    0    0 -0.00000000000E+00 -0.00000000000E+00 -0.45593999997E+02  0.45594000000E+02  0.51100000000E-03 0.  1.
    9900012    2    1    2    0    0  0.11966568461E+02  0.27223469942E+02  0.11506824065E+02  0.59301904653E+02  0.49999928190E+02 0.  0.
         12    1    1    2    0    0 -0.11966568461E+02 -0.27223469942E+02 -0.11506824065E+02  0.31886095347E+02  0.00000000000E+00 0. -1.
         11    1    3    3    0    0  0.69232831057E+01  0.30363027005E+02  0.82649088288E+01  0.32220396895E+02  0.51100000000E-03 0. -1.
        -11    1    3    3    0    0  0.44570650311E+01  0.11230287476E+02 -0.89792170720E+00  0.12115735601E+02  0.51100000000E-03 0.  1.
         12    1    3    3    0    0  0.58622032416E+00 -0.14369844539E+02  0.41398369432E+01  0.14965772157E+02  0.00000000000E+00 0. -1.
</event>
<event>
 7    1  0.5634483E-012  0.5930194E+02  0.7816164E-02  0.1266605E+00
        -11   -1    0    0    0    0  0.00000000000E+00  0.00000000000E+00  0.45593999997E+02  0.45594000000E+02  0.51100000000E-03 0.  1.
         11   -1    0    0    0    0 -0.00000000000E+00 -0.00000000000E+00 -0.45593999997E+02  0.45594000000E+02  0.51100000000E-03 0. -1.
    9900012    2    1    2    0    0 -0.20161824877E+02  0.16093618443E+02  0.18740791607E+02  0.59301937104E+02  0.49999987373E+02 0.  0.
         12    1    1    2    0    0  0.20161824877E+02 -0.16093618443E+02 -0.18740791607E+02  0.31886062896E+02  0.00000000000E+00 0. -1.
         11    1    3    3    0    0 -0.11406158224E+02  0.13743032603E+02 -0.12211851204E+02  0.21635634972E+02  0.51100000000E-03 0. -1.
        -11    1    3    3    0    0 -0.12643854726E+02 -0.11155873151E+01  0.10239512204E+02  0.16308255818E+02  0.51100000000E-03 0.  1.
        -12    1    3    3    0    0  0.38881880726E+01  0.34661731552E+01  0.20713130607E+02  0.21358046314E+02  0.00000000000E+00 0.  1.
</event>
<event>
 7    1  0.5634483E-012  0.5930194E+02  0.7816164E-02  0.1266605E+00
        -11   -1    0    0    0    0  0.00000000000E+00  0.00000000000E+00  0.45593999997E+02  0.45594000000E+02  0.51100000000E-03 0.  1.
         11   -1    0    0    0    0 -0.00000000000E+00 -0.00000000000E+00 -0.45593999997E+02  0.45594000000E+02  0.51100000000E-03 0. -1.
    9900012    2    1    2    0    0  0.37795205024E+01  0.43029583032E+01  0.31367513506E+02  0.59301935192E+02  0.49999983885E+02 0.  0.
         12    1    1    2    0    0 -0.37795205024E+01 -0.43029583032E+01 -0.31367513506E+02  0.31886064808E+02  0.00000000000E+00 0. -1.
         11    1    3    3    0    0 -0.18529627749E+02  0.22389244562E+01  0.93886124027E+01  0.20892724340E+02  0.51100000000E-03 0. -1.
        -11    1    3    3    0    0  0.10921137732E+02 -0.49167121928E+01 -0.79924156811E+00  0.12003503468E+02  0.51100000000E-03 0.  1.
        -12    1    3    3    0    0  0.11388010519E+02  0.69807460398E+01  0.22778142672E+02  0.26405707384E+02  0.00000000000E+00 0.  1.
</event>
<event>
 7    1  0.5634483E-012  0.5930195E+02  0.7816164E-02  0.1266605E+00
        -11   -1    0    0    0    0  0.00000000000E+00  0.00000000000E+00  0.45593999997E+02  0.45594000000E+02  0.51100000000E-03 0. -1.
         11   -1    0    0    0    0 -0.00000000000E+00 -0.00000000000E+00 -0.45593999997E+02  0.45594000000E+02  0.51100000000E-03 0.  1.
    9900012    2    1    2    0    0 -0.14567865628E+02 -0.11031999732E+02 -0.26130295978E+02  0.59301951406E+02  0.50000013456E+02 0.  0.
         12    1    1    2    0    0  0.14567865628E+02  0.11031999732E+02  0.26130295978E+02  0.31886048594E+02  0.00000000000E+00 0. -1.
         11    1    3    3    0    0 -0.49920752424E+01  0.63914688173E+01  0.78738017338E+00  0.81481075513E+01  0.51100000000E-03 0. -1.
        -11    1    3    3    0    0  0.14748529975E+02 -0.50615204435E+01 -0.57459383157E+01  0.16617879919E+02  0.51100000000E-03 0.  1.
        -12    1    3    3    0    0 -0.24324320361E+02 -0.12361948106E+02 -0.21171737836E+02  0.34535963935E+02  0.00000000000E+00 0.  1.
</event>
<event>
 7    1  0.5634483E-012  0.5930195E+02  0.7816164E-02  0.1266605E+00
        -11   -1    0    0    0    0  0.00000000000E+00  0.00000000000E+00  0.45593999997E+02  0.45594000000E+02  0.51100000000E-03 0. -1.
         11   -1    0    0    0    0 -0.00000000000E+00 -0.00000000000E+00 -0.45593999997E+02  0.45594000000E+02  0.51100000000E-03 0.  1.
    9900012    2    1    2    0    0 -0.30939731766E+02  0.11547366693E+01 -0.76236298537E+01  0.59301950532E+02  0.50000011862E+02 0.  0.
         12    1    1    2    0    0  0.30939731766E+02 -0.11547366693E+01  0.76236298537E+01  0.31886049468E+02  0.00000000000E+00 0. -1.
         11    1    3    3    0    0 -0.47670491369E+01  0.15485317219E+02 -0.15881071403E+02  0.22687622970E+02  0.51100000000E-03 0. -1.
        -11    1    3    3    0    0 -0.71178572180E+01 -0.10076462051E+02 -0.46780088564E+01  0.13194042063E+02  0.51100000000E-03 0.  1.
        -12    1    3    3    0    0 -0.19054825411E+02 -0.42541184993E+01  0.12935450406E+02  0.23420285499E+02  0.00000000000E+00 0.  1.
</event>
<event>
 7    1  0.5634483E-012  0.5930193E+02  0.7816164E-02  0.1266605E+00
        -11   -1    0    0    0    0  0.00000000000E+00  0.00000000000E+00  0.45593999997E+02  0.45594000000E+02  0.51100000000E-03 0. -1.
         11   -1    0    0    0    0 -0.00000000000E+00 -0.00000000000E+00 -0.45593999997E+02  0.45594000000E+02  0.51100000000E-03 0.  1.
    9900012    2    1    2    0    0  0.29932982548E+02 -0.10629808016E+02  0.27829859601E+01  0.59301932924E+02  0.49999979750E+02 0.  0.
         12    1    1    2    0    0 -0.29932982548E+02  0.10629808016E+02 -0.27829859601E+01  0.31886067076E+02  0.00000000000E+00 0. -1.
         11    1    3    3    0    0  0.78393682684E+01 -0.21766430127E+02  0.11717348177E+02  0.25933172268E+02  0.51100000000E-03 0.  1.
        -11    1    3    3    0    0  0.69093224993E+01  0.60709920498E+01  0.63974824549E+01  0.11203725447E+02  0.51100000000E-03 0. -1.
        -12    1    3    3    0    0  0.15184291781E+02  0.50656300609E+01 -0.15331844672E+02  0.22165035209E+02  0.00000000000E+00 0.  1.
</event>
<event>
 7    1  0.5634483E-012  0.5930190E+02  0.7816164E-02  0.1266605E+00
        -11   -1    0    0    0    0  0.00000000000E+00  0.00000000000E+00  0.45593999997E+02  0.45594000000E+02  0.51100000000E-03 0.  1.
         11   -1    0    0    0    0 -0.00000000000E+00 -0.00000000000E+00 -0.45593999997E+02  0.45594000000E+02  0.51100000000E-03 0. -1.
    9900012    2    1    2    0    0 -0.28153805707E+02 -0.71105016054E+00 -0.14952629375E+02  0.59301898116E+02  0.49999916269E+02 0.  0.
         12    1    1    2    0    0  0.28153805707E+02  0.71105016054E+00  0.14952629375E+02  0.31886101884E+02  0.00000000000E+00 0. -1.
         11    1    3    3    0    0  0.34499265107E+01 -0.25610469690E+01 -0.38958901937E+01  0.57999064794E+01  0.51100000000E-03 0. -1.
        -11    1    3    3    0    0  0.93353045813E+01 -0.48614953877E+01 -0.47204564914E+01  0.11535369902E+02  0.51100000000E-03 0.  1.
        -12    1    3    3    0    0 -0.40939036799E+02  0.67114921962E+01 -0.63362826904E+01  0.41966621735E+02  0.00000000000E+00 0.  1.
</event>
<event>
 7    1  0.5634483E-012  0.5930193E+02  0.7816164E-02  0.1266605E+00
        -11   -1    0    0    0    0  0.00000000000E+00  0.00000000000E+00  0.45593999997E+02  0.45594000000E+02  0.51100000000E-03 0.  1.
         11   -1    0    0    0    0 -0.00000000000E+00 -0.00000000000E+00 -0.45593999997E+02  0.45594000000E+02  0.51100000000E-03 0. -1.
    9900012    2    1    2    0    0  0.30034375157E+02 -0.10283364330E+02 -0.29849747660E+01  0.59301931767E+02  0.49999977640E+02 0.  0.
         12    1    1    2    0    0 -0.30034375157E+02  0.10283364330E+02  0.29849747660E+01  0.31886068233E+02  0.00000000000E+00 0. -1.
         11    1    3    3    0    0 -0.54699684643E+00 -0.18293730619E+02 -0.14354310669E+01  0.18358111235E+02  0.51100000000E-03 0. -1.
        -11    1    3    3    0    0  0.20533232893E+02 -0.79621166296E+01 -0.17519214506E+00  0.22023615661E+02  0.51100000000E-03 0.  1.
        -12    1    3    3    0    0  0.10048139110E+02  0.15972482919E+02 -0.13743515540E+01  0.18920204871E+02  0.00000000000E+00 0.  1.
</event>
<event>
 7    1  0.5634483E-012  0.5930195E+02  0.7816164E-02  0.1266605E+00
        -11   -1    0    0    0    0  0.00000000000E+00  0.00000000000E+00  0.45593999997E+02  0.45594000000E+02  0.51100000000E-03 0.  1.
         11   -1    0    0    0    0 -0.00000000000E+00 -0.00000000000E+00 -0.45593999997E+02  0.45594000000E+02  0.51100000000E-03 0. -1.
    9900012    2    1    2    0    0 -0.23706086335E+02  0.23620795368E+01  0.21193451285E+02  0.59301947776E+02  0.50000006836E+02 0.  0.
         12    1    1    2    0    0  0.23706086335E+02 -0.23620795368E+01 -0.21193451285E+02  0.31886052224E+02  0.00000000000E+00 0. -1.
         11    1    3    3    0    0  0.83248184945E+01  0.22926374904E+01  0.18806710883E+02  0.20694230214E+02  0.51100000000E-03 0. -1.
        -11    1    3    3    0    0 -0.11231473572E+02 -0.89505487488E+01  0.61560301719E+01  0.15625460929E+02  0.51100000000E-03 0.  1.
        -12    1    3    3    0    0 -0.20799431258E+02  0.90199907952E+01 -0.37692897705E+01  0.22982256634E+02  0.00000000000E+00 0.  1.
</event>
<event>
 7    1  0.5634483E-012  0.5930195E+02  0.7816164E-02  0.1266605E+00
        -11   -1    0    0    0    0  0.00000000000E+00  0.00000000000E+00  0.45593999997E+02  0.45594000000E+02  0.51100000000E-03 0. -1.
         11   -1    0    0    0    0 -0.00000000000E+00 -0.00000000000E+00 -0.45593999997E+02  0.45594000000E+02  0.51100000000E-03 0.  1.
    9900012    2    1    2    0    0  0.13504510704E+02 -0.28737443195E+02  0.29168489256E+01  0.59301945707E+02  0.50000003062E+02 0.  0.
         12    1    1    2    0    0 -0.13504510704E+02  0.28737443195E+02 -0.29168489256E+01  0.31886054293E+02  0.00000000000E+00 0. -1.
         11    1    3    3    0    0  0.79571492826E+01 -0.13928371749E+02 -0.77773542248E+01  0.17827030131E+02  0.51100000000E-03 0.  1.
        -11    1    3    3    0    0 -0.45304001263E+01 -0.55401061308E+01  0.22366002569E+02  0.23483086944E+02  0.51100000000E-03 0. -1.
         12    1    3    3    0    0  0.10077761548E+02 -0.92689653148E+01 -0.11671799419E+02  0.17991828631E+02  0.00000000000E+00 0. -1.
</event>
<event>
 7    1  0.5634483E-012  0.5930193E+02  0.7816164E-02  0.1266605E+00
        -11   -1    0    0    0    0  0.00000000000E+00  0.00000000000E+00  0.45593999997E+02  0.45594000000E+02  0.51100000000E-03 0. -1.
         11   -1    0    0    0    0 -0.00000000000E+00 -0.00000000000E+00 -0.45593999997E+02  0.45594000000E+02  0.51100000000E-03 0.  1.
    9900012    2    1    2    0    0  0.18595324749E+02 -0.37524460981E+01 -0.25629178923E+02  0.59301925194E+02  0.49999965652E+02 0.  0.
         12    1    1    2    0    0 -0.18595324749E+02  0.37524460981E+01  0.25629178923E+02  0.31886074806E+02  0.00000000000E+00 0. -1.
         11    1    3    3    0    0  0.15140830672E+02 -0.16798817436E+02 -0.86155374196E+01  0.24200671601E+02  0.51100000000E-03 0. -1.
        -11    1    3    3    0    0  0.40764285252E+01  0.13957995015E+02 -0.23982017135E+02  0.28046034310E+02  0.51100000000E-03 0.  1.
         12    1    3    3    0    0 -0.62193444732E+00 -0.91162367667E+00  0.69683756322E+01  0.70552192834E+01  0.00000000000E+00 0. -1.
</event>
<event>
 7    1  0.5634483E-012  0.5930195E+02  0.7816164E-02  0.1266605E+00
        -11   -1    0    0    0    0  0.00000000000E+00  0.00000000000E+00  0.45593999997E+02  0.45594000000E+02  0.51100000000E-03 0. -1.
         11   -1    0    0    0    0 -0.00000000000E+00 -0.00000000000E+00 -0.45593999997E+02  0.45594000000E+02  0.51100000000E-03 0.  1.
    9900012    2    1    2    0    0 -0.11410094612E+02 -0.28247223728E+02 -0.94140362673E+01  0.59301953110E+02  0.50000016564E+02 0.  0.
         12    1    1    2    0    0  0.11410094612E+02  0.28247223728E+02  0.94140362673E+01  0.31886046890E+02  0.00000000000E+00 0. -1.
         11    1    3    3    0    0  0.90193995720E+01  0.13741173084E+01 -0.85264230705E+01  0.12487500056E+02  0.51100000000E-03 0. -1.
        -11    1    3    3    0    0 -0.96079226604E+01 -0.31098006847E+02 -0.83306390750E+01  0.33597585559E+02  0.51100000000E-03 0.  1.
         12    1    3    3    0    0 -0.10821571524E+02  0.14766658107E+01  0.74430258781E+01  0.13216867495E+02  0.00000000000E+00 0. -1.
</event>
<event>
 7    1  0.5634483E-012  0.5930196E+02  0.7816164E-02  0.1266605E+00
        -11   -1    0    0    0    0  0.00000000000E+00  0.00000000000E+00  0.45593999997E+02  0.45594000000E+02  0.51100000000E-03 0.  1.
         11   -1    0    0    0    0 -0.00000000000E+00 -0.00000000000E+00 -0.45593999997E+02  0.45594000000E+02  0.51100000000E-03 0. -1.
    9900012    2    1    2    0    0  0.62986240043E+01 -0.79530773378E+01  0.30229051449E+02  0.59301958305E+02  0.50000026038E+02 0.  0.
         12    1    1    2    0    0 -0.62986240043E+01  0.79530773378E+01 -0.30229051449E+02  0.31886041695E+02  0.00000000000E+00 0. -1.
         11    1    3    3    0    0  0.14814343343E+01 -0.34590301715E+00 -0.32984170846E+01  0.36323342508E+01  0.51100000000E-03 0. -1.
        -11    1    3    3    0    0 -0.23266272177E+01 -0.24980254543E+02  0.14719042722E+02  0.29087394696E+02  0.51100000000E-03 0.  1.
        -12    1    3    3    0    0  0.71438168877E+01  0.17373080223E+02  0.18808425811E+02  0.26582229358E+02  0.00000000000E+00 0.  1.
</event>
<event>
 7    1  0.5634483E-012  0.5930197E+02  0.7816164E-02  0.1266605E+00
        -11   -1    0    0    0    0  0.00000000000E+00  0.00000000000E+00  0.45593999997E+02  0.45594000000E+02  0.51100000000E-03 0.  1.
         11   -1    0    0    0    0 -0.00000000000E+00 -0.00000000000E+00 -0.45593999997E+02  0.45594000000E+02  0.51100000000E-03 0. -1.
    9900012    2    1    2    0    0  0.15607880522E+02 -0.13720711407E+02  0.24183778878E+02  0.59301968313E+02  0.50000044291E+02 0.  0.
         12    1    1    2    0    0 -0.15607880522E+02  0.13720711407E+02 -0.24183778878E+02  0.31886031687E+02  0.00000000000E+00 0. -1.
         11    1    3    3    0    0 -0.10292965309E+02 -0.48282221068E+01  0.93070332867E+01  0.14692778240E+02  0.51100000000E-03 0. -1.
        -11    1    3    3    0    0  0.29918171305E+02  0.12470099674E+01  0.59824168463E+01  0.30535902143E+02  0.51100000000E-03 0.  1.
         12    1    3    3    0    0 -0.40173254739E+01 -0.10139499267E+02  0.88943287447E+01  0.14073287931E+02  0.00000000000E+00 0. -1.
</event>
<event>
 7    1  0.5634483E-012  0.5930193E+02  0.7816164E-02  0.1266605E+00
        -11   -1    0    0    0    0  0.00000000000E+00  0.00000000000E+00  0.45593999997E+02  0.45594000000E+02  0.51100000000E-03 0.  1.
         11   -1    0    0    0    0 -0.00000000000E+00 -0.00000000000E+00 -0.45593999997E+02  0.45594000000E+02  0.51100000000E-03 0. -1.
    9900012    2    1    2    0    0 -0.16565522604E+02  0.27179665744E+02  0.18895882728E+01  0.59301932307E+02  0.49999978624E+02 0.  0.
         12    1    1    2    0    0  0.16565522604E+02 -0.27179665744E+02 -0.18895882728E+01  0.31886067693E+02  0.00000000000E+00 0. -1.
         11    1    3    3    0    0  0.27516590666E+01  0.19827959839E+02 -0.20006238785E+02  0.28301399428E+02  0.51100000000E-03 0. -1.
        -11    1    3    3    0    0 -0.58246130933E+01  0.23033044872E+01  0.22855704169E+01  0.66674704078E+01  0.51100000000E-03 0.  1.
        -12    1    3    3    0    0 -0.13492568578E+02  0.50484014173E+01  0.19610256641E+02  0.24333062471E+02  0.00000000000E+00 0.  1.
</event>
<event>
 7    1  0.5634483E-012  0.5930196E+02  0.7816164E-02  0.1266605E+00
        -11   -1    0    0    0    0  0.00000000000E+00  0.00000000000E+00  0.45593999997E+02  0.45594000000E+02  0.51100000000E-03 0.  1.
         11   -1    0    0    0    0 -0.00000000000E+00 -0.00000000000E+00 -0.45593999997E+02  0.45594000000E+02  0.51100000000E-03 0. -1.
    9900012    2    1    2    0    0  0.26980579851E+02 -0.54761492479E+01  0.16086632448E+02  0.59301958490E+02  0.50000026375E+02 0.  0.
         12    1    1    2    0    0 -0.26980579851E+02  0.54761492479E+01 -0.16086632448E+02  0.31886041510E+02  0.00000000000E+00 0. -1.
         11    1    3    3    0    0 -0.49705206994E+00 -0.13741660598E+02  0.81702102842E+01  0.15994768930E+02  0.51100000000E-03 0. -1.
        -11    1    3    3    0    0 -0.64423789849E+01 -0.25953533837E+01  0.17273559392E+01  0.71570849494E+01  0.51100000000E-03 0.  1.
        -12    1    3    3    0    0  0.33920010906E+02  0.10860864734E+02  0.61890662248E+01  0.36150104611E+02  0.00000000000E+00 0.  1.
</event>
<event>
 7    1  0.5634483E-012  0.5930190E+02  0.7816164E-02  0.1266605E+00
        -11   -1    0    0    0    0  0.00000000000E+00  0.00000000000E+00  0.45593999997E+02  0.45594000000E+02  0.51100000000E-03 0.  1.
         11   -1    0    0    0    0 -0.00000000000E+00 -0.00000000000E+00 -0.45593999997E+02  0.45594000000E+02  0.51100000000E-03 0. -1.
    9900012    2    1    2    0    0 -0.13472947307E+01 -0.13279676642E+02  0.28957871189E+02  0.59301900856E+02  0.49999921265E+02 0.  0.
         12    1    1    2    0    0  0.13472947307E+01  0.13279676642E+02 -0.28957871189E+02  0.31886099144E+02  0.00000000000E+00 0. -1.
         11    1    3    3    0    0 -0.17739225358E+00 -0.42587490190E+01 -0.32778484115E+01  0.53770532533E+01  0.51100000000E-03 0. -1.
        -11    1    3    3    0    0 -0.14927804508E+01  0.15737892857E+02  0.38759723377E+01  0.16276757259E+02  0.51100000000E-03 0.  1.
        -12    1    3    3    0    0  0.32287797368E+00 -0.24758820480E+02  0.28359747263E+02  0.37648090344E+02  0.00000000000E+00 0.  1.
</event>
<event>
 7    1  0.5634483E-012  0.5930193E+02  0.7816164E-02  0.1266605E+00
        -11   -1    0    0    0    0  0.00000000000E+00  0.00000000000E+00  0.45593999997E+02  0.45594000000E+02  0.51100000000E-03 0.  1.
         11   -1    0    0    0    0 -0.00000000000E+00 -0.00000000000E+00 -0.45593999997E+02  0.45594000000E+02  0.51100000000E-03 0. -1.
    9900012    2    1    2    0    0 -0.26638142810E+02  0.17766227882E+01  0.17434868603E+02  0.59301926487E+02  0.49999968009E+02 0.  0.
         12    1    1    2    0    0  0.26638142810E+02 -0.17766227882E+01 -0.17434868603E+02  0.31886073513E+02  0.00000000000E+00 0. -1.
         11    1    3    3    0    0 -0.85089081021E+01 -0.10755210723E+02  0.18597545634E+02  0.23107245156E+02  0.51100000000E-03 0. -1.
        -11    1    3    3    0    0  0.39373276192E-01 -0.54260059240E+01  0.74673622316E+01  0.92306332124E+01  0.51100000000E-03 0.  1.
         12    1    3    3    0    0 -0.18168607984E+02  0.17957839435E+02 -0.86300392631E+01  0.26964048119E+02  0.00000000000E+00 0. -1.
</event>
<event>
 7    1  0.5634483E-012  0.5930194E+02  0.7816164E-02  0.1266605E+00
        -11   -1    0    0    0    0  0.00000000000E+00  0.00000000000E+00  0.45593999997E+02  0.45594000000E+02  0.51100000000E-03 0. -1.
         11   -1    0    0    0    0 -0.00000000000E+00 -0.00000000000E+00 -0.45593999997E+02  0.45594000000E+02  0.51100000000E-03 0.  1.
    9900012    2    1    2    0    0  0.18195948499E+02 -0.28806808125E+01 -0.26025566504E+02  0.59301937597E+02  0.49999988272E+02 0.  0.
         12    1    1    2    0    0 -0.18195948499E+02  0.28806808125E+01  0.26025566504E+02  0.31886062403E+02  0.00000000000E+00 0. -1.
         11    1    3    3    0    0 -0.10054482271E+02 -0.78745480246E+01 -0.28392505361E+01  0.13082907329E+02  0.51100000000E-03 0. -1.
        -11    1    3    3    0    0  0.39292499559E+01  0.98519606493E+01  0.20860549956E+01  0.10809799238E+02  0.51100000000E-03 0.  1.
        -12    1    3    3    0    0  0.24321180813E+02 -0.48580934371E+01 -0.25272370964E+02  0.35409231030E+02  0.00000000000E+00 0.  1.
</event>
<event>
 7    1  0.5634483E-012  0.5930192E+02  0.7816164E-02  0.1266605E+00
        -11   -1    0    0    0    0  0.00000000000E+00  0.00000000000E+00  0.45593999997E+02  0.45594000000E+02  0.51100000000E-03 0. -1.
         11   -1    0    0    0    0 -0.00000000000E+00 -0.00000000000E+00 -0.45593999997E+02  0.45594000000E+02  0.51100000000E-03 0.  1.
    9900012    2    1    2    0    0  0.23213411967E+02 -0.20642031679E+02 -0.71948807489E+01  0.59301917205E+02  0.49999951082E+02 0.  0.
         12    1    1    2    0    0 -0.23213411967E+02  0.20642031679E+02  0.71948807489E+01  0.31886082795E+02  0.00000000000E+00 0. -1.
         11    1    3    3    0    0 -0.16973868827E+01 -0.10051590274E+02  0.37653854555E+01  0.10867093317E+02  0.51100000000E-03 0. -1.
        -11    1    3    3    0    0 -0.96528186386E+01 -0.11258174544E+01  0.26954032602E+01  0.10085116341E+02  0.51100000000E-03 0.  1.
         12    1    3    3    0    0  0.34563617489E+02 -0.94646239508E+01 -0.13655669465E+02  0.38349707547E+02  0.00000000000E+00 0. -1.
</event>
<event>
 7    1  0.5634483E-012  0.5930195E+02  0.7816164E-02  0.1266605E+00
        -11   -1    0    0    0    0  0.00000000000E+00  0.00000000000E+00  0.45593999997E+02  0.45594000000E+02  0.51100000000E-03 0.  1.
         11   -1    0    0    0    0 -0.00000000000E+00 -0.00000000000E+00 -0.45593999997E+02  0.45594000000E+02  0.51100000000E-03 0. -1.
    9900012    2    1    2    0    0 -0.33170616480E+01 -0.33292610000E+01  0.31537812165E+02  0.59301945479E+02  0.50000002646E+02 0.  0.
         12    1    1    2    0    0  0.33170616480E+01  0.33292610000E+01 -0.31537812165E+02  0.31886054521E+02  0.00000000000E+00 0. -1.
         11    1    3    3    0    0  0.71788193686E+01 -0.10735570700E+02  0.19265643061E+02  0.23193812291E+02  0.51100000000E-03 0. -1.
        -11    1    3    3    0    0  0.63345152348E+01 -0.85630875058E+01  0.25491609377E+01  0.10952204008E+02  0.51100000000E-03 0.  1.
        -12    1    3    3    0    0 -0.16830396251E+02  0.15969397206E+02  0.97230081666E+01  0.25155929180E+02  0.00000000000E+00 0.  1.
</event>
<event>
 7    1  0.5634483E-012  0.5930194E+02  0.7816164E-02  0.1266605E+00
        -11   -1    0    0    0    0  0.00000000000E+00  0.00000000000E+00  0.45593999997E+02  0.45594000000E+02  0.51100000000E-03 0.  1.
         11   -1    0    0    0    0 -0.00000000000E+00 -0.00000000000E+00 -0.45593999997E+02  0.45594000000E+02  0.51100000000E-03 0. -1.
    9900012    2    1    2    0    0  0.24940546348E+02  0.36937126678E+01  0.19520409312E+02  0.59301941211E+02  0.49999994863E+02 0.  0.
         12    1    1    2    0    0 -0.24940546348E+02 -0.36937126678E+01 -0.19520409312E+02  0.31886058789E+02  0.00000000000E+00 0. -1.
         11    1    3    3    0    0  0.36550102559E+01  0.14321634531E+02  0.60209224982E+01  0.15959944348E+02  0.51100000000E-03 0. -1.
        -11    1    3    3    0    0  0.14931084977E+02  0.41217517637E+00  0.23018417839E+02  0.27440020901E+02  0.51100000000E-03 0.  1.
         12    1    3    3    0    0  0.63544511149E+01 -0.11040097040E+02 -0.95189310255E+01  0.15901975962E+02  0.00000000000E+00 0. -1.
</event>
<event>
 7    1  0.5634483E-012  0.5930193E+02  0.7816164E-02  0.1266605E+00
        -11   -1    0    0    0    0  0.00000000000E+00  0.00000000000E+00  0.45593999997E+02  0.45594000000E+02  0.51100000000E-03 0. -1.
         11   -1    0    0    0    0 -0.00000000000E+00 -0.00000000000E+00 -0.45593999997E+02  0.45594000000E+02  0.51100000000E-03 0.  1.
    9900012    2    1    2    0    0  0.85024885642E+01 -0.91021210882E+01 -0.29352689658E+02  0.59301932349E+02  0.49999978700E+02 0.  0.
         12    1    1    2    0    0 -0.85024885642E+01  0.91021210882E+01  0.29352689658E+02  0.31886067651E+02  0.00000000000E+00 0. -1.
         11    1    3    3    0    0  0.18610037461E+01  0.58947796032E+01  0.47173502120E+01  0.77759343359E+01  0.51100000000E-03 0. -1.
        -11    1    3    3    0    0 -0.89463889149E+01 -0.14191986210E+02 -0.34071227409E+01  0.17118961208E+02  0.51100000000E-03 0.  1.
        -12    1    3    3    0    0  0.15587873733E+02 -0.80491448164E+00 -0.30662917129E+02  0.34407036805E+02  0.00000000000E+00 0.  1.
</event>
<event>
 7    1  0.5634483E-012  0.5930208E+02  0.7816164E-02  0.1266604E+00
        -11   -1    0    0    0    0  0.00000000000E+00  0.00000000000E+00  0.45593999997E+02  0.45594000000E+02  0.51100000000E-03 0.  1.
         11   -1    0    0    0    0 -0.00000000000E+00 -0.00000000000E+00 -0.45593999997E+02  0.45594000000E+02  0.51100000000E-03 0. -1.
    9900012    2    1    2    0    0  0.30870002960E+02 -0.29870146895E+01 -0.74048874231E+01  0.59302083089E+02  0.50000253614E+02 0.  0.
         12    1    1    2    0    0 -0.30870002960E+02  0.29870146895E+01  0.74048874231E+01  0.31885916911E+02  0.00000000000E+00 0. -1.
         11    1    3    3    0    0  0.98263619998E+01  0.95884024774E+01  0.52180599412E+01  0.14687511771E+02  0.51100000000E-03 0. -1.
        -11    1    3    3    0    0 -0.76947794479E+01  0.39773552347E+01  0.10831020284E+01  0.87293811739E+01  0.51100000000E-03 0.  1.
         12    1    3    3    0    0  0.28738420408E+02 -0.16552772402E+02 -0.13706049393E+02  0.35885190144E+02  0.00000000000E+00 0. -1.
</event>
<event>
 7    1  0.5634483E-012  0.5930196E+02  0.7816164E-02  0.1266605E+00
        -11   -1    0    0    0    0  0.00000000000E+00  0.00000000000E+00  0.45593999997E+02  0.45594000000E+02  0.51100000000E-03 0. -1.
         11   -1    0    0    0    0 -0.00000000000E+00 -0.00000000000E+00 -0.45593999997E+02  0.45594000000E+02  0.51100000000E-03 0.  1.
    9900012    2    1    2    0    0  0.17188038714E+02  0.26112531827E+02 -0.62790655162E+01  0.59301958274E+02  0.50000025981E+02 0.  0.
         12    1    1    2    0    0 -0.17188038714E+02 -0.26112531827E+02  0.62790655162E+01  0.31886041726E+02  0.00000000000E+00 0. -1.
         11    1    3    3    0    0  0.71044687434E+01  0.81963269315E+01  0.67283247108E+01  0.12764153124E+02  0.51100000000E-03 0. -1.
        -11    1    3    3    0    0  0.23987694144E+02  0.60165657876E+01 -0.12027803231E+01  0.24759951837E+02  0.51100000000E-03 0.  1.
         12    1    3    3    0    0 -0.13904124173E+02  0.11899639108E+02 -0.11804609904E+02  0.21777853313E+02  0.00000000000E+00 0. -1.
</event>
<event>
 7    1  0.5634483E-012  0.5930191E+02  0.7816164E-02  0.1266605E+00
        -11   -1    0    0    0    0  0.00000000000E+00  0.00000000000E+00  0.45593999997E+02  0.45594000000E+02  0.51100000000E-03 0.  1.
         11   -1    0    0    0    0 -0.00000000000E+00 -0.00000000000E+00 -0.45593999997E+02  0.45594000000E+02  0.51100000000E-03 0. -1.
    9900012    2    1    2    0    0  0.21293462024E+01 -0.14204606883E+02  0.28467834008E+02  0.59301912986E+02  0.49999943388E+02 0.  0.
         12    1    1    2    0    0 -0.21293462024E+01  0.14204606883E+02 -0.28467834008E+02  0.31886087014E+02  0.00000000000E+00 0. -1.
         11    1    3    3    0    0  0.11802648679E+02 -0.17976710811E+02  0.24376316821E+02  0.32506452736E+02  0.51100000000E-03 0. -1.
        -11    1    3    3    0    0 -0.17528598573E+01 -0.63430004974E+01  0.10536206780E+02  0.12422472642E+02  0.51100000000E-03 0.  1.
         12    1    3    3    0    0 -0.79204426193E+01  0.10115104426E+02 -0.64446895925E+01  0.14372987608E+02  0.00000000000E+00 0. -1.
</event>
<event>
 7    1  0.5634483E-012  0.5930194E+02  0.7816164E-02  0.1266605E+00
        -11   -1    0    0    0    0  0.00000000000E+00  0.00000000000E+00  0.45593999997E+02  0.45594000000E+02  0.51100000000E-03 0.  1.
         11   -1    0    0    0    0 -0.00000000000E+00 -0.00000000000E+00 -0.45593999997E+02  0.45594000000E+02  0.51100000000E-03 0. -1.
    9900012    2    1    2    0    0  0.15223234883E+02 -0.25232520300E+02  0.12177587317E+02  0.59301943583E+02  0.49999999189E+02 0.  0.
         12    1    1    2    0    0 -0.15223234883E+02  0.25232520300E+02 -0.12177587317E+02  0.31886056417E+02  0.00000000000E+00 0. -1.
         11    1    3    3    0    0  0.21454883857E+01 -0.15327630846E+02  0.55463072793E+01  0.16440830650E+02  0.51100000000E-03 0. -1.
        -11    1    3    3    0    0  0.17745477421E+02 -0.22516808721E+02  0.65739205801E+01  0.29413008617E+02  0.51100000000E-03 0.  1.
         12    1    3    3    0    0 -0.46677309233E+01  0.12611919267E+02  0.57359457442E-01  0.13448104316E+02  0.00000000000E+00 0. -1.
</event>
<event>
 7    1  0.5634483E-012  0.5930194E+02  0.7816164E-02  0.1266605E+00
        -11   -1    0    0    0    0  0.00000000000E+00  0.00000000000E+00  0.45593999997E+02  0.45594000000E+02  0.51100000000E-03 0.  1.
         11   -1    0    0    0    0 -0.00000000000E+00 -0.00000000000E+00 -0.45593999997E+02  0.45594000000E+02  0.51100000000E-03 0. -1.
    9900012    2    1    2    0    0  0.28475181327E+02  0.82981362657E+01  0.11705798116E+02  0.59301941501E+02  0.49999995392E+02 0.  0.
         12    1    1    2    0    0 -0.28475181327E+02 -0.82981362657E+01 -0.11705798116E+02  0.31886058499E+02  0.00000000000E+00 0. -1.
         11    1    3    3    0    0 -0.11101060269E+01 -0.22415496546E+01 -0.20350894583E+01  0.32246658136E+01  0.51100000000E-03 0. -1.
        -11    1    3    3    0    0  0.94359774559E+01  0.18136749082E+02 -0.11050133414E+02  0.23239724322E+02  0.51100000000E-03 0.  1.
        -12    1    3    3    0    0  0.20149309898E+02 -0.75970631617E+01  0.24791020988E+02  0.32837551366E+02  0.00000000000E+00 0.  1.
</event>
<event>
 7    1  0.5634483E-012  0.5930192E+02  0.7816164E-02  0.1266605E+00
        -11   -1    0    0    0    0  0.00000000000E+00  0.00000000000E+00  0.45593999997E+02  0.45594000000E+02  0.51100000000E-03 0.  1.
         11   -1    0    0    0    0 -0.00000000000E+00 -0.00000000000E+00 -0.45593999997E+02  0.45594000000E+02  0.51100000000E-03 0. -1.
    9900012    2    1    2    0    0 -0.23810259570E+02  0.62027388458E+01  0.20281020227E+02  0.59301918218E+02  0.49999952928E+02 0.  0.
         12    1    1    2    0    0  0.23810259570E+02 -0.62027388458E+01 -0.20281020227E+02  0.31886081782E+02  0.00000000000E+00 0. -1.
         11    1    3    3    0    0 -0.10972882921E+02  0.12196822202E+02  0.22019590045E+01  0.16553406149E+02  0.51100000000E-03 0. -1.
        -11    1    3    3    0    0 -0.63088419368E+01  0.66799887080E+01 -0.85450445791E+01  0.12547570396E+02  0.51100000000E-03 0.  1.
        -12    1    3    3    0    0 -0.65285347122E+01 -0.12674072064E+02  0.26624105802E+02  0.30200941673E+02  0.00000000000E+00 0.  1.
</event>
<event>
 7    1  0.5634483E-012  0.5930197E+02  0.7816164E-02  0.1266605E+00
        -11   -1    0    0    0    0  0.00000000000E+00  0.00000000000E+00  0.45593999997E+02  0.45594000000E+02  0.51100000000E-03 0. -1.
         11   -1    0    0    0    0 -0.00000000000E+00 -0.00000000000E+00 -0.45593999997E+02  0.45594000000E+02  0.51100000000E-03 0.  1.
    9900012    2    1    2    0    0 -0.20579445871E+01  0.18824469237E+02 -0.25653905232E+02  0.59301974352E+02  0.50000055304E+02 0.  0.
         12    1    1    2    0    0  0.20579445871E+01 -0.18824469237E+02  0.25653905232E+02  0.31886025648E+02  0.00000000000E+00 0. -1.
         11    1    3    3    0    0  0.88058957582E+01 -0.18709031865E+01  0.82407659532E+01  0.12204683633E+02  0.51100000000E-03 0. -1.
        -11    1    3    3    0    0 -0.19714826970E+01  0.13576955450E+02 -0.28273556303E+01  0.14007655173E+02  0.51100000000E-03 0.  1.
        -12    1    3    3    0    0 -0.88923576483E+01  0.71184169735E+01 -0.31067315555E+02  0.33089635546E+02  0.00000000000E+00 0.  1.
</event>
<event>
 7    1  0.5634483E-012  0.5930194E+02  0.7816164E-02  0.1266605E+00
        -11   -1    0    0    0    0  0.00000000000E+00  0.00000000000E+00  0.45593999997E+02  0.45594000000E+02  0.51100000000E-03 0. -1.
         11   -1    0    0    0    0 -0.00000000000E+00 -0.00000000000E+00 -0.45593999997E+02  0.45594000000E+02  0.51100000000E-03 0.  1.
    9900012    2    1    2    0    0  0.76376540564E+01  0.24954840027E+00 -0.30956822489E+02  0.59301938899E+02  0.49999990647E+02 0.  0.
         12    1    1    2    0    0 -0.76376540564E+01 -0.24954840027E+00  0.30956822489E+02  0.31886061101E+02  0.00000000000E+00 0. -1.
         11    1    3    3    0    0 -0.60370429589E+01  0.12742037194E+02  0.24257840543E+00  0.14101923418E+02  0.51100000000E-03 0. -1.
        -11    1    3    3    0    0  0.16920189996E+02  0.22646113177E+01 -0.12496226716E+02  0.21156015133E+02  0.51100000000E-03 0.  1.
        -12    1    3    3    0    0 -0.32454929807E+01 -0.14757100111E+02 -0.18703174178E+02  0.24044000348E+02  0.00000000000E+00 0.  1.
</event>
<event>
 7    1  0.5634483E-012  0.5930193E+02  0.7816164E-02  0.1266605E+00
        -11   -1    0    0    0    0  0.00000000000E+00  0.00000000000E+00  0.45593999997E+02  0.45594000000E+02  0.51100000000E-03 0. -1.
         11   -1    0    0    0    0 -0.00000000000E+00 -0.00000000000E+00 -0.45593999997E+02  0.45594000000E+02  0.51100000000E-03 0.  1.
    9900012    2    1    2    0    0 -0.73570707950E+01  0.28164588433E+02  0.13013486864E+02  0.59301931370E+02  0.49999976916E+02 0.  0.
         12    1    1    2    0    0  0.73570707950E+01 -0.28164588433E+02 -0.13013486864E+02  0.31886068630E+02  0.00000000000E+00 0. -1.
         11    1    3    3    0    0  0.13410954423E+02  0.12089482445E+02 -0.63016161483E+01  0.19123798019E+02  0.51100000000E-03 0. -1.
        -11    1    3    3    0    0 -0.86970851233E+01  0.17570812708E+02  0.30086312229E+01  0.19834934105E+02  0.51100000000E-03 0.  1.
         12    1    3    3    0    0 -0.12070940095E+02 -0.14957067190E+01  0.16306471790E+02  0.20343199247E+02  0.00000000000E+00 0. -1.
</event>
<event>
 7    1  0.5634483E-012  0.5930194E+02  0.7816164E-02  0.1266605E+00
        -11   -1    0    0    0    0  0.00000000000E+00  0.00000000000E+00  0.45593999997E+02  0.45594000000E+02  0.51100000000E-03 0. -1.
         11   -1    0    0    0    0 -0.00000000000E+00 -0.00000000000E+00 -0.45593999997E+02  0.45594000000E+02  0.51100000000E-03 0.  1.
    9900012    2    1    2    0    0 -0.13083833642E+02 -0.28308430403E+02 -0.66458313560E+01  0.59301937072E+02  0.49999987315E+02 0.  0.
         12    1    1    2    0    0  0.13083833642E+02  0.28308430403E+02  0.66458313560E+01  0.31886062928E+02  0.00000000000E+00 0. -1.
         11    1    3    3    0    0 -0.47296543980E+01 -0.21556061351E+02 -0.44185268408E+01  0.22506816554E+02  0.51100000000E-03 0. -1.
        -11    1    3    3    0    0 -0.85748019849E+01 -0.13891022615E+02 -0.14994646422E+02  0.22165900838E+02  0.51100000000E-03 0.  1.
         12    1    3    3    0    0  0.22062274116E+00  0.71386535629E+01  0.12767341907E+02  0.14629219680E+02  0.00000000000E+00 0. -1.
</event>
<event>
 7    1  0.5634483E-012  0.5930197E+02  0.7816164E-02  0.1266605E+00
        -11   -1    0    0    0    0  0.00000000000E+00  0.00000000000E+00  0.45593999997E+02  0.45594000000E+02  0.51100000000E-03 0. -1.
         11   -1    0    0    0    0 -0.00000000000E+00 -0.00000000000E+00 -0.45593999997E+02  0.45594000000E+02  0.51100000000E-03 0.  1.
    9900012    2    1    2    0    0 -0.27437098718E+02 -0.77598700434E+01 -0.14272674843E+02  0.59301965183E+02  0.50000038583E+02 0.  0.
         12    1    1    2    0    0  0.27437098718E+02  0.77598700434E+01  0.14272674843E+02  0.31886034817E+02  0.00000000000E+00 0. -1.
         11    1    3    3    0    0 -0.17814849028E+02  0.15432962649E+02  0.97157259450E+00  0.23590021950E+02  0.51100000000E-03 0. -1.
        -11    1    3    3    0    0 -0.66922112675E+01 -0.75205638900E+01 -0.16911659816E+02  0.19681179102E+02  0.51100000000E-03 0.  1.
        -12    1    3    3    0    0 -0.29300384223E+01 -0.15672268803E+02  0.16674123780E+01  0.16030764131E+02  0.00000000000E+00 0.  1.
</event>
<event>
 7    1  0.5634483E-012  0.5930196E+02  0.7816164E-02  0.1266605E+00
        -11   -1    0    0    0    0  0.00000000000E+00  0.00000000000E+00  0.45593999997E+02  0.45594000000E+02  0.51100000000E-03 0.  1.
         11   -1    0    0    0    0 -0.00000000000E+00 -0.00000000000E+00 -0.45593999997E+02  0.45594000000E+02  0.51100000000E-03 0. -1.
    9900012    2    1    2    0    0 -0.65597059720E+01 -0.31198158022E+02 -0.60415865089E+00  0.59301955810E+02  0.50000021489E+02 0.  0.
         12    1    1    2    0    0  0.65597059720E+01  0.31198158022E+02  0.60415865089E+00  0.31886044190E+02  0.00000000000E+00 0. -1.
         11    1    3    3    0    0  0.85780453653E+01 -0.14276218844E+02 -0.75979114636E+01  0.18306325290E+02  0.51100000000E-03 0. -1.
        -11    1    3    3    0    0  0.76348536332E+01 -0.15834875334E+02  0.36307248151E+01  0.17950388012E+02  0.51100000000E-03 0.  1.
        -12    1    3    3    0    0 -0.22772604971E+02 -0.10870638441E+01  0.33630279976E+01  0.23045242508E+02  0.00000000000E+00 0.  1.
</event>
<event>
 7    1  0.5634483E-012  0.5930194E+02  0.7816164E-02  0.1266605E+00
        -11   -1    0    0    0    0  0.00000000000E+00  0.00000000000E+00  0.45593999997E+02  0.45594000000E+02  0.51100000000E-03 0. -1.
         11   -1    0    0    0    0 -0.00000000000E+00 -0.00000000000E+00 -0.45593999997E+02  0.45594000000E+02  0.51100000000E-03 0.  1.
    9900012    2    1    2    0    0 -0.26367496198E+01  0.10801396821E+02 -0.29884752675E+02  0.59301936206E+02  0.49999985735E+02 0.  0.
         12    1    1    2    0    0  0.26367496198E+01 -0.10801396821E+02  0.29884752675E+02  0.31886063794E+02  0.00000000000E+00 0. -1.
         11    1    3    3    0    0 -0.15995206000E+02  0.16444590182E+02  0.22066875905E+01  0.23046488488E+02  0.51100000000E-03 0. -1.
        -11    1    3    3    0    0  0.26326607490E+01 -0.10651835438E+01 -0.93815051166E+00  0.29909271547E+01  0.51100000000E-03 0.  1.
        -12    1    3    3    0    0  0.10725795631E+02 -0.45780098174E+01 -0.31153289754E+02  0.33264520563E+02  0.00000000000E+00 0.  1.
</event>
<event>
 7    1  0.5634483E-012  0.5930192E+02  0.7816164E-02  0.1266605E+00
        -11   -1    0    0    0    0  0.00000000000E+00  0.00000000000E+00  0.45593999997E+02  0.45594000000E+02  0.51100000000E-03 0.  1.
         11   -1    0    0    0    0 -0.00000000000E+00 -0.00000000000E+00 -0.45593999997E+02  0.45594000000E+02  0.51100000000E-03 0. -1.
    9900012    2    1    2    0    0  0.88600690288E+01 -0.28449021389E+02 -0.11352278861E+02  0.59301923469E+02  0.49999962506E+02 0.  0.
         12    1    1    2    0    0 -0.88600690288E+01  0.28449021389E+02  0.11352278861E+02  0.31886076531E+02  0.00000000000E+00 0. -1.
         11    1    3    3    0    0 -0.21260618411E+01 -0.58594899557E+00 -0.34423473692E+01  0.40881818513E+01  0.51100000000E-03 0. -1.
        -11    1    3    3    0    0  0.45862112651E+01 -0.37446562775E+02 -0.16159272847E+02  0.41041448520E+02  0.51100000000E-03 0.  1.
        -12    1    3    3    0    0  0.63999196049E+01  0.95834903811E+01  0.82493413556E+01  0.14172293097E+02  0.00000000000E+00 0.  1.
</event>
<event>
 7    1  0.5634483E-012  0.5930196E+02  0.7816164E-02  0.1266605E+00
        -11   -1    0    0    0    0  0.00000000000E+00  0.00000000000E+00  0.45593999997E+02  0.45594000000E+02  0.51100000000E-03 0.  1.
         11   -1    0    0    0    0 -0.00000000000E+00 -0.00000000000E+00 -0.45593999997E+02  0.45594000000E+02  0.51100000000E-03 0. -1.
    9900012    2    1    2    0    0  0.27995856545E+02  0.21746023501E+01  0.15107035124E+02  0.59301962471E+02  0.50000033636E+02 0.  0.
         12    1    1    2    0    0 -0.27995856545E+02 -0.21746023501E+01 -0.15107035124E+02  0.31886037529E+02  0.00000000000E+00 0. -1.
         11    1    3    3    0    0  0.12094781751E+02 -0.12699086055E+02  0.29252168445E+01  0.17779410173E+02  0.51100000000E-03 0. -1.
        -11    1    3    3    0    0 -0.76548138111E+01 -0.38686833203E+01  0.67940770309E+01  0.10941771707E+02  0.51100000000E-03 0.  1.
        -12    1    3    3    0    0  0.23555888605E+02  0.18742371725E+02  0.53877412490E+01  0.30580780592E+02  0.00000000000E+00 0.  1.
</event>
<event>
 7    1  0.5634483E-012  0.5930194E+02  0.7816164E-02  0.1266605E+00
        -11   -1    0    0    0    0  0.00000000000E+00  0.00000000000E+00  0.45593999997E+02  0.45594000000E+02  0.51100000000E-03 0. -1.
         11   -1    0    0    0    0 -0.00000000000E+00 -0.00000000000E+00 -0.45593999997E+02  0.45594000000E+02  0.51100000000E-03 0.  1.
    9900012    2    1    2    0    0  0.30609893218E+02 -0.83679803958E+01 -0.31196706518E+01  0.59301937156E+02  0.49999987467E+02 0.  0.
         12    1    1    2    0    0 -0.30609893218E+02  0.83679803958E+01  0.31196706518E+01  0.31886062844E+02  0.00000000000E+00 0. -1.
         11    1    3    3    0    0  0.42525775886E+00 -0.85863793558E+01 -0.20336130355E+01  0.88341573929E+01  0.51100000000E-03 0. -1.
        -11    1    3    3    0    0  0.29537255376E+02 -0.71260514146E+01 -0.15624563972E+02  0.34166607433E+02  0.51100000000E-03 0.  1.
         12    1    3    3    0    0  0.64738008320E+00  0.73444503746E+01  0.14538506355E+02  0.16301172330E+02  0.00000000000E+00 0. -1.
</event>
<event>
 7    1  0.5634483E-012  0.5930194E+02  0.7816164E-02  0.1266605E+00
        -11   -1    0    0    0    0  0.00000000000E+00  0.00000000000E+00  0.45593999997E+02  0.45594000000E+02  0.51100000000E-03 0.  1.
         11   -1    0    0    0    0 -0.00000000000E+00 -0.00000000000E+00 -0.45593999997E+02  0.45594000000E+02  0.51100000000E-03 0. -1.
    9900012    2    1    2    0    0  0.15360312627E+02 -0.26733340143E+02 -0.81308318524E+01  0.59301935555E+02  0.49999984548E+02 0.  0.
         12    1    1    2    0    0 -0.15360312627E+02  0.26733340143E+02  0.81308318524E+01  0.31886064445E+02  0.00000000000E+00 0. -1.
         11    1    3    3    0    0  0.32902455167E+01 -0.13042344900E+02 -0.28404090123E+01  0.13747596142E+02  0.51100000000E-03 0. -1.
        -11    1    3    3    0    0  0.26515891031E+02 -0.18772591440E+01 -0.33430838219E+01  0.26791655207E+02  0.51100000000E-03 0.  1.
         12    1    3    3    0    0 -0.14445823921E+02 -0.11813736098E+02 -0.19473390182E+01  0.18762684206E+02  0.00000000000E+00 0. -1.
</event>
<event>
 7    1  0.5634483E-012  0.5930198E+02  0.7816164E-02  0.1266605E+00
        -11   -1    0    0    0    0  0.00000000000E+00  0.00000000000E+00  0.45593999997E+02  0.45594000000E+02  0.51100000000E-03 0. -1.
         11   -1    0    0    0    0 -0.00000000000E+00 -0.00000000000E+00 -0.45593999997E+02  0.45594000000E+02  0.51100000000E-03 0.  1.
    9900012    2    1    2    0    0  0.29534048586E+02  0.11867321517E+02  0.19038564345E+01  0.59301984018E+02  0.50000072933E+02 0.  0.
         12    1    1    2    0    0 -0.29534048586E+02 -0.11867321517E+02 -0.19038564345E+01  0.31886015982E+02  0.00000000000E+00 0. -1.
         11    1    3    3    0    0  0.61263261758E+01  0.17404279097E+02  0.82751571077E+01  0.20221746431E+02  0.51100000000E-03 0. -1.
        -11    1    3    3    0    0  0.67096633796E+01  0.12180903301E+02 -0.46886731080E+01  0.14675750191E+02  0.51100000000E-03 0.  1.
        -12    1    3    3    0    0  0.16698059031E+02 -0.17717860881E+02 -0.16826275651E+01  0.24404487397E+02  0.00000000000E+00 0.  1.
</event>
<event>
 7    1  0.5634483E-012  0.5930190E+02  0.7816164E-02  0.1266605E+00
        -11   -1    0    0    0    0  0.00000000000E+00  0.00000000000E+00  0.45593999997E+02  0.45594000000E+02  0.51100000000E-03 0. -1.
         11   -1    0    0    0    0 -0.00000000000E+00 -0.00000000000E+00 -0.45593999997E+02  0.45594000000E+02  0.51100000000E-03 0.  1.
    9900012    2    1    2    0    0  0.21041033782E+02  0.22813512731E+02 -0.73172144239E+01  0.59301904399E+02  0.49999927726E+02 0.  0.
         12    1    1    2    0    0 -0.21041033782E+02 -0.22813512731E+02  0.73172144239E+01  0.31886095601E+02  0.00000000000E+00 0. -1.
         11    1    3    3    0    0 -0.28791591991E+01  0.11445101478E+02  0.12737322046E+02  0.17364310487E+02  0.51100000000E-03 0. -1.
        -11    1    3    3    0    0  0.20011825247E+02  0.27586839750E+01 -0.48884214262E+00  0.20206990223E+02  0.51100000000E-03 0.  1.
         12    1    3    3    0    0  0.39083677349E+01  0.86097272783E+01 -0.19565694327E+02  0.21730603689E+02  0.00000000000E+00 0. -1.
</event>
<event>
 7    1  0.5634483E-012  0.5930169E+02  0.7816164E-02  0.1266606E+00
        -11   -1    0    0    0    0  0.00000000000E+00  0.00000000000E+00  0.45593999997E+02  0.45594000000E+02  0.51100000000E-03 0.  1.
         11   -1    0    0    0    0 -0.00000000000E+00 -0.00000000000E+00 -0.45593999997E+02  0.45594000000E+02  0.51100000000E-03 0. -1.
    9900012    2    1    2    0    0  0.27702233696E+02 -0.15494840410E+02  0.30385320503E+01  0.59301694035E+02  0.49999544071E+02 0.  0.
         12    1    1    2    0    0 -0.27702233696E+02  0.15494840410E+02 -0.30385320503E+01  0.31886305965E+02  0.00000000000E+00 0. -1.
         11    1    3    3    0    0  0.10305742499E+02 -0.57295512484E+01  0.11018701489E+02  0.16138397341E+02  0.51100000000E-03 0. -1.
        -11    1    3    3    0    0  0.13120233615E+02  0.82661188182E+01  0.90840633236E+01  0.17971907443E+02  0.51100000000E-03 0.  1.
         12    1    3    3    0    0  0.42762575825E+01 -0.18031407979E+02 -0.17064232762E+02  0.25191389251E+02  0.00000000000E+00 0. -1.
</event>
<event>
 7    1  0.5634483E-012  0.5930195E+02  0.7816164E-02  0.1266605E+00
        -11   -1    0    0    0    0  0.00000000000E+00  0.00000000000E+00  0.45593999997E+02  0.45594000000E+02  0.51100000000E-03 0. -1.
         11   -1    0    0    0    0 -0.00000000000E+00 -0.00000000000E+00 -0.45593999997E+02  0.45594000000E+02  0.51100000000E-03 0.  1.
    9900012    2    1    2    0    0  0.19272270058E+02  0.16295734175E+02 -0.19487149264E+02  0.59301947690E+02  0.50000006679E+02 0.  0.
         12    1    1    2    0    0 -0.19272270058E+02 -0.16295734175E+02  0.19487149264E+02  0.31886052310E+02  0.00000000000E+00 0. -1.
         11    1    3    3    0    0  0.10117040141E+02  0.25196168639E+01  0.11782563146E+02  0.15733142245E+02  0.51100000000E-03 0. -1.
        -11    1    3    3    0    0 -0.43844587433E+01 -0.36980236938E+01 -0.15180010787E+02  0.16227494737E+02  0.51100000000E-03 0.  1.
        -12    1    3    3    0    0  0.13539688660E+02  0.17474141005E+02 -0.16089701623E+02  0.27341310707E+02  0.00000000000E+00 0.  1.
</event>
<event>
 7    1  0.5634483E-012  0.5930193E+02  0.7816164E-02  0.1266605E+00
        -11   -1    0    0    0    0  0.00000000000E+00  0.00000000000E+00  0.45593999997E+02  0.45594000000E+02  0.51100000000E-03 0.  1.
         11   -1    0    0    0    0 -0.00000000000E+00 -0.00000000000E+00 -0.45593999997E+02  0.45594000000E+02  0.51100000000E-03 0. -1.
    9900012    2    1    2    0    0  0.17941161855E+02  0.15737502882E+02  0.21146320962E+02  0.59301934456E+02  0.49999982544E+02 0.  0.
         12    1    1    2    0    0 -0.17941161855E+02 -0.15737502882E+02 -0.21146320962E+02  0.31886065544E+02  0.00000000000E+00 0. -1.
         11    1    3    3    0    0 -0.96578650096E+01 -0.50682428289E+01  0.64152471394E+01  0.12653728227E+02  0.51100000000E-03 0. -1.
        -11    1    3    3    0    0  0.11684875058E+02  0.26588170820E+01  0.18677374199E+02  0.22191212689E+02  0.51100000000E-03 0.  1.
         12    1    3    3    0    0  0.15914151806E+02  0.18146928628E+02 -0.39463003761E+01  0.24456993540E+02  0.00000000000E+00 0. -1.
</event>
<event>
 7    1  0.5634483E-012  0.5930192E+02  0.7816164E-02  0.1266605E+00
        -11   -1    0    0    0    0  0.00000000000E+00  0.00000000000E+00  0.45593999997E+02  0.45594000000E+02  0.51100000000E-03 0.  1.
         11   -1    0    0    0    0 -0.00000000000E+00 -0.00000000000E+00 -0.45593999997E+02  0.45594000000E+02  0.51100000000E-03 0. -1.
    9900012    2    1    2    0    0 -0.24330627979E+02 -0.14431447932E+02 -0.14713111231E+02  0.59301924836E+02  0.49999964999E+02 0.  0.
         12    1    1    2    0    0  0.24330627979E+02  0.14431447932E+02  0.14713111231E+02  0.31886075164E+02  0.00000000000E+00 0. -1.
         11    1    3    3    0    0 -0.35361260821E+01  0.39865017033E+01  0.16800991997E+01  0.55874070087E+01  0.51100000000E-03 0. -1.
        -11    1    3    3    0    0  0.83278966369E+01  0.78618570933E+00  0.76593906956E+01  0.11341878877E+02  0.51100000000E-03 0.  1.
        -12    1    3    3    0    0 -0.29122398534E+02 -0.19204135345E+02 -0.24052601126E+02  0.42372638951E+02  0.00000000000E+00 0.  1.
</event>
<event>
 7    1  0.5634483E-012  0.5930196E+02  0.7816164E-02  0.1266605E+00
        -11   -1    0    0    0    0  0.00000000000E+00  0.00000000000E+00  0.45593999997E+02  0.45594000000E+02  0.51100000000E-03 0. -1.
         11   -1    0    0    0    0 -0.00000000000E+00 -0.00000000000E+00 -0.45593999997E+02  0.45594000000E+02  0.51100000000E-03 0.  1.
    9900012    2    1    2    0    0  0.17013238601E+01 -0.24270652261E+02 -0.20609718412E+02  0.59301959840E+02  0.50000028838E+02 0.  0.
         12    1    1    2    0    0 -0.17013238601E+01  0.24270652261E+02  0.20609718412E+02  0.31886040160E+02  0.00000000000E+00 0. -1.
         11    1    3    3    0    0 -0.66403282002E+01 -0.98410774175E+01 -0.54556637241E+01  0.13065413513E+02  0.51100000000E-03 0. -1.
        -11    1    3    3    0    0  0.13911814193E+01 -0.44074258485E+01 -0.28084114735E+02  0.28461874307E+02  0.51100000000E-03 0.  1.
         12    1    3    3    0    0  0.69504706410E+01 -0.10022148995E+02  0.12930060047E+02  0.17774672020E+02  0.00000000000E+00 0. -1.
</event>
<event>
 7    1  0.5634483E-012  0.5930195E+02  0.7816164E-02  0.1266605E+00
        -11   -1    0    0    0    0  0.00000000000E+00  0.00000000000E+00  0.45593999997E+02  0.45594000000E+02  0.51100000000E-03 0.  1.
         11   -1    0    0    0    0 -0.00000000000E+00 -0.00000000000E+00 -0.45593999997E+02  0.45594000000E+02  0.51100000000E-03 0. -1.
    9900012    2    1    2    0    0  0.42109370227E+01  0.15323378202E+02  0.27643849180E+02  0.59301948071E+02  0.50000007374E+02 0.  0.
         12    1    1    2    0    0 -0.42109370227E+01 -0.15323378202E+02 -0.27643849180E+02  0.31886051929E+02  0.00000000000E+00 0. -1.
         11    1    3    3    0    0 -0.10816506137E+02 -0.73971770213E+01  0.31592094840E+01  0.13479452427E+02  0.51100000000E-03 0. -1.
        -11    1    3    3    0    0 -0.55549435292E+01 -0.20990949040E-01  0.10986718948E+02  0.12311207566E+02  0.51100000000E-03 0.  1.
         12    1    3    3    0    0  0.20582386689E+02  0.22741546172E+02  0.13497920748E+02  0.33511288078E+02  0.00000000000E+00 0. -1.
</event>
<event>
 7    1  0.5634483E-012  0.5930194E+02  0.7816164E-02  0.1266605E+00
        -11   -1    0    0    0    0  0.00000000000E+00  0.00000000000E+00  0.45593999997E+02  0.45594000000E+02  0.51100000000E-03 0. -1.
         11   -1    0    0    0    0 -0.00000000000E+00 -0.00000000000E+00 -0.45593999997E+02  0.45594000000E+02  0.51100000000E-03 0.  1.
    9900012    2    1    2    0    0 -0.26821634068E+00  0.93310342628E+01 -0.30489027551E+02  0.59301938132E+02  0.49999989248E+02 0.  0.
         12    1    1    2    0    0  0.26821634068E+00 -0.93310342628E+01  0.30489027551E+02  0.31886061868E+02  0.00000000000E+00 0. -1.
         11    1    3    3    0    0 -0.11168270084E+02 -0.59949696448E+01  0.20743006383E+01  0.12844167591E+02  0.51100000000E-03 0. -1.
        -11    1    3    3    0    0  0.53328142588E+01 -0.26324285719E+01  0.26721100317E+01  0.65198742617E+01  0.51100000000E-03 0.  1.
        -12    1    3    3    0    0  0.55672394846E+01  0.17958432480E+02 -0.35235438221E+02  0.39937896279E+02  0.00000000000E+00 0.  1.
</event>
<event>
 7    1  0.5634483E-012  0.5930194E+02  0.7816164E-02  0.1266605E+00
        -11   -1    0    0    0    0  0.00000000000E+00  0.00000000000E+00  0.45593999997E+02  0.45594000000E+02  0.51100000000E-03 0.  1.
         11   -1    0    0    0    0 -0.00000000000E+00 -0.00000000000E+00 -0.45593999997E+02  0.45594000000E+02  0.51100000000E-03 0. -1.
    9900012    2    1    2    0    0 -0.51574719337E+01  0.28437755038E+01  0.31337429965E+02  0.59301935761E+02  0.49999984923E+02 0.  0.
         12    1    1    2    0    0  0.51574719337E+01 -0.28437755038E+01 -0.31337429965E+02  0.31886064239E+02  0.00000000000E+00 0. -1.
         11    1    3    3    0    0 -0.14349127651E+02 -0.47799859249E+01 -0.25342608199E+01  0.15335195074E+02  0.51100000000E-03 0. -1.
        -11    1    3    3    0    0  0.11168795996E+02 -0.59015731624E+01  0.23947401859E+02  0.27074870745E+02  0.51100000000E-03 0.  1.
         12    1    3    3    0    0 -0.19771402788E+01  0.13525334591E+02  0.99242889255E+01  0.16891869943E+02  0.00000000000E+00 0. -1.
</event>
<event>
 7    1  0.5634483E-012  0.5930194E+02  0.7816164E-02  0.1266605E+00
        -11   -1    0    0    0    0  0.00000000000E+00  0.00000000000E+00  0.45593999997E+02  0.45594000000E+02  0.51100000000E-03 0. -1.
         11   -1    0    0    0    0 -0.00000000000E+00 -0.00000000000E+00 -0.45593999997E+02  0.45594000000E+02  0.51100000000E-03 0.  1.
    9900012    2    1    2    0    0  0.17476101738E+02  0.24455795008E+02  0.10640533427E+02  0.59301937323E+02  0.49999987771E+02 0.  0.
         12    1    1    2    0    0 -0.17476101738E+02 -0.24455795008E+02 -0.10640533427E+02  0.31886062677E+02  0.00000000000E+00 0. -1.
         11    1    3    3    0    0 -0.47041264625E+01  0.12952225909E+02  0.98905693305E+01  0.16962084887E+02  0.51100000000E-03 0. -1.
        -11    1    3    3    0    0  0.11183435771E+02  0.18330848487E+02 -0.11637391911E+02  0.24423720697E+02  0.51100000000E-03 0.  1.
         12    1    3    3    0    0  0.10996792430E+02 -0.68272793886E+01  0.12387356008E+02  0.17916131739E+02  0.00000000000E+00 0. -1.
</event>
<event>
 7    1  0.5634483E-012  0.5930195E+02  0.7816164E-02  0.1266605E+00
        -11   -1    0    0    0    0  0.00000000000E+00  0.00000000000E+00  0.45593999997E+02  0.45594000000E+02  0.51100000000E-03 0.  1.
         11   -1    0    0    0    0 -0.00000000000E+00 -0.00000000000E+00 -0.45593999997E+02  0.45594000000E+02  0.51100000000E-03 0. -1.
    9900012    2    1    2    0    0 -0.63078077919E+01 -0.18206591606E+02  0.25405738869E+02  0.59301953137E+02  0.50000016613E+02 0.  0.
         12    1    1    2    0    0  0.63078077919E+01  0.18206591606E+02 -0.25405738869E+02  0.31886046863E+02  0.00000000000E+00 0. -1.
         11    1    3    3    0    0  0.85925744229E+01  0.25007456421E+01 -0.43339984471E+01  0.99433197063E+01  0.51100000000E-03 0. -1.
        -11    1    3    3    0    0 -0.90132142274E+01  0.64100993408E+01  0.48289285406E+01  0.12068386610E+02  0.51100000000E-03 0.  1.
        -12    1    3    3    0    0 -0.58871679875E+01 -0.27117436589E+02  0.24910808776E+02  0.37290246820E+02  0.00000000000E+00 0.  1.
</event>
<event>
 7    1  0.5634483E-012  0.5930194E+02  0.7816164E-02  0.1266605E+00
        -11   -1    0    0    0    0  0.00000000000E+00  0.00000000000E+00  0.45593999997E+02  0.45594000000E+02  0.51100000000E-03 0. -1.
         11   -1    0    0    0    0 -0.00000000000E+00 -0.00000000000E+00 -0.45593999997E+02  0.45594000000E+02  0.51100000000E-03 0.  1.
    9900012    2    1    2    0    0  0.97550454246E+01 -0.28891017173E+02 -0.93203668376E+01  0.59301936861E+02  0.49999986930E+02 0.  0.
         12    1    1    2    0    0 -0.97550454246E+01  0.28891017173E+02  0.93203668376E+01  0.31886063139E+02  0.00000000000E+00 0. -1.
         11    1    3    3    0    0  0.22394540794E+01 -0.20317353334E+02 -0.13078865046E+01  0.20482201259E+02  0.51100000000E-03 0.  1.
        -11    1    3    3    0    0  0.16970377464E+02 -0.10178799764E+02  0.70128080227E+01  0.20994788700E+02  0.51100000000E-03 0. -1.
         12    1    3    3    0    0 -0.94547861192E+01  0.16051359245E+01 -0.15025288356E+02  0.17824946902E+02  0.00000000000E+00 0. -1.
</event>
<event>
 7    1  0.5634483E-012  0.5930174E+02  0.7816164E-02  0.1266605E+00
        -11   -1    0    0    0    0  0.00000000000E+00  0.00000000000E+00  0.45593999997E+02  0.45594000000E+02  0.51100000000E-03 0.  1.
         11   -1    0    0    0    0 -0.00000000000E+00 -0.00000000000E+00 -0.45593999997E+02  0.45594000000E+02  0.51100000000E-03 0. -1.
    9900012    2    1    2    0    0 -0.31348957456E+02  0.24364636857E+01  0.52952603927E+01  0.59301744788E+02  0.49999636632E+02 0.  0.
         12    1    1    2    0    0  0.31348957456E+02 -0.24364636857E+01 -0.52952603927E+01  0.31886255212E+02  0.00000000000E+00 0. -1.
         11    1    3    3    0    0  0.55345920965E+01 -0.72357109785E+01 -0.11504933304E+02  0.14674832661E+02  0.51100000000E-03 0. -1.
        -11    1    3    3    0    0 -0.95066250288E+00  0.38423232176E+01 -0.10329555107E+01  0.40907461729E+01  0.51100000000E-03 0.  1.
        -12    1    3    3    0    0 -0.35932887049E+02  0.58298514465E+01  0.17833149207E+02  0.40536165954E+02  0.00000000000E+00 0.  1.
</event>
<event>
 7    1  0.5634483E-012  0.5930181E+02  0.7816164E-02  0.1266605E+00
        -11   -1    0    0    0    0  0.00000000000E+00  0.00000000000E+00  0.45593999997E+02  0.45594000000E+02  0.51100000000E-03 0.  1.
         11   -1    0    0    0    0 -0.00000000000E+00 -0.00000000000E+00 -0.45593999997E+02  0.45594000000E+02  0.51100000000E-03 0. -1.
    9900012    2    1    2    0    0  0.93991605047E+01 -0.75827464188E+01  0.29510787316E+02  0.59301814442E+02  0.49999763666E+02 0.  0.
         12    1    1    2    0    0 -0.93991605047E+01  0.75827464188E+01 -0.29510787316E+02  0.31886185558E+02  0.00000000000E+00 0. -1.
         11    1    3    3    0    0 -0.40678062532E+01  0.11481890423E+02 -0.60681968125E+01  0.13608962789E+02  0.51100000000E-03 0. -1.
        -11    1    3    3    0    0  0.83272238224E+01 -0.21727761519E+01  0.39497883353E+01  0.94691309500E+01  0.51100000000E-03 0.  1.
        -12    1    3    3    0    0  0.51397429355E+01 -0.16891860689E+02  0.31629195793E+02  0.36223720702E+02  0.00000000000E+00 0.  1.
</event>
<event>
 7    1  0.5634483E-012  0.5930195E+02  0.7816164E-02  0.1266605E+00
        -11   -1    0    0    0    0  0.00000000000E+00  0.00000000000E+00  0.45593999997E+02  0.45594000000E+02  0.51100000000E-03 0.  1.
         11   -1    0    0    0    0 -0.00000000000E+00 -0.00000000000E+00 -0.45593999997E+02  0.45594000000E+02  0.51100000000E-03 0. -1.
    9900012    2    1    2    0    0 -0.94848920728E+01  0.30440713887E+02  0.34674432781E+00  0.59301945505E+02  0.50000002695E+02 0.  0.
         12    1    1    2    0    0  0.94848920728E+01 -0.30440713887E+02 -0.34674432781E+00  0.31886054495E+02  0.00000000000E+00 0. -1.
         11    1    3    3    0    0  0.41965220754E+00 -0.82862868104E+01  0.86706826309E+01  0.12000808082E+02  0.51100000000E-03 0. -1.
        -11    1    3    3    0    0 -0.56522447735E+01 -0.16097463179E+01  0.88469601262E-01  0.58776680170E+01  0.51100000000E-03 0.  1.
        -12    1    3    3    0    0 -0.42522995069E+01  0.40336747016E+02 -0.84124079044E+01  0.41423469406E+02  0.00000000000E+00 0.  1.
</event>
<event>
 7    1  0.5634483E-012  0.5930196E+02  0.7816164E-02  0.1266605E+00
        -11   -1    0    0    0    0  0.00000000000E+00  0.00000000000E+00  0.45593999997E+02  0.45594000000E+02  0.51100000000E-03 0.  1.
         11   -1    0    0    0    0 -0.00000000000E+00 -0.00000000000E+00 -0.45593999997E+02  0.45594000000E+02  0.51100000000E-03 0. -1.
    9900012    2    1    2    0    0  0.98345117043E+01  0.28514351406E+02 -0.10340887819E+02  0.59301955757E+02  0.50000021392E+02 0.  0.
         12    1    1    2    0    0 -0.98345117043E+01 -0.28514351406E+02  0.10340887819E+02  0.31886044243E+02  0.00000000000E+00 0. -1.
         11    1    3    3    0    0 -0.38000274515E+01  0.13778127194E+02 -0.26088340696E+02  0.29746907707E+02  0.51100000000E-03 0. -1.
        -11    1    3    3    0    0  0.27172603219E+01 -0.30079357858E+01  0.37031287129E+01  0.54903864959E+01  0.51100000000E-03 0.  1.
        -12    1    3    3    0    0  0.10917278834E+02  0.17744159998E+02  0.12044324164E+02  0.24064661555E+02  0.00000000000E+00 0.  1.
</event>
<event>
 7    1  0.5634483E-012  0.5930193E+02  0.7816164E-02  0.1266605E+00
        -11   -1    0    0    0    0  0.00000000000E+00  0.00000000000E+00  0.45593999997E+02  0.45594000000E+02  0.51100000000E-03 0.  1.
         11   -1    0    0    0    0 -0.00000000000E+00 -0.00000000000E+00 -0.45593999997E+02  0.45594000000E+02  0.51100000000E-03 0. -1.
    9900012    2    1    2    0    0  0.30145133837E+02  0.10277524275E+02  0.15377656731E+01  0.59301932156E+02  0.49999978348E+02 0.  0.
         12    1    1    2    0    0 -0.30145133837E+02 -0.10277524275E+02 -0.15377656731E+01  0.31886067844E+02  0.00000000000E+00 0. -1.
         11    1    3    3    0    0  0.50532018867E+01 -0.50206227979E+01 -0.11678499976E+02  0.13679505274E+02  0.51100000000E-03 0. -1.
        -11    1    3    3    0    0  0.18324930971E+02  0.23703439647E+02  0.19533390001E+01  0.30024517976E+02  0.51100000000E-03 0.  1.
        -12    1    3    3    0    0  0.67670009794E+01 -0.84052925740E+01  0.11262926649E+02  0.15597908905E+02  0.00000000000E+00 0.  1.
</event>
<event>
 7    1  0.5634483E-012  0.5930195E+02  0.7816164E-02  0.1266605E+00
        -11   -1    0    0    0    0  0.00000000000E+00  0.00000000000E+00  0.45593999997E+02  0.45594000000E+02  0.51100000000E-03 0. -1.
         11   -1    0    0    0    0 -0.00000000000E+00 -0.00000000000E+00 -0.45593999997E+02  0.45594000000E+02  0.51100000000E-03 0.  1.
    9900012    2    1    2    0    0 -0.23079426611E+02  0.44049834669E+01 -0.21555885977E+02  0.59301952389E+02  0.50000015249E+02 0.  0.
         12    1    1    2    0    0  0.23079426611E+02 -0.44049834669E+01  0.21555885977E+02  0.31886047611E+02  0.00000000000E+00 0. -1.
         11    1    3    3    0    0  0.85645287285E+01 -0.11258720616E+01  0.52945519087E+01  0.10131683987E+02  0.51100000000E-03 0. -1.
        -11    1    3    3    0    0 -0.55532821266E+00 -0.67585982982E+01 -0.87990004163E+00  0.68382208742E+01  0.51100000000E-03 0.  1.
        -12    1    3    3    0    0 -0.31088627126E+02  0.12289453827E+02 -0.25970537844E+02  0.42332047527E+02  0.00000000000E+00 0.  1.
</event>
<event>
 7    1  0.5634483E-012  0.5930196E+02  0.7816164E-02  0.1266605E+00
        -11   -1    0    0    0    0  0.00000000000E+00  0.00000000000E+00  0.45593999997E+02  0.45594000000E+02  0.51100000000E-03 0. -1.
         11   -1    0    0    0    0 -0.00000000000E+00 -0.00000000000E+00 -0.45593999997E+02  0.45594000000E+02  0.51100000000E-03 0.  1.
    9900012    2    1    2    0    0 -0.19312448011E+02 -0.18637098855E+02 -0.17216494412E+02  0.59301956317E+02  0.50000022413E+02 0.  0.
         12    1    1    2    0    0  0.19312448011E+02  0.18637098855E+02  0.17216494412E+02  0.31886043683E+02  0.00000000000E+00 0. -1.
         11    1    3    3    0    0  0.22914726772E+01  0.89462229379E+00  0.14240018872E+02  0.14450928476E+02  0.51100000000E-03 0. -1.
        -11    1    3    3    0    0 -0.10068802458E+02 -0.43986410573E+01 -0.45417654948E+01  0.11889342293E+02  0.51100000000E-03 0.  1.
        -12    1    3    3    0    0 -0.11535118230E+02 -0.15133080091E+02 -0.26914747790E+02  0.32961685549E+02  0.00000000000E+00 0.  1.
</event>
<event>
 7    1  0.5634483E-012  0.5930206E+02  0.7816164E-02  0.1266604E+00
        -11   -1    0    0    0    0  0.00000000000E+00  0.00000000000E+00  0.45593999997E+02  0.45594000000E+02  0.51100000000E-03 0.  1.
         11   -1    0    0    0    0 -0.00000000000E+00 -0.00000000000E+00 -0.45593999997E+02  0.45594000000E+02  0.51100000000E-03 0. -1.
    9900012    2    1    2    0    0  0.35757288597E+01  0.31041471417E+02 -0.63525153699E+01  0.59302058958E+02  0.50000209605E+02 0.  0.
         12    1    1    2    0    0 -0.35757288597E+01 -0.31041471417E+02  0.63525153699E+01  0.31885941042E+02  0.00000000000E+00 0. -1.
         11    1    3    3    0    0 -0.20920658128E+01  0.62436388696E+01 -0.14790560995E+02  0.16190134666E+02  0.51100000000E-03 0. -1.
        -11    1    3    3    0    0  0.10116647916E+02  0.24687353180E+01 -0.95237493722E+01  0.14111804331E+02  0.51100000000E-03 0.  1.
         12    1    3    3    0    0 -0.44488532432E+01  0.22329097229E+02  0.17961794997E+02  0.29000119961E+02  0.00000000000E+00 0. -1.
</event>
<event>
 7    1  0.5634483E-012  0.5930195E+02  0.7816164E-02  0.1266605E+00
        -11   -1    0    0    0    0  0.00000000000E+00  0.00000000000E+00  0.45593999997E+02  0.45594000000E+02  0.51100000000E-03 0. -1.
         11   -1    0    0    0    0 -0.00000000000E+00 -0.00000000000E+00 -0.45593999997E+02  0.45594000000E+02  0.51100000000E-03 0.  1.
    9900012    2    1    2    0    0 -0.31052452489E+02 -0.40775939078E+01 -0.59865323444E+01  0.59301950587E+02  0.50000011963E+02 0.  0.
         12    1    1    2    0    0  0.31052452489E+02  0.40775939078E+01  0.59865323444E+01  0.31886049413E+02  0.00000000000E+00 0. -1.
         11    1    3    3    0    0 -0.16371177748E+02  0.14394842782E+02  0.74575183608E+01  0.23039998697E+02  0.51100000000E-03 0. -1.
        -11    1    3    3    0    0 -0.16178020383E+02 -0.16953450755E+02 -0.80863991394E+00  0.23447851389E+02  0.51100000000E-03 0.  1.
        -12    1    3    3    0    0  0.14967456421E+01 -0.15189859354E+01 -0.12635410791E+02  0.12814100501E+02  0.00000000000E+00 0.  1.
</event>
<event>
 7    1  0.5634483E-012  0.5930195E+02  0.7816164E-02  0.1266605E+00
        -11   -1    0    0    0    0  0.00000000000E+00  0.00000000000E+00  0.45593999997E+02  0.45594000000E+02  0.51100000000E-03 0.  1.
         11   -1    0    0    0    0 -0.00000000000E+00 -0.00000000000E+00 -0.45593999997E+02  0.45594000000E+02  0.51100000000E-03 0. -1.
    9900012    2    1    2    0    0 -0.15026413719E+02  0.22169071495E+02  0.17304901740E+02  0.59301945612E+02  0.50000002890E+02 0.  0.
         12    1    1    2    0    0  0.15026413719E+02 -0.22169071495E+02 -0.17304901740E+02  0.31886054388E+02  0.00000000000E+00 0. -1.
         11    1    3    3    0    0  0.11711210580E+02  0.93309500174E+01 -0.19370849050E+01  0.15098721127E+02  0.51100000000E-03 0. -1.
        -11    1    3    3    0    0 -0.34041108116E+00  0.54529236841E+00  0.14721175399E+02  0.14735203726E+02  0.51100000000E-03 0.  1.
        -12    1    3    3    0    0 -0.26397213217E+02  0.12292829109E+02  0.45208112461E+01  0.29468020759E+02  0.00000000000E+00 0.  1.
</event>
<event>
 7    1  0.5634483E-012  0.5930193E+02  0.7816164E-02  0.1266605E+00
        -11   -1    0    0    0    0  0.00000000000E+00  0.00000000000E+00  0.45593999997E+02  0.45594000000E+02  0.51100000000E-03 0. -1.
         11   -1    0    0    0    0 -0.00000000000E+00 -0.00000000000E+00 -0.45593999997E+02  0.45594000000E+02  0.51100000000E-03 0.  1.
    9900012    2    1    2    0    0 -0.17963283721E+02  0.26275296883E+02 -0.19106911408E+01  0.59301928920E+02  0.49999972446E+02 0.  0.
         12    1    1    2    0    0  0.17963283721E+02 -0.26275296883E+02  0.19106911408E+01  0.31886071080E+02  0.00000000000E+00 0. -1.
         11    1    3    3    0    0  0.20320006220E+01  0.72970676724E+01 -0.77303647085E+01  0.10822881406E+02  0.51100000000E-03 0.  1.
        -11    1    3    3    0    0 -0.12719061035E+02  0.30862379302E+02  0.69097177146E-02  0.33380548495E+02  0.51100000000E-03 0. -1.
         12    1    3    3    0    0 -0.72762233076E+01 -0.11884150092E+02  0.58127638499E+01  0.15098499018E+02  0.00000000000E+00 0. -1.
</event>
<event>
 7    1  0.5634483E-012  0.5930205E+02  0.7816164E-02  0.1266604E+00
        -11   -1    0    0    0    0  0.00000000000E+00  0.00000000000E+00  0.45593999997E+02  0.45594000000E+02  0.51100000000E-03 0. -1.
         11   -1    0    0    0    0 -0.00000000000E+00 -0.00000000000E+00 -0.45593999997E+02  0.45594000000E+02  0.51100000000E-03 0.  1.
    9900012    2    1    2    0    0 -0.13487126701E+02 -0.20447569359E+02 -0.20413431083E+02  0.59302049365E+02  0.50000192110E+02 0.  0.
         12    1    1    2    0    0  0.13487126701E+02  0.20447569359E+02  0.20413431083E+02  0.31885950635E+02  0.00000000000E+00 0. -1.
         11    1    3    3    0    0  0.69104944233E+01  0.45622900945E+01  0.25844010046E+01  0.86745923762E+01  0.51100000000E-03 0. -1.
        -11    1    3    3    0    0 -0.13683706728E+02 -0.22926636215E+02 -0.12631390476E+00  0.26700008116E+02  0.51100000000E-03 0.  1.
        -12    1    3    3    0    0 -0.67139143963E+01 -0.20832232386E+01 -0.22871518182E+02  0.23927448873E+02  0.00000000000E+00 0.  1.
</event>
<event>
 7    1  0.5634483E-012  0.5930201E+02  0.7816164E-02  0.1266605E+00
        -11   -1    0    0    0    0  0.00000000000E+00  0.00000000000E+00  0.45593999997E+02  0.45594000000E+02  0.51100000000E-03 0.  1.
         11   -1    0    0    0    0 -0.00000000000E+00 -0.00000000000E+00 -0.45593999997E+02  0.45594000000E+02  0.51100000000E-03 0. -1.
    9900012    2    1    2    0    0 -0.29038395239E+02  0.57368582033E+01 -0.11856493408E+02  0.59302009722E+02  0.50000119810E+02 0.  0.
         12    1    1    2    0    0  0.29038395239E+02 -0.57368582033E+01  0.11856493408E+02  0.31885990278E+02  0.00000000000E+00 0. -1.
         11    1    3    3    0    0 -0.16934419252E+02 -0.23328240259E+00 -0.22154461081E+02  0.27886360862E+02  0.51100000000E-03 0. -1.
        -11    1    3    3    0    0 -0.13778316193E+02  0.99279524283E+01 -0.31724884197E+01  0.17276310937E+02  0.51100000000E-03 0.  1.
         12    1    3    3    0    0  0.16743402065E+01 -0.39578118224E+01  0.13470456093E+02  0.14139337923E+02  0.00000000000E+00 0. -1.
</event>
<event>
 7    1  0.5634483E-012  0.5930201E+02  0.7816164E-02  0.1266605E+00
        -11   -1    0    0    0    0  0.00000000000E+00  0.00000000000E+00  0.45593999997E+02  0.45594000000E+02  0.51100000000E-03 0.  1.
         11   -1    0    0    0    0 -0.00000000000E+00 -0.00000000000E+00 -0.45593999997E+02  0.45594000000E+02  0.51100000000E-03 0. -1.
    9900012    2    1    2    0    0  0.20825011288E+02  0.22925634479E+02  0.75796324194E+01  0.59302005598E+02  0.50000112289E+02 0.  0.
         12    1    1    2    0    0 -0.20825011288E+02 -0.22925634479E+02 -0.75796324194E+01  0.31885994402E+02  0.00000000000E+00 0. -1.
         11    1    3    3    0    0  0.18720272598E+01  0.10075682663E+02 -0.16203480967E+02  0.19172288932E+02  0.51100000000E-03 0. -1.
        -11    1    3    3    0    0  0.11503363670E+02  0.30766672037E+01 -0.15161285010E+01  0.12003828669E+02  0.51100000000E-03 0.  1.
        -12    1    3    3    0    0  0.74496203580E+01  0.97732846121E+01  0.25299241887E+02  0.28125887997E+02  0.00000000000E+00 0.  1.
</event>
<event>
 7    1  0.5634483E-012  0.5930191E+02  0.7816164E-02  0.1266605E+00
        -11   -1    0    0    0    0  0.00000000000E+00  0.00000000000E+00  0.45593999997E+02  0.45594000000E+02  0.51100000000E-03 0.  1.
         11   -1    0    0    0    0 -0.00000000000E+00 -0.00000000000E+00 -0.45593999997E+02  0.45594000000E+02  0.51100000000E-03 0. -1.
    9900012    2    1    2    0    0  0.85887610537E+01 -0.17870773695E+02  0.24971812283E+02  0.59301909340E+02  0.49999936738E+02 0.  0.
         12    1    1    2    0    0 -0.85887610537E+01  0.17870773695E+02 -0.24971812283E+02  0.31886090660E+02  0.00000000000E+00 0. -1.
         11    1    3    3    0    0  0.13131744521E+02  0.62007119089E+01 -0.67764800052E+00  0.14537907326E+02  0.51100000000E-03 0. -1.
        -11    1    3    3    0    0 -0.15459686838E+01  0.56058395337E+01  0.86760580783E+01  0.10444589034E+02  0.51100000000E-03 0.  1.
         12    1    3    3    0    0 -0.29970147833E+01 -0.29677325137E+02  0.16973402205E+02  0.34319412980E+02  0.00000000000E+00 0. -1.
</event>
<event>
 7    1  0.5634483E-012  0.5930194E+02  0.7816164E-02  0.1266605E+00
        -11   -1    0    0    0    0  0.00000000000E+00  0.00000000000E+00  0.45593999997E+02  0.45594000000E+02  0.51100000000E-03 0.  1.
         11   -1    0    0    0    0 -0.00000000000E+00 -0.00000000000E+00 -0.45593999997E+02  0.45594000000E+02  0.51100000000E-03 0. -1.
    9900012    2    1    2    0    0 -0.26045401402E+02 -0.13654385641E+02  0.12325406134E+02  0.59301940071E+02  0.49999992784E+02 0.  0.
         12    1    1    2    0    0  0.26045401402E+02  0.13654385641E+02 -0.12325406134E+02  0.31886059929E+02  0.00000000000E+00 0. -1.
         11    1    3    3    0    0 -0.20807950313E+02  0.93012555062E+00 -0.59754512143E+01  0.21668916614E+02  0.51100000000E-03 0. -1.
        -11    1    3    3    0    0 -0.59714452499E+01 -0.20999036208E+02  0.43501803544E+01  0.22260767045E+02  0.51100000000E-03 0.  1.
         12    1    3    3    0    0  0.73399416049E+00  0.64145250163E+01  0.13950676994E+02  0.15372256412E+02  0.00000000000E+00 0. -1.
</event>
<event>
 7    1  0.5634483E-012  0.5930194E+02  0.7816164E-02  0.1266605E+00
        -11   -1    0    0    0    0  0.00000000000E+00  0.00000000000E+00  0.45593999997E+02  0.45594000000E+02  0.51100000000E-03 0.  1.
         11   -1    0    0    0    0 -0.00000000000E+00 -0.00000000000E+00 -0.45593999997E+02  0.45594000000E+02  0.51100000000E-03 0. -1.
    9900012    2    1    2    0    0  0.21882873897E+02 -0.19722357205E+02  0.12202012257E+02  0.59301942752E+02  0.49999997674E+02 0.  0.
         12    1    1    2    0    0 -0.21882873897E+02  0.19722357205E+02 -0.12202012257E+02  0.31886057248E+02  0.00000000000E+00 0. -1.
         11    1    3    3    0    0  0.22886431993E+02 -0.27021405056E+02  0.97100266635E+01  0.36718247761E+02  0.51100000000E-03 0. -1.
        -11    1    3    3    0    0 -0.54911235590E+01 -0.21477481923E+01 -0.65109496725E+01  0.87839470705E+01  0.51100000000E-03 0.  1.
        -12    1    3    3    0    0  0.44875654625E+01  0.94467960437E+01  0.90029352656E+01  0.13799747920E+02  0.00000000000E+00 0.  1.
</event>
<event>
 7    1  0.5634483E-012  0.5930194E+02  0.7816164E-02  0.1266605E+00
        -11   -1    0    0    0    0  0.00000000000E+00  0.00000000000E+00  0.45593999997E+02  0.45594000000E+02  0.51100000000E-03 0.  1.
         11   -1    0    0    0    0 -0.00000000000E+00 -0.00000000000E+00 -0.45593999997E+02  0.45594000000E+02  0.51100000000E-03 0. -1.
    9900012    2    1    2    0    0  0.31193556011E+02 -0.59209813144E+01 -0.29368254720E+01  0.59301938779E+02  0.49999990427E+02 0.  0.
         12    1    1    2    0    0 -0.31193556011E+02  0.59209813144E+01  0.29368254720E+01  0.31886061221E+02  0.00000000000E+00 0. -1.
         11    1    3    3    0    0  0.10482409688E+02 -0.16486480834E+02 -0.66249988214E+01  0.20629483096E+02  0.51100000000E-03 0. -1.
        -11    1    3    3    0    0  0.36745889811E+01 -0.90279182299E+01 -0.54251764089E+01  0.11155198388E+02  0.51100000000E-03 0.  1.
        -12    1    3    3    0    0  0.17036557342E+02  0.19593417750E+02  0.91133497583E+01  0.27517257294E+02  0.00000000000E+00 0.  1.
</event>
<event>
 7    1  0.5634483E-012  0.5930192E+02  0.7816164E-02  0.1266605E+00
        -11   -1    0    0    0    0  0.00000000000E+00  0.00000000000E+00  0.45593999997E+02  0.45594000000E+02  0.51100000000E-03 0. -1.
         11   -1    0    0    0    0 -0.00000000000E+00 -0.00000000000E+00 -0.45593999997E+02  0.45594000000E+02  0.51100000000E-03 0.  1.
    9900012    2    1    2    0    0 -0.27574424331E+02 -0.11004485091E+02  0.11630750839E+02  0.59301922562E+02  0.49999960851E+02 0.  0.
         12    1    1    2    0    0  0.27574424331E+02  0.11004485091E+02 -0.11630750839E+02  0.31886077438E+02  0.00000000000E+00 0. -1.
         11    1    3    3    0    0 -0.21661412553E+02  0.69713905242E+01 -0.10463436220E+02  0.25045969285E+02  0.51100000000E-03 0.  1.
        -11    1    3    3    0    0  0.37668016903E+01  0.15191950814E+01  0.57353734988E+01  0.70278914407E+01  0.51100000000E-03 0. -1.
        -12    1    3    3    0    0 -0.96798134682E+01 -0.19495070697E+02  0.16358813560E+02  0.27228061836E+02  0.00000000000E+00 0.  1.
</event>
<event>
 7    1  0.5634483E-012  0.5930198E+02  0.7816164E-02  0.1266605E+00
        -11   -1    0    0    0    0  0.00000000000E+00  0.00000000000E+00  0.45593999997E+02  0.45594000000E+02  0.51100000000E-03 0. -1.
         11   -1    0    0    0    0 -0.00000000000E+00 -0.00000000000E+00 -0.45593999997E+02  0.45594000000E+02  0.51100000000E-03 0.  1.
    9900012    2    1    2    0    0 -0.26641724973E+02 -0.91083757396E+01  0.14965774518E+02  0.59301977591E+02  0.50000061211E+02 0.  0.
         12    1    1    2    0    0  0.26641724973E+02  0.91083757396E+01 -0.14965774518E+02  0.31886022409E+02  0.00000000000E+00 0. -1.
         11    1    3    3    0    0  0.42337473213E+01 -0.11452354671E+02 -0.46296694588E+01  0.13058134762E+02  0.51100000000E-03 0. -1.
        -11    1    3    3    0    0 -0.35054562577E+01 -0.26160989668E+00 -0.70997422638E+01  0.79223105081E+01  0.51100000000E-03 0.  1.
         12    1    3    3    0    0 -0.27370016037E+02  0.26055888283E+01  0.26695186241E+02  0.38321532321E+02  0.00000000000E+00 0. -1.
</event>
<event>
 7    1  0.5634483E-012  0.5930199E+02  0.7816164E-02  0.1266605E+00
        -11   -1    0    0    0    0  0.00000000000E+00  0.00000000000E+00  0.45593999997E+02  0.45594000000E+02  0.51100000000E-03 0.  1.
         11   -1    0    0    0    0 -0.00000000000E+00 -0.00000000000E+00 -0.45593999997E+02  0.45594000000E+02  0.51100000000E-03 0. -1.
    9900012    2    1    2    0    0 -0.75755639051E+01 -0.30917407594E+02 -0.18553754542E+01  0.59301989292E+02  0.50000082551E+02 0.  0.
         12    1    1    2    0    0  0.75755639051E+01  0.30917407594E+02  0.18553754542E+01  0.31886010708E+02  0.00000000000E+00 0. -1.
         11    1    3    3    0    0  0.73292270976E+01  0.55890445275E+01  0.48159199726E+00  0.92296760340E+01  0.51100000000E-03 0. -1.
        -11    1    3    3    0    0  0.37324773094E+01 -0.18045658864E+02  0.10129514190E+02  0.21028177493E+02  0.51100000000E-03 0.  1.
        -12    1    3    3    0    0 -0.18637268312E+02 -0.18460793258E+02 -0.12466481641E+02  0.29044135765E+02  0.00000000000E+00 0.  1.
</event>
<event>
 7    1  0.5634483E-012  0.5930193E+02  0.7816164E-02  0.1266605E+00
        -11   -1    0    0    0    0  0.00000000000E+00  0.00000000000E+00  0.45593999997E+02  0.45594000000E+02  0.51100000000E-03 0.  1.
         11   -1    0    0    0    0 -0.00000000000E+00 -0.00000000000E+00 -0.45593999997E+02  0.45594000000E+02  0.51100000000E-03 0. -1.
    9900012    2    1    2    0    0  0.22338798420E+02  0.11827547350E+02  0.19437305240E+02  0.59301927396E+02  0.49999969667E+02 0.  0.
         12    1    1    2    0    0 -0.22338798420E+02 -0.11827547350E+02 -0.19437305240E+02  0.31886072604E+02  0.00000000000E+00 0. -1.
         11    1    3    3    0    0 -0.22451329762E+01  0.18907618670E+01  0.39169590360E+01  0.48947084560E+01  0.51100000000E-03 0. -1.
        -11    1    3    3    0    0  0.98159315565E+00  0.24056146126E+02  0.32630097472E+01  0.24296273880E+02  0.51100000000E-03 0.  1.
         12    1    3    3    0    0  0.23602338240E+02 -0.14119360643E+02  0.12257336456E+02  0.30110945060E+02  0.00000000000E+00 0. -1.
</event>
<event>
 7    1  0.5634483E-012  0.5930194E+02  0.7816164E-02  0.1266605E+00
        -11   -1    0    0    0    0  0.00000000000E+00  0.00000000000E+00  0.45593999997E+02  0.45594000000E+02  0.51100000000E-03 0. -1.
         11   -1    0    0    0    0 -0.00000000000E+00 -0.00000000000E+00 -0.45593999997E+02  0.45594000000E+02  0.51100000000E-03 0.  1.
    9900012    2    1    2    0    0 -0.22980596997E+02 -0.21487936356E+02  0.51847426740E+01  0.59301940291E+02  0.49999993185E+02 0.  0.
         12    1    1    2    0    0  0.22980596997E+02  0.21487936356E+02 -0.51847426740E+01  0.31886059709E+02  0.00000000000E+00 0. -1.
         11    1    3    3    0    0 -0.42564637583E+01 -0.68726644524E+00 -0.69673003681E+01  0.81934787223E+01  0.51100000000E-03 0. -1.
        -11    1    3    3    0    0 -0.78846411924E+01  0.12411436371E+02  0.33695536533E+01  0.15085264718E+02  0.51100000000E-03 0.  1.
         12    1    3    3    0    0 -0.10839492046E+02 -0.33212106282E+02  0.87824893888E+01  0.36023196851E+02  0.00000000000E+00 0. -1.
</event>
<event>
 7    1  0.5634483E-012  0.5930194E+02  0.7816164E-02  0.1266605E+00
        -11   -1    0    0    0    0  0.00000000000E+00  0.00000000000E+00  0.45593999997E+02  0.45594000000E+02  0.51100000000E-03 0.  1.
         11   -1    0    0    0    0 -0.00000000000E+00 -0.00000000000E+00 -0.45593999997E+02  0.45594000000E+02  0.51100000000E-03 0. -1.
    9900012    2    1    2    0    0  0.90188185944E+01  0.53644146922E+01  0.30109878095E+02  0.59301940464E+02  0.49999993500E+02 0.  0.
         12    1    1    2    0    0 -0.90188185944E+01 -0.53644146922E+01 -0.30109878095E+02  0.31886059536E+02  0.00000000000E+00 0. -1.
         11    1    3    3    0    0 -0.99012373581E+01  0.27884924846E+01  0.17210849331E+02  0.20050524345E+02  0.51100000000E-03 0. -1.
        -11    1    3    3    0    0  0.13160820457E+02  0.97208056275E+01  0.21266636673E+02  0.26832277071E+02  0.51100000000E-03 0.  1.
        -12    1    3    3    0    0  0.57592354959E+01 -0.71448834199E+01 -0.83676079089E+01  0.12419139048E+02  0.00000000000E+00 0.  1.
</event>
<event>
 7    1  0.5634483E-012  0.5930195E+02  0.7816164E-02  0.1266605E+00
        -11   -1    0    0    0    0  0.00000000000E+00  0.00000000000E+00  0.45593999997E+02  0.45594000000E+02  0.51100000000E-03 0. -1.
         11   -1    0    0    0    0 -0.00000000000E+00 -0.00000000000E+00 -0.45593999997E+02  0.45594000000E+02  0.51100000000E-03 0.  1.
    9900012    2    1    2    0    0 -0.27964102163E+02 -0.96250708926E+01 -0.11920038166E+02  0.59301948044E+02  0.50000007325E+02 0.  0.
         12    1    1    2    0    0  0.27964102163E+02  0.96250708926E+01  0.11920038166E+02  0.31886051956E+02  0.00000000000E+00 0. -1.
         11    1    3    3    0    0 -0.11713852697E+01 -0.56109075722E+01  0.10958989355E+02  0.12367452251E+02  0.51100000000E-03 0. -1.
        -11    1    3    3    0    0 -0.27370518024E+02 -0.86594133419E+01 -0.58812307688E+01  0.29303917348E+02  0.51100000000E-03 0.  1.
        -12    1    3    3    0    0  0.57780113122E+00  0.46452500215E+01 -0.16997796752E+02  0.17630578445E+02  0.00000000000E+00 0.  1.
</event>
<event>
 7    1  0.5634483E-012  0.5930191E+02  0.7816164E-02  0.1266605E+00
        -11   -1    0    0    0    0  0.00000000000E+00  0.00000000000E+00  0.45593999997E+02  0.45594000000E+02  0.51100000000E-03 0.  1.
         11   -1    0    0    0    0 -0.00000000000E+00 -0.00000000000E+00 -0.45593999997E+02  0.45594000000E+02  0.51100000000E-03 0. -1.
    9900012    2    1    2    0    0 -0.30629540376E+01  0.31531142381E+02  0.36232350580E+01  0.59301914327E+02  0.49999945832E+02 0.  0.
         12    1    1    2    0    0  0.30629540376E+01 -0.31531142381E+02 -0.36232350580E+01  0.31886085673E+02  0.00000000000E+00 0. -1.
         11    1    3    3    0    0  0.62293133470E+01  0.19953110175E+02  0.13369559349E+02  0.24812820635E+02  0.51100000000E-03 0. -1.
        -11    1    3    3    0    0 -0.44079224311E+01  0.10293392203E+02  0.94421430040E+01  0.14647107836E+02  0.51100000000E-03 0.  1.
         12    1    3    3    0    0 -0.48843449536E+01  0.12846400035E+01 -0.19188467295E+02  0.19841985855E+02  0.00000000000E+00 0. -1.
</event>
<event>
 7    1  0.5634483E-012  0.5930194E+02  0.7816164E-02  0.1266605E+00
        -11   -1    0    0    0    0  0.00000000000E+00  0.00000000000E+00  0.45593999997E+02  0.45594000000E+02  0.51100000000E-03 0. -1.
         11   -1    0    0    0    0 -0.00000000000E+00 -0.00000000000E+00 -0.45593999997E+02  0.45594000000E+02  0.51100000000E-03 0.  1.
    9900012    2    1    2    0    0  0.15896354572E+02  0.39829499814E+00 -0.27638163944E+02  0.59301939821E+02  0.49999992327E+02 0.  0.
         12    1    1    2    0    0 -0.15896354572E+02 -0.39829499814E+00  0.27638163944E+02  0.31886060179E+02  0.00000000000E+00 0. -1.
         11    1    3    3    0    0  0.75738447346E+00  0.39291570839E+01  0.17102648416E+01  0.43516563192E+01  0.51100000000E-03 0. -1.
        -11    1    3    3    0    0  0.72552866564E+01  0.20167979881E+02 -0.14793906990E+02  0.26043161890E+02  0.51100000000E-03 0.  1.
         12    1    3    3    0    0  0.78836834421E+01 -0.23698841967E+02 -0.14554521796E+02  0.28907121612E+02  0.00000000000E+00 0. -1.
</event>
<event>
 7    1  0.5634483E-012  0.5930194E+02  0.7816164E-02  0.1266605E+00
        -11   -1    0    0    0    0  0.00000000000E+00  0.00000000000E+00  0.45593999997E+02  0.45594000000E+02  0.51100000000E-03 0. -1.
         11   -1    0    0    0    0 -0.00000000000E+00 -0.00000000000E+00 -0.45593999997E+02  0.45594000000E+02  0.51100000000E-03 0.  1.
    9900012    2    1    2    0    0  0.16263940883E+02  0.21896884245E+02 -0.16514579951E+02  0.59301942488E+02  0.49999997192E+02 0.  0.
         12    1    1    2    0    0 -0.16263940883E+02 -0.21896884245E+02  0.16514579951E+02  0.31886057512E+02  0.00000000000E+00 0. -1.
         11    1    3    3    0    0 -0.74918974675E+00  0.16084780726E+02 -0.17577988221E+02  0.23838354105E+02  0.51100000000E-03 0. -1.
        -11    1    3    3    0    0  0.74296348058E+01  0.18129748328E+02 -0.14892153092E+01  0.19649554964E+02  0.51100000000E-03 0.  1.
         12    1    3    3    0    0  0.95834958241E+01 -0.12317644809E+02  0.25526235784E+01  0.15814033419E+02  0.00000000000E+00 0. -1.
</event>
<event>
 7    1  0.5634483E-012  0.5930197E+02  0.7816164E-02  0.1266605E+00
        -11   -1    0    0    0    0  0.00000000000E+00  0.00000000000E+00  0.45593999997E+02  0.45594000000E+02  0.51100000000E-03 0. -1.
         11   -1    0    0    0    0 -0.00000000000E+00 -0.00000000000E+00 -0.45593999997E+02  0.45594000000E+02  0.51100000000E-03 0.  1.
    9900012    2    1    2    0    0 -0.71379712808E+01  0.55168348409E+01 -0.30583206576E+02  0.59301974453E+02  0.50000055489E+02 0.  0.
         12    1    1    2    0    0  0.71379712808E+01 -0.55168348409E+01  0.30583206576E+02  0.31886025547E+02  0.00000000000E+00 0. -1.
         11    1    3    3    0    0  0.10619426490E+02 -0.26907993480E+01  0.43957077925E+01  0.11804019119E+02  0.51100000000E-03 0. -1.
        -11    1    3    3    0    0 -0.90983362772E+01 -0.87774296817E+01 -0.17816385487E+02  0.21845974158E+02  0.51100000000E-03 0.  1.
        -12    1    3    3    0    0 -0.86590614937E+01  0.16985063871E+02 -0.17162528881E+02  0.25651981176E+02  0.00000000000E+00 0.  1.
</event>
<event>
 7    1  0.5634483E-012  0.5930202E+02  0.7816164E-02  0.1266605E+00
        -11   -1    0    0    0    0  0.00000000000E+00  0.00000000000E+00  0.45593999997E+02  0.45594000000E+02  0.51100000000E-03 0. -1.
         11   -1    0    0    0    0 -0.00000000000E+00 -0.00000000000E+00 -0.45593999997E+02  0.45594000000E+02  0.51100000000E-03 0.  1.
    9900012    2    1    2    0    0 -0.14633127741E+02  0.20511887978E+02 -0.19540978030E+02  0.59302018782E+02  0.50000136333E+02 0.  0.
         12    1    1    2    0    0  0.14633127741E+02 -0.20511887978E+02  0.19540978030E+02  0.31885981218E+02  0.00000000000E+00 0. -1.
         11    1    3    3    0    0 -0.12720922532E+02  0.54857122895E+01 -0.94299165980E+01  0.16758228925E+02  0.51100000000E-03 0. -1.
        -11    1    3    3    0    0 -0.65691911490E+01  0.26919722961E+02 -0.28614229304E+01  0.27857018830E+02  0.51100000000E-03 0.  1.
        -12    1    3    3    0    0  0.46569859409E+01 -0.11893547273E+02 -0.72496385014E+01  0.14686771027E+02  0.00000000000E+00 0.  1.
</event>
<event>
 7    1  0.5634483E-012  0.5930196E+02  0.7816164E-02  0.1266605E+00
        -11   -1    0    0    0    0  0.00000000000E+00  0.00000000000E+00  0.45593999997E+02  0.45594000000E+02  0.51100000000E-03 0.  1.
         11   -1    0    0    0    0 -0.00000000000E+00 -0.00000000000E+00 -0.45593999997E+02  0.45594000000E+02  0.51100000000E-03 0. -1.
    9900012    2    1    2    0    0 -0.74863634409E+01  0.14909613742E+02  0.27173096800E+02  0.59301962159E+02  0.50000033067E+02 0.  0.
         12    1    1    2    0    0  0.74863634409E+01 -0.14909613742E+02 -0.27173096800E+02  0.31886037841E+02  0.00000000000E+00 0. -1.
         11    1    3    3    0    0  0.10151708598E+01  0.31747697289E+01  0.46894251690E+00  0.33659533645E+01  0.51100000000E-03 0. -1.
        -11    1    3    3    0    0 -0.25282847692E+02 -0.24567090606E+01  0.68277757912E+01  0.26303542145E+02  0.51100000000E-03 0.  1.
         12    1    3    3    0    0  0.16781313392E+02  0.14191553073E+02  0.19876378492E+02  0.29632466650E+02  0.00000000000E+00 0. -1.
</event>
<event>
 7    1  0.5634483E-012  0.5930196E+02  0.7816164E-02  0.1266605E+00
        -11   -1    0    0    0    0  0.00000000000E+00  0.00000000000E+00  0.45593999997E+02  0.45594000000E+02  0.51100000000E-03 0.  1.
         11   -1    0    0    0    0 -0.00000000000E+00 -0.00000000000E+00 -0.45593999997E+02  0.45594000000E+02  0.51100000000E-03 0. -1.
    9900012    2    1    2    0    0 -0.48398818636E+01 -0.34396067832E+01  0.31328327762E+02  0.59301961180E+02  0.50000031282E+02 0.  0.
         12    1    1    2    0    0  0.48398818636E+01  0.34396067832E+01 -0.31328327762E+02  0.31886038820E+02  0.00000000000E+00 0. -1.
         11    1    3    3    0    0  0.42416268809E+01  0.22792682668E+01  0.87963100854E+01  0.10028037386E+02  0.51100000000E-03 0. -1.
        -11    1    3    3    0    0 -0.15778899402E+01 -0.41200493736E+01  0.34650938393E+02  0.34930675277E+02  0.51100000000E-03 0.  1.
        -12    1    3    3    0    0 -0.75036188043E+01 -0.15988256764E+01 -0.12118920717E+02  0.14343248518E+02  0.00000000000E+00 0.  1.
</event>
<event>
 7    1  0.5634483E-012  0.5930200E+02  0.7816164E-02  0.1266605E+00
        -11   -1    0    0    0    0  0.00000000000E+00  0.00000000000E+00  0.45593999997E+02  0.45594000000E+02  0.51100000000E-03 0.  1.
         11   -1    0    0    0    0 -0.00000000000E+00 -0.00000000000E+00 -0.45593999997E+02  0.45594000000E+02  0.51100000000E-03 0. -1.
    9900012    2    1    2    0    0  0.29337312634E+02  0.32512159722E+01 -0.12061041123E+02  0.59301999453E+02  0.50000101082E+02 0.  0.
         12    1    1    2    0    0 -0.29337312634E+02 -0.32512159722E+01  0.12061041123E+02  0.31886000547E+02  0.00000000000E+00 0. -1.
         11    1    3    3    0    0  0.48433726152E+01 -0.10657203881E+02 -0.87677087451E+01  0.14625558784E+02  0.51100000000E-03 0. -1.
        -11    1    3    3    0    0 -0.57582340353E+01 -0.55786174343E+01  0.21035503492E+01  0.82887366960E+01  0.51100000000E-03 0.  1.
        -12    1    3    3    0    0  0.30252174055E+02  0.19487037287E+02 -0.53968827271E+01  0.36387703973E+02  0.00000000000E+00 0.  1.
</event>
<event>
 7    1  0.5634483E-012  0.5930193E+02  0.7816164E-02  0.1266605E+00
        -11   -1    0    0    0    0  0.00000000000E+00  0.00000000000E+00  0.45593999997E+02  0.45594000000E+02  0.51100000000E-03 0. -1.
         11   -1    0    0    0    0 -0.00000000000E+00 -0.00000000000E+00 -0.45593999997E+02  0.45594000000E+02  0.51100000000E-03 0.  1.
    9900012    2    1    2    0    0 -0.23907680176E+02  0.20147319159E+02 -0.62633645466E+01  0.59301931316E+02  0.49999976816E+02 0.  0.
         12    1    1    2    0    0  0.23907680176E+02 -0.20147319159E+02  0.62633645466E+01  0.31886068684E+02  0.00000000000E+00 0. -1.
         11    1    3    3    0    0 -0.10080777406E+02 -0.51996936413E+01 -0.56667659312E+01  0.12679555333E+02  0.51100000000E-03 0. -1.
        -11    1    3    3    0    0  0.39489337687E+01 -0.74341257339E+01 -0.37160648855E+01  0.92015999604E+01  0.51100000000E-03 0.  1.
        -12    1    3    3    0    0 -0.17775836539E+02  0.32781138534E+02  0.31194662702E+01  0.37420776022E+02  0.00000000000E+00 0.  1.
</event>
<event>
 7    1  0.5634483E-012  0.5930194E+02  0.7816164E-02  0.1266605E+00
        -11   -1    0    0    0    0  0.00000000000E+00  0.00000000000E+00  0.45593999997E+02  0.45594000000E+02  0.51100000000E-03 0. -1.
         11   -1    0    0    0    0 -0.00000000000E+00 -0.00000000000E+00 -0.45593999997E+02  0.45594000000E+02  0.51100000000E-03 0.  1.
    9900012    2    1    2    0    0  0.15060710501E+01  0.12859562787E+02 -0.29139049449E+02  0.59301940227E+02  0.49999993068E+02 0.  0.
         12    1    1    2    0    0 -0.15060710501E+01 -0.12859562787E+02  0.29139049449E+02  0.31886059773E+02  0.00000000000E+00 0. -1.
         11    1    3    3    0    0  0.15657857462E+01 -0.86229901424E-01  0.36883035122E+01  0.40078302931E+01  0.51100000000E-03 0. -1.
        -11    1    3    3    0    0 -0.14404898409E+02  0.13473767266E+01  0.32009282300E+01  0.14817640298E+02  0.51100000000E-03 0.  1.
        -12    1    3    3    0    0  0.14345183713E+02  0.11598415962E+02 -0.36028281191E+02  0.40476469636E+02  0.00000000000E+00 0.  1.
</event>
<event>
 7    1  0.5634483E-012  0.5930196E+02  0.7816164E-02  0.1266605E+00
        -11   -1    0    0    0    0  0.00000000000E+00  0.00000000000E+00  0.45593999997E+02  0.45594000000E+02  0.51100000000E-03 0.  1.
         11   -1    0    0    0    0 -0.00000000000E+00 -0.00000000000E+00 -0.45593999997E+02  0.45594000000E+02  0.51100000000E-03 0. -1.
    9900012    2    1    2    0    0  0.22020608681E+02  0.30287954010E+01  0.22861288597E+02  0.59301963486E+02  0.50000035487E+02 0.  0.
         12    1    1    2    0    0 -0.22020608681E+02 -0.30287954010E+01 -0.22861288597E+02  0.31886036514E+02  0.00000000000E+00 0. -1.
         11    1    3    3    0    0  0.14199695560E+02  0.50883608859E+01 -0.36712625680E+01  0.15524204959E+02  0.51100000000E-03 0. -1.
        -11    1    3    3    0    0  0.15405545658E+02 -0.92402909262E+01  0.32446439237E+01  0.18254904215E+02  0.51100000000E-03 0.  1.
         12    1    3    3    0    0 -0.75846325371E+01  0.71807254413E+01  0.23287907241E+02  0.25522854312E+02  0.00000000000E+00 0. -1.
</event>
<event>
 7    1  0.5634483E-012  0.5930196E+02  0.7816164E-02  0.1266605E+00
        -11   -1    0    0    0    0  0.00000000000E+00  0.00000000000E+00  0.45593999997E+02  0.45594000000E+02  0.51100000000E-03 0.  1.
         11   -1    0    0    0    0 -0.00000000000E+00 -0.00000000000E+00 -0.45593999997E+02  0.45594000000E+02  0.51100000000E-03 0. -1.
    9900012    2    1    2    0    0 -0.61594253275E+01  0.30101672782E+02  0.85246842364E+01  0.59301961269E+02  0.50000031444E+02 0.  0.
         12    1    1    2    0    0  0.61594253275E+01 -0.30101672782E+02 -0.85246842364E+01  0.31886038731E+02  0.00000000000E+00 0. -1.
         11    1    3    3    0    0  0.78305785078E+00  0.24055490176E+02 -0.37803968424E+01  0.24363316436E+02  0.51100000000E-03 0. -1.
        -11    1    3    3    0    0 -0.11104114379E+02  0.14348231495E+02  0.16705014682E+02  0.24662331986E+02  0.51100000000E-03 0.  1.
        -12    1    3    3    0    0  0.41616312010E+01 -0.83020488895E+01 -0.43999336033E+01  0.10276312847E+02  0.00000000000E+00 0.  1.
</event>
<event>
 7    1  0.5634483E-012  0.5930193E+02  0.7816164E-02  0.1266605E+00
        -11   -1    0    0    0    0  0.00000000000E+00  0.00000000000E+00  0.45593999997E+02  0.45594000000E+02  0.51100000000E-03 0. -1.
         11   -1    0    0    0    0 -0.00000000000E+00 -0.00000000000E+00 -0.45593999997E+02  0.45594000000E+02  0.51100000000E-03 0.  1.
    9900012    2    1    2    0    0  0.14949377062E+02  0.21737936787E+02 -0.17908084502E+02  0.59301933124E+02  0.49999980114E+02 0.  0.
         12    1    1    2    0    0 -0.14949377062E+02 -0.21737936787E+02  0.17908084502E+02  0.31886066876E+02  0.00000000000E+00 0. -1.
         11    1    3    3    0    0  0.59709034847E+01  0.51374648685E+01  0.72665917133E+01  0.10716743399E+02  0.51100000000E-03 0. -1.
        -11    1    3    3    0    0  0.43706033860E+01  0.21761077495E+02  0.28988419635E+00  0.22197538170E+02  0.51100000000E-03 0.  1.
        -12    1    3    3    0    0  0.46078701909E+01 -0.51606055762E+01 -0.25464560412E+02  0.26387651555E+02  0.00000000000E+00 0.  1.
</event>
<event>
 7    1  0.5634483E-012  0.5930193E+02  0.7816164E-02  0.1266605E+00
        -11   -1    0    0    0    0  0.00000000000E+00  0.00000000000E+00  0.45593999997E+02  0.45594000000E+02  0.51100000000E-03 0.  1.
         11   -1    0    0    0    0 -0.00000000000E+00 -0.00000000000E+00 -0.45593999997E+02  0.45594000000E+02  0.51100000000E-03 0. -1.
    9900012    2    1    2    0    0 -0.30451808369E+02 -0.85056133223E+01  0.41307724764E+01  0.59301931378E+02  0.49999976930E+02 0.  0.
         12    1    1    2    0    0  0.30451808369E+02  0.85056133223E+01 -0.41307724764E+01  0.31886068622E+02  0.00000000000E+00 0. -1.
         11    1    3    3    0    0 -0.44417633773E+01 -0.10821696409E+02 -0.77257894398E+01  0.14018780182E+02  0.51100000000E-03 0. -1.
        -11    1    3    3    0    0 -0.19716617560E+02  0.22173909915E+01 -0.10225966923E+02  0.22321116248E+02  0.51100000000E-03 0.  1.
        -12    1    3    3    0    0 -0.62934274317E+01  0.98692095560E-01  0.22082528839E+02  0.22962034947E+02  0.00000000000E+00 0.  1.
</event>
<event>
 7    1  0.5634483E-012  0.5930194E+02  0.7816164E-02  0.1266605E+00
        -11   -1    0    0    0    0  0.00000000000E+00  0.00000000000E+00  0.45593999997E+02  0.45594000000E+02  0.51100000000E-03 0.  1.
         11   -1    0    0    0    0 -0.00000000000E+00 -0.00000000000E+00 -0.45593999997E+02  0.45594000000E+02  0.51100000000E-03 0. -1.
    9900012    2    1    2    0    0  0.40719374561E-01  0.27616107756E+02  0.15939559211E+02  0.59301943275E+02  0.49999998626E+02 0.  0.
         12    1    1    2    0    0 -0.40719374561E-01 -0.27616107756E+02 -0.15939559211E+02  0.31886056725E+02  0.00000000000E+00 0. -1.
         11    1    3    3    0    0 -0.10397277488E+02  0.25800978408E+02  0.10876157314E+02  0.29867786395E+02  0.51100000000E-03 0. -1.
        -11    1    3    3    0    0  0.73268432571E+01  0.12035524550E+02  0.10380043180E+02  0.17500907977E+02  0.51100000000E-03 0.  1.
         12    1    3    3    0    0  0.31111536051E+01 -0.10220395202E+02 -0.53166412836E+01  0.11933248903E+02  0.00000000000E+00 0. -1.
</event>
<event>
 7    1  0.5634483E-012  0.5930195E+02  0.7816164E-02  0.1266605E+00
        -11   -1    0    0    0    0  0.00000000000E+00  0.00000000000E+00  0.45593999997E+02  0.45594000000E+02  0.51100000000E-03 0. -1.
         11   -1    0    0    0    0 -0.00000000000E+00 -0.00000000000E+00 -0.45593999997E+02  0.45594000000E+02  0.51100000000E-03 0.  1.
    9900012    2    1    2    0    0  0.16809503292E+02 -0.12629856734E+02  0.23971802856E+02  0.59301952671E+02  0.50000015764E+02 0.  0.
         12    1    1    2    0    0 -0.16809503292E+02  0.12629856734E+02 -0.23971802856E+02  0.31886047329E+02  0.00000000000E+00 0. -1.
         11    1    3    3    0    0  0.21795210417E+02 -0.37626528889E+01 -0.57281564554E+01  0.22847330928E+02  0.51100000000E-03 0. -1.
        -11    1    3    3    0    0  0.64041382516E+01 -0.40881525714E+00  0.57414301956E+01  0.86106990199E+01  0.51100000000E-03 0.  1.
         12    1    3    3    0    0 -0.11389845377E+02 -0.84583885883E+01  0.23958529116E+02  0.27843922723E+02  0.00000000000E+00 0. -1.
</event>
<event>
 7    1  0.5634483E-012  0.5930198E+02  0.7816164E-02  0.1266605E+00
        -11   -1    0    0    0    0  0.00000000000E+00  0.00000000000E+00  0.45593999997E+02  0.45594000000E+02  0.51100000000E-03 0. -1.
         11   -1    0    0    0    0 -0.00000000000E+00 -0.00000000000E+00 -0.45593999997E+02  0.45594000000E+02  0.51100000000E-03 0.  1.
    9900012    2    1    2    0    0  0.79600195274E+01 -0.41216303993E+01 -0.30600134232E+02  0.59301984836E+02  0.50000074425E+02 0.  0.
         12    1    1    2    0    0 -0.79600195274E+01  0.41216303993E+01  0.30600134232E+02  0.31886015164E+02  0.00000000000E+00 0. -1.
         11    1    3    3    0    0 -0.17421531049E+02 -0.26644257992E+01 -0.21584171915E+02  0.27865487371E+02  0.51100000000E-03 0. -1.
        -11    1    3    3    0    0  0.37181259151E+01 -0.15442430756E+01 -0.89047632811E+01  0.97726125652E+01  0.51100000000E-03 0.  1.
        -12    1    3    3    0    0  0.21663424661E+02  0.87038475566E-01 -0.11119903593E+00  0.21663884900E+02  0.00000000000E+00 0.  1.
</event>
<event>
 7    1  0.5634483E-012  0.5930198E+02  0.7816164E-02  0.1266605E+00
        -11   -1    0    0    0    0  0.00000000000E+00  0.00000000000E+00  0.45593999997E+02  0.45594000000E+02  0.51100000000E-03 0.  1.
         11   -1    0    0    0    0 -0.00000000000E+00 -0.00000000000E+00 -0.45593999997E+02  0.45594000000E+02  0.51100000000E-03 0. -1.
    9900012    2    1    2    0    0 -0.24531279829E+02  0.12538911794E+02 -0.16053364152E+02  0.59301976422E+02  0.50000059079E+02 0.  0.
         12    1    1    2    0    0  0.24531279829E+02 -0.12538911794E+02  0.16053364152E+02  0.31886023578E+02  0.00000000000E+00 0. -1.
         11    1    3    3    0    0 -0.12455276932E+02 -0.42807687080E+01 -0.25088385220E+01  0.13407206092E+02  0.51100000000E-03 0. -1.
        -11    1    3    3    0    0 -0.12500809983E+02  0.19941047771E+02  0.74335954014E+01  0.24681450064E+02  0.51100000000E-03 0.  1.
        -12    1    3    3    0    0  0.42480708620E+00 -0.31213672693E+01 -0.20978121031E+02  0.21213320266E+02  0.00000000000E+00 0.  1.
</event>
<event>
 7    1  0.5634483E-012  0.5930195E+02  0.7816164E-02  0.1266605E+00
        -11   -1    0    0    0    0  0.00000000000E+00  0.00000000000E+00  0.45593999997E+02  0.45594000000E+02  0.51100000000E-03 0.  1.
         11   -1    0    0    0    0 -0.00000000000E+00 -0.00000000000E+00 -0.45593999997E+02  0.45594000000E+02  0.51100000000E-03 0. -1.
    9900012    2    1    2    0    0  0.11380328431E+02 -0.12526663976E+01  0.29759684777E+02  0.59301954677E+02  0.50000019421E+02 0.  0.
         12    1    1    2    0    0 -0.11380328431E+02  0.12526663976E+01 -0.29759684777E+02  0.31886045323E+02  0.00000000000E+00 0. -1.
         11    1    3    3    0    0  0.16932908854E+02  0.14719882995E+01  0.27701123438E+02  0.32499882951E+02  0.51100000000E-03 0. -1.
        -11    1    3    3    0    0 -0.12122629313E+01 -0.25006647694E+01  0.13906867496E+02  0.14181814747E+02  0.51100000000E-03 0.  1.
         12    1    3    3    0    0 -0.43403174918E+01 -0.22398992766E+00 -0.11848306157E+02  0.12620256979E+02  0.00000000000E+00 0. -1.
</event>
<event>
 7    1  0.5634483E-012  0.5930207E+02  0.7816164E-02  0.1266604E+00
        -11   -1    0    0    0    0  0.00000000000E+00  0.00000000000E+00  0.45593999997E+02  0.45594000000E+02  0.51100000000E-03 0. -1.
         11   -1    0    0    0    0 -0.00000000000E+00 -0.00000000000E+00 -0.45593999997E+02  0.45594000000E+02  0.51100000000E-03 0.  1.
    9900012    2    1    2    0    0 -0.51244054871E+01  0.72012327083E+01 -0.30636501417E+02  0.59302070451E+02  0.50000230566E+02 0.  0.
         12    1    1    2    0    0  0.51244054871E+01 -0.72012327083E+01  0.30636501417E+02  0.31885929549E+02  0.00000000000E+00 0. -1.
         11    1    3    3    0    0  0.68047532253E+01  0.16963782999E+01 -0.49936685434E+01  0.86092445415E+01  0.51100000000E-03 0. -1.
        -11    1    3    3    0    0  0.92682505692E+01  0.29511130260E+01  0.67906499694E+01  0.11862649956E+02  0.51100000000E-03 0.  1.
        -12    1    3    3    0    0 -0.21197409282E+02  0.25537413824E+01 -0.32433482843E+02  0.38830175954E+02  0.00000000000E+00 0.  1.
</event>
<event>
 7    1  0.5634483E-012  0.5930199E+02  0.7816164E-02  0.1266605E+00
        -11   -1    0    0    0    0  0.00000000000E+00  0.00000000000E+00  0.45593999997E+02  0.45594000000E+02  0.51100000000E-03 0. -1.
         11   -1    0    0    0    0 -0.00000000000E+00 -0.00000000000E+00 -0.45593999997E+02  0.45594000000E+02  0.51100000000E-03 0.  1.
    9900012    2    1    2    0    0  0.43948539265E+01 -0.17577402687E+02 -0.26238092658E+02  0.59301994722E+02  0.50000092454E+02 0.  0.
         12    1    1    2    0    0 -0.43948539265E+01  0.17577402687E+02  0.26238092658E+02  0.31886005278E+02  0.00000000000E+00 0. -1.
         11    1    3    3    0    0  0.10453856290E+02  0.27650337887E+01 -0.49061526496E+01  0.11874293969E+02  0.51100000000E-03 0. -1.
        -11    1    3    3    0    0  0.14822510738E+02 -0.96256412866E+01 -0.14833698113E+02  0.23073759874E+02  0.51100000000E-03 0.  1.
         12    1    3    3    0    0 -0.20881513102E+02 -0.10716795189E+02 -0.64982418955E+01  0.24353940878E+02  0.00000000000E+00 0. -1.
</event>
<event>
 7    1  0.5634483E-012  0.5930197E+02  0.7816164E-02  0.1266605E+00
        -11   -1    0    0    0    0  0.00000000000E+00  0.00000000000E+00  0.45593999997E+02  0.45594000000E+02  0.51100000000E-03 0.  1.
         11   -1    0    0    0    0 -0.00000000000E+00 -0.00000000000E+00 -0.45593999997E+02  0.45594000000E+02  0.51100000000E-03 0. -1.
    9900012    2    1    2    0    0 -0.16184141573E+02  0.55005138237E+01  0.26917227367E+02  0.59301965127E+02  0.50000038480E+02 0.  0.
         12    1    1    2    0    0  0.16184141573E+02 -0.55005138237E+01 -0.26917227367E+02  0.31886034873E+02  0.00000000000E+00 0. -1.
         11    1    3    3    0    0  0.11943064308E+01 -0.34479111482E+01 -0.36246633998E+01  0.51432134080E+01  0.51100000000E-03 0. -1.
        -11    1    3    3    0    0 -0.15860993054E+02  0.24375593674E+02  0.17837281469E+02  0.34116114639E+02  0.51100000000E-03 0.  1.
         12    1    3    3    0    0 -0.15174549507E+01 -0.15427168702E+02  0.12704609298E+02  0.20042637080E+02  0.00000000000E+00 0. -1.
</event>
<event>
 7    1  0.5634483E-012  0.5930194E+02  0.7816164E-02  0.1266605E+00
        -11   -1    0    0    0    0  0.00000000000E+00  0.00000000000E+00  0.45593999997E+02  0.45594000000E+02  0.51100000000E-03 0.  1.
         11   -1    0    0    0    0 -0.00000000000E+00 -0.00000000000E+00 -0.45593999997E+02  0.45594000000E+02  0.51100000000E-03 0. -1.
    9900012    2    1    2    0    0  0.14650574559E+02  0.18316000595E+01  0.28261753927E+02  0.59301939900E+02  0.49999992472E+02 0.  0.
         12    1    1    2    0    0 -0.14650574559E+02 -0.18316000595E+01 -0.28261753927E+02  0.31886060100E+02  0.00000000000E+00 0. -1.
         11    1    3    3    0    0  0.81950936356E+01 -0.61936816682E+01  0.40785740240E+01  0.11052421392E+02  0.51100000000E-03 0. -1.
        -11    1    3    3    0    0  0.11319907104E+02  0.18898582761E+02  0.28104031045E+02  0.35709008506E+02  0.51100000000E-03 0.  1.
         12    1    3    3    0    0 -0.48644261805E+01 -0.10873301033E+02 -0.39208511426E+01  0.12540510002E+02  0.00000000000E+00 0. -1.
</event>
<event>
 7    1  0.5634483E-012  0.5930194E+02  0.7816164E-02  0.1266605E+00
        -11   -1    0    0    0    0  0.00000000000E+00  0.00000000000E+00  0.45593999997E+02  0.45594000000E+02  0.51100000000E-03 0.  1.
         11   -1    0    0    0    0 -0.00000000000E+00 -0.00000000000E+00 -0.45593999997E+02  0.45594000000E+02  0.51100000000E-03 0. -1.
    9900012    2    1    2    0    0  0.28883395645E+02 -0.83043670385E+01  0.10654013703E+02  0.59301936212E+02  0.49999985747E+02 0.  0.
         12    1    1    2    0    0 -0.28883395645E+02  0.83043670385E+01 -0.10654013703E+02  0.31886063788E+02  0.00000000000E+00 0. -1.
         11    1    3    3    0    0  0.89005225646E+01 -0.25334704687E+01 -0.73620238450E+01  0.11825276736E+02  0.51100000000E-03 0. -1.
        -11    1    3    3    0    0  0.25069077071E+02  0.95469527697E+01  0.63639861558E+01  0.27569970121E+02  0.51100000000E-03 0.  1.
         12    1    3    3    0    0 -0.50862039913E+01 -0.15317849340E+02  0.11652051393E+02  0.19906689355E+02  0.00000000000E+00 0. -1.
</event>
<event>
 7    1  0.5634483E-012  0.5930194E+02  0.7816164E-02  0.1266605E+00
        -11   -1    0    0    0    0  0.00000000000E+00  0.00000000000E+00  0.45593999997E+02  0.45594000000E+02  0.51100000000E-03 0. -1.
         11   -1    0    0    0    0 -0.00000000000E+00 -0.00000000000E+00 -0.45593999997E+02  0.45594000000E+02  0.51100000000E-03 0.  1.
    9900012    2    1    2    0    0  0.23299277236E+02 -0.21762497679E+02  0.50810213569E+00  0.59301940464E+02  0.49999993501E+02 0.  0.
         12    1    1    2    0    0 -0.23299277236E+02  0.21762497679E+02 -0.50810213569E+00  0.31886059536E+02  0.00000000000E+00 0. -1.
         11    1    3    3    0    0  0.23524354876E+00 -0.16679584724E+02  0.11521437700E+02  0.20273317761E+02  0.51100000000E-03 0. -1.
        -11    1    3    3    0    0 -0.55558134437E+01 -0.66496218764E+01 -0.12845140286E+01  0.87598236666E+01  0.51100000000E-03 0.  1.
        -12    1    3    3    0    0  0.28619847131E+02  0.15667089208E+01 -0.97288215362E+01  0.30268799036E+02  0.00000000000E+00 0.  1.
</event>
<event>
 7    1  0.5634483E-012  0.5930196E+02  0.7816164E-02  0.1266605E+00
        -11   -1    0    0    0    0  0.00000000000E+00  0.00000000000E+00  0.45593999997E+02  0.45594000000E+02  0.51100000000E-03 0.  1.
         11   -1    0    0    0    0 -0.00000000000E+00 -0.00000000000E+00 -0.45593999997E+02  0.45594000000E+02  0.51100000000E-03 0. -1.
    9900012    2    1    2    0    0  0.42554565826E+00  0.92526750426E+01  0.30511092671E+02  0.59301955082E+02  0.50000020160E+02 0.  0.
         12    1    1    2    0    0 -0.42554565826E+00 -0.92526750426E+01 -0.30511092671E+02  0.31886044918E+02  0.00000000000E+00 0. -1.
         11    1    3    3    0    0  0.13613713690E+02  0.14437214019E+01 -0.96289176907E+00  0.13723873096E+02  0.51100000000E-03 0. -1.
        -11    1    3    3    0    0  0.78057545205E+01  0.36239976183E+01  0.18861007874E+02  0.20731637192E+02  0.51100000000E-03 0.  1.
        -12    1    3    3    0    0 -0.20993922553E+02  0.41849560224E+01  0.12612976566E+02  0.24846444794E+02  0.00000000000E+00 0.  1.
</event>
<event>
 7    1  0.5634483E-012  0.5930193E+02  0.7816164E-02  0.1266605E+00
        -11   -1    0    0    0    0  0.00000000000E+00  0.00000000000E+00  0.45593999997E+02  0.45594000000E+02  0.51100000000E-03 0.  1.
         11   -1    0    0    0    0 -0.00000000000E+00 -0.00000000000E+00 -0.45593999997E+02  0.45594000000E+02  0.51100000000E-03 0. -1.
    9900012    2    1    2    0    0 -0.13822423274E+02 -0.10511051016E+02  0.26742853234E+02  0.59301925018E+02  0.49999965331E+02 0.  0.
         12    1    1    2    0    0  0.13822423274E+02  0.10511051016E+02 -0.26742853234E+02  0.31886074982E+02  0.00000000000E+00 0. -1.
         11    1    3    3    0    0 -0.94373834081E+01 -0.79689836965E+00 -0.22336984466E+01  0.97308099157E+01  0.51100000000E-03 0. -1.
        -11    1    3    3    0    0 -0.20402699305E+02  0.15288585302E+01  0.17216616804E+02  0.26739847452E+02  0.51100000000E-03 0.  1.
         12    1    3    3    0    0  0.16017659439E+02 -0.11243011177E+02  0.11759934877E+02  0.22831267650E+02  0.00000000000E+00 0. -1.
</event>
<event>
 7    1  0.5634483E-012  0.5930193E+02  0.7816164E-02  0.1266605E+00
        -11   -1    0    0    0    0  0.00000000000E+00  0.00000000000E+00  0.45593999997E+02  0.45594000000E+02  0.51100000000E-03 0. -1.
         11   -1    0    0    0    0 -0.00000000000E+00 -0.00000000000E+00 -0.45593999997E+02  0.45594000000E+02  0.51100000000E-03 0.  1.
    9900012    2    1    2    0    0 -0.87552198581E+01 -0.26742533717E+02  0.14996808617E+02  0.59301933246E+02  0.49999980336E+02 0.  0.
         12    1    1    2    0    0  0.87552198581E+01  0.26742533717E+02 -0.14996808617E+02  0.31886066754E+02  0.00000000000E+00 0. -1.
         11    1    3    3    0    0 -0.98535220420E+01 -0.26202437962E+02  0.22827410290E+02  0.36121327669E+02  0.51100000000E-03 0. -1.
        -11    1    3    3    0    0 -0.24410263842E+01  0.92906576974E+01  0.78514697149E+00  0.96380177572E+01  0.51100000000E-03 0.  1.
        -12    1    3    3    0    0  0.35393285682E+01 -0.98307534520E+01 -0.86157486440E+01  0.13542587819E+02  0.00000000000E+00 0.  1.
</event>
<event>
 7    1  0.5634483E-012  0.5930196E+02  0.7816164E-02  0.1266605E+00
        -11   -1    0    0    0    0  0.00000000000E+00  0.00000000000E+00  0.45593999997E+02  0.45594000000E+02  0.51100000000E-03 0.  1.
         11   -1    0    0    0    0 -0.00000000000E+00 -0.00000000000E+00 -0.45593999997E+02  0.45594000000E+02  0.51100000000E-03 0. -1.
    9900012    2    1    2    0    0  0.94870342833E+01  0.29863843944E+02 -0.59047657227E+01  0.59301964611E+02  0.50000037539E+02 0.  0.
         12    1    1    2    0    0 -0.94870342833E+01 -0.29863843944E+02  0.59047657227E+01  0.31886035389E+02  0.00000000000E+00 0. -1.
         11    1    3    3    0    0  0.85528201196E+01  0.19661464291E+02 -0.74505609603E+01  0.22698783424E+02  0.51100000000E-03 0. -1.
        -11    1    3    3    0    0  0.16114064049E+02  0.55423284358E+01 -0.71721349976E+01  0.18488374330E+02  0.51100000000E-03 0.  1.
         12    1    3    3    0    0 -0.15179849885E+02  0.46600512175E+01  0.87179302352E+01  0.18114806857E+02  0.00000000000E+00 0. -1.
</event>
<event>
 7    1  0.5634483E-012  0.5930194E+02  0.7816164E-02  0.1266605E+00
        -11   -1    0    0    0    0  0.00000000000E+00  0.00000000000E+00  0.45593999997E+02  0.45594000000E+02  0.51100000000E-03 0.  1.
         11   -1    0    0    0    0 -0.00000000000E+00 -0.00000000000E+00 -0.45593999997E+02  0.45594000000E+02  0.51100000000E-03 0. -1.
    9900012    2    1    2    0    0 -0.28982873442E+01 -0.22291373253E+02  0.22614492146E+02  0.59301942764E+02  0.49999997695E+02 0.  0.
         12    1    1    2    0    0  0.28982873442E+01  0.22291373253E+02 -0.22614492146E+02  0.31886057236E+02  0.00000000000E+00 0. -1.
         11    1    3    3    0    0  0.48403500143E+01  0.89974971524E+01  0.47275914704E+01  0.11257622513E+02  0.51100000000E-03 0. -1.
        -11    1    3    3    0    0  0.11788380569E+02 -0.89258011290E+01  0.43329039921E+01  0.15408111484E+02  0.51100000000E-03 0.  1.
        -12    1    3    3    0    0 -0.19527017927E+02 -0.22363069277E+02  0.13553996683E+02  0.32636208767E+02  0.00000000000E+00 0.  1.
</event>
<event>
 7    1  0.5634483E-012  0.5930194E+02  0.7816164E-02  0.1266605E+00
        -11   -1    0    0    0    0  0.00000000000E+00  0.00000000000E+00  0.45593999997E+02  0.45594000000E+02  0.51100000000E-03 0.  1.
         11   -1    0    0    0    0 -0.00000000000E+00 -0.00000000000E+00 -0.45593999997E+02  0.45594000000E+02  0.51100000000E-03 0. -1.
    9900012    2    1    2    0    0  0.18164275176E+02 -0.15908269704E+01  0.26158158837E+02  0.59301938831E+02  0.49999990522E+02 0.  0.
         12    1    1    2    0    0 -0.18164275176E+02  0.15908269704E+01 -0.26158158837E+02  0.31886061169E+02  0.00000000000E+00 0. -1.
         11    1    3    3    0    0 -0.14743453208E+01  0.87910524171E+01  0.90756465793E+00  0.89599090729E+01  0.51100000000E-03 0. -1.
        -11    1    3    3    0    0  0.24115698631E+01  0.34575863308E+01 -0.87954116004E+01  0.97534526154E+01  0.51100000000E-03 0.  1.
        -12    1    3    3    0    0  0.17227050634E+02 -0.13839465718E+02  0.34046005780E+02  0.40588577143E+02  0.00000000000E+00 0.  1.
</event>
<event>
 7    1  0.5634483E-012  0.5930198E+02  0.7816164E-02  0.1266605E+00
        -11   -1    0    0    0    0  0.00000000000E+00  0.00000000000E+00  0.45593999997E+02  0.45594000000E+02  0.51100000000E-03 0. -1.
         11   -1    0    0    0    0 -0.00000000000E+00 -0.00000000000E+00 -0.45593999997E+02  0.45594000000E+02  0.51100000000E-03 0.  1.
    9900012    2    1    2    0    0 -0.16555039729E+02  0.13901088296E+02 -0.23439469929E+02  0.59301978818E+02  0.50000063449E+02 0.  0.
         12    1    1    2    0    0  0.16555039729E+02 -0.13901088296E+02  0.23439469929E+02  0.31886021182E+02  0.00000000000E+00 0. -1.
         11    1    3    3    0    0  0.71849457928E+01  0.68513950488E+01  0.10832120831E+01  0.99869118770E+01  0.51100000000E-03 0. -1.
        -11    1    3    3    0    0  0.81413385486E+01 -0.23688102190E+01 -0.97956019277E+01  0.12955557595E+02  0.51100000000E-03 0.  1.
        -12    1    3    3    0    0 -0.31881324070E+02  0.94185034667E+01 -0.14727080085E+02  0.36359509346E+02  0.00000000000E+00 0.  1.
</event>
<event>
 7    1  0.5634483E-012  0.5930193E+02  0.7816164E-02  0.1266605E+00
        -11   -1    0    0    0    0  0.00000000000E+00  0.00000000000E+00  0.45593999997E+02  0.45594000000E+02  0.51100000000E-03 0. -1.
         11   -1    0    0    0    0 -0.00000000000E+00 -0.00000000000E+00 -0.45593999997E+02  0.45594000000E+02  0.51100000000E-03 0.  1.
    9900012    2    1    2    0    0 -0.54671596704E+01 -0.31193698379E+02  0.37127592838E+01  0.59301933530E+02  0.49999980855E+02 0.  0.
         12    1    1    2    0    0  0.54671596704E+01  0.31193698379E+02 -0.37127592838E+01  0.31886066470E+02  0.00000000000E+00 0. -1.
         11    1    3    3    0    0  0.43493832129E+01 -0.80614022382E+01 -0.73478858381E+01  0.11742860253E+02  0.51100000000E-03 0. -1.
        -11    1    3    3    0    0 -0.35166039120E+01 -0.30603868332E+01 -0.14048500246E+02  0.14801784692E+02  0.51100000000E-03 0.  1.
         12    1    3    3    0    0 -0.62999389713E+01 -0.20071909308E+02  0.25109145368E+02  0.32757288585E+02  0.00000000000E+00 0. -1.
</event>
<event>
 7    1  0.5634483E-012  0.5930204E+02  0.7816164E-02  0.1266604E+00
        -11   -1    0    0    0    0  0.00000000000E+00  0.00000000000E+00  0.45593999997E+02  0.45594000000E+02  0.51100000000E-03 0. -1.
         11   -1    0    0    0    0 -0.00000000000E+00 -0.00000000000E+00 -0.45593999997E+02  0.45594000000E+02  0.51100000000E-03 0.  1.
    9900012    2    1    2    0    0 -0.22272227940E+02 -0.21657439435E+02 -0.71845516406E+01  0.59302037531E+02  0.50000170527E+02 0.  0.
         12    1    1    2    0    0  0.22272227940E+02  0.21657439435E+02  0.71845516406E+01  0.31885962469E+02  0.00000000000E+00 0. -1.
         11    1    3    3    0    0  0.91878584248E+01 -0.92020398643E+01 -0.15021438238E+01  0.13090099940E+02  0.51100000000E-03 0. -1.
        -11    1    3    3    0    0 -0.30190791822E+02 -0.18213986157E+02  0.33572517534E+01  0.35418982794E+02  0.51100000000E-03 0.  1.
         12    1    3    3    0    0 -0.12692945429E+01  0.57585865867E+01 -0.90396595702E+01  0.10792954797E+02  0.00000000000E+00 0. -1.
</event>
<event>
 7    1  0.5634483E-012  0.5930191E+02  0.7816164E-02  0.1266605E+00
        -11   -1    0    0    0    0  0.00000000000E+00  0.00000000000E+00  0.45593999997E+02  0.45594000000E+02  0.51100000000E-03 0.  1.
         11   -1    0    0    0    0 -0.00000000000E+00 -0.00000000000E+00 -0.45593999997E+02  0.45594000000E+02  0.51100000000E-03 0. -1.
    9900012    2    1    2    0    0 -0.19488896140E+01  0.26434296309E+02  0.17724350135E+02  0.59301909306E+02  0.49999936675E+02 0.  0.
         12    1    1    2    0    0  0.19488896140E+01 -0.26434296309E+02 -0.17724350135E+02  0.31886090694E+02  0.00000000000E+00 0. -1.
         11    1    3    3    0    0 -0.70099885875E+01  0.15157939130E+02 -0.95649740418E+01  0.19245565394E+02  0.51100000000E-03 0. -1.
        -11    1    3    3    0    0  0.89818976497E+01  0.12089401540E+02  0.28962048704E+01  0.15336757085E+02  0.51100000000E-03 0.  1.
        -12    1    3    3    0    0 -0.39207986761E+01 -0.81304436071E+00  0.24393119306E+02  0.24719586826E+02  0.00000000000E+00 0.  1.
</event>
<event>
 7    1  0.5634483E-012  0.5930192E+02  0.7816164E-02  0.1266605E+00
        -11   -1    0    0    0    0  0.00000000000E+00  0.00000000000E+00  0.45593999997E+02  0.45594000000E+02  0.51100000000E-03 0.  1.
         11   -1    0    0    0    0 -0.00000000000E+00 -0.00000000000E+00 -0.45593999997E+02  0.45594000000E+02  0.51100000000E-03 0. -1.
    9900012    2    1    2    0    0 -0.30504847864E+02  0.23815959074E+00  0.92800686936E+01  0.59301919367E+02  0.49999955024E+02 0.  0.
         12    1    1    2    0    0  0.30504847864E+02 -0.23815959074E+00 -0.92800686936E+01  0.31886080633E+02  0.00000000000E+00 0. -1.
         11    1    3    3    0    0 -0.44657962088E+00 -0.83754557676E+01 -0.61464011016E+01  0.10398362344E+02  0.51100000000E-03 0. -1.
        -11    1    3    3    0    0 -0.30309081840E+02  0.12687005355E+02 -0.92022550735E-01  0.32857404268E+02  0.51100000000E-03 0.  1.
         12    1    3    3    0    0  0.25081359651E+00 -0.40733899970E+01  0.15518492346E+02  0.16046152754E+02  0.00000000000E+00 0. -1.
</event>
<event>
 7    1  0.5634483E-012  0.5930188E+02  0.7816164E-02  0.1266605E+00
        -11   -1    0    0    0    0  0.00000000000E+00  0.00000000000E+00  0.45593999997E+02  0.45594000000E+02  0.51100000000E-03 0. -1.
         11   -1    0    0    0    0 -0.00000000000E+00 -0.00000000000E+00 -0.45593999997E+02  0.45594000000E+02  0.51100000000E-03 0.  1.
    9900012    2    1    2    0    0  0.32331586524E+01  0.30460273657E+02 -0.88568089756E+01  0.59301879957E+02  0.49999883150E+02 0.  0.
         12    1    1    2    0    0 -0.32331586524E+01 -0.30460273657E+02  0.88568089756E+01  0.31886120043E+02  0.00000000000E+00 0. -1.
         11    1    3    3    0    0 -0.10387015908E+00 -0.16567843243E+01  0.33874221262E+01  0.37723139091E+01  0.51100000000E-03 0. -1.
        -11    1    3    3    0    0  0.20091279692E+02  0.30582347469E+01 -0.18187606108E+01  0.20403926334E+02  0.51100000000E-03 0.  1.
        -12    1    3    3    0    0 -0.16754250880E+02  0.29058823235E+02 -0.10425470491E+02  0.35125639714E+02  0.00000000000E+00 0.  1.
</event>
<event>
 7    1  0.5634483E-012  0.5930194E+02  0.7816164E-02  0.1266605E+00
        -11   -1    0    0    0    0  0.00000000000E+00  0.00000000000E+00  0.45593999997E+02  0.45594000000E+02  0.51100000000E-03 0.  1.
         11   -1    0    0    0    0 -0.00000000000E+00 -0.00000000000E+00 -0.45593999997E+02  0.45594000000E+02  0.51100000000E-03 0. -1.
    9900012    2    1    2    0    0  0.29239186343E+02  0.11783218306E+02 -0.47902549977E+01  0.59301940435E+02  0.49999993447E+02 0.  0.
         12    1    1    2    0    0 -0.29239186343E+02 -0.11783218306E+02  0.47902549977E+01  0.31886059565E+02  0.00000000000E+00 0. -1.
         11    1    3    3    0    0  0.77831458565E+01  0.35117163983E+01 -0.22991568695E+02  0.24525940202E+02  0.51100000000E-03 0. -1.
        -11    1    3    3    0    0  0.52007626624E+01 -0.25156457394E+01 -0.25316210629E+01  0.63075757010E+01  0.51100000000E-03 0.  1.
         12    1    3    3    0    0  0.16255277825E+02  0.10787147647E+02  0.20732934760E+02  0.28468424531E+02  0.00000000000E+00 0. -1.
</event>
<event>
 7    1  0.5634483E-012  0.5930192E+02  0.7816164E-02  0.1266605E+00
        -11   -1    0    0    0    0  0.00000000000E+00  0.00000000000E+00  0.45593999997E+02  0.45594000000E+02  0.51100000000E-03 0.  1.
         11   -1    0    0    0    0 -0.00000000000E+00 -0.00000000000E+00 -0.45593999997E+02  0.45594000000E+02  0.51100000000E-03 0. -1.
    9900012    2    1    2    0    0  0.21198323797E+02 -0.78001867550E+01  0.22505789280E+02  0.59301915318E+02  0.49999947641E+02 0.  0.
         12    1    1    2    0    0 -0.21198323797E+02  0.78001867550E+01 -0.22505789280E+02  0.31886084682E+02  0.00000000000E+00 0. -1.
         11    1    3    3    0    0  0.77860603214E+01  0.39336954427E+01 -0.49891205117E+01  0.10049279522E+02  0.51100000000E-03 0. -1.
        -11    1    3    3    0    0  0.40103715054E+01  0.67542844039E+01  0.27407546579E+02  0.28510998705E+02  0.51100000000E-03 0.  1.
         12    1    3    3    0    0  0.94018919700E+01 -0.18488166601E+02  0.87363213141E-01  0.20741637091E+02  0.00000000000E+00 0. -1.
</event>
<event>
 7    1  0.5634483E-012  0.5930194E+02  0.7816164E-02  0.1266605E+00
        -11   -1    0    0    0    0  0.00000000000E+00  0.00000000000E+00  0.45593999997E+02  0.45594000000E+02  0.51100000000E-03 0.  1.
         11   -1    0    0    0    0 -0.00000000000E+00 -0.00000000000E+00 -0.45593999997E+02  0.45594000000E+02  0.51100000000E-03 0. -1.
    9900012    2    1    2    0    0  0.20429063884E+02  0.57956810393E+00  0.24475264051E+02  0.59301935634E+02  0.49999984692E+02 0.  0.
         12    1    1    2    0    0 -0.20429063884E+02 -0.57956810393E+00 -0.24475264051E+02  0.31886064366E+02  0.00000000000E+00 0. -1.
         11    1    3    3    0    0  0.18903581055E+02  0.16426344963E+02  0.26308159216E+02  0.36322023996E+02  0.51100000000E-03 0. -1.
        -11    1    3    3    0    0  0.75570650091E+01 -0.73941994640E+01  0.37154805126E+01  0.11206614697E+02  0.51100000000E-03 0.  1.
        -12    1    3    3    0    0 -0.60315821796E+01 -0.84525773949E+01 -0.55483756778E+01  0.11773296941E+02  0.00000000000E+00 0.  1.
</event>
<event>
 7    1  0.5634483E-012  0.5930193E+02  0.7816164E-02  0.1266605E+00
        -11   -1    0    0    0    0  0.00000000000E+00  0.00000000000E+00  0.45593999997E+02  0.45594000000E+02  0.51100000000E-03 0. -1.
         11   -1    0    0    0    0 -0.00000000000E+00 -0.00000000000E+00 -0.45593999997E+02  0.45594000000E+02  0.51100000000E-03 0.  1.
    9900012    2    1    2    0    0  0.29300126906E+02  0.51536662508E+01 -0.11474476150E+02  0.59301932267E+02  0.49999978552E+02 0.  0.
         12    1    1    2    0    0 -0.29300126906E+02 -0.51536662508E+01  0.11474476150E+02  0.31886067733E+02  0.00000000000E+00 0. -1.
         11    1    3    3    0    0 -0.10846485874E+01  0.11199815747E+02  0.10239992252E+02  0.15214130830E+02  0.51100000000E-03 0. -1.
        -11    1    3    3    0    0  0.90425874379E+01  0.38820854231E+01  0.26694230630E+01  0.10196312792E+02  0.51100000000E-03 0.  1.
        -12    1    3    3    0    0  0.21342188056E+02 -0.99282349193E+01 -0.24383891465E+02  0.33891488645E+02  0.00000000000E+00 0.  1.
</event>
<event>
 7    1  0.5634483E-012  0.5930192E+02  0.7816164E-02  0.1266605E+00
        -11   -1    0    0    0    0  0.00000000000E+00  0.00000000000E+00  0.45593999997E+02  0.45594000000E+02  0.51100000000E-03 0. -1.
         11   -1    0    0    0    0 -0.00000000000E+00 -0.00000000000E+00 -0.45593999997E+02  0.45594000000E+02  0.51100000000E-03 0.  1.
    9900012    2    1    2    0    0  0.30588476310E+02 -0.37084324573E+01 -0.82045422074E+01  0.59301923617E+02  0.49999962776E+02 0.  0.
         12    1    1    2    0    0 -0.30588476310E+02  0.37084324573E+01  0.82045422074E+01  0.31886076383E+02  0.00000000000E+00 0. -1.
         11    1    3    3    0    0  0.18606140894E+02 -0.75913416596E+01 -0.23865295821E+01  0.20236414476E+02  0.51100000000E-03 0. -1.
        -11    1    3    3    0    0  0.46028828092E+01 -0.13737855709E+02 -0.12182546048E+02  0.18929596881E+02  0.51100000000E-03 0.  1.
         12    1    3    3    0    0  0.73794526070E+01  0.17620764911E+02  0.63645334223E+01  0.20135912259E+02  0.00000000000E+00 0. -1.
</event>
<event>
 7    1  0.5634483E-012  0.5930194E+02  0.7816164E-02  0.1266605E+00
        -11   -1    0    0    0    0  0.00000000000E+00  0.00000000000E+00  0.45593999997E+02  0.45594000000E+02  0.51100000000E-03 0.  1.
         11   -1    0    0    0    0 -0.00000000000E+00 -0.00000000000E+00 -0.45593999997E+02  0.45594000000E+02  0.51100000000E-03 0. -1.
    9900012    2    1    2    0    0 -0.13376816936E+02 -0.71636193132E+01  0.28043967419E+02  0.59301940639E+02  0.49999993819E+02 0.  0.
         12    1    1    2    0    0  0.13376816936E+02  0.71636193132E+01 -0.28043967419E+02  0.31886059361E+02  0.00000000000E+00 0. -1.
         11    1    3    3    0    0 -0.36217954205E-02  0.19871717472E+01 -0.12032597085E+01  0.23230796064E+01  0.51100000000E-03 0. -1.
        -11    1    3    3    0    0  0.67908170439E+01 -0.15816890983E+02 -0.38646776642E+01  0.17641569381E+02  0.51100000000E-03 0.  1.
        -12    1    3    3    0    0 -0.20164012184E+02  0.66660999230E+01  0.33111904792E+02  0.39337291652E+02  0.00000000000E+00 0.  1.
</event>
<event>
 7    1  0.5634483E-012  0.5930195E+02  0.7816164E-02  0.1266605E+00
        -11   -1    0    0    0    0  0.00000000000E+00  0.00000000000E+00  0.45593999997E+02  0.45594000000E+02  0.51100000000E-03 0.  1.
         11   -1    0    0    0    0 -0.00000000000E+00 -0.00000000000E+00 -0.45593999997E+02  0.45594000000E+02  0.51100000000E-03 0. -1.
    9900012    2    1    2    0    0  0.14473116161E+02 -0.11308942084E+02  0.26064474634E+02  0.59301951320E+02  0.50000013299E+02 0.  0.
         12    1    1    2    0    0 -0.14473116161E+02  0.11308942084E+02 -0.26064474634E+02  0.31886048680E+02  0.00000000000E+00 0. -1.
         11    1    3    3    0    0 -0.51462112606E+01 -0.52009327079E+01  0.52357166351E+01  0.89969950714E+01  0.51100000000E-03 0. -1.
        -11    1    3    3    0    0 -0.29457218218E+00  0.75407243754E+01  0.24724326769E+02  0.25850370042E+02  0.51100000000E-03 0.  1.
         12    1    3    3    0    0  0.19913899604E+02 -0.13648733752E+02 -0.38955687699E+01  0.24454586206E+02  0.00000000000E+00 0. -1.
</event>
<event>
 7    1  0.5634483E-012  0.5930193E+02  0.7816164E-02  0.1266605E+00
        -11   -1    0    0    0    0  0.00000000000E+00  0.00000000000E+00  0.45593999997E+02  0.45594000000E+02  0.51100000000E-03 0.  1.
         11   -1    0    0    0    0 -0.00000000000E+00 -0.00000000000E+00 -0.45593999997E+02  0.45594000000E+02  0.51100000000E-03 0. -1.
    9900012    2    1    2    0    0  0.20054656476E+02 -0.22671593565E+02  0.10026522999E+02  0.59301928360E+02  0.49999971426E+02 0.  0.
         12    1    1    2    0    0 -0.20054656476E+02  0.22671593565E+02 -0.10026522999E+02  0.31886071640E+02  0.00000000000E+00 0. -1.
         11    1    3    3    0    0  0.13578166223E+02 -0.21044039265E+01  0.78642054431E+01  0.15831640514E+02  0.51100000000E-03 0. -1.
        -11    1    3    3    0    0  0.17122232315E+02 -0.23024123338E+02 -0.66269023943E+01  0.29448207595E+02  0.51100000000E-03 0.  1.
         12    1    3    3    0    0 -0.10645742062E+02  0.24569336991E+01  0.87892199498E+01  0.14022080251E+02  0.00000000000E+00 0. -1.
</event>
<event>
 7    1  0.5634483E-012  0.5930195E+02  0.7816164E-02  0.1266605E+00
        -11   -1    0    0    0    0  0.00000000000E+00  0.00000000000E+00  0.45593999997E+02  0.45594000000E+02  0.51100000000E-03 0. -1.
         11   -1    0    0    0    0 -0.00000000000E+00 -0.00000000000E+00 -0.45593999997E+02  0.45594000000E+02  0.51100000000E-03 0.  1.
    9900012    2    1    2    0    0  0.40676066627E+01  0.19539948555E+02 -0.24866944731E+02  0.59301953620E+02  0.50000017494E+02 0.  0.
         12    1    1    2    0    0 -0.40676066627E+01 -0.19539948555E+02  0.24866944731E+02  0.31886046380E+02  0.00000000000E+00 0. -1.
         11    1    3    3    0    0 -0.60913623415E+01  0.54409944167E+01  0.12541598130E+00  0.81685277038E+01  0.51100000000E-03 0. -1.
        -11    1    3    3    0    0  0.12610353104E+02  0.16076881409E+02  0.49518662601E+01  0.21023988703E+02  0.51100000000E-03 0.  1.
        -12    1    3    3    0    0 -0.24513841002E+01 -0.19779272711E+01 -0.29944226973E+02  0.30109437213E+02  0.00000000000E+00 0.  1.
</event>
<event>
 7    1  0.5634483E-012  0.5930180E+02  0.7816164E-02  0.1266605E+00
        -11   -1    0    0    0    0  0.00000000000E+00  0.00000000000E+00  0.45593999997E+02  0.45594000000E+02  0.51100000000E-03 0.  1.
         11   -1    0    0    0    0 -0.00000000000E+00 -0.00000000000E+00 -0.45593999997E+02  0.45594000000E+02  0.51100000000E-03 0. -1.
    9900012    2    1    2    0    0  0.24961650146E+02  0.19082815504E+02  0.54306206369E+01  0.59301804460E+02  0.49999745461E+02 0.  0.
         12    1    1    2    0    0 -0.24961650146E+02 -0.19082815504E+02 -0.54306206369E+01  0.31886195540E+02  0.00000000000E+00 0. -1.
         11    1    3    3    0    0  0.14698170741E+01 -0.52904324747E+01 -0.54507347340E+01  0.77368952043E+01  0.51100000000E-03 0. -1.
        -11    1    3    3    0    0  0.29093103178E+02  0.43186842721E+01  0.42815706561E+01  0.29721903269E+02  0.51100000000E-03 0.  1.
         12    1    3    3    0    0 -0.56012701064E+01  0.20054563706E+02  0.65997847148E+01  0.21843005987E+02  0.00000000000E+00 0. -1.
</event>
<event>
 7    1  0.5634483E-012  0.5930193E+02  0.7816164E-02  0.1266605E+00
        -11   -1    0    0    0    0  0.00000000000E+00  0.00000000000E+00  0.45593999997E+02  0.45594000000E+02  0.51100000000E-03 0. -1.
         11   -1    0    0    0    0 -0.00000000000E+00 -0.00000000000E+00 -0.45593999997E+02  0.45594000000E+02  0.51100000000E-03 0.  1.
    9900012    2    1    2    0    0 -0.28926182773E+02 -0.96527676634E+01 -0.93178056281E+01  0.59301929764E+02  0.49999973986E+02 0.  0.
         12    1    1    2    0    0  0.28926182773E+02  0.96527676634E+01  0.93178056281E+01  0.31886070236E+02  0.00000000000E+00 0. -1.
         11    1    3    3    0    0  0.41032761721E+01  0.57039903718E+01 -0.92836669476E+01  0.11642974438E+02  0.51100000000E-03 0. -1.
        -11    1    3    3    0    0  0.16201758700E+01 -0.12814108049E+02 -0.25818169450E-01  0.12916152747E+02  0.51100000000E-03 0.  1.
        -12    1    3    3    0    0 -0.34649634815E+02 -0.25426499858E+01 -0.83205110010E-02  0.34742802578E+02  0.00000000000E+00 0.  1.
</event>
<event>
 7    1  0.5634483E-012  0.5930195E+02  0.7816164E-02  0.1266605E+00
        -11   -1    0    0    0    0  0.00000000000E+00  0.00000000000E+00  0.45593999997E+02  0.45594000000E+02  0.51100000000E-03 0.  1.
         11   -1    0    0    0    0 -0.00000000000E+00 -0.00000000000E+00 -0.45593999997E+02  0.45594000000E+02  0.51100000000E-03 0. -1.
    9900012    2    1    2    0    0 -0.99052198121E+01  0.19225978357E+02  0.23430076792E+02  0.59301950985E+02  0.50000012689E+02 0.  0.
         12    1    1    2    0    0  0.99052198121E+01 -0.19225978357E+02 -0.23430076792E+02  0.31886049015E+02  0.00000000000E+00 0. -1.
         11    1    3    3    0    0 -0.66037760446E+01  0.29719367609E+01 -0.10106008868E+02  0.12432766452E+02  0.51100000000E-03 0. -1.
        -11    1    3    3    0    0  0.15101548294E+01 -0.40606390491E+01 -0.26602113982E+01  0.50839042124E+01  0.51100000000E-03 0.  1.
        -12    1    3    3    0    0 -0.48115985969E+01  0.20314680645E+02  0.36196297058E+02  0.41785280321E+02  0.00000000000E+00 0.  1.
</event>
<event>
 7    1  0.5634483E-012  0.5930192E+02  0.7816164E-02  0.1266605E+00
        -11   -1    0    0    0    0  0.00000000000E+00  0.00000000000E+00  0.45593999997E+02  0.45594000000E+02  0.51100000000E-03 0. -1.
         11   -1    0    0    0    0 -0.00000000000E+00 -0.00000000000E+00 -0.45593999997E+02  0.45594000000E+02  0.51100000000E-03 0.  1.
    9900012    2    1    2    0    0  0.18778054580E+01 -0.30005934526E+02 -0.10622596016E+02  0.59301924571E+02  0.49999964516E+02 0.  0.
         12    1    1    2    0    0 -0.18778054580E+01  0.30005934526E+02  0.10622596016E+02  0.31886075429E+02  0.00000000000E+00 0. -1.
         11    1    3    3    0    0  0.27237582335E+00  0.41661736989E+01  0.87393042836E+01  0.96853823622E+01  0.51100000000E-03 0. -1.
        -11    1    3    3    0    0  0.11694826374E+02 -0.19257813789E+02  0.85051635378E+00  0.22546745534E+02  0.51100000000E-03 0.  1.
        -12    1    3    3    0    0 -0.10089396739E+02 -0.14914294436E+02 -0.20212416653E+02  0.27069796675E+02  0.00000000000E+00 0.  1.
</event>
<event>
 7    1  0.5634483E-012  0.5930194E+02  0.7816164E-02  0.1266605E+00
        -11   -1    0    0    0    0  0.00000000000E+00  0.00000000000E+00  0.45593999997E+02  0.45594000000E+02  0.51100000000E-03 0.  1.
         11   -1    0    0    0    0 -0.00000000000E+00 -0.00000000000E+00 -0.45593999997E+02  0.45594000000E+02  0.51100000000E-03 0. -1.
    9900012    2    1    2    0    0  0.10242630734E+02  0.59463463707E+01  0.29604904575E+02  0.59301938870E+02  0.49999990593E+02 0.  0.
         12    1    1    2    0    0 -0.10242630734E+02 -0.59463463707E+01 -0.29604904575E+02  0.31886061130E+02  0.00000000000E+00 0. -1.
         11    1    3    3    0    0  0.17643597708E+02  0.12543192907E+02  0.28219354626E+01  0.21830976808E+02  0.51100000000E-03 0. -1.
        -11    1    3    3    0    0  0.22190013133E+01 -0.50693728759E+01  0.27165080918E+02  0.27722989192E+02  0.51100000000E-03 0.  1.
        -12    1    3    3    0    0 -0.96199682871E+01 -0.15274736607E+01 -0.38211180641E+00  0.97479728693E+01  0.00000000000E+00 0.  1.
</event>
<event>
 7    1  0.5634483E-012  0.5930194E+02  0.7816164E-02  0.1266605E+00
        -11   -1    0    0    0    0  0.00000000000E+00  0.00000000000E+00  0.45593999997E+02  0.45594000000E+02  0.51100000000E-03 0. -1.
         11   -1    0    0    0    0 -0.00000000000E+00 -0.00000000000E+00 -0.45593999997E+02  0.45594000000E+02  0.51100000000E-03 0.  1.
    9900012    2    1    2    0    0  0.31662341230E+02  0.29057193625E+01  0.24029023737E+01  0.59301937261E+02  0.49999987660E+02 0.  0.
         12    1    1    2    0    0 -0.31662341230E+02 -0.29057193625E+01 -0.24029023737E+01  0.31886062739E+02  0.00000000000E+00 0. -1.
         11    1    3    3    0    0 -0.58291659311E+01 -0.94427411726E+00 -0.85335761947E+00  0.59664938237E+01  0.51100000000E-03 0. -1.
        -11    1    3    3    0    0 -0.28757275039E+00 -0.96744937970E+01  0.84822709972E+01  0.12869632856E+02  0.51100000000E-03 0.  1.
        -12    1    3    3    0    0  0.37779079911E+02  0.13524487277E+02 -0.52260110040E+01  0.40465810582E+02  0.00000000000E+00 0.  1.
</event>
<event>
 7    1  0.5634483E-012  0.5930195E+02  0.7816164E-02  0.1266605E+00
        -11   -1    0    0    0    0  0.00000000000E+00  0.00000000000E+00  0.45593999997E+02  0.45594000000E+02  0.51100000000E-03 0.  1.
         11   -1    0    0    0    0 -0.00000000000E+00 -0.00000000000E+00 -0.45593999997E+02  0.45594000000E+02  0.51100000000E-03 0. -1.
    9900012    2    1    2    0    0  0.11595953191E+02 -0.88123157592E+01  0.28365421255E+02  0.59301950348E+02  0.50000011526E+02 0.  0.
         12    1    1    2    0    0 -0.11595953191E+02  0.88123157592E+01 -0.28365421255E+02  0.31886049652E+02  0.00000000000E+00 0. -1.
         11    1    3    3    0    0  0.72372572139E+01  0.68197017570E+01 -0.48933857941E+01  0.11082935028E+02  0.51100000000E-03 0. -1.
        -11    1    3    3    0    0 -0.62906929772E+01  0.71546072963E+01  0.67451939535E+01  0.11672997277E+02  0.51100000000E-03 0.  1.
        -12    1    3    3    0    0  0.10649388954E+02 -0.22786624812E+02  0.26513613095E+02  0.36546018043E+02  0.00000000000E+00 0.  1.
</event>
<event>
 7    1  0.5634483E-012  0.5930196E+02  0.7816164E-02  0.1266605E+00
        -11   -1    0    0    0    0  0.00000000000E+00  0.00000000000E+00  0.45593999997E+02  0.45594000000E+02  0.51100000000E-03 0.  1.
         11   -1    0    0    0    0 -0.00000000000E+00 -0.00000000000E+00 -0.45593999997E+02  0.45594000000E+02  0.51100000000E-03 0. -1.
    9900012    2    1    2    0    0  0.31071208609E+02  0.18629455710E+01  0.69158271006E+01  0.59301964889E+02  0.50000038046E+02 0.  0.
         12    1    1    2    0    0 -0.31071208609E+02 -0.18629455710E+01 -0.69158271006E+01  0.31886035111E+02  0.00000000000E+00 0. -1.
         11    1    3    3    0    0 -0.93881920207E+01  0.48919529316E+01  0.19364451145E+01  0.10761931650E+02  0.51100000000E-03 0. -1.
        -11    1    3    3    0    0  0.27626592437E+00  0.52580443832E+01 -0.39112422865E+01  0.65590525293E+01  0.51100000000E-03 0.  1.
        -12    1    3    3    0    0  0.40183134705E+02 -0.82870517438E+01  0.88906242726E+01  0.41980980709E+02  0.00000000000E+00 0.  1.
</event>
<event>
 7    1  0.5634483E-012  0.5930196E+02  0.7816164E-02  0.1266605E+00
        -11   -1    0    0    0    0  0.00000000000E+00  0.00000000000E+00  0.45593999997E+02  0.45594000000E+02  0.51100000000E-03 0.  1.
         11   -1    0    0    0    0 -0.00000000000E+00 -0.00000000000E+00 -0.45593999997E+02  0.45594000000E+02  0.51100000000E-03 0. -1.
    9900012    2    1    2    0    0  0.36813970517E+01 -0.24545474284E+02  0.20017152966E+02  0.59301962226E+02  0.50000033189E+02 0.  0.
         12    1    1    2    0    0 -0.36813970517E+01  0.24545474284E+02 -0.20017152966E+02  0.31886037774E+02  0.00000000000E+00 0. -1.
         11    1    3    3    0    0 -0.96948829100E+01 -0.18250490145E+02 -0.53595348298E+01  0.21349373739E+02  0.51100000000E-03 0. -1.
        -11    1    3    3    0    0  0.75111845815E+00 -0.11861285886E+02  0.40586372222E+01  0.12558933799E+02  0.51100000000E-03 0.  1.
        -12    1    3    3    0    0  0.12625161503E+02  0.55663017477E+01  0.21318050574E+02  0.25393654688E+02  0.00000000000E+00 0.  1.
</event>
<event>
 7    1  0.5634483E-012  0.5930189E+02  0.7816164E-02  0.1266605E+00
        -11   -1    0    0    0    0  0.00000000000E+00  0.00000000000E+00  0.45593999997E+02  0.45594000000E+02  0.51100000000E-03 0.  1.
         11   -1    0    0    0    0 -0.00000000000E+00 -0.00000000000E+00 -0.45593999997E+02  0.45594000000E+02  0.51100000000E-03 0. -1.
    9900012    2    1    2    0    0 -0.13352911124E+02  0.15987792356E+02  0.24141540433E+02  0.59301894650E+02  0.49999909947E+02 0.  0.
         12    1    1    2    0    0  0.13352911124E+02 -0.15987792356E+02 -0.24141540433E+02  0.31886105350E+02  0.00000000000E+00 0. -1.
         11    1    3    3    0    0 -0.12056148637E+02 -0.15237212910E+02  0.17708611691E+00  0.19430767791E+02  0.51100000000E-03 0. -1.
        -11    1    3    3    0    0 -0.85590258200E+00  0.26257796569E+00  0.78982880824E+00  0.11938786477E+01  0.51100000000E-03 0.  1.
        -12    1    3    3    0    0 -0.44085990540E+00  0.30962427300E+02  0.23174625508E+02  0.38677248211E+02  0.00000000000E+00 0.  1.
</event>
<event>
 7    1  0.5634483E-012  0.5930186E+02  0.7816164E-02  0.1266605E+00
        -11   -1    0    0    0    0  0.00000000000E+00  0.00000000000E+00  0.45593999997E+02  0.45594000000E+02  0.51100000000E-03 0.  1.
         11   -1    0    0    0    0 -0.00000000000E+00 -0.00000000000E+00 -0.45593999997E+02  0.45594000000E+02  0.51100000000E-03 0. -1.
    9900012    2    1    2    0    0  0.19934024129E+01 -0.28872852374E+02 -0.13383214935E+02  0.59301863524E+02  0.49999853180E+02 0.  0.
         12    1    1    2    0    0 -0.19934024129E+01  0.28872852374E+02  0.13383214935E+02  0.31886136476E+02  0.00000000000E+00 0. -1.
         11    1    3    3    0    0 -0.10587785096E+02 -0.29760801940E+02 -0.93475390033E+01  0.32942116068E+02  0.51100000000E-03 0. -1.
        -11    1    3    3    0    0 -0.33512133691E+01  0.49912308869E+01  0.47926278440E+01  0.76884522970E+01  0.51100000000E-03 0.  1.
        -12    1    3    3    0    0  0.15932400878E+02 -0.41032813202E+01 -0.88283037758E+01  0.18671295158E+02  0.00000000000E+00 0.  1.
</event>
<event>
 7    1  0.5634483E-012  0.5930195E+02  0.7816164E-02  0.1266605E+00
        -11   -1    0    0    0    0  0.00000000000E+00  0.00000000000E+00  0.45593999997E+02  0.45594000000E+02  0.51100000000E-03 0. -1.
         11   -1    0    0    0    0 -0.00000000000E+00 -0.00000000000E+00 -0.45593999997E+02  0.45594000000E+02  0.51100000000E-03 0.  1.
    9900012    2    1    2    0    0 -0.26663215460E+01 -0.14578529448E+02 -0.28232561477E+02  0.59301947892E+02  0.50000007047E+02 0.  0.
         12    1    1    2    0    0  0.26663215460E+01  0.14578529448E+02  0.28232561477E+02  0.31886052108E+02  0.00000000000E+00 0. -1.
         11    1    3    3    0    0 -0.11527900099E+01 -0.89804574545E+01 -0.20991101260E+02  0.22860530905E+02  0.51100000000E-03 0.  1.
        -11    1    3    3    0    0  0.15009669051E+01  0.50301998826E+01 -0.19350612730E+02  0.20049988175E+02  0.51100000000E-03 0. -1.
         12    1    3    3    0    0 -0.30144984412E+01 -0.10628271876E+02  0.12109152513E+02  0.16391428812E+02  0.00000000000E+00 0. -1.
</event>
<event>
 7    1  0.5634483E-012  0.5930195E+02  0.7816164E-02  0.1266605E+00
        -11   -1    0    0    0    0  0.00000000000E+00  0.00000000000E+00  0.45593999997E+02  0.45594000000E+02  0.51100000000E-03 0.  1.
         11   -1    0    0    0    0 -0.00000000000E+00 -0.00000000000E+00 -0.45593999997E+02  0.45594000000E+02  0.51100000000E-03 0. -1.
    9900012    2    1    2    0    0  0.80600557146E+01 -0.15890960592E+02  0.26443009637E+02  0.59301954694E+02  0.50000019452E+02 0.  0.
         12    1    1    2    0    0 -0.80600557146E+01  0.15890960592E+02 -0.26443009637E+02  0.31886045306E+02  0.00000000000E+00 0. -1.
         11    1    3    3    0    0 -0.14270639763E+01  0.30777652526E+01 -0.15673608940E+01  0.37370805418E+01  0.51100000000E-03 0. -1.
        -11    1    3    3    0    0  0.14346944850E+02 -0.14083252861E+02  0.38256366693E+02  0.43217154354E+02  0.51100000000E-03 0.  1.
         12    1    3    3    0    0 -0.48598251593E+01 -0.48854729837E+01 -0.10245996162E+02  0.12347719798E+02  0.00000000000E+00 0. -1.
</event>
<event>
 7    1  0.5634483E-012  0.5930195E+02  0.7816164E-02  0.1266605E+00
        -11   -1    0    0    0    0  0.00000000000E+00  0.00000000000E+00  0.45593999997E+02  0.45594000000E+02  0.51100000000E-03 0.  1.
         11   -1    0    0    0    0 -0.00000000000E+00 -0.00000000000E+00 -0.45593999997E+02  0.45594000000E+02  0.51100000000E-03 0. -1.
    9900012    2    1    2    0    0  0.33667328475E+01 -0.21738446146E+02  0.23083006893E+02  0.59301950729E+02  0.50000012221E+02 0.  0.
         12    1    1    2    0    0 -0.33667328475E+01  0.21738446146E+02 -0.23083006893E+02  0.31886049271E+02  0.00000000000E+00 0. -1.
         11    1    3    3    0    0  0.49843205133E+01  0.30831860922E+01  0.63591994220E+01  0.86480578750E+01  0.51100000000E-03 0. -1.
        -11    1    3    3    0    0 -0.14739410446E+02  0.46833148480E+01  0.65770201392E+01  0.16805976688E+02  0.51100000000E-03 0.  1.
        -12    1    3    3    0    0  0.13121822780E+02 -0.29504947086E+02  0.10146787332E+02  0.33847916166E+02  0.00000000000E+00 0.  1.
</event>
<event>
 7    1  0.5634483E-012  0.5930195E+02  0.7816164E-02  0.1266605E+00
        -11   -1    0    0    0    0  0.00000000000E+00  0.00000000000E+00  0.45593999997E+02  0.45594000000E+02  0.51100000000E-03 0.  1.
         11   -1    0    0    0    0 -0.00000000000E+00 -0.00000000000E+00 -0.45593999997E+02  0.45594000000E+02  0.51100000000E-03 0. -1.
    9900012    2    1    2    0    0 -0.21284946792E+02  0.22298551490E+02  0.81514282323E+01  0.59301950688E+02  0.50000012147E+02 0.  0.
         12    1    1    2    0    0  0.21284946792E+02 -0.22298551490E+02 -0.81514282323E+01  0.31886049312E+02  0.00000000000E+00 0. -1.
         11    1    3    3    0    0 -0.23790398636E+02  0.10293768810E+02  0.70835338013E+01  0.26872312795E+02  0.51100000000E-03 0.  1.
        -11    1    3    3    0    0 -0.12822102418E+02  0.29549484092E+01 -0.42917462605E+01  0.13840416061E+02  0.51100000000E-03 0. -1.
        -12    1    3    3    0    0  0.15327554262E+02  0.90498342709E+01  0.53596406915E+01  0.18589221832E+02  0.00000000000E+00 0.  1.
</event>
<event>
 7    1  0.5634483E-012  0.5930194E+02  0.7816164E-02  0.1266605E+00
        -11   -1    0    0    0    0  0.00000000000E+00  0.00000000000E+00  0.45593999997E+02  0.45594000000E+02  0.51100000000E-03 0. -1.
         11   -1    0    0    0    0 -0.00000000000E+00 -0.00000000000E+00 -0.45593999997E+02  0.45594000000E+02  0.51100000000E-03 0.  1.
    9900012    2    1    2    0    0  0.24835562230E+02  0.43355044814E+01 -0.19522269494E+02  0.59301941031E+02  0.49999994535E+02 0.  0.
         12    1    1    2    0    0 -0.24835562230E+02 -0.43355044814E+01  0.19522269494E+02  0.31886058969E+02  0.00000000000E+00 0. -1.
         11    1    3    3    0    0 -0.40329303399E+01  0.99963050544E+01 -0.19685762054E+02  0.22443704457E+02  0.51100000000E-03 0.  1.
        -11    1    3    3    0    0  0.16926219349E+02  0.76361090806E+01 -0.26786172308E+01  0.18761184767E+02  0.51100000000E-03 0. -1.
         12    1    3    3    0    0  0.11942273221E+02 -0.13296909654E+02  0.28421097912E+01  0.18097051806E+02  0.00000000000E+00 0. -1.
</event>
<event>
 7    1  0.5634483E-012  0.5930195E+02  0.7816164E-02  0.1266605E+00
        -11   -1    0    0    0    0  0.00000000000E+00  0.00000000000E+00  0.45593999997E+02  0.45594000000E+02  0.51100000000E-03 0.  1.
         11   -1    0    0    0    0 -0.00000000000E+00 -0.00000000000E+00 -0.45593999997E+02  0.45594000000E+02  0.51100000000E-03 0. -1.
    9900012    2    1    2    0    0 -0.41713158954E+01 -0.24674578312E+02  0.19760697976E+02  0.59301954844E+02  0.50000019726E+02 0.  0.
         12    1    1    2    0    0  0.41713158954E+01  0.24674578312E+02 -0.19760697976E+02  0.31886045156E+02  0.00000000000E+00 0. -1.
         11    1    3    3    0    0 -0.85206371337E+01 -0.14266179726E+02  0.66368030739E+01  0.17893359004E+02  0.51100000000E-03 0. -1.
        -11    1    3    3    0    0 -0.13543466589E+02 -0.53460366199E+01  0.17031733294E+02  0.22407265207E+02  0.51100000000E-03 0.  1.
         12    1    3    3    0    0  0.17892787828E+02 -0.50623619667E+01 -0.39078383915E+01  0.19001330633E+02  0.00000000000E+00 0. -1.
</event>
<event>
 7    1  0.5634483E-012  0.5930195E+02  0.7816164E-02  0.1266605E+00
        -11   -1    0    0    0    0  0.00000000000E+00  0.00000000000E+00  0.45593999997E+02  0.45594000000E+02  0.51100000000E-03 0.  1.
         11   -1    0    0    0    0 -0.00000000000E+00 -0.00000000000E+00 -0.45593999997E+02  0.45594000000E+02  0.51100000000E-03 0. -1.
    9900012    2    1    2    0    0 -0.21618778790E+02 -0.19449174028E+02  0.13079687963E+02  0.59301949697E+02  0.50000010339E+02 0.  0.
         12    1    1    2    0    0  0.21618778790E+02  0.19449174028E+02 -0.13079687963E+02  0.31886050303E+02  0.00000000000E+00 0. -1.
         11    1    3    3    0    0 -0.15563287122E+02 -0.25334595315E+02  0.20212524269E+02  0.35952799103E+02  0.51100000000E-03 0. -1.
        -11    1    3    3    0    0 -0.90523243968E+01  0.67988127539E+01  0.38268637285E+01  0.11950452632E+02  0.51100000000E-03 0.  1.
         12    1    3    3    0    0  0.29968327288E+01 -0.91339146723E+00 -0.10959700034E+02  0.11398697962E+02  0.00000000000E+00 0. -1.
</event>
<event>
 7    1  0.5634483E-012  0.5930194E+02  0.7816164E-02  0.1266605E+00
        -11   -1    0    0    0    0  0.00000000000E+00  0.00000000000E+00  0.45593999997E+02  0.45594000000E+02  0.51100000000E-03 0. -1.
         11   -1    0    0    0    0 -0.00000000000E+00 -0.00000000000E+00 -0.45593999997E+02  0.45594000000E+02  0.51100000000E-03 0.  1.
    9900012    2    1    2    0    0 -0.16302289397E+02 -0.26593244430E+02 -0.66147870878E+01  0.59301941963E+02  0.49999996235E+02 0.  0.
         12    1    1    2    0    0  0.16302289397E+02  0.26593244430E+02  0.66147870878E+01  0.31886058037E+02  0.00000000000E+00 0. -1.
         11    1    3    3    0    0 -0.21161444185E+02 -0.10716401154E+02 -0.17168941781E+02  0.29281744071E+02  0.51100000000E-03 0. -1.
        -11    1    3    3    0    0 -0.61748627906E+01 -0.98963282465E+01 -0.24804219389E+01  0.11925549736E+02  0.51100000000E-03 0.  1.
        -12    1    3    3    0    0  0.11034017579E+02 -0.59805150292E+01  0.13034576632E+02  0.18094648157E+02  0.00000000000E+00 0.  1.
</event>
<event>
 7    1  0.5634483E-012  0.5930195E+02  0.7816164E-02  0.1266605E+00
        -11   -1    0    0    0    0  0.00000000000E+00  0.00000000000E+00  0.45593999997E+02  0.45594000000E+02  0.51100000000E-03 0.  1.
         11   -1    0    0    0    0 -0.00000000000E+00 -0.00000000000E+00 -0.45593999997E+02  0.45594000000E+02  0.51100000000E-03 0. -1.
    9900012    2    1    2    0    0  0.16631145029E+02 -0.13135767943E+02  0.23823875003E+02  0.59301946550E+02  0.50000004601E+02 0.  0.
         12    1    1    2    0    0 -0.16631145029E+02  0.13135767943E+02 -0.23823875003E+02  0.31886053450E+02  0.00000000000E+00 0. -1.
         11    1    3    3    0    0  0.12777885060E+02 -0.11018459568E+02  0.16650718617E+02  0.23705004294E+02  0.51100000000E-03 0. -1.
        -11    1    3    3    0    0 -0.52647931605E+01  0.89572235700E+01  0.15761120019E+02  0.18877574146E+02  0.51100000000E-03 0.  1.
         12    1    3    3    0    0  0.91180531295E+01 -0.11074531945E+02 -0.85879636325E+01  0.16719368111E+02  0.00000000000E+00 0. -1.
</event>
<event>
 7    1  0.5634483E-012  0.5930195E+02  0.7816164E-02  0.1266605E+00
        -11   -1    0    0    0    0  0.00000000000E+00  0.00000000000E+00  0.45593999997E+02  0.45594000000E+02  0.51100000000E-03 0. -1.
         11   -1    0    0    0    0 -0.00000000000E+00 -0.00000000000E+00 -0.45593999997E+02  0.45594000000E+02  0.51100000000E-03 0.  1.
    9900012    2    1    2    0    0  0.19794583549E+02 -0.14880052315E+02 -0.20086782506E+02  0.59301947780E+02  0.50000006843E+02 0.  0.
         12    1    1    2    0    0 -0.19794583549E+02  0.14880052315E+02  0.20086782506E+02  0.31886052220E+02  0.00000000000E+00 0. -1.
         11    1    3    3    0    0 -0.57822440571E+01  0.43575377137E+01  0.36507064728E+01  0.81086459581E+01  0.51100000000E-03 0. -1.
        -11    1    3    3    0    0  0.72954054757E+01  0.81089219532E+00 -0.22900636527E+02  0.24048277294E+02  0.51100000000E-03 0.  1.
        -12    1    3    3    0    0  0.18281422130E+02 -0.20048482224E+02 -0.83685245176E+00  0.27145024528E+02  0.00000000000E+00 0.  1.
</event>
<event>
 7    1  0.5634483E-012  0.5930193E+02  0.7816164E-02  0.1266605E+00
        -11   -1    0    0    0    0  0.00000000000E+00  0.00000000000E+00  0.45593999997E+02  0.45594000000E+02  0.51100000000E-03 0.  1.
         11   -1    0    0    0    0 -0.00000000000E+00 -0.00000000000E+00 -0.45593999997E+02  0.45594000000E+02  0.51100000000E-03 0. -1.
    9900012    2    1    2    0    0 -0.22879059970E+02  0.13098648145E+02  0.17935876766E+02  0.59301927120E+02  0.49999969164E+02 0.  0.
         12    1    1    2    0    0  0.22879059970E+02 -0.13098648145E+02 -0.17935876766E+02  0.31886072880E+02  0.00000000000E+00 0. -1.
         11    1    3    3    0    0 -0.59373172110E+00 -0.16816524389E+02  0.50887678130E+01  0.17579635036E+02  0.51100000000E-03 0. -1.
        -11    1    3    3    0    0 -0.59876080144E+01  0.69576527037E+01 -0.26900383145E+01  0.95653900743E+01  0.51100000000E-03 0.  1.
        -12    1    3    3    0    0 -0.16297720235E+02  0.22957519831E+02  0.15537147267E+02  0.32156902009E+02  0.00000000000E+00 0.  1.
</event>
<event>
 7    1  0.5634483E-012  0.5930195E+02  0.7816164E-02  0.1266605E+00
        -11   -1    0    0    0    0  0.00000000000E+00  0.00000000000E+00  0.45593999997E+02  0.45594000000E+02  0.51100000000E-03 0.  1.
         11   -1    0    0    0    0 -0.00000000000E+00 -0.00000000000E+00 -0.45593999997E+02  0.45594000000E+02  0.51100000000E-03 0. -1.
    9900012    2    1    2    0    0 -0.14537377412E+02  0.18029749235E+02  0.21916050266E+02  0.59301945701E+02  0.50000003051E+02 0.  0.
         12    1    1    2    0    0  0.14537377412E+02 -0.18029749235E+02 -0.21916050266E+02  0.31886054299E+02  0.00000000000E+00 0. -1.
         11    1    3    3    0    0  0.13497446522E+00  0.34589450644E+01 -0.15307810940E+02  0.15694317287E+02  0.51100000000E-03 0. -1.
        -11    1    3    3    0    0 -0.43936566353E+01  0.41740137278E+01  0.38706818163E+01  0.71908822278E+01  0.51100000000E-03 0.  1.
        -12    1    3    3    0    0 -0.10278695242E+02  0.10396790443E+02  0.33353179390E+02  0.36416746186E+02  0.00000000000E+00 0.  1.
</event>
<event>
 7    1  0.5634483E-012  0.5930189E+02  0.7816164E-02  0.1266605E+00
        -11   -1    0    0    0    0  0.00000000000E+00  0.00000000000E+00  0.45593999997E+02  0.45594000000E+02  0.51100000000E-03 0.  1.
         11   -1    0    0    0    0 -0.00000000000E+00 -0.00000000000E+00 -0.45593999997E+02  0.45594000000E+02  0.51100000000E-03 0. -1.
    9900012    2    1    2    0    0 -0.35063328980E+01  0.31612389688E+02 -0.22552862866E+01  0.59301892235E+02  0.49999905542E+02 0.  0.
         12    1    1    2    0    0  0.35063328980E+01 -0.31612389688E+02  0.22552862866E+01  0.31886107765E+02  0.00000000000E+00 0. -1.
         11    1    3    3    0    0  0.12210380433E+02  0.22246368807E+02 -0.54839527795E+01  0.25962820605E+02  0.51100000000E-03 0. -1.
        -11    1    3    3    0    0 -0.67386048981E+01  0.18321590850E+02  0.58718697916E+01  0.20385493429E+02  0.51100000000E-03 0.  1.
        -12    1    3    3    0    0 -0.89781084331E+01 -0.89555699694E+01 -0.26432032987E+01  0.12953578200E+02  0.00000000000E+00 0.  1.
</event>
<event>
 7    1  0.5634483E-012  0.5930197E+02  0.7816164E-02  0.1266605E+00
        -11   -1    0    0    0    0  0.00000000000E+00  0.00000000000E+00  0.45593999997E+02  0.45594000000E+02  0.51100000000E-03 0.  1.
         11   -1    0    0    0    0 -0.00000000000E+00 -0.00000000000E+00 -0.45593999997E+02  0.45594000000E+02  0.51100000000E-03 0. -1.
    9900012    2    1    2    0    0 -0.10464799544E+02 -0.17605996177E+01  0.30068379590E+02  0.59301965570E+02  0.50000039288E+02 0.  0.
         12    1    1    2    0    0  0.10464799544E+02  0.17605996177E+01 -0.30068379590E+02  0.31886034430E+02  0.00000000000E+00 0. -1.
         11    1    3    3    0    0 -0.11373105132E+02 -0.73278077113E+01  0.10820566739E+02  0.17324230170E+02  0.51100000000E-03 0. -1.
        -11    1    3    3    0    0 -0.14769114808E+02  0.71668123756E+01 -0.85020074063E+00  0.16438150547E+02  0.51100000000E-03 0.  1.
         12    1    3    3    0    0  0.15677420396E+02 -0.15996042820E+01  0.20098013592E+02  0.25539584853E+02  0.00000000000E+00 0. -1.
</event>
<event>
 7    1  0.5634483E-012  0.5930195E+02  0.7816164E-02  0.1266605E+00
        -11   -1    0    0    0    0  0.00000000000E+00  0.00000000000E+00  0.45593999997E+02  0.45594000000E+02  0.51100000000E-03 0. -1.
         11   -1    0    0    0    0 -0.00000000000E+00 -0.00000000000E+00 -0.45593999997E+02  0.45594000000E+02  0.51100000000E-03 0.  1.
    9900012    2    1    2    0    0 -0.21418724492E+02  0.54321687984E+01  0.22988034045E+02  0.59301954056E+02  0.50000018289E+02 0.  0.
         12    1    1    2    0    0  0.21418724492E+02 -0.54321687984E+01 -0.22988034045E+02  0.31886045944E+02  0.00000000000E+00 0. -1.
         11    1    3    3    0    0  0.21281853549E+01  0.11522863383E+01 -0.17732266342E+01  0.30002116038E+01  0.51100000000E-03 0. -1.
        -11    1    3    3    0    0 -0.16705496854E+01  0.22106094041E+02  0.85764722786E+01  0.23770275703E+02  0.51100000000E-03 0.  1.
         12    1    3    3    0    0 -0.21876360161E+02 -0.17826211581E+02  0.16184788400E+02  0.32531466749E+02  0.00000000000E+00 0. -1.
</event>
<event>
 7    1  0.5634483E-012  0.5930194E+02  0.7816164E-02  0.1266605E+00
        -11   -1    0    0    0    0  0.00000000000E+00  0.00000000000E+00  0.45593999997E+02  0.45594000000E+02  0.51100000000E-03 0.  1.
         11   -1    0    0    0    0 -0.00000000000E+00 -0.00000000000E+00 -0.45593999997E+02  0.45594000000E+02  0.51100000000E-03 0. -1.
    9900012    2    1    2    0    0  0.15720471813E+02  0.12310210139E+01  0.27714117442E+02  0.59301937961E+02  0.49999988936E+02 0.  0.
         12    1    1    2    0    0 -0.15720471813E+02 -0.12310210139E+01 -0.27714117442E+02  0.31886062039E+02  0.00000000000E+00 0. -1.
         11    1    3    3    0    0  0.17156831032E+02 -0.23496056926E+01 -0.52895695964E+00  0.17325048159E+02  0.51100000000E-03 0.  1.
        -11    1    3    3    0    0  0.29986943878E+01 -0.12552247400E+02  0.18682700972E+02  0.22706703827E+02  0.51100000000E-03 0. -1.
         12    1    3    3    0    0 -0.44350536071E+01  0.16132874106E+02  0.95603734294E+01  0.19270185976E+02  0.00000000000E+00 0. -1.
</event>
<event>
 7    1  0.5634483E-012  0.5930195E+02  0.7816164E-02  0.1266605E+00
        -11   -1    0    0    0    0  0.00000000000E+00  0.00000000000E+00  0.45593999997E+02  0.45594000000E+02  0.51100000000E-03 0. -1.
         11   -1    0    0    0    0 -0.00000000000E+00 -0.00000000000E+00 -0.45593999997E+02  0.45594000000E+02  0.51100000000E-03 0.  1.
    9900012    2    1    2    0    0 -0.31165582914E+02  0.59935607283E+01 -0.30828511488E+01  0.59301948194E+02  0.50000007598E+02 0.  0.
         12    1    1    2    0    0  0.31165582914E+02 -0.59935607283E+01  0.30828511488E+01  0.31886051806E+02  0.00000000000E+00 0. -1.
         11    1    3    3    0    0 -0.10204976469E+02  0.87396305712E+01  0.48415659080E+01  0.14281577223E+02  0.51100000000E-03 0. -1.
        -11    1    3    3    0    0 -0.20779673827E+02  0.10792182739E+02  0.74142214064E+01  0.24560878077E+02  0.51100000000E-03 0.  1.
        -12    1    3    3    0    0 -0.18093261833E+00 -0.13538252581E+02 -0.15338638463E+02  0.20459492894E+02  0.00000000000E+00 0.  1.
</event>
<event>
 7    1  0.5634483E-012  0.5930193E+02  0.7816164E-02  0.1266605E+00
        -11   -1    0    0    0    0  0.00000000000E+00  0.00000000000E+00  0.45593999997E+02  0.45594000000E+02  0.51100000000E-03 0. -1.
         11   -1    0    0    0    0 -0.00000000000E+00 -0.00000000000E+00 -0.45593999997E+02  0.45594000000E+02  0.51100000000E-03 0.  1.
    9900012    2    1    2    0    0  0.60689370538E+01 -0.30558159119E+02 -0.67888204832E+01  0.59301934560E+02  0.49999982733E+02 0.  0.
         12    1    1    2    0    0 -0.60689370538E+01  0.30558159119E+02  0.67888204832E+01  0.31886065440E+02  0.00000000000E+00 0. -1.
         11    1    3    3    0    0  0.24315889163E+01 -0.16987668529E+01 -0.47820548002E+01  0.56272979174E+01  0.51100000000E-03 0. -1.
        -11    1    3    3    0    0  0.24342062821E+02 -0.17210435695E+02  0.23263149403E+00  0.29812568437E+02  0.51100000000E-03 0.  1.
         12    1    3    3    0    0 -0.20704714683E+02 -0.11648956571E+02 -0.22393971770E+01  0.23862068205E+02  0.00000000000E+00 0. -1.
</event>
<event>
 7    1  0.5634483E-012  0.5930194E+02  0.7816164E-02  0.1266605E+00
        -11   -1    0    0    0    0  0.00000000000E+00  0.00000000000E+00  0.45593999997E+02  0.45594000000E+02  0.51100000000E-03 0. -1.
         11   -1    0    0    0    0 -0.00000000000E+00 -0.00000000000E+00 -0.45593999997E+02  0.45594000000E+02  0.51100000000E-03 0.  1.
    9900012    2    1    2    0    0 -0.24459637895E+02 -0.85322964039E+00 -0.20438177921E+02  0.59301937159E+02  0.49999987473E+02 0.  0.
         12    1    1    2    0    0  0.24459637895E+02  0.85322964039E+00  0.20438177921E+02  0.31886062841E+02  0.00000000000E+00 0. -1.
         11    1    3    3    0    0  0.31091075245E+01  0.98995302178E+01  0.77046161762E+01  0.12923945172E+02  0.51100000000E-03 0. -1.
        -11    1    3    3    0    0 -0.11198531139E+02  0.58294670579E+01 -0.51273407491E+01  0.13626423202E+02  0.51100000000E-03 0.  1.
         12    1    3    3    0    0 -0.16370214281E+02 -0.16582226916E+02 -0.23015453348E+02  0.32751568785E+02  0.00000000000E+00 0. -1.
</event>
<event>
 7    1  0.5634483E-012  0.5930196E+02  0.7816164E-02  0.1266605E+00
        -11   -1    0    0    0    0  0.00000000000E+00  0.00000000000E+00  0.45593999997E+02  0.45594000000E+02  0.51100000000E-03 0. -1.
         11   -1    0    0    0    0 -0.00000000000E+00 -0.00000000000E+00 -0.45593999997E+02  0.45594000000E+02  0.51100000000E-03 0.  1.
    9900012    2    1    2    0    0 -0.28554981063E+02 -0.11884603801E+02  0.77516825273E+01  0.59301963353E+02  0.50000035245E+02 0.  0.
         12    1    1    2    0    0  0.28554981063E+02  0.11884603801E+02 -0.77516825273E+01  0.31886036647E+02  0.00000000000E+00 0. -1.
         11    1    3    3    0    0  0.26819074347E+01 -0.25685971766E+01 -0.45851240536E+01  0.59003120080E+01  0.51100000000E-03 0.  1.
        -11    1    3    3    0    0 -0.33789935551E+02 -0.25806488662E+01  0.22694543106E+02  0.40785558475E+02  0.51100000000E-03 0. -1.
         12    1    3    3    0    0  0.25530470534E+01 -0.67353577582E+01 -0.10357736525E+02  0.12616092870E+02  0.00000000000E+00 0. -1.
</event>
<event>
 7    1  0.5634483E-012  0.5930195E+02  0.7816164E-02  0.1266605E+00
        -11   -1    0    0    0    0  0.00000000000E+00  0.00000000000E+00  0.45593999997E+02  0.45594000000E+02  0.51100000000E-03 0.  1.
         11   -1    0    0    0    0 -0.00000000000E+00 -0.00000000000E+00 -0.45593999997E+02  0.45594000000E+02  0.51100000000E-03 0. -1.
    9900012    2    1    2    0    0  0.21639641444E+02 -0.17259862337E+02  0.15828560907E+02  0.59301948660E+02  0.50000008447E+02 0.  0.
         12    1    1    2    0    0 -0.21639641444E+02  0.17259862337E+02 -0.15828560907E+02  0.31886051340E+02  0.00000000000E+00 0. -1.
         11    1    3    3    0    0  0.57488292226E+00 -0.40254566755E+00  0.15330392884E+02  0.15346448437E+02  0.51100000000E-03 0. -1.
        -11    1    3    3    0    0  0.20927330627E+02 -0.12420056729E+02  0.15136528420E+02  0.28658776478E+02  0.51100000000E-03 0.  1.
         12    1    3    3    0    0  0.13742789434E+00 -0.44372599401E+01 -0.14638360397E+02  0.15296723745E+02  0.00000000000E+00 0. -1.
</event>
<event>
 7    1  0.5634483E-012  0.5930206E+02  0.7816164E-02  0.1266604E+00
        -11   -1    0    0    0    0  0.00000000000E+00  0.00000000000E+00  0.45593999997E+02  0.45594000000E+02  0.51100000000E-03 0.  1.
         11   -1    0    0    0    0 -0.00000000000E+00 -0.00000000000E+00 -0.45593999997E+02  0.45594000000E+02  0.51100000000E-03 0. -1.
    9900012    2    1    2    0    0  0.11836619608E+02 -0.63110572940E+00  0.29600830082E+02  0.59302062665E+02  0.50000216366E+02 0.  0.
         12    1    1    2    0    0 -0.11836619608E+02  0.63110572940E+00 -0.29600830082E+02  0.31885937335E+02  0.00000000000E+00 0. -1.
         11    1    3    3    0    0  0.10710942956E+02 -0.90526253921E+01  0.30085125756E+02  0.33193208906E+02  0.51100000000E-03 0. -1.
        -11    1    3    3    0    0  0.10002865205E+02  0.77120012523E+01  0.70313205208E+01  0.14455855013E+02  0.51100000000E-03 0.  1.
         12    1    3    3    0    0 -0.88771885536E+01  0.70951841036E+00 -0.75156161948E+01  0.11652998746E+02  0.00000000000E+00 0. -1.
</event>
<event>
 7    1  0.5634483E-012  0.5930176E+02  0.7816164E-02  0.1266605E+00
        -11   -1    0    0    0    0  0.00000000000E+00  0.00000000000E+00  0.45593999997E+02  0.45594000000E+02  0.51100000000E-03 0.  1.
         11   -1    0    0    0    0 -0.00000000000E+00 -0.00000000000E+00 -0.45593999997E+02  0.45594000000E+02  0.51100000000E-03 0. -1.
    9900012    2    1    2    0    0 -0.15537331835E+02  0.27431606557E+02  0.47781169643E+01  0.59301762834E+02  0.49999669546E+02 0.  0.
         12    1    1    2    0    0  0.15537331835E+02 -0.27431606557E+02 -0.47781169643E+01  0.31886237166E+02  0.00000000000E+00 0. -1.
         11    1    3    3    0    0  0.10313378596E+01 -0.31179353800E+01 -0.13843546724E+02  0.14227753335E+02  0.51100000000E-03 0. -1.
        -11    1    3    3    0    0 -0.11140661784E+02  0.11477008965E+02 -0.24015673235E+01  0.16174164758E+02  0.51100000000E-03 0.  1.
        -12    1    3    3    0    0 -0.54280079105E+01  0.19072532973E+02  0.21023231012E+02  0.28899844741E+02  0.00000000000E+00 0.  1.
</event>
<event>
 7    1  0.5634483E-012  0.5930194E+02  0.7816164E-02  0.1266605E+00
        -11   -1    0    0    0    0  0.00000000000E+00  0.00000000000E+00  0.45593999997E+02  0.45594000000E+02  0.51100000000E-03 0. -1.
         11   -1    0    0    0    0 -0.00000000000E+00 -0.00000000000E+00 -0.45593999997E+02  0.45594000000E+02  0.51100000000E-03 0.  1.
    9900012    2    1    2    0    0  0.25853715274E+02 -0.18558563815E+02  0.19712351902E+01  0.59301942663E+02  0.49999997511E+02 0.  0.
         12    1    1    2    0    0 -0.25853715274E+02  0.18558563815E+02 -0.19712351902E+01  0.31886057337E+02  0.00000000000E+00 0. -1.
         11    1    3    3    0    0  0.18910991803E+02  0.16978319512E+01  0.18081589493E+02  0.26219308213E+02  0.51100000000E-03 0. -1.
        -11    1    3    3    0    0  0.90838401634E+01 -0.20544590769E+02 -0.67198373628E+01  0.23446803118E+02  0.51100000000E-03 0.  1.
        -12    1    3    3    0    0 -0.21411166930E+01  0.28819500302E+00 -0.93905169402E+01  0.96358313319E+01  0.00000000000E+00 0.  1.
</event>
<event>
 7    1  0.5634483E-012  0.5930195E+02  0.7816164E-02  0.1266605E+00
        -11   -1    0    0    0    0  0.00000000000E+00  0.00000000000E+00  0.45593999997E+02  0.45594000000E+02  0.51100000000E-03 0.  1.
         11   -1    0    0    0    0 -0.00000000000E+00 -0.00000000000E+00 -0.45593999997E+02  0.45594000000E+02  0.51100000000E-03 0. -1.
    9900012    2    1    2    0    0  0.22189664023E+02 -0.18437883478E+02 -0.13578783060E+02  0.59301951546E+02  0.50000013712E+02 0.  0.
         12    1    1    2    0    0 -0.22189664023E+02  0.18437883478E+02  0.13578783060E+02  0.31886048454E+02  0.00000000000E+00 0. -1.
         11    1    3    3    0    0  0.54240388104E+01  0.47859582096E+01 -0.16073202248E+01  0.74100655575E+01  0.51100000000E-03 0. -1.
        -11    1    3    3    0    0  0.25650881591E+01 -0.21947748502E+02  0.11132293465E+02  0.24742904026E+02  0.51100000000E-03 0.  1.
         12    1    3    3    0    0  0.14200537054E+02 -0.12760931860E+01 -0.23103756300E+02  0.27148981963E+02  0.00000000000E+00 0. -1.
</event>
<event>
 7    1  0.5634483E-012  0.5930193E+02  0.7816164E-02  0.1266605E+00
        -11   -1    0    0    0    0  0.00000000000E+00  0.00000000000E+00  0.45593999997E+02  0.45594000000E+02  0.51100000000E-03 0. -1.
         11   -1    0    0    0    0 -0.00000000000E+00 -0.00000000000E+00 -0.45593999997E+02  0.45594000000E+02  0.51100000000E-03 0.  1.
    9900012    2    1    2    0    0  0.29408508450E+02 -0.54759691112E+01  0.11039687653E+02  0.59301932346E+02  0.49999978696E+02 0.  0.
         12    1    1    2    0    0 -0.29408508450E+02  0.54759691112E+01 -0.11039687653E+02  0.31886067654E+02  0.00000000000E+00 0. -1.
         11    1    3    3    0    0  0.12386098290E+02  0.75115656668E+01  0.12907561206E+02  0.19402169625E+02  0.51100000000E-03 0. -1.
        -11    1    3    3    0    0 -0.39057874688E+01  0.29865673376E+01  0.99059811819E+01  0.11059078789E+02  0.51100000000E-03 0.  1.
        -12    1    3    3    0    0  0.20928197628E+02 -0.15974102116E+02 -0.11773854735E+02  0.28840683932E+02  0.00000000000E+00 0.  1.
</event>
<event>
 7    1  0.5634483E-012  0.5930195E+02  0.7816164E-02  0.1266605E+00
        -11   -1    0    0    0    0  0.00000000000E+00  0.00000000000E+00  0.45593999997E+02  0.45594000000E+02  0.51100000000E-03 0.  1.
         11   -1    0    0    0    0 -0.00000000000E+00 -0.00000000000E+00 -0.45593999997E+02  0.45594000000E+02  0.51100000000E-03 0. -1.
    9900012    2    1    2    0    0  0.11057671937E+02 -0.15353559369E+01  0.29867892378E+02  0.59301946283E+02  0.50000004114E+02 0.  0.
         12    1    1    2    0    0 -0.11057671937E+02  0.15353559369E+01 -0.29867892378E+02  0.31886053717E+02  0.00000000000E+00 0. -1.
         11    1    3    3    0    0  0.95228600618E+01  0.61745871637E+01  0.70036030410E+01  0.13336448036E+02  0.51100000000E-03 0. -1.
        -11    1    3    3    0    0  0.13030097984E+02  0.27882000471E+01  0.26780830749E+02  0.29912713165E+02  0.51100000000E-03 0.  1.
         12    1    3    3    0    0 -0.11495286109E+02 -0.10498143148E+02 -0.39165414124E+01  0.16052785083E+02  0.00000000000E+00 0. -1.
</event>
<event>
 7    1  0.5634483E-012  0.5930194E+02  0.7816164E-02  0.1266605E+00
        -11   -1    0    0    0    0  0.00000000000E+00  0.00000000000E+00  0.45593999997E+02  0.45594000000E+02  0.51100000000E-03 0.  1.
         11   -1    0    0    0    0 -0.00000000000E+00 -0.00000000000E+00 -0.45593999997E+02  0.45594000000E+02  0.51100000000E-03 0. -1.
    9900012    2    1    2    0    0  0.18033046061E+02 -0.17758893674E+02  0.19394633203E+02  0.59301939537E+02  0.49999991811E+02 0.  0.
         12    1    1    2    0    0 -0.18033046061E+02  0.17758893674E+02 -0.19394633203E+02  0.31886060463E+02  0.00000000000E+00 0. -1.
         11    1    3    3    0    0  0.16819453017E+02 -0.11861372325E+02 -0.39180091831E+01  0.20950822166E+02  0.51100000000E-03 0. -1.
        -11    1    3    3    0    0  0.10219862710E+02  0.81745911660E+01  0.63648400753E+01  0.14552687861E+02  0.51100000000E-03 0.  1.
         12    1    3    3    0    0 -0.90062696670E+01 -0.14072112515E+02  0.16947802311E+02  0.23798429510E+02  0.00000000000E+00 0. -1.
</event>
<event>
 7    1  0.5634483E-012  0.5930195E+02  0.7816164E-02  0.1266605E+00
        -11   -1    0    0    0    0  0.00000000000E+00  0.00000000000E+00  0.45593999997E+02  0.45594000000E+02  0.51100000000E-03 0.  1.
         11   -1    0    0    0    0 -0.00000000000E+00 -0.00000000000E+00 -0.45593999997E+02  0.45594000000E+02  0.51100000000E-03 0. -1.
    9900012    2    1    2    0    0 -0.77169902854E+01  0.21420292725E+02  0.22323518301E+02  0.59301947425E+02  0.50000006195E+02 0.  0.
         12    1    1    2    0    0  0.77169902854E+01 -0.21420292725E+02 -0.22323518301E+02  0.31886052575E+02  0.00000000000E+00 0. -1.
         11    1    3    3    0    0 -0.94484036157E+01 -0.94678603968E+01 -0.80237135590E+01  0.15597842508E+02  0.51100000000E-03 0. -1.
        -11    1    3    3    0    0 -0.59637760610E+00  0.78557852875E+00  0.22660582213E+01  0.24714004122E+01  0.51100000000E-03 0.  1.
        -12    1    3    3    0    0  0.23277909364E+01  0.30102574593E+02  0.28081173639E+02  0.41232704504E+02  0.00000000000E+00 0.  1.
</event>
<event>
 7    1  0.5634483E-012  0.5930193E+02  0.7816164E-02  0.1266605E+00
        -11   -1    0    0    0    0  0.00000000000E+00  0.00000000000E+00  0.45593999997E+02  0.45594000000E+02  0.51100000000E-03 0.  1.
         11   -1    0    0    0    0 -0.00000000000E+00 -0.00000000000E+00 -0.45593999997E+02  0.45594000000E+02  0.51100000000E-03 0. -1.
    9900012    2    1    2    0    0 -0.29101262532E+02 -0.12383695930E+02  0.40598430895E+01  0.59301925739E+02  0.49999966646E+02 0.  0.
         12    1    1    2    0    0  0.29101262532E+02  0.12383695930E+02 -0.40598430895E+01  0.31886074261E+02  0.00000000000E+00 0. -1.
         11    1    3    3    0    0 -0.54495798390E+01  0.26626990880E+01  0.40023993706E+00  0.60784931622E+01  0.51100000000E-03 0.  1.
        -11    1    3    3    0    0 -0.49680819739E+01  0.15995386488E+02 -0.48633517512E+00  0.16756215251E+02  0.51100000000E-03 0. -1.
        -12    1    3    3    0    0 -0.18683600719E+02 -0.31041781506E+02  0.41459383275E+01  0.36467217326E+02  0.00000000000E+00 0.  1.
</event>
<event>
 7    1  0.5634483E-012  0.5930190E+02  0.7816164E-02  0.1266605E+00
        -11   -1    0    0    0    0  0.00000000000E+00  0.00000000000E+00  0.45593999997E+02  0.45594000000E+02  0.51100000000E-03 0.  1.
         11   -1    0    0    0    0 -0.00000000000E+00 -0.00000000000E+00 -0.45593999997E+02  0.45594000000E+02  0.51100000000E-03 0. -1.
    9900012    2    1    2    0    0  0.68067357205E+01 -0.29558206236E+02 -0.98338222081E+01  0.59301901677E+02  0.49999922762E+02 0.  0.
         12    1    1    2    0    0 -0.68067357205E+01  0.29558206236E+02  0.98338222081E+01  0.31886098323E+02  0.00000000000E+00 0. -1.
         11    1    3    3    0    0 -0.59322492982E+01 -0.95446216619E-02  0.82259090770E+01  0.10141856499E+02  0.51100000000E-03 0. -1.
        -11    1    3    3    0    0 -0.59944016709E+01 -0.10907465136E+02  0.56377975964E+01  0.13663469878E+02  0.51100000000E-03 0.  1.
         12    1    3    3    0    0  0.18733386690E+02 -0.18641196478E+02 -0.23697528881E+02  0.35496575301E+02  0.00000000000E+00 0. -1.
</event>
<event>
 7    1  0.5634483E-012  0.5930195E+02  0.7816164E-02  0.1266605E+00
        -11   -1    0    0    0    0  0.00000000000E+00  0.00000000000E+00  0.45593999997E+02  0.45594000000E+02  0.51100000000E-03 0. -1.
         11   -1    0    0    0    0 -0.00000000000E+00 -0.00000000000E+00 -0.45593999997E+02  0.45594000000E+02  0.51100000000E-03 0.  1.
    9900012    2    1    2    0    0 -0.47140800485E+01  0.24388184439E+02 -0.19992850408E+02  0.59301950411E+02  0.50000011642E+02 0.  0.
         12    1    1    2    0    0  0.47140800485E+01 -0.24388184439E+02  0.19992850408E+02  0.31886049589E+02  0.00000000000E+00 0. -1.
         11    1    3    3    0    0  0.29430853123E+01 -0.11562890362E+02  0.15536663426E+01  0.12032292552E+02  0.51100000000E-03 0. -1.
        -11    1    3    3    0    0  0.13937006449E+01  0.21938028957E+02 -0.27747987155E+01  0.22156692537E+02  0.51100000000E-03 0.  1.
        -12    1    3    3    0    0 -0.90508660057E+01  0.14013045845E+02 -0.18771718035E+02  0.25112965323E+02  0.00000000000E+00 0.  1.
</event>
<event>
 7    1  0.5634483E-012  0.5930205E+02  0.7816164E-02  0.1266604E+00
        -11   -1    0    0    0    0  0.00000000000E+00  0.00000000000E+00  0.45593999997E+02  0.45594000000E+02  0.51100000000E-03 0. -1.
         11   -1    0    0    0    0 -0.00000000000E+00 -0.00000000000E+00 -0.45593999997E+02  0.45594000000E+02  0.51100000000E-03 0.  1.
    9900012    2    1    2    0    0 -0.30123151553E+02  0.47269628624E+01 -0.93255084456E+01  0.59302054112E+02  0.50000200768E+02 0.  0.
         12    1    1    2    0    0  0.30123151553E+02 -0.47269628624E+01  0.93255084456E+01  0.31885945888E+02  0.00000000000E+00 0. -1.
         11    1    3    3    0    0 -0.34285977545E+01 -0.33930630765E+01  0.40785822560E+01  0.63168815949E+01  0.51100000000E-03 0. -1.
        -11    1    3    3    0    0 -0.37165430442E+02  0.30209315862E+00 -0.51314815381E+01  0.37519229513E+02  0.51100000000E-03 0.  1.
         12    1    3    3    0    0  0.10470876644E+02  0.78179327803E+01 -0.82726091634E+01  0.15465943004E+02  0.00000000000E+00 0. -1.
</event>
<event>
 7    1  0.5634483E-012  0.5930194E+02  0.7816164E-02  0.1266605E+00
        -11   -1    0    0    0    0  0.00000000000E+00  0.00000000000E+00  0.45593999997E+02  0.45594000000E+02  0.51100000000E-03 0. -1.
         11   -1    0    0    0    0 -0.00000000000E+00 -0.00000000000E+00 -0.45593999997E+02  0.45594000000E+02  0.51100000000E-03 0.  1.
    9900012    2    1    2    0    0 -0.75156036303E+01  0.26632449864E+02 -0.15841382377E+02  0.59301935970E+02  0.49999985305E+02 0.  0.
         12    1    1    2    0    0  0.75156036303E+01 -0.26632449864E+02  0.15841382377E+02  0.31886064030E+02  0.00000000000E+00 0. -1.
         11    1    3    3    0    0 -0.43639669931E+01 -0.59109915736E+01 -0.78168271696E+01  0.10727852374E+02  0.51100000000E-03 0. -1.
        -11    1    3    3    0    0  0.11387853966E+02  0.14108373754E+02 -0.15584507859E+02  0.23908289638E+02  0.51100000000E-03 0.  1.
         12    1    3    3    0    0 -0.14539490603E+02  0.18435067684E+02  0.75599526512E+01  0.24665793958E+02  0.00000000000E+00 0. -1.
</event>
<event>
 7    1  0.5634483E-012  0.5930193E+02  0.7816164E-02  0.1266605E+00
        -11   -1    0    0    0    0  0.00000000000E+00  0.00000000000E+00  0.45593999997E+02  0.45594000000E+02  0.51100000000E-03 0.  1.
         11   -1    0    0    0    0 -0.00000000000E+00 -0.00000000000E+00 -0.45593999997E+02  0.45594000000E+02  0.51100000000E-03 0. -1.
    9900012    2    1    2    0    0 -0.17882725715E+02 -0.23177547866E+02  0.12638478204E+02  0.59301925683E+02  0.49999966543E+02 0.  0.
         12    1    1    2    0    0  0.17882725715E+02  0.23177547866E+02 -0.12638478204E+02  0.31886074317E+02  0.00000000000E+00 0. -1.
         11    1    3    3    0    0 -0.14118228720E+02  0.42894209655E+01  0.19670213991E+02  0.24589445563E+02  0.51100000000E-03 0. -1.
        -11    1    3    3    0    0  0.20272750774E+01 -0.25347889799E+01  0.53665415030E+01  0.62717435675E+01  0.51100000000E-03 0.  1.
         12    1    3    3    0    0 -0.57917720726E+01 -0.24932179851E+02 -0.12398277289E+02  0.28440736552E+02  0.00000000000E+00 0. -1.
</event>
<event>
 7    1  0.5634483E-012  0.5930195E+02  0.7816164E-02  0.1266605E+00
        -11   -1    0    0    0    0  0.00000000000E+00  0.00000000000E+00  0.45593999997E+02  0.45594000000E+02  0.51100000000E-03 0.  1.
         11   -1    0    0    0    0 -0.00000000000E+00 -0.00000000000E+00 -0.45593999997E+02  0.45594000000E+02  0.51100000000E-03 0. -1.
    9900012    2    1    2    0    0  0.18542598778E+02 -0.10294444888E+02  0.23810008080E+02  0.59301952115E+02  0.50000014749E+02 0.  0.
         12    1    1    2    0    0 -0.18542598778E+02  0.10294444888E+02 -0.23810008080E+02  0.31886047885E+02  0.00000000000E+00 0. -1.
         11    1    3    3    0    0 -0.26614803106E+01 -0.50254041858E+01  0.18599528314E+02  0.19449437484E+02  0.51100000000E-03 0. -1.
        -11    1    3    3    0    0  0.10958825672E+01 -0.16396032139E+02  0.80326488140E+00  0.16452235812E+02  0.51100000000E-03 0.  1.
        -12    1    3    3    0    0  0.20108196521E+02  0.11126991437E+02  0.44072148846E+01  0.23400278819E+02  0.00000000000E+00 0.  1.
</event>
<event>
 7    1  0.5634483E-012  0.5930198E+02  0.7816164E-02  0.1266605E+00
        -11   -1    0    0    0    0  0.00000000000E+00  0.00000000000E+00  0.45593999997E+02  0.45594000000E+02  0.51100000000E-03 0. -1.
         11   -1    0    0    0    0 -0.00000000000E+00 -0.00000000000E+00 -0.45593999997E+02  0.45594000000E+02  0.51100000000E-03 0.  1.
    9900012    2    1    2    0    0 -0.26804676369E+02  0.13445826728E+02  0.10836852105E+02  0.59301979628E+02  0.50000064926E+02 0.  0.
         12    1    1    2    0    0  0.26804676369E+02 -0.13445826728E+02 -0.10836852105E+02  0.31886020372E+02  0.00000000000E+00 0. -1.
         11    1    3    3    0    0 -0.70269835760E+01  0.87948751530E+01  0.11955850450E+02  0.16421653004E+02  0.51100000000E-03 0. -1.
        -11    1    3    3    0    0  0.29783896992E+01  0.16625185997E+02  0.18695058975E+01  0.16993018189E+02  0.51100000000E-03 0.  1.
         12    1    3    3    0    0 -0.22756082492E+02 -0.11974234422E+02 -0.29885042426E+01  0.25887308435E+02  0.00000000000E+00 0. -1.
</event>
<event>
 7    1  0.5634483E-012  0.5930193E+02  0.7816164E-02  0.1266605E+00
        -11   -1    0    0    0    0  0.00000000000E+00  0.00000000000E+00  0.45593999997E+02  0.45594000000E+02  0.51100000000E-03 0. -1.
         11   -1    0    0    0    0 -0.00000000000E+00 -0.00000000000E+00 -0.45593999997E+02  0.45594000000E+02  0.51100000000E-03 0.  1.
    9900012    2    1    2    0    0  0.12544401215E+02  0.74151163713E+01 -0.28361517106E+02  0.59301927724E+02  0.49999970266E+02 0.  0.
         12    1    1    2    0    0 -0.12544401215E+02 -0.74151163713E+01  0.28361517106E+02  0.31886072276E+02  0.00000000000E+00 0. -1.
         11    1    3    3    0    0  0.92693947478E+01  0.14714001399E+02 -0.32045194667E+02  0.36459813736E+02  0.51100000000E-03 0.  1.
        -11    1    3    3    0    0  0.10465513543E+02 -0.47121346818E+00 -0.29843768073E+01  0.10892911505E+02  0.51100000000E-03 0. -1.
        -12    1    3    3    0    0 -0.71905070766E+01 -0.68276715591E+01  0.66680543682E+01  0.11949202484E+02  0.00000000000E+00 0.  1.
</event>
<event>
 7    1  0.5634483E-012  0.5930201E+02  0.7816164E-02  0.1266605E+00
        -11   -1    0    0    0    0  0.00000000000E+00  0.00000000000E+00  0.45593999997E+02  0.45594000000E+02  0.51100000000E-03 0.  1.
         11   -1    0    0    0    0 -0.00000000000E+00 -0.00000000000E+00 -0.45593999997E+02  0.45594000000E+02  0.51100000000E-03 0. -1.
    9900012    2    1    2    0    0  0.29530269458E+02  0.10447434471E+02 -0.59607496661E+01  0.59302011888E+02  0.50000123761E+02 0.  0.
         12    1    1    2    0    0 -0.29530269458E+02 -0.10447434471E+02  0.59607496661E+01  0.31885988112E+02  0.00000000000E+00 0. -1.
         11    1    3    3    0    0  0.55695754537E+01 -0.61238045489E+01  0.62893673193E+01  0.10396023010E+02  0.51100000000E-03 0. -1.
        -11    1    3    3    0    0 -0.63892355601E+01 -0.55680603796E+01  0.20331438226E+01  0.87154633553E+01  0.51100000000E-03 0.  1.
         12    1    3    3    0    0  0.30349929564E+02  0.22139299400E+02 -0.14283260808E+02  0.40190525523E+02  0.00000000000E+00 0. -1.
</event>
<event>
 7    1  0.5634483E-012  0.5930191E+02  0.7816164E-02  0.1266605E+00
        -11   -1    0    0    0    0  0.00000000000E+00  0.00000000000E+00  0.45593999997E+02  0.45594000000E+02  0.51100000000E-03 0.  1.
         11   -1    0    0    0    0 -0.00000000000E+00 -0.00000000000E+00 -0.45593999997E+02  0.45594000000E+02  0.51100000000E-03 0. -1.
    9900012    2    1    2    0    0  0.11840143305E+02 -0.22763858776E+02  0.18929880698E+02  0.59301911449E+02  0.49999940585E+02 0.  0.
         12    1    1    2    0    0 -0.11840143305E+02  0.22763858776E+02 -0.18929880698E+02  0.31886088551E+02  0.00000000000E+00 0. -1.
         11    1    3    3    0    0  0.64549960311E+01 -0.78291020923E+01 -0.15574938056E+02  0.18588719941E+02  0.51100000000E-03 0. -1.
        -11    1    3    3    0    0  0.29421176154E+01  0.23786927368E+01  0.92734034889E+01  0.10015500373E+02  0.51100000000E-03 0.  1.
        -12    1    3    3    0    0  0.24430296583E+01 -0.17313449420E+02  0.25231415265E+02  0.30697691135E+02  0.00000000000E+00 0.  1.
</event>
<event>
 7    1  0.5634483E-012  0.5930195E+02  0.7816164E-02  0.1266605E+00
        -11   -1    0    0    0    0  0.00000000000E+00  0.00000000000E+00  0.45593999997E+02  0.45594000000E+02  0.51100000000E-03 0.  1.
         11   -1    0    0    0    0 -0.00000000000E+00 -0.00000000000E+00 -0.45593999997E+02  0.45594000000E+02  0.51100000000E-03 0. -1.
    9900012    2    1    2    0    0  0.25150933253E+02  0.19532842030E+02 -0.16183016711E+01  0.59301948793E+02  0.50000008691E+02 0.  0.
         12    1    1    2    0    0 -0.25150933253E+02 -0.19532842030E+02  0.16183016711E+01  0.31886051207E+02  0.00000000000E+00 0. -1.
         11    1    3    3    0    0 -0.59262112719E+00  0.13950223347E+02  0.19354079371E+02  0.23865043888E+02  0.51100000000E-03 0.  1.
        -11    1    3    3    0    0  0.55076594847E+01  0.25666368774E+01 -0.11247380597E+02  0.12783798669E+02  0.51100000000E-03 0. -1.
        -12    1    3    3    0    0  0.20235894895E+02  0.30159818061E+01 -0.97250004452E+01  0.22653106236E+02  0.00000000000E+00 0.  1.
</event>
<event>
 7    1  0.5634483E-012  0.5930194E+02  0.7816164E-02  0.1266605E+00
        -11   -1    0    0    0    0  0.00000000000E+00  0.00000000000E+00  0.45593999997E+02  0.45594000000E+02  0.51100000000E-03 0.  1.
         11   -1    0    0    0    0 -0.00000000000E+00 -0.00000000000E+00 -0.45593999997E+02  0.45594000000E+02  0.51100000000E-03 0. -1.
    9900012    2    1    2    0    0  0.17283439405E+02  0.11301940232E+01  0.26771747643E+02  0.59301935833E+02  0.49999985055E+02 0.  0.
         12    1    1    2    0    0 -0.17283439405E+02 -0.11301940232E+01 -0.26771747643E+02  0.31886064167E+02  0.00000000000E+00 0. -1.
         11    1    3    3    0    0  0.31240037105E+01  0.43901247200E+01 -0.71777226325E+01  0.89750931299E+01  0.51100000000E-03 0. -1.
        -11    1    3    3    0    0 -0.65014656600E+01  0.94300164962E+01  0.48208455238E+01  0.12427180641E+02  0.51100000000E-03 0.  1.
        -12    1    3    3    0    0  0.20660901355E+02 -0.12689947193E+02  0.29128624751E+02  0.37899662063E+02  0.00000000000E+00 0.  1.
</event>
<event>
 7    1  0.5634483E-012  0.5930195E+02  0.7816164E-02  0.1266605E+00
        -11   -1    0    0    0    0  0.00000000000E+00  0.00000000000E+00  0.45593999997E+02  0.45594000000E+02  0.51100000000E-03 0.  1.
         11   -1    0    0    0    0 -0.00000000000E+00 -0.00000000000E+00 -0.45593999997E+02  0.45594000000E+02  0.51100000000E-03 0. -1.
    9900012    2    1    2    0    0 -0.18503501494E+01 -0.11907105877E+02  0.29521469307E+02  0.59301951075E+02  0.50000012853E+02 0.  0.
         12    1    1    2    0    0  0.18503501494E+01  0.11907105877E+02 -0.29521469307E+02  0.31886048925E+02  0.00000000000E+00 0. -1.
         11    1    3    3    0    0  0.51986726359E+01 -0.78891636330E+01  0.92216800778E+01  0.13202442339E+02  0.51100000000E-03 0. -1.
        -11    1    3    3    0    0 -0.61646241999E+01 -0.21827243071E+02  0.16001533521E+02  0.27757525230E+02  0.51100000000E-03 0.  1.
         12    1    3    3    0    0 -0.88439858549E+00  0.17809300827E+02  0.42982557077E+01  0.18341983506E+02  0.00000000000E+00 0. -1.
</event>
<event>
 7    1  0.5634483E-012  0.5930196E+02  0.7816164E-02  0.1266605E+00
        -11   -1    0    0    0    0  0.00000000000E+00  0.00000000000E+00  0.45593999997E+02  0.45594000000E+02  0.51100000000E-03 0. -1.
         11   -1    0    0    0    0 -0.00000000000E+00 -0.00000000000E+00 -0.45593999997E+02  0.45594000000E+02  0.51100000000E-03 0.  1.
    9900012    2    1    2    0    0 -0.16196762057E+02  0.27465685445E+02  0.14294407699E+00  0.59301962129E+02  0.50000033012E+02 0.  0.
         12    1    1    2    0    0  0.16196762057E+02 -0.27465685445E+02 -0.14294407699E+00  0.31886037871E+02  0.00000000000E+00 0. -1.
         11    1    3    3    0    0 -0.21142384472E+01  0.74173497250E+00 -0.14155254290E+01  0.26502617762E+01  0.51100000000E-03 0. -1.
        -11    1    3    3    0    0 -0.24156824688E+02  0.35217163060E+02 -0.27340824717E+01  0.42793410243E+02  0.51100000000E-03 0.  1.
         12    1    3    3    0    0  0.10074301078E+02 -0.84932125874E+01  0.42925519777E+01  0.13858290109E+02  0.00000000000E+00 0. -1.
</event>
<event>
 7    1  0.5634483E-012  0.5930192E+02  0.7816164E-02  0.1266605E+00
        -11   -1    0    0    0    0  0.00000000000E+00  0.00000000000E+00  0.45593999997E+02  0.45594000000E+02  0.51100000000E-03 0. -1.
         11   -1    0    0    0    0 -0.00000000000E+00 -0.00000000000E+00 -0.45593999997E+02  0.45594000000E+02  0.51100000000E-03 0.  1.
    9900012    2    1    2    0    0  0.29480903813E+02 -0.11452646271E+02  0.40540622382E+01  0.59301918133E+02  0.49999952774E+02 0.  0.
         12    1    1    2    0    0 -0.29480903813E+02  0.11452646271E+02 -0.40540622382E+01  0.31886081867E+02  0.00000000000E+00 0. -1.
         11    1    3    3    0    0 -0.10117477988E+02  0.22283405856E+01 -0.34104534047E+01  0.10906881098E+02  0.51100000000E-03 0. -1.
        -11    1    3    3    0    0  0.10372242622E+02 -0.26325602705E+01 -0.81638548724E+01  0.13459655168E+02  0.51100000000E-03 0.  1.
        -12    1    3    3    0    0  0.29226139178E+02 -0.11048426586E+02  0.15628370515E+02  0.34935381868E+02  0.00000000000E+00 0.  1.
</event>
<event>
 7    1  0.5634483E-012  0.5930195E+02  0.7816164E-02  0.1266605E+00
        -11   -1    0    0    0    0  0.00000000000E+00  0.00000000000E+00  0.45593999997E+02  0.45594000000E+02  0.51100000000E-03 0.  1.
         11   -1    0    0    0    0 -0.00000000000E+00 -0.00000000000E+00 -0.45593999997E+02  0.45594000000E+02  0.51100000000E-03 0. -1.
    9900012    2    1    2    0    0 -0.24012017876E+02 -0.20486861796E+02 -0.45201227448E+01  0.59301952607E+02  0.50000015646E+02 0.  0.
         12    1    1    2    0    0  0.24012017876E+02  0.20486861796E+02  0.45201227448E+01  0.31886047393E+02  0.00000000000E+00 0. -1.
         11    1    3    3    0    0  0.40505305139E+01  0.20881995008E+01 -0.15260443094E+01  0.48058491544E+01  0.51100000000E-03 0. -1.
        -11    1    3    3    0    0 -0.70440327899E+01 -0.30839389537E+02  0.52918208858E+00  0.31638052704E+02  0.51100000000E-03 0.  1.
         12    1    3    3    0    0 -0.21018515600E+02  0.82643282399E+01 -0.35232605240E+01  0.22858050748E+02  0.00000000000E+00 0. -1.
</event>
<event>
 7    1  0.5634483E-012  0.5930196E+02  0.7816164E-02  0.1266605E+00
        -11   -1    0    0    0    0  0.00000000000E+00  0.00000000000E+00  0.45593999997E+02  0.45594000000E+02  0.51100000000E-03 0. -1.
         11   -1    0    0    0    0 -0.00000000000E+00 -0.00000000000E+00 -0.45593999997E+02  0.45594000000E+02  0.51100000000E-03 0.  1.
    9900012    2    1    2    0    0 -0.26773022123E+02 -0.37417907877E+01 -0.16909285174E+02  0.59301958587E+02  0.50000026553E+02 0.  0.
         12    1    1    2    0    0  0.26773022123E+02  0.37417907877E+01  0.16909285174E+02  0.31886041413E+02  0.00000000000E+00 0. -1.
         11    1    3    3    0    0  0.11616760224E+01 -0.98292106190E+01 -0.14411648174E+01  0.10001991245E+02  0.51100000000E-03 0. -1.
        -11    1    3    3    0    0 -0.34261385171E+01 -0.82740501135E+01 -0.18676932347E+02  0.20712946014E+02  0.51100000000E-03 0.  1.
        -12    1    3    3    0    0 -0.24508559628E+02  0.14361469945E+02  0.32088119907E+01  0.28587021328E+02  0.00000000000E+00 0.  1.
</event>
<event>
 7    1  0.5634483E-012  0.5930205E+02  0.7816164E-02  0.1266604E+00
        -11   -1    0    0    0    0  0.00000000000E+00  0.00000000000E+00  0.45593999997E+02  0.45594000000E+02  0.51100000000E-03 0. -1.
         11   -1    0    0    0    0 -0.00000000000E+00 -0.00000000000E+00 -0.45593999997E+02  0.45594000000E+02  0.51100000000E-03 0.  1.
    9900012    2    1    2    0    0 -0.19725649502E+02  0.75855763943E+01 -0.23876175544E+02  0.59302047354E+02  0.50000188443E+02 0.  0.
         12    1    1    2    0    0  0.19725649502E+02 -0.75855763943E+01  0.23876175544E+02  0.31885952646E+02  0.00000000000E+00 0. -1.
         11    1    3    3    0    0 -0.58159928054E+01  0.21022708228E+01 -0.15774081487E+02  0.16943050550E+02  0.51100000000E-03 0.  1.
        -11    1    3    3    0    0 -0.23247615543E+01 -0.12359260436E+02 -0.15387130885E+02  0.19872584934E+02  0.51100000000E-03 0. -1.
         12    1    3    3    0    0 -0.11584895142E+02  0.17842566008E+02  0.72850368288E+01  0.22486411870E+02  0.00000000000E+00 0. -1.
</event>
<event>
 7    1  0.5634483E-012  0.5930193E+02  0.7816164E-02  0.1266605E+00
        -11   -1    0    0    0    0  0.00000000000E+00  0.00000000000E+00  0.45593999997E+02  0.45594000000E+02  0.51100000000E-03 0.  1.
         11   -1    0    0    0    0 -0.00000000000E+00 -0.00000000000E+00 -0.45593999997E+02  0.45594000000E+02  0.51100000000E-03 0. -1.
    9900012    2    1    2    0    0  0.28655916409E+01  0.26325622354E+02  0.17761509118E+02  0.59301933859E+02  0.49999981455E+02 0.  0.
         12    1    1    2    0    0 -0.28655916409E+01 -0.26325622354E+02 -0.17761509118E+02  0.31886066141E+02  0.00000000000E+00 0. -1.
         11    1    3    3    0    0 -0.60432399866E+00 -0.32091668337E+01 -0.15514971979E+01  0.36153980526E+01  0.51100000000E-03 0. -1.
        -11    1    3    3    0    0  0.38916255470E+01  0.78115013653E+01  0.30163379999E+02  0.31400538151E+02  0.51100000000E-03 0.  1.
         12    1    3    3    0    0 -0.42170990749E+00  0.21723287823E+02 -0.10850373682E+02  0.24285997655E+02  0.00000000000E+00 0. -1.
</event>
<event>
 7    1  0.5634483E-012  0.5930177E+02  0.7816164E-02  0.1266605E+00
        -11   -1    0    0    0    0  0.00000000000E+00  0.00000000000E+00  0.45593999997E+02  0.45594000000E+02  0.51100000000E-03 0.  1.
         11   -1    0    0    0    0 -0.00000000000E+00 -0.00000000000E+00 -0.45593999997E+02  0.45594000000E+02  0.51100000000E-03 0. -1.
    9900012    2    1    2    0    0  0.61853099588E+00 -0.51965527676E+01  0.31453855398E+02  0.59301768478E+02  0.49999679838E+02 0.  0.
         12    1    1    2    0    0 -0.61853099588E+00  0.51965527676E+01 -0.31453855398E+02  0.31886231522E+02  0.00000000000E+00 0. -1.
         11    1    3    3    0    0 -0.14539872017E+02 -0.14634427810E+01 -0.92507752026E+00  0.14642585555E+02  0.51100000000E-03 0. -1.
        -11    1    3    3    0    0 -0.65687308411E+01 -0.41761289463E+01  0.14743742468E+02  0.16672318977E+02  0.51100000000E-03 0.  1.
         12    1    3    3    0    0  0.21727133854E+02  0.44301895959E+00  0.17635190451E+02  0.27986863946E+02  0.00000000000E+00 0. -1.
</event>
<event>
 7    1  0.5634483E-012  0.5930191E+02  0.7816164E-02  0.1266605E+00
        -11   -1    0    0    0    0  0.00000000000E+00  0.00000000000E+00  0.45593999997E+02  0.45594000000E+02  0.51100000000E-03 0.  1.
         11   -1    0    0    0    0 -0.00000000000E+00 -0.00000000000E+00 -0.45593999997E+02  0.45594000000E+02  0.51100000000E-03 0. -1.
    9900012    2    1    2    0    0  0.24863488644E+02  0.48775679221E+01  0.19358168915E+02  0.59301914631E+02  0.49999946387E+02 0.  0.
         12    1    1    2    0    0 -0.24863488644E+02 -0.48775679221E+01 -0.19358168915E+02  0.31886085369E+02  0.00000000000E+00 0. -1.
         11    1    3    3    0    0 -0.12654492097E+02 -0.65173004215E+01  0.66166340891E+01  0.15696853887E+02  0.51100000000E-03 0. -1.
        -11    1    3    3    0    0  0.17142112484E+02  0.10728227676E+02  0.13879346345E+01  0.20270008690E+02  0.51100000000E-03 0.  1.
        -12    1    3    3    0    0  0.20375868258E+02  0.66664066715E+00  0.11353600192E+02  0.23335052054E+02  0.00000000000E+00 0.  1.
</event>
<event>
 7    1  0.5634483E-012  0.5930194E+02  0.7816164E-02  0.1266605E+00
        -11   -1    0    0    0    0  0.00000000000E+00  0.00000000000E+00  0.45593999997E+02  0.45594000000E+02  0.51100000000E-03 0. -1.
         11   -1    0    0    0    0 -0.00000000000E+00 -0.00000000000E+00 -0.45593999997E+02  0.45594000000E+02  0.51100000000E-03 0.  1.
    9900012    2    1    2    0    0  0.13046689485E+02  0.13873475750E+01 -0.29061655974E+02  0.59301942110E+02  0.49999996502E+02 0.  0.
         12    1    1    2    0    0 -0.13046689485E+02 -0.13873475750E+01  0.29061655974E+02  0.31886057890E+02  0.00000000000E+00 0. -1.
         11    1    3    3    0    0  0.18028689343E+02 -0.12379801086E+01 -0.75439983025E+01  0.19582598010E+02  0.51100000000E-03 0.  1.
        -11    1    3    3    0    0 -0.29236778121E+00 -0.90515030536E+01  0.50163943804E+01  0.10352748393E+02  0.51100000000E-03 0. -1.
         12    1    3    3    0    0 -0.46896320766E+01  0.11676830737E+02 -0.26534052052E+02  0.29366595706E+02  0.00000000000E+00 0. -1.
</event>
<event>
 7    1  0.5634483E-012  0.5930196E+02  0.7816164E-02  0.1266605E+00
        -11   -1    0    0    0    0  0.00000000000E+00  0.00000000000E+00  0.45593999997E+02  0.45594000000E+02  0.51100000000E-03 0. -1.
         11   -1    0    0    0    0 -0.00000000000E+00 -0.00000000000E+00 -0.45593999997E+02  0.45594000000E+02  0.51100000000E-03 0.  1.
    9900012    2    1    2    0    0  0.12484603304E+02  0.26912646065E+02  0.11686037681E+02  0.59301963643E+02  0.50000035773E+02 0.  0.
         12    1    1    2    0    0 -0.12484603304E+02 -0.26912646065E+02 -0.11686037681E+02  0.31886036357E+02  0.00000000000E+00 0. -1.
         11    1    3    3    0    0 -0.10155391308E+02  0.26905250632E+02  0.66139841643E+01  0.29508799890E+02  0.51100000000E-03 0. -1.
        -11    1    3    3    0    0 -0.61471319564E+00 -0.44480213306E+01 -0.22321055192E+01  0.50144851561E+01  0.51100000000E-03 0.  1.
         12    1    3    3    0    0  0.23254707808E+02  0.44554167640E+01  0.73041590359E+01  0.24778678596E+02  0.00000000000E+00 0. -1.
</event>
<event>
 7    1  0.5634483E-012  0.5930195E+02  0.7816164E-02  0.1266605E+00
        -11   -1    0    0    0    0  0.00000000000E+00  0.00000000000E+00  0.45593999997E+02  0.45594000000E+02  0.51100000000E-03 0.  1.
         11   -1    0    0    0    0 -0.00000000000E+00 -0.00000000000E+00 -0.45593999997E+02  0.45594000000E+02  0.51100000000E-03 0. -1.
    9900012    2    1    2    0    0 -0.13715857052E+02 -0.27636791975E+02  0.80500523764E+01  0.59301947429E+02  0.50000006203E+02 0.  0.
         12    1    1    2    0    0  0.13715857052E+02  0.27636791975E+02 -0.80500523764E+01  0.31886052571E+02  0.00000000000E+00 0. -1.
         11    1    3    3    0    0  0.71186487950E+01 -0.52915689564E+01 -0.13723811303E+02  0.16340711724E+02  0.51100000000E-03 0. -1.
        -11    1    3    3    0    0 -0.30666200267E+01 -0.12097052281E+02 -0.74393716492E+00  0.12501850865E+02  0.51100000000E-03 0.  1.
         12    1    3    3    0    0 -0.17767885820E+02 -0.10248170737E+02  0.22517800844E+02  0.30459384840E+02  0.00000000000E+00 0. -1.
</event>
<event>
 7    1  0.5634483E-012  0.5930195E+02  0.7816164E-02  0.1266605E+00
        -11   -1    0    0    0    0  0.00000000000E+00  0.00000000000E+00  0.45593999997E+02  0.45594000000E+02  0.51100000000E-03 0.  1.
         11   -1    0    0    0    0 -0.00000000000E+00 -0.00000000000E+00 -0.45593999997E+02  0.45594000000E+02  0.51100000000E-03 0. -1.
    9900012    2    1    2    0    0 -0.75425414647E+00 -0.89413166750E+01  0.30597451050E+02  0.59301952049E+02  0.50000014628E+02 0.  0.
         12    1    1    2    0    0  0.75425414647E+00  0.89413166750E+01 -0.30597451050E+02  0.31886047951E+02  0.00000000000E+00 0. -1.
         11    1    3    3    0    0  0.84223519096E+01 -0.11572233337E+01  0.15299396990E+02  0.17502763383E+02  0.51100000000E-03 0. -1.
        -11    1    3    3    0    0 -0.11691321842E+01  0.42188444282E+01  0.24366909709E+02  0.24757055710E+02  0.51100000000E-03 0.  1.
        -12    1    3    3    0    0 -0.80074738718E+01 -0.12002937769E+02 -0.90688556491E+01  0.17042132956E+02  0.00000000000E+00 0.  1.
</event>
<event>
 7    1  0.5634483E-012  0.5930206E+02  0.7816164E-02  0.1266604E+00
        -11   -1    0    0    0    0  0.00000000000E+00  0.00000000000E+00  0.45593999997E+02  0.45594000000E+02  0.51100000000E-03 0.  1.
         11   -1    0    0    0    0 -0.00000000000E+00 -0.00000000000E+00 -0.45593999997E+02  0.45594000000E+02  0.51100000000E-03 0. -1.
    9900012    2    1    2    0    0 -0.19744670626E+01 -0.12813408964E+02  0.29131278571E+02  0.59302057006E+02  0.50000206045E+02 0.  0.
         12    1    1    2    0    0  0.19744670626E+01  0.12813408964E+02 -0.29131278571E+02  0.31885942994E+02  0.00000000000E+00 0. -1.
         11    1    3    3    0    0 -0.44700138648E+01  0.54170820816E+01  0.16813485204E+02  0.18221390924E+02  0.51100000000E-03 0. -1.
        -11    1    3    3    0    0 -0.47727442088E+01 -0.19514036770E+02  0.21417032140E+02  0.29364365894E+02  0.51100000000E-03 0.  1.
         12    1    3    3    0    0  0.72682910109E+01  0.12835457247E+01 -0.90992387738E+01  0.11716300189E+02  0.00000000000E+00 0. -1.
</event>
<event>
 7    1  0.5634483E-012  0.5930193E+02  0.7816164E-02  0.1266605E+00
        -11   -1    0    0    0    0  0.00000000000E+00  0.00000000000E+00  0.45593999997E+02  0.45594000000E+02  0.51100000000E-03 0.  1.
         11   -1    0    0    0    0 -0.00000000000E+00 -0.00000000000E+00 -0.45593999997E+02  0.45594000000E+02  0.51100000000E-03 0. -1.
    9900012    2    1    2    0    0  0.10159384977E+02  0.66761645799E+01  0.29477735731E+02  0.59301934385E+02  0.49999982414E+02 0.  0.
         12    1    1    2    0    0 -0.10159384977E+02 -0.66761645799E+01 -0.29477735731E+02  0.31886065615E+02  0.00000000000E+00 0. -1.
         11    1    3    3    0    0 -0.12124774058E+01 -0.68229817523E+00 -0.71596553510E+01  0.72935791808E+01  0.51100000000E-03 0. -1.
        -11    1    3    3    0    0 -0.76306663414E+01 -0.85697351353E+01  0.73159261450E+01  0.13608460777E+02  0.51100000000E-03 0.  1.
        -12    1    3    3    0    0  0.19002528725E+02  0.15928197890E+02  0.29321464937E+02  0.38399894427E+02  0.00000000000E+00 0.  1.
</event>
<event>
 7    1  0.5634483E-012  0.5930193E+02  0.7816164E-02  0.1266605E+00
        -11   -1    0    0    0    0  0.00000000000E+00  0.00000000000E+00  0.45593999997E+02  0.45594000000E+02  0.51100000000E-03 0.  1.
         11   -1    0    0    0    0 -0.00000000000E+00 -0.00000000000E+00 -0.45593999997E+02  0.45594000000E+02  0.51100000000E-03 0. -1.
    9900012    2    1    2    0    0 -0.21260343383E+02 -0.97194946618E+00  0.23743937354E+02  0.59301930195E+02  0.49999974773E+02 0.  0.
         12    1    1    2    0    0  0.21260343383E+02  0.97194946618E+00 -0.23743937354E+02  0.31886069805E+02  0.00000000000E+00 0. -1.
         11    1    3    3    0    0 -0.12879243368E+02 -0.11149352856E+02  0.25040108345E+02  0.30285144957E+02  0.51100000000E-03 0. -1.
        -11    1    3    3    0    0  0.76875890145E+01  0.35308843407E+01  0.57772285126E+01  0.10244146555E+02  0.51100000000E-03 0.  1.
        -12    1    3    3    0    0 -0.16068689030E+02  0.66465190496E+01 -0.70733995040E+01  0.18772638684E+02  0.00000000000E+00 0.  1.
</event>
<event>
 7    1  0.5634483E-012  0.5930195E+02  0.7816164E-02  0.1266605E+00
        -11   -1    0    0    0    0  0.00000000000E+00  0.00000000000E+00  0.45593999997E+02  0.45594000000E+02  0.51100000000E-03 0.  1.
         11   -1    0    0    0    0 -0.00000000000E+00 -0.00000000000E+00 -0.45593999997E+02  0.45594000000E+02  0.51100000000E-03 0. -1.
    9900012    2    1    2    0    0 -0.50469168236E+01  0.28686259593E+02 -0.12974874573E+02  0.59301949303E+02  0.50000009621E+02 0.  0.
         12    1    1    2    0    0  0.50469168236E+01 -0.28686259593E+02  0.12974874573E+02  0.31886050697E+02  0.00000000000E+00 0. -1.
         11    1    3    3    0    0  0.22392665727E+01  0.17887274077E+02 -0.11868297033E+02  0.21582987824E+02  0.51100000000E-03 0. -1.
        -11    1    3    3    0    0 -0.83284971219E+01  0.15098260288E+02  0.13853324217E+02  0.22118678083E+02  0.51100000000E-03 0.  1.
         12    1    3    3    0    0  0.10423137256E+01 -0.42992747708E+01 -0.14959901757E+02  0.15600283396E+02  0.00000000000E+00 0. -1.
</event>
<event>
 7    1  0.5634483E-012  0.5930194E+02  0.7816164E-02  0.1266605E+00
        -11   -1    0    0    0    0  0.00000000000E+00  0.00000000000E+00  0.45593999997E+02  0.45594000000E+02  0.51100000000E-03 0.  1.
         11   -1    0    0    0    0 -0.00000000000E+00 -0.00000000000E+00 -0.45593999997E+02  0.45594000000E+02  0.51100000000E-03 0. -1.
    9900012    2    1    2    0    0 -0.21004019369E+02 -0.17965756664E+02  0.15899163868E+02  0.59301942642E+02  0.49999997472E+02 0.  0.
         12    1    1    2    0    0  0.21004019369E+02  0.17965756664E+02 -0.15899163868E+02  0.31886057358E+02  0.00000000000E+00 0. -1.
         11    1    3    3    0    0 -0.14963666462E+02  0.63266766574E+01  0.21597505953E+01  0.16389102307E+02  0.51100000000E-03 0. -1.
        -11    1    3    3    0    0 -0.11911007811E+02  0.31981607110E+01  0.22073939066E+01  0.12528883715E+02  0.51100000000E-03 0.  1.
        -12    1    3    3    0    0  0.58706549049E+01 -0.27490594032E+02  0.11532019366E+02  0.30383956620E+02  0.00000000000E+00 0.  1.
</event>
<event>
 7    1  0.5634483E-012  0.5930194E+02  0.7816164E-02  0.1266605E+00
        -11   -1    0    0    0    0  0.00000000000E+00  0.00000000000E+00  0.45593999997E+02  0.45594000000E+02  0.51100000000E-03 0.  1.
         11   -1    0    0    0    0 -0.00000000000E+00 -0.00000000000E+00 -0.45593999997E+02  0.45594000000E+02  0.51100000000E-03 0. -1.
    9900012    2    1    2    0    0  0.95065738406E+01  0.99227189041E+01  0.28772995960E+02  0.59301943594E+02  0.49999999209E+02 0.  0.
         12    1    1    2    0    0 -0.95065738406E+01 -0.99227189041E+01 -0.28772995960E+02  0.31886056406E+02  0.00000000000E+00 0. -1.
         11    1    3    3    0    0 -0.37485542758E+01  0.18372178646E+01 -0.77297545360E+01  0.87849948257E+01  0.51100000000E-03 0. -1.
        -11    1    3    3    0    0  0.15030721340E+02 -0.89686618263E+01  0.15290002421E+02  0.23240990798E+02  0.51100000000E-03 0.  1.
        -12    1    3    3    0    0 -0.17755932231E+01  0.17054162866E+02  0.21212748074E+02  0.27275957971E+02  0.00000000000E+00 0.  1.
</event>
<event>
 7    1  0.5634483E-012  0.5930195E+02  0.7816164E-02  0.1266605E+00
        -11   -1    0    0    0    0  0.00000000000E+00  0.00000000000E+00  0.45593999997E+02  0.45594000000E+02  0.51100000000E-03 0. -1.
         11   -1    0    0    0    0 -0.00000000000E+00 -0.00000000000E+00 -0.45593999997E+02  0.45594000000E+02  0.51100000000E-03 0.  1.
    9900012    2    1    2    0    0  0.91999233232E+01  0.27564528715E+02 -0.13125493470E+02  0.59301946446E+02  0.50000004411E+02 0.  0.
         12    1    1    2    0    0 -0.91999233232E+01 -0.27564528715E+02  0.13125493470E+02  0.31886053554E+02  0.00000000000E+00 0. -1.
         11    1    3    3    0    0  0.50741346946E+01  0.96753018496E+01 -0.56674650220E+01  0.12307658949E+02  0.51100000000E-03 0. -1.
        -11    1    3    3    0    0 -0.91764811791E+01  0.28004438700E+02 -0.25630902647E+01  0.29580835446E+02  0.51100000000E-03 0.  1.
         12    1    3    3    0    0  0.13302269808E+02 -0.10115211835E+02 -0.48949381830E+01  0.17413452051E+02  0.00000000000E+00 0. -1.
</event>
<event>
 7    1  0.5634483E-012  0.5930194E+02  0.7816164E-02  0.1266605E+00
        -11   -1    0    0    0    0  0.00000000000E+00  0.00000000000E+00  0.45593999997E+02  0.45594000000E+02  0.51100000000E-03 0.  1.
         11   -1    0    0    0    0 -0.00000000000E+00 -0.00000000000E+00 -0.45593999997E+02  0.45594000000E+02  0.51100000000E-03 0. -1.
    9900012    2    1    2    0    0  0.14366209038E+02 -0.12008505884E+02  0.25809465590E+02  0.59301942079E+02  0.49999996447E+02 0.  0.
         12    1    1    2    0    0 -0.14366209038E+02  0.12008505884E+02 -0.25809465590E+02  0.31886057921E+02  0.00000000000E+00 0. -1.
         11    1    3    3    0    0  0.85663299196E+01  0.11450052637E+02  0.11678297936E+02  0.18462620525E+02  0.51100000000E-03 0. -1.
        -11    1    3    3    0    0 -0.10739273351E+02 -0.45134329799E+01 -0.65193109192E+00  0.11667394044E+02  0.51100000000E-03 0.  1.
        -12    1    3    3    0    0  0.16539152469E+02 -0.18945125541E+02  0.14783098745E+02  0.29171927511E+02  0.00000000000E+00 0.  1.
</event>
<event>
 7    1  0.5634483E-012  0.5930173E+02  0.7816164E-02  0.1266606E+00
        -11   -1    0    0    0    0  0.00000000000E+00  0.00000000000E+00  0.45593999997E+02  0.45594000000E+02  0.51100000000E-03 0. -1.
         11   -1    0    0    0    0 -0.00000000000E+00 -0.00000000000E+00 -0.45593999997E+02  0.45594000000E+02  0.51100000000E-03 0.  1.
    9900012    2    1    2    0    0  0.25588258907E+02  0.12806707954E+02 -0.14069953165E+02  0.59301727960E+02  0.49999605943E+02 0.  0.
         12    1    1    2    0    0 -0.25588258907E+02 -0.12806707954E+02  0.14069953165E+02  0.31886272040E+02  0.00000000000E+00 0. -1.
         11    1    3    3    0    0 -0.44168814044E+01  0.29965807660E+01  0.23057732627E+01  0.58142005666E+01  0.51100000000E-03 0. -1.
        -11    1    3    3    0    0  0.76119076468E+01 -0.14861735781E+02 -0.82455535088E+00  0.16718020823E+02  0.51100000000E-03 0.  1.
        -12    1    3    3    0    0  0.22393232665E+02  0.24671862969E+02 -0.15551171077E+02  0.36769506570E+02  0.00000000000E+00 0.  1.
</event>
<event>
 7    1  0.5634483E-012  0.5930194E+02  0.7816164E-02  0.1266605E+00
        -11   -1    0    0    0    0  0.00000000000E+00  0.00000000000E+00  0.45593999997E+02  0.45594000000E+02  0.51100000000E-03 0. -1.
         11   -1    0    0    0    0 -0.00000000000E+00 -0.00000000000E+00 -0.45593999997E+02  0.45594000000E+02  0.51100000000E-03 0.  1.
    9900012    2    1    2    0    0 -0.17651833667E+02 -0.10523209006E+02 -0.24380231781E+02  0.59301939389E+02  0.49999991540E+02 0.  0.
         12    1    1    2    0    0  0.17651833667E+02  0.10523209006E+02  0.24380231781E+02  0.31886060611E+02  0.00000000000E+00 0. -1.
         11    1    3    3    0    0 -0.59004467826E+01 -0.50730486334E+01 -0.51224218573E+01  0.93161312043E+01  0.51100000000E-03 0. -1.
        -11    1    3    3    0    0  0.14412847554E+02 -0.38502393465E+01  0.34418408978E+01  0.15310153058E+02  0.51100000000E-03 0.  1.
         12    1    3    3    0    0 -0.26164234439E+02 -0.15999210261E+01 -0.22699650821E+02  0.34675655127E+02  0.00000000000E+00 0. -1.
</event>
<event>
 7    1  0.5634483E-012  0.5930195E+02  0.7816164E-02  0.1266605E+00
        -11   -1    0    0    0    0  0.00000000000E+00  0.00000000000E+00  0.45593999997E+02  0.45594000000E+02  0.51100000000E-03 0. -1.
         11   -1    0    0    0    0 -0.00000000000E+00 -0.00000000000E+00 -0.45593999997E+02  0.45594000000E+02  0.51100000000E-03 0.  1.
    9900012    2    1    2    0    0  0.24123560787E+02 -0.19188614224E+02  0.81591220425E+01  0.59301947039E+02  0.50000005493E+02 0.  0.
         12    1    1    2    0    0 -0.24123560787E+02  0.19188614224E+02 -0.81591220425E+01  0.31886052961E+02  0.00000000000E+00 0. -1.
         11    1    3    3    0    0  0.70540739968E+01 -0.38532439558E+01  0.85858220182E+01  0.11761113422E+02  0.51100000000E-03 0. -1.
        -11    1    3    3    0    0  0.28047804075E+01  0.47088906698E+01  0.16692193926E+02  0.17569000621E+02  0.51100000000E-03 0.  1.
        -12    1    3    3    0    0  0.14264706383E+02 -0.20044260938E+02 -0.17118893902E+02  0.29971832997E+02  0.00000000000E+00 0.  1.
</event>
<event>
 7    1  0.5634483E-012  0.5930194E+02  0.7816164E-02  0.1266605E+00
        -11   -1    0    0    0    0  0.00000000000E+00  0.00000000000E+00  0.45593999997E+02  0.45594000000E+02  0.51100000000E-03 0.  1.
         11   -1    0    0    0    0 -0.00000000000E+00 -0.00000000000E+00 -0.45593999997E+02  0.45594000000E+02  0.51100000000E-03 0. -1.
    9900012    2    1    2    0    0 -0.13475861967E+02  0.24923251703E+02  0.14627146746E+02  0.59301941085E+02  0.49999994633E+02 0.  0.
         12    1    1    2    0    0  0.13475861967E+02 -0.24923251703E+02 -0.14627146746E+02  0.31886058915E+02  0.00000000000E+00 0. -1.
         11    1    3    3    0    0  0.11072278504E+02  0.64499136131E+01  0.98998431197E+01  0.16192703015E+02  0.51100000000E-03 0. -1.
        -11    1    3    3    0    0 -0.10212427211E+02  0.23804201489E+02  0.86692275952E+01  0.27314633174E+02  0.51100000000E-03 0.  1.
         12    1    3    3    0    0 -0.14335713260E+02 -0.53308633983E+01 -0.39419239688E+01  0.15794604896E+02  0.00000000000E+00 0. -1.
</event>
<event>
 7    1  0.5634483E-012  0.5930196E+02  0.7816164E-02  0.1266605E+00
        -11   -1    0    0    0    0  0.00000000000E+00  0.00000000000E+00  0.45593999997E+02  0.45594000000E+02  0.51100000000E-03 0. -1.
         11   -1    0    0    0    0 -0.00000000000E+00 -0.00000000000E+00 -0.45593999997E+02  0.45594000000E+02  0.51100000000E-03 0.  1.
    9900012    2    1    2    0    0  0.51231293187E+01 -0.14386796066E+02  0.27990944951E+02  0.59301963020E+02  0.50000034638E+02 0.  0.
         12    1    1    2    0    0 -0.51231293187E+01  0.14386796066E+02 -0.27990944951E+02  0.31886036980E+02  0.00000000000E+00 0. -1.
         11    1    3    3    0    0 -0.38243089178E+01  0.76048934950E+01  0.13466459101E+02  0.15931266891E+02  0.51100000000E-03 0.  1.
        -11    1    3    3    0    0  0.10717607692E+02 -0.54016944715E+01  0.22021361956E+02  0.25079589320E+02  0.51100000000E-03 0. -1.
        -12    1    3    3    0    0 -0.17701694559E+01 -0.16589995089E+02 -0.74968761062E+01  0.18291106809E+02  0.00000000000E+00 0.  1.
</event>
<event>
 7    1  0.5634483E-012  0.5930194E+02  0.7816164E-02  0.1266605E+00
        -11   -1    0    0    0    0  0.00000000000E+00  0.00000000000E+00  0.45593999997E+02  0.45594000000E+02  0.51100000000E-03 0.  1.
         11   -1    0    0    0    0 -0.00000000000E+00 -0.00000000000E+00 -0.45593999997E+02  0.45594000000E+02  0.51100000000E-03 0. -1.
    9900012    2    1    2    0    0  0.11909106753E+02 -0.27481618287E+02  0.10938666322E+02  0.59301943671E+02  0.49999999349E+02 0.  0.
         12    1    1    2    0    0 -0.11909106753E+02  0.27481618287E+02 -0.10938666322E+02  0.31886056329E+02  0.00000000000E+00 0. -1.
         11    1    3    3    0    0  0.69579479588E+01 -0.23553100287E+02  0.34347379762E+00  0.24561749682E+02  0.51100000000E-03 0. -1.
        -11    1    3    3    0    0 -0.71556582948E+01 -0.80710755593E+01  0.17228971576E+02  0.20326907491E+02  0.51100000000E-03 0.  1.
         12    1    3    3    0    0  0.12106817089E+02  0.41425575592E+01 -0.66337790517E+01  0.14413286498E+02  0.00000000000E+00 0. -1.
</event>
<event>
 7    1  0.5634483E-012  0.5930199E+02  0.7816164E-02  0.1266605E+00
        -11   -1    0    0    0    0  0.00000000000E+00  0.00000000000E+00  0.45593999997E+02  0.45594000000E+02  0.51100000000E-03 0.  1.
         11   -1    0    0    0    0 -0.00000000000E+00 -0.00000000000E+00 -0.45593999997E+02  0.45594000000E+02  0.51100000000E-03 0. -1.
    9900012    2    1    2    0    0 -0.34747801419E+01  0.28464396945E+02  0.13943505382E+02  0.59301994718E+02  0.50000092448E+02 0.  0.
         12    1    1    2    0    0  0.34747801419E+01 -0.28464396945E+02 -0.13943505382E+02  0.31886005282E+02  0.00000000000E+00 0. -1.
         11    1    3    3    0    0  0.71564144634E+01  0.24881505149E+02  0.28019127025E+01  0.26041395537E+02  0.51100000000E-03 0. -1.
        -11    1    3    3    0    0 -0.19866811102E+02  0.34363078697E+01  0.19930694482E+01  0.20260077029E+02  0.51100000000E-03 0.  1.
         12    1    3    3    0    0  0.92356164969E+01  0.14658392638E+00  0.91485232311E+01  0.13000522152E+02  0.00000000000E+00 0. -1.
</event>
<event>
 7    1  0.5634483E-012  0.5930193E+02  0.7816164E-02  0.1266605E+00
        -11   -1    0    0    0    0  0.00000000000E+00  0.00000000000E+00  0.45593999997E+02  0.45594000000E+02  0.51100000000E-03 0.  1.
         11   -1    0    0    0    0 -0.00000000000E+00 -0.00000000000E+00 -0.45593999997E+02  0.45594000000E+02  0.51100000000E-03 0. -1.
    9900012    2    1    2    0    0  0.21168406977E+02 -0.18923038951E+02  0.14509949995E+02  0.59301929280E+02  0.49999973104E+02 0.  0.
         12    1    1    2    0    0 -0.21168406977E+02  0.18923038951E+02 -0.14509949995E+02  0.31886070720E+02  0.00000000000E+00 0. -1.
         11    1    3    3    0    0 -0.25328577428E+00 -0.14495044296E+02 -0.25907908987E+01  0.14726936564E+02  0.51100000000E-03 0.  1.
        -11    1    3    3    0    0  0.17710385164E+02 -0.18092790510E+02  0.46957382438E+01  0.25749888718E+02  0.51100000000E-03 0. -1.
        -12    1    3    3    0    0  0.37113075877E+01  0.13664795855E+02  0.12405002650E+02  0.18825103998E+02  0.00000000000E+00 0.  1.
</event>
<event>
 7    1  0.5634483E-012  0.5930188E+02  0.7816164E-02  0.1266605E+00
        -11   -1    0    0    0    0  0.00000000000E+00  0.00000000000E+00  0.45593999997E+02  0.45594000000E+02  0.51100000000E-03 0.  1.
         11   -1    0    0    0    0 -0.00000000000E+00 -0.00000000000E+00 -0.45593999997E+02  0.45594000000E+02  0.51100000000E-03 0. -1.
    9900012    2    1    2    0    0  0.21221594106E+02  0.14287455244E+02  0.19032527076E+02  0.59301882007E+02  0.49999886889E+02 0.  0.
         12    1    1    2    0    0 -0.21221594106E+02 -0.14287455244E+02 -0.19032527076E+02  0.31886117993E+02  0.00000000000E+00 0. -1.
         11    1    3    3    0    0  0.93281790477E+01 -0.20341315648E+01 -0.21321870889E+01  0.97825782702E+01  0.51100000000E-03 0. -1.
        -11    1    3    3    0    0  0.86465463466E+01 -0.48028108403E+01  0.25816580952E+02  0.27646439337E+02  0.51100000000E-03 0.  1.
         12    1    3    3    0    0  0.32468687122E+01  0.21124397649E+02 -0.46518667865E+01  0.21872864400E+02  0.00000000000E+00 0. -1.
</event>
<event>
 7    1  0.5634483E-012  0.5930195E+02  0.7816164E-02  0.1266605E+00
        -11   -1    0    0    0    0  0.00000000000E+00  0.00000000000E+00  0.45593999997E+02  0.45594000000E+02  0.51100000000E-03 0.  1.
         11   -1    0    0    0    0 -0.00000000000E+00 -0.00000000000E+00 -0.45593999997E+02  0.45594000000E+02  0.51100000000E-03 0. -1.
    9900012    2    1    2    0    0  0.19900162115E+02 -0.23193841468E+02  0.90966575648E+01  0.59301954257E+02  0.50000018656E+02 0.  0.
         12    1    1    2    0    0 -0.19900162115E+02  0.23193841468E+02 -0.90966575648E+01  0.31886045743E+02  0.00000000000E+00 0. -1.
         11    1    3    3    0    0  0.19613415181E+02 -0.78857440251E+01 -0.14404623821E+02  0.25580543419E+02  0.51100000000E-03 0. -1.
        -11    1    3    3    0    0  0.70282580529E+01  0.27133985978E+00  0.51133597205E+01  0.86957739431E+01  0.51100000000E-03 0.  1.
        -12    1    3    3    0    0 -0.67415111192E+01 -0.15579437303E+02  0.18387921666E+02  0.25025636896E+02  0.00000000000E+00 0.  1.
</event>
<event>
 7    1  0.5634483E-012  0.5930183E+02  0.7816164E-02  0.1266605E+00
        -11   -1    0    0    0    0  0.00000000000E+00  0.00000000000E+00  0.45593999997E+02  0.45594000000E+02  0.51100000000E-03 0.  1.
         11   -1    0    0    0    0 -0.00000000000E+00 -0.00000000000E+00 -0.45593999997E+02  0.45594000000E+02  0.51100000000E-03 0. -1.
    9900012    2    1    2    0    0 -0.30880830514E+02  0.31603048087E+01 -0.72879626742E+01  0.59301833413E+02  0.49999798264E+02 0.  0.
         12    1    1    2    0    0  0.30880830514E+02 -0.31603048087E+01  0.72879626742E+01  0.31886166587E+02  0.00000000000E+00 0. -1.
         11    1    3    3    0    0 -0.19475760243E+02 -0.27055659397E-01  0.95897833074E+01  0.21708751996E+02  0.51100000000E-03 0.  1.
        -11    1    3    3    0    0 -0.32885935476E+01  0.67018503068E+00  0.93969748644E+01  0.99783331454E+01  0.51100000000E-03 0. -1.
         12    1    3    3    0    0 -0.81164767226E+01  0.25171754374E+01 -0.26274720846E+02  0.27614748272E+02  0.00000000000E+00 0. -1.
</event>
<event>
 7    1  0.5634483E-012  0.5930195E+02  0.7816164E-02  0.1266605E+00
        -11   -1    0    0    0    0  0.00000000000E+00  0.00000000000E+00  0.45593999997E+02  0.45594000000E+02  0.51100000000E-03 0. -1.
         11   -1    0    0    0    0 -0.00000000000E+00 -0.00000000000E+00 -0.45593999997E+02  0.45594000000E+02  0.51100000000E-03 0.  1.
    9900012    2    1    2    0    0  0.22004442380E+02 -0.17638798706E+02 -0.14879424189E+02  0.59301953390E+02  0.50000017075E+02 0.  0.
         12    1    1    2    0    0 -0.22004442380E+02  0.17638798706E+02  0.14879424189E+02  0.31886046610E+02  0.00000000000E+00 0. -1.
         11    1    3    3    0    0  0.14798183807E+01 -0.61366497588E+01 -0.11174229435E+02  0.12834007029E+02  0.51100000000E-03 0. -1.
        -11    1    3    3    0    0  0.10643046272E+02 -0.25755017095E+02 -0.71854356998E+01  0.28778912870E+02  0.51100000000E-03 0.  1.
         12    1    3    3    0    0  0.98815777273E+01  0.14252868148E+02  0.34802409457E+01  0.17689033492E+02  0.00000000000E+00 0. -1.
</event>
<event>
 7    1  0.5634483E-012  0.5930197E+02  0.7816164E-02  0.1266605E+00
        -11   -1    0    0    0    0  0.00000000000E+00  0.00000000000E+00  0.45593999997E+02  0.45594000000E+02  0.51100000000E-03 0.  1.
         11   -1    0    0    0    0 -0.00000000000E+00 -0.00000000000E+00 -0.45593999997E+02  0.45594000000E+02  0.51100000000E-03 0. -1.
    9900012    2    1    2    0    0  0.52914251418E+01 -0.29491788854E+02  0.10906595921E+02  0.59301974465E+02  0.50000055510E+02 0.  0.
         12    1    1    2    0    0 -0.52914251418E+01  0.29491788854E+02 -0.10906595921E+02  0.31886025535E+02  0.00000000000E+00 0. -1.
         11    1    3    3    0    0 -0.78156295191E+00 -0.85505672525E+01 -0.14211548215E+02  0.16603949648E+02  0.51100000000E-03 0. -1.
        -11    1    3    3    0    0  0.16373101275E+02 -0.15821221752E+02  0.14165620242E+02  0.26815187864E+02  0.51100000000E-03 0.  1.
         12    1    3    3    0    0 -0.10300113182E+02 -0.51199998498E+01  0.10952523894E+02  0.15882836953E+02  0.00000000000E+00 0. -1.
</event>
<event>
 7    1  0.5634483E-012  0.5930195E+02  0.7816164E-02  0.1266605E+00
        -11   -1    0    0    0    0  0.00000000000E+00  0.00000000000E+00  0.45593999997E+02  0.45594000000E+02  0.51100000000E-03 0.  1.
         11   -1    0    0    0    0 -0.00000000000E+00 -0.00000000000E+00 -0.45593999997E+02  0.45594000000E+02  0.51100000000E-03 0. -1.
    9900012    2    1    2    0    0 -0.27718911535E+02  0.49169237250E+01  0.14973510279E+02  0.59301949669E+02  0.50000010289E+02 0.  0.
         12    1    1    2    0    0  0.27718911535E+02 -0.49169237250E+01 -0.14973510279E+02  0.31886050331E+02  0.00000000000E+00 0. -1.
         11    1    3    3    0    0 -0.33598520968E+02 -0.16109142541E+01  0.12461760295E+02  0.35871313412E+02  0.51100000000E-03 0. -1.
        -11    1    3    3    0    0 -0.15885787921E+01 -0.34198058365E+01 -0.68791260991E+01  0.78448091555E+01  0.51100000000E-03 0.  1.
        -12    1    3    3    0    0  0.74681882247E+01  0.99476438156E+01  0.93908760834E+01  0.15585827102E+02  0.00000000000E+00 0.  1.
</event>
<event>
 7    1  0.5634483E-012  0.5930195E+02  0.7816164E-02  0.1266605E+00
        -11   -1    0    0    0    0  0.00000000000E+00  0.00000000000E+00  0.45593999997E+02  0.45594000000E+02  0.51100000000E-03 0.  1.
         11   -1    0    0    0    0 -0.00000000000E+00 -0.00000000000E+00 -0.45593999997E+02  0.45594000000E+02  0.51100000000E-03 0. -1.
    9900012    2    1    2    0    0  0.36026940446E+01  0.30768687094E+02  0.75517483809E+01  0.59301946411E+02  0.50000004346E+02 0.  0.
         12    1    1    2    0    0 -0.36026940446E+01 -0.30768687094E+02 -0.75517483809E+01  0.31886053589E+02  0.00000000000E+00 0. -1.
         11    1    3    3    0    0  0.60668097284E+01  0.16657832985E+02  0.10719073896E+02  0.20716856071E+02  0.51100000000E-03 0.  1.
        -11    1    3    3    0    0  0.40261954688E+01  0.22113518230E+02 -0.11578670011E+02  0.25284056992E+02  0.51100000000E-03 0. -1.
         12    1    3    3    0    0 -0.64903111526E+01 -0.80026641211E+01  0.84113444956E+01  0.13301033348E+02  0.00000000000E+00 0. -1.
</event>
<event>
 7    1  0.5634483E-012  0.5930187E+02  0.7816164E-02  0.1266605E+00
        -11   -1    0    0    0    0  0.00000000000E+00  0.00000000000E+00  0.45593999997E+02  0.45594000000E+02  0.51100000000E-03 0.  1.
         11   -1    0    0    0    0 -0.00000000000E+00 -0.00000000000E+00 -0.45593999997E+02  0.45594000000E+02  0.51100000000E-03 0. -1.
    9900012    2    1    2    0    0  0.12293839810E+02  0.21318009263E+02 -0.20276324648E+02  0.59301868886E+02  0.49999862959E+02 0.  0.
         12    1    1    2    0    0 -0.12293839810E+02 -0.21318009263E+02  0.20276324648E+02  0.31886131114E+02  0.00000000000E+00 0. -1.
         11    1    3    3    0    0  0.32686255487E+01 -0.45070952081E+01  0.66173818925E+01  0.86479803171E+01  0.51100000000E-03 0. -1.
        -11    1    3    3    0    0  0.10174388525E+01  0.15483424130E+02  0.49022777557E+01  0.16272797303E+02  0.51100000000E-03 0.  1.
        -12    1    3    3    0    0  0.80077754086E+01  0.10341680341E+02 -0.31795984296E+02  0.34381091266E+02  0.00000000000E+00 0.  1.
</event>
<event>
 7    1  0.5634483E-012  0.5930193E+02  0.7816164E-02  0.1266605E+00
        -11   -1    0    0    0    0  0.00000000000E+00  0.00000000000E+00  0.45593999997E+02  0.45594000000E+02  0.51100000000E-03 0. -1.
         11   -1    0    0    0    0 -0.00000000000E+00 -0.00000000000E+00 -0.45593999997E+02  0.45594000000E+02  0.51100000000E-03 0.  1.
    9900012    2    1    2    0    0 -0.28053944974E+02 -0.32901081971E+01 -0.14794357501E+02  0.59301926951E+02  0.49999968857E+02 0.  0.
         12    1    1    2    0    0  0.28053944974E+02  0.32901081971E+01  0.14794357501E+02  0.31886073049E+02  0.00000000000E+00 0. -1.
         11    1    3    3    0    0  0.60699931313E+01 -0.40633444540E+01  0.63062145002E+01  0.96500739039E+01  0.51100000000E-03 0. -1.
        -11    1    3    3    0    0 -0.16816264898E+02  0.12544163102E+02 -0.15934592333E+01  0.21040007263E+02  0.51100000000E-03 0.  1.
         12    1    3    3    0    0 -0.17307673208E+02 -0.11770926845E+02 -0.19507112768E+02  0.28611845785E+02  0.00000000000E+00 0. -1.
</event>
<event>
 7    1  0.5634483E-012  0.5930194E+02  0.7816164E-02  0.1266605E+00
        -11   -1    0    0    0    0  0.00000000000E+00  0.00000000000E+00  0.45593999997E+02  0.45594000000E+02  0.51100000000E-03 0.  1.
         11   -1    0    0    0    0 -0.00000000000E+00 -0.00000000000E+00 -0.45593999997E+02  0.45594000000E+02  0.51100000000E-03 0. -1.
    9900012    2    1    2    0    0  0.42207182194E+01 -0.28985808158E+02  0.12598778917E+02  0.59301940867E+02  0.49999994236E+02 0.  0.
         12    1    1    2    0    0 -0.42207182194E+01  0.28985808158E+02 -0.12598778917E+02  0.31886059133E+02  0.00000000000E+00 0. -1.
         11    1    3    3    0    0  0.75989494663E+01 -0.10008081853E+02  0.18681228536E+02  0.22514307345E+02  0.51100000000E-03 0. -1.
        -11    1    3    3    0    0  0.11619912342E+02  0.96196308641E-01  0.54944401337E+00  0.11633292979E+02  0.51100000000E-03 0.  1.
         12    1    3    3    0    0 -0.14998143588E+02 -0.19073922613E+02 -0.66318936329E+01  0.25154340542E+02  0.00000000000E+00 0. -1.
</event>
<event>
 7    1  0.5634483E-012  0.5930194E+02  0.7816164E-02  0.1266605E+00
        -11   -1    0    0    0    0  0.00000000000E+00  0.00000000000E+00  0.45593999997E+02  0.45594000000E+02  0.51100000000E-03 0. -1.
         11   -1    0    0    0    0 -0.00000000000E+00 -0.00000000000E+00 -0.45593999997E+02  0.45594000000E+02  0.51100000000E-03 0.  1.
    9900012    2    1    2    0    0 -0.22060552120E+02  0.20926687115E+02  0.95982459407E+01  0.59301944763E+02  0.50000001341E+02 0.  0.
         12    1    1    2    0    0  0.22060552120E+02 -0.20926687115E+02 -0.95982459407E+01  0.31886055237E+02  0.00000000000E+00 0. -1.
         11    1    3    3    0    0 -0.34567260565E+02  0.23333217360E+02  0.11831271221E+02  0.43351049749E+02  0.51100000000E-03 0. -1.
        -11    1    3    3    0    0  0.49969916854E+01  0.35625760108E+01 -0.15723311588E+01  0.63351479281E+01  0.51100000000E-03 0.  1.
        -12    1    3    3    0    0  0.75097167596E+01 -0.59691062563E+01 -0.66069412196E+00  0.96157470865E+01  0.00000000000E+00 0.  1.
</event>
<event>
 7    1  0.5634483E-012  0.5930221E+02  0.7816164E-02  0.1266604E+00
        -11   -1    0    0    0    0  0.00000000000E+00  0.00000000000E+00  0.45593999997E+02  0.45594000000E+02  0.51100000000E-03 0. -1.
         11   -1    0    0    0    0 -0.00000000000E+00 -0.00000000000E+00 -0.45593999997E+02  0.45594000000E+02  0.51100000000E-03 0.  1.
    9900012    2    1    2    0    0 -0.26517455370E+02  0.13026880999E+02 -0.11992862304E+02  0.59302206704E+02  0.50000479056E+02 0.  0.
         12    1    1    2    0    0  0.26517455370E+02 -0.13026880999E+02  0.11992862304E+02  0.31885793296E+02  0.00000000000E+00 0. -1.
         11    1    3    3    0    0 -0.18595298440E+01  0.12385537143E+02  0.25178188430E+01  0.12774928319E+02  0.51100000000E-03 0. -1.
        -11    1    3    3    0    0 -0.94169716886E+01  0.50421022736E+01  0.11729537466E+02  0.15864558001E+02  0.51100000000E-03 0.  1.
        -12    1    3    3    0    0 -0.15240953838E+02 -0.44007584177E+01 -0.26240218613E+02  0.30662720385E+02  0.00000000000E+00 0.  1.
</event>
<event>
 7    1  0.5634483E-012  0.5930194E+02  0.7816164E-02  0.1266605E+00
        -11   -1    0    0    0    0  0.00000000000E+00  0.00000000000E+00  0.45593999997E+02  0.45594000000E+02  0.51100000000E-03 0. -1.
         11   -1    0    0    0    0 -0.00000000000E+00 -0.00000000000E+00 -0.45593999997E+02  0.45594000000E+02  0.51100000000E-03 0.  1.
    9900012    2    1    2    0    0  0.15879282607E+02  0.23417282282E+01 -0.27551510643E+02  0.59301936494E+02  0.49999986259E+02 0.  0.
         12    1    1    2    0    0 -0.15879282607E+02 -0.23417282282E+01  0.27551510643E+02  0.31886063506E+02  0.00000000000E+00 0. -1.
         11    1    3    3    0    0  0.95989595678E+01 -0.15122461956E+02 -0.58153750988E+01  0.18832086135E+02  0.51100000000E-03 0. -1.
        -11    1    3    3    0    0  0.55570007705E+01 -0.31405821025E+01  0.39701037215E+01  0.75169965629E+01  0.51100000000E-03 0.  1.
        -12    1    3    3    0    0  0.72332226891E+00  0.20604772287E+02 -0.25706239266E+02  0.32952853796E+02  0.00000000000E+00 0.  1.
</event>
<event>
 7    1  0.5634483E-012  0.5930194E+02  0.7816164E-02  0.1266605E+00
        -11   -1    0    0    0    0  0.00000000000E+00  0.00000000000E+00  0.45593999997E+02  0.45594000000E+02  0.51100000000E-03 0.  1.
         11   -1    0    0    0    0 -0.00000000000E+00 -0.00000000000E+00 -0.45593999997E+02  0.45594000000E+02  0.51100000000E-03 0. -1.
    9900012    2    1    2    0    0 -0.23026125804E+01  0.25528224188E+02  0.18966507655E+02  0.59301942427E+02  0.49999997081E+02 0.  0.
         12    1    1    2    0    0  0.23026125804E+01 -0.25528224188E+02 -0.18966507655E+02  0.31886057573E+02  0.00000000000E+00 0. -1.
         11    1    3    3    0    0 -0.20132509485E+01  0.94041556051E+01  0.27584922700E+02  0.29213340834E+02  0.51100000000E-03 0. -1.
        -11    1    3    3    0    0  0.10667325928E+02  0.98003591931E+01  0.49968833008E+00  0.14494432430E+02  0.51100000000E-03 0.  1.
         12    1    3    3    0    0 -0.10956687560E+02  0.63237093902E+01 -0.91181033754E+01  0.15594169164E+02  0.00000000000E+00 0. -1.
</event>
<event>
 7    1  0.5634483E-012  0.5930195E+02  0.7816164E-02  0.1266605E+00
        -11   -1    0    0    0    0  0.00000000000E+00  0.00000000000E+00  0.45593999997E+02  0.45594000000E+02  0.51100000000E-03 0.  1.
         11   -1    0    0    0    0 -0.00000000000E+00 -0.00000000000E+00 -0.45593999997E+02  0.45594000000E+02  0.51100000000E-03 0. -1.
    9900012    2    1    2    0    0  0.67238415062E+01  0.20949834304E+02  0.23078440904E+02  0.59301952322E+02  0.50000015127E+02 0.  0.
         12    1    1    2    0    0 -0.67238415062E+01 -0.20949834304E+02 -0.23078440904E+02  0.31886047678E+02  0.00000000000E+00 0. -1.
         11    1    3    3    0    0  0.95833781637E+01  0.18277302406E+02 -0.48626593729E+01  0.21202508736E+02  0.51100000000E-03 0. -1.
        -11    1    3    3    0    0  0.90884459785E+01  0.31261768471E+01  0.23422153262E+02  0.25317387221E+02  0.51100000000E-03 0.  1.
        -12    1    3    3    0    0 -0.11947982636E+02 -0.45364494884E+00  0.45189470145E+01  0.12782056365E+02  0.00000000000E+00 0.  1.
</event>
<event>
 7    1  0.5634483E-012  0.5930191E+02  0.7816164E-02  0.1266605E+00
        -11   -1    0    0    0    0  0.00000000000E+00  0.00000000000E+00  0.45593999997E+02  0.45594000000E+02  0.51100000000E-03 0.  1.
         11   -1    0    0    0    0 -0.00000000000E+00 -0.00000000000E+00 -0.45593999997E+02  0.45594000000E+02  0.51100000000E-03 0. -1.
    9900012    2    1    2    0    0  0.22021190000E+02 -0.15526929873E+02  0.17050049980E+02  0.59301912679E+02  0.49999942828E+02 0.  0.
         12    1    1    2    0    0 -0.22021190000E+02  0.15526929873E+02 -0.17050049980E+02  0.31886087321E+02  0.00000000000E+00 0. -1.
         11    1    3    3    0    0  0.25836793829E+01 -0.36898446579E+01  0.65405939151E+00  0.45517190930E+01  0.51100000000E-03 0. -1.
        -11    1    3    3    0    0  0.20012210561E+02 -0.32817796308E+01  0.31452369619E+02  0.37423391135E+02  0.51100000000E-03 0.  1.
         12    1    3    3    0    0 -0.57469994478E+00 -0.85553055848E+01 -0.15056379030E+02  0.17326802451E+02  0.00000000000E+00 0. -1.
</event>
<event>
 7    1  0.5634483E-012  0.5930187E+02  0.7816164E-02  0.1266605E+00
        -11   -1    0    0    0    0  0.00000000000E+00  0.00000000000E+00  0.45593999997E+02  0.45594000000E+02  0.51100000000E-03 0.  1.
         11   -1    0    0    0    0 -0.00000000000E+00 -0.00000000000E+00 -0.45593999997E+02  0.45594000000E+02  0.51100000000E-03 0. -1.
    9900012    2    1    2    0    0  0.20352418221E+02 -0.46138794505E+01  0.24108428775E+02  0.59301872154E+02  0.49999868919E+02 0.  0.
         12    1    1    2    0    0 -0.20352418221E+02  0.46138794505E+01 -0.24108428775E+02  0.31886127846E+02  0.00000000000E+00 0. -1.
         11    1    3    3    0    0  0.84826639063E+01 -0.83854649442E+01  0.16942259755E+02  0.20719840133E+02  0.51100000000E-03 0. -1.
        -11    1    3    3    0    0  0.22465280516E+02  0.10000961514E+02  0.89362012872E+01  0.26164169269E+02  0.51100000000E-03 0.  1.
         12    1    3    3    0    0 -0.10595526201E+02 -0.62293760201E+01 -0.17700322664E+01  0.12417862751E+02  0.00000000000E+00 0. -1.
</event>
<event>
 7    1  0.5634483E-012  0.5930194E+02  0.7816164E-02  0.1266605E+00
        -11   -1    0    0    0    0  0.00000000000E+00  0.00000000000E+00  0.45593999997E+02  0.45594000000E+02  0.51100000000E-03 0. -1.
         11   -1    0    0    0    0 -0.00000000000E+00 -0.00000000000E+00 -0.45593999997E+02  0.45594000000E+02  0.51100000000E-03 0.  1.
    9900012    2    1    2    0    0 -0.20745264198E+02  0.19875365376E+02  0.13832014643E+02  0.59301940906E+02  0.49999994306E+02 0.  0.
         12    1    1    2    0    0  0.20745264198E+02 -0.19875365376E+02 -0.13832014643E+02  0.31886059094E+02  0.00000000000E+00 0. -1.
         11    1    3    3    0    0 -0.44677025463E+01 -0.36307673177E+00 -0.19608060541E+01  0.48925403829E+01  0.51100000000E-03 0. -1.
        -11    1    3    3    0    0  0.55216600471E+01 -0.98188886737E+00 -0.11973012431E+02  0.13221416806E+02  0.51100000000E-03 0.  1.
         12    1    3    3    0    0 -0.21799221699E+02  0.21220330976E+02  0.27765833128E+02  0.41187983717E+02  0.00000000000E+00 0. -1.
</event>
<event>
 7    1  0.5634483E-012  0.5930196E+02  0.7816164E-02  0.1266605E+00
        -11   -1    0    0    0    0  0.00000000000E+00  0.00000000000E+00  0.45593999997E+02  0.45594000000E+02  0.51100000000E-03 0.  1.
         11   -1    0    0    0    0 -0.00000000000E+00 -0.00000000000E+00 -0.45593999997E+02  0.45594000000E+02  0.51100000000E-03 0. -1.
    9900012    2    1    2    0    0  0.49067492603E+01  0.16813223252E+02  0.26645059507E+02  0.59301955082E+02  0.50000020159E+02 0.  0.
         12    1    1    2    0    0 -0.49067492603E+01 -0.16813223252E+02 -0.26645059507E+02  0.31886044918E+02  0.00000000000E+00 0. -1.
         11    1    3    3    0    0  0.99732351545E+01  0.11474637048E+01 -0.54080051644E+01  0.11403008924E+02  0.51100000000E-03 0. -1.
        -11    1    3    3    0    0  0.39413455008E+01 -0.55998712830E+01  0.21393731379E+02  0.22462958516E+02  0.51100000000E-03 0.  1.
        -12    1    3    3    0    0 -0.90078313951E+01  0.21265630830E+02  0.10659333293E+02  0.25435987641E+02  0.00000000000E+00 0.  1.
</event>
<event>
 7    1  0.5634483E-012  0.5930189E+02  0.7816164E-02  0.1266605E+00
        -11   -1    0    0    0    0  0.00000000000E+00  0.00000000000E+00  0.45593999997E+02  0.45594000000E+02  0.51100000000E-03 0. -1.
         11   -1    0    0    0    0 -0.00000000000E+00 -0.00000000000E+00 -0.45593999997E+02  0.45594000000E+02  0.51100000000E-03 0.  1.
    9900012    2    1    2    0    0  0.18080965804E+02  0.16656253460E+02 -0.20306936314E+02  0.59301893838E+02  0.49999908465E+02 0.  0.
         12    1    1    2    0    0 -0.18080965804E+02 -0.16656253460E+02  0.20306936314E+02  0.31886106162E+02  0.00000000000E+00 0. -1.
         11    1    3    3    0    0  0.98255148070E+01  0.22494240469E+02 -0.12487384589E+01  0.24578261605E+02  0.51100000000E-03 0. -1.
        -11    1    3    3    0    0  0.16149213967E+01  0.99521637873E+01 -0.14992479547E+01  0.10193197725E+02  0.51100000000E-03 0.  1.
         12    1    3    3    0    0  0.66405296006E+01 -0.15790150796E+02 -0.17558949900E+02  0.24530434508E+02  0.00000000000E+00 0. -1.
</event>
<event>
 7    1  0.5634483E-012  0.5930197E+02  0.7816164E-02  0.1266605E+00
        -11   -1    0    0    0    0  0.00000000000E+00  0.00000000000E+00  0.45593999997E+02  0.45594000000E+02  0.51100000000E-03 0. -1.
         11   -1    0    0    0    0 -0.00000000000E+00 -0.00000000000E+00 -0.45593999997E+02  0.45594000000E+02  0.51100000000E-03 0.  1.
    9900012    2    1    2    0    0  0.26496279070E+02 -0.53928348917E+01 -0.16899216631E+02  0.59301968647E+02  0.50000044899E+02 0.  0.
         12    1    1    2    0    0 -0.26496279070E+02  0.53928348917E+01  0.16899216631E+02  0.31886031353E+02  0.00000000000E+00 0. -1.
         11    1    3    3    0    0 -0.48429064427E-01 -0.11832539660E+02  0.38935484030E+01  0.12456767623E+02  0.51100000000E-03 0. -1.
        -11    1    3    3    0    0  0.34902612825E+01 -0.17540897659E+01 -0.22003963524E+02  0.22348001382E+02  0.51100000000E-03 0.  1.
        -12    1    3    3    0    0  0.23054446852E+02  0.81937945341E+01  0.12111984902E+01  0.24497199642E+02  0.00000000000E+00 0.  1.
</event>
<event>
 7    1  0.5634483E-012  0.5930194E+02  0.7816164E-02  0.1266605E+00
        -11   -1    0    0    0    0  0.00000000000E+00  0.00000000000E+00  0.45593999997E+02  0.45594000000E+02  0.51100000000E-03 0. -1.
         11   -1    0    0    0    0 -0.00000000000E+00 -0.00000000000E+00 -0.45593999997E+02  0.45594000000E+02  0.51100000000E-03 0.  1.
    9900012    2    1    2    0    0  0.10648430370E+02  0.29305085158E+02  0.66741102367E+01  0.59301939834E+02  0.49999992352E+02 0.  0.
         12    1    1    2    0    0 -0.10648430370E+02 -0.29305085158E+02 -0.66741102367E+01  0.31886060166E+02  0.00000000000E+00 0. -1.
         11    1    3    3    0    0 -0.45822283639E+01 -0.17296018214E+01 -0.18675889645E+01  0.52417771834E+01  0.51100000000E-03 0. -1.
        -11    1    3    3    0    0 -0.92854825613E+00  0.10572103155E+02 -0.15372727621E+02  0.18680265569E+02  0.51100000000E-03 0.  1.
         12    1    3    3    0    0  0.16159206990E+02  0.20462583824E+02  0.23914426822E+02  0.35379897082E+02  0.00000000000E+00 0. -1.
</event>
<event>
 7    1  0.5634483E-012  0.5930193E+02  0.7816164E-02  0.1266605E+00
        -11   -1    0    0    0    0  0.00000000000E+00  0.00000000000E+00  0.45593999997E+02  0.45594000000E+02  0.51100000000E-03 0.  1.
         11   -1    0    0    0    0 -0.00000000000E+00 -0.00000000000E+00 -0.45593999997E+02  0.45594000000E+02  0.51100000000E-03 0. -1.
    9900012    2    1    2    0    0 -0.10873074900E+02  0.13413494355E+02  0.26806261300E+02  0.59301933553E+02  0.49999980897E+02 0.  0.
         12    1    1    2    0    0  0.10873074900E+02 -0.13413494355E+02 -0.26806261300E+02  0.31886066447E+02  0.00000000000E+00 0. -1.
         11    1    3    3    0    0  0.37596745336E+01  0.12183636284E+02 -0.59919830704E+01  0.14088293264E+02  0.51100000000E-03 0. -1.
        -11    1    3    3    0    0  0.41337606195E+01  0.93132053256E+01  0.72812643970E+01  0.12523600991E+02  0.51100000000E-03 0.  1.
         12    1    3    3    0    0 -0.18766510053E+02 -0.80833472549E+01  0.25516979973E+02  0.32690039299E+02  0.00000000000E+00 0. -1.
</event>
<event>
 7    1  0.5634483E-012  0.5930199E+02  0.7816164E-02  0.1266605E+00
        -11   -1    0    0    0    0  0.00000000000E+00  0.00000000000E+00  0.45593999997E+02  0.45594000000E+02  0.51100000000E-03 0. -1.
         11   -1    0    0    0    0 -0.00000000000E+00 -0.00000000000E+00 -0.45593999997E+02  0.45594000000E+02  0.51100000000E-03 0.  1.
    9900012    2    1    2    0    0  0.84448075712E+01 -0.13062713949E+02 -0.27834655868E+02  0.59301994638E+02  0.50000092302E+02 0.  0.
         12    1    1    2    0    0 -0.84448075712E+01  0.13062713949E+02  0.27834655868E+02  0.31886005362E+02  0.00000000000E+00 0. -1.
         11    1    3    3    0    0 -0.15753985085E+01  0.54130587936E+01 -0.12416381465E+02  0.13636334365E+02  0.51100000000E-03 0. -1.
        -11    1    3    3    0    0  0.15851242222E+02 -0.14063342203E+02 -0.25535294291E+02  0.33182687183E+02  0.51100000000E-03 0.  1.
         12    1    3    3    0    0 -0.58310361423E+01 -0.44124305396E+01  0.10117019888E+02  0.12482973090E+02  0.00000000000E+00 0. -1.
</event>
<event>
 7    1  0.5634483E-012  0.5930196E+02  0.7816164E-02  0.1266605E+00
        -11   -1    0    0    0    0  0.00000000000E+00  0.00000000000E+00  0.45593999997E+02  0.45594000000E+02  0.51100000000E-03 0. -1.
         11   -1    0    0    0    0 -0.00000000000E+00 -0.00000000000E+00 -0.45593999997E+02  0.45594000000E+02  0.51100000000E-03 0.  1.
    9900012    2    1    2    0    0  0.26490881514E+02 -0.10529292850E+02 -0.14285892277E+02  0.59301960273E+02  0.50000029628E+02 0.  0.
         12    1    1    2    0    0 -0.26490881514E+02  0.10529292850E+02  0.14285892277E+02  0.31886039727E+02  0.00000000000E+00 0. -1.
         11    1    3    3    0    0  0.18141279126E+02 -0.60051713446E+01 -0.37385190432E+01  0.19471636194E+02  0.51100000000E-03 0. -1.
        -11    1    3    3    0    0  0.19005283837E+02 -0.39427673199E+01 -0.18271310712E+02  0.26656838208E+02  0.51100000000E-03 0.  1.
         12    1    3    3    0    0 -0.10655681449E+02 -0.58135418575E+00  0.77239374780E+01  0.13173485871E+02  0.00000000000E+00 0. -1.
</event>
<event>
 7    1  0.5634483E-012  0.5930194E+02  0.7816164E-02  0.1266605E+00
        -11   -1    0    0    0    0  0.00000000000E+00  0.00000000000E+00  0.45593999997E+02  0.45594000000E+02  0.51100000000E-03 0.  1.
         11   -1    0    0    0    0 -0.00000000000E+00 -0.00000000000E+00 -0.45593999997E+02  0.45594000000E+02  0.51100000000E-03 0. -1.
    9900012    2    1    2    0    0  0.24983446998E+02 -0.60797220462E+01  0.18856958420E+02  0.59301944664E+02  0.50000001160E+02 0.  0.
         12    1    1    2    0    0 -0.24983446998E+02  0.60797220462E+01 -0.18856958420E+02  0.31886055336E+02  0.00000000000E+00 0. -1.
         11    1    3    3    0    0 -0.11158081750E+02 -0.26575952242E+01  0.11042902574E+02  0.15922038131E+02  0.51100000000E-03 0. -1.
        -11    1    3    3    0    0  0.92934653699E+01 -0.25609634705E+00 -0.78218702658E+01  0.12149721751E+02  0.51100000000E-03 0.  1.
        -12    1    3    3    0    0  0.26848063378E+02 -0.31660304750E+01  0.15635926112E+02  0.31230184781E+02  0.00000000000E+00 0.  1.
</event>
<event>
 7    1  0.5634483E-012  0.5930198E+02  0.7816164E-02  0.1266605E+00
        -11   -1    0    0    0    0  0.00000000000E+00  0.00000000000E+00  0.45593999997E+02  0.45594000000E+02  0.51100000000E-03 0.  1.
         11   -1    0    0    0    0 -0.00000000000E+00 -0.00000000000E+00 -0.45593999997E+02  0.45594000000E+02  0.51100000000E-03 0. -1.
    9900012    2    1    2    0    0 -0.23964734772E+02 -0.20922626894E+02 -0.21572471139E+01  0.59301975727E+02  0.50000057812E+02 0.  0.
         12    1    1    2    0    0  0.23964734772E+02  0.20922626894E+02  0.21572471139E+01  0.31886024273E+02  0.00000000000E+00 0. -1.
         11    1    3    3    0    0 -0.27745514414E+02 -0.19465295352E+02 -0.13111960910E+02  0.36340539517E+02  0.51100000000E-03 0. -1.
        -11    1    3    3    0    0 -0.78165016667E+01  0.17081752813E+01  0.57962371267E+01  0.98798748062E+01  0.51100000000E-03 0.  1.
         12    1    3    3    0    0  0.11597281309E+02 -0.31655068233E+01  0.51584766695E+01  0.13081561404E+02  0.00000000000E+00 0. -1.
</event>
<event>
 7    1  0.5634483E-012  0.5930195E+02  0.7816164E-02  0.1266605E+00
        -11   -1    0    0    0    0  0.00000000000E+00  0.00000000000E+00  0.45593999997E+02  0.45594000000E+02  0.51100000000E-03 0. -1.
         11   -1    0    0    0    0 -0.00000000000E+00 -0.00000000000E+00 -0.45593999997E+02  0.45594000000E+02  0.51100000000E-03 0.  1.
    9900012    2    1    2    0    0  0.49438791388E+01 -0.20797512315E+02 -0.23658864185E+02  0.59301947972E+02  0.50000007193E+02 0.  0.
         12    1    1    2    0    0 -0.49438791388E+01  0.20797512315E+02  0.23658864185E+02  0.31886052028E+02  0.00000000000E+00 0. -1.
         11    1    3    3    0    0  0.17420889030E+02 -0.50000768692E+01 -0.61161428584E+01  0.19128391125E+02  0.51100000000E-03 0. -1.
        -11    1    3    3    0    0 -0.43079376924E+01 -0.23377986687E+02 -0.68736559345E+01  0.24745418462E+02  0.51100000000E-03 0.  1.
         12    1    3    3    0    0 -0.81690721987E+01  0.75805512405E+01 -0.10669065392E+02  0.15428138385E+02  0.00000000000E+00 0. -1.
</event>
<event>
 7    1  0.5634483E-012  0.5930200E+02  0.7816164E-02  0.1266605E+00
        -11   -1    0    0    0    0  0.00000000000E+00  0.00000000000E+00  0.45593999997E+02  0.45594000000E+02  0.51100000000E-03 0.  1.
         11   -1    0    0    0    0 -0.00000000000E+00 -0.00000000000E+00 -0.45593999997E+02  0.45594000000E+02  0.51100000000E-03 0. -1.
    9900012    2    1    2    0    0 -0.83157116218E+01  0.29618593548E+02  0.83848130205E+01  0.59301996285E+02  0.50000095305E+02 0.  0.
         12    1    1    2    0    0  0.83157116218E+01 -0.29618593548E+02 -0.83848130205E+01  0.31886003715E+02  0.00000000000E+00 0. -1.
         11    1    3    3    0    0  0.77046064529E+01  0.60054558515E+01  0.23018716765E+02  0.25005754985E+02  0.51100000000E-03 0.  1.
        -11    1    3    3    0    0 -0.10189665405E+02  0.10766156109E+02 -0.12941422373E+01  0.14879993374E+02  0.51100000000E-03 0. -1.
        -12    1    3    3    0    0 -0.58306526696E+01  0.12846981588E+02 -0.13339761507E+02  0.19416247926E+02  0.00000000000E+00 0.  1.
</event>
<event>
 7    1  0.5634483E-012  0.5930200E+02  0.7816164E-02  0.1266605E+00
        -11   -1    0    0    0    0  0.00000000000E+00  0.00000000000E+00  0.45593999997E+02  0.45594000000E+02  0.51100000000E-03 0.  1.
         11   -1    0    0    0    0 -0.00000000000E+00 -0.00000000000E+00 -0.45593999997E+02  0.45594000000E+02  0.51100000000E-03 0. -1.
    9900012    2    1    2    0    0 -0.93252326003E+01  0.19774977323E+02  0.23210075290E+02  0.59301995450E+02  0.50000093782E+02 0.  0.
         12    1    1    2    0    0  0.93252326003E+01 -0.19774977323E+02 -0.23210075290E+02  0.31886004550E+02  0.00000000000E+00 0. -1.
         11    1    3    3    0    0 -0.10383425935E+01 -0.80305763284E+01 -0.64208347515E+00  0.81228432804E+01  0.51100000000E-03 0. -1.
        -11    1    3    3    0    0 -0.16064967858E+02  0.22347300012E+02  0.22917508607E+01  0.27617696000E+02  0.51100000000E-03 0.  1.
         12    1    3    3    0    0  0.77780778507E+01  0.54582536401E+01  0.21560407904E+02  0.23561456170E+02  0.00000000000E+00 0. -1.
</event>
<event>
 7    1  0.5634483E-012  0.5930199E+02  0.7816164E-02  0.1266605E+00
        -11   -1    0    0    0    0  0.00000000000E+00  0.00000000000E+00  0.45593999997E+02  0.45594000000E+02  0.51100000000E-03 0. -1.
         11   -1    0    0    0    0 -0.00000000000E+00 -0.00000000000E+00 -0.45593999997E+02  0.45594000000E+02  0.51100000000E-03 0.  1.
    9900012    2    1    2    0    0 -0.26715491022E+01  0.20406648170E+01 -0.31708298963E+02  0.59301988794E+02  0.50000081644E+02 0.  0.
         12    1    1    2    0    0  0.26715491022E+01 -0.20406648170E+01  0.31708298963E+02  0.31886011206E+02  0.00000000000E+00 0. -1.
         11    1    3    3    0    0 -0.90894455123E+01  0.10434506712E+02  0.24388888400E+01  0.14051516967E+02  0.51100000000E-03 0. -1.
        -11    1    3    3    0    0  0.29487854281E+01  0.66646159015E+01 -0.27463640725E+02  0.28414151452E+02  0.51100000000E-03 0.  1.
        -12    1    3    3    0    0  0.34691109820E+01 -0.15058457797E+02 -0.66835470775E+01  0.16836320375E+02  0.00000000000E+00 0.  1.
</event>
<event>
 7    1  0.5634483E-012  0.5930193E+02  0.7816164E-02  0.1266605E+00
        -11   -1    0    0    0    0  0.00000000000E+00  0.00000000000E+00  0.45593999997E+02  0.45594000000E+02  0.51100000000E-03 0.  1.
         11   -1    0    0    0    0 -0.00000000000E+00 -0.00000000000E+00 -0.45593999997E+02  0.45594000000E+02  0.51100000000E-03 0. -1.
    9900012    2    1    2    0    0 -0.21739750528E+02 -0.91920388187E+00  0.23307928599E+02  0.59301933696E+02  0.49999981157E+02 0.  0.
         12    1    1    2    0    0  0.21739750528E+02  0.91920388187E+00 -0.23307928599E+02  0.31886066304E+02  0.00000000000E+00 0. -1.
         11    1    3    3    0    0 -0.68875453549E+01  0.44443535055E+01  0.25849262740E+01  0.85949056540E+01  0.51100000000E-03 0. -1.
        -11    1    3    3    0    0 -0.40955088459E+01 -0.64356105328E+01  0.33277055446E+02  0.34140191784E+02  0.51100000000E-03 0.  1.
         12    1    3    3    0    0 -0.10756696327E+02  0.10720531454E+01 -0.12554053121E+02  0.16566836258E+02  0.00000000000E+00 0. -1.
</event>
<event>
 7    1  0.5634483E-012  0.5930194E+02  0.7816164E-02  0.1266605E+00
        -11   -1    0    0    0    0  0.00000000000E+00  0.00000000000E+00  0.45593999997E+02  0.45594000000E+02  0.51100000000E-03 0.  1.
         11   -1    0    0    0    0 -0.00000000000E+00 -0.00000000000E+00 -0.45593999997E+02  0.45594000000E+02  0.51100000000E-03 0. -1.
    9900012    2    1    2    0    0 -0.14663440267E+02 -0.74979242159E+01  0.27303580402E+02  0.59301939553E+02  0.49999991840E+02 0.  0.
         12    1    1    2    0    0  0.14663440267E+02  0.74979242159E+01 -0.27303580402E+02  0.31886060447E+02  0.00000000000E+00 0. -1.
         11    1    3    3    0    0 -0.13242318740E+01  0.13471642997E+02  0.23003464065E+01  0.13730635417E+02  0.51100000000E-03 0. -1.
        -11    1    3    3    0    0  0.88391142539E+01 -0.90551620865E+01  0.58665837046E+01  0.13947856675E+02  0.51100000000E-03 0.  1.
         12    1    3    3    0    0 -0.22178322647E+02 -0.11914405127E+02  0.19136650291E+02  0.31623447461E+02  0.00000000000E+00 0. -1.
</event>
<event>
 7    1  0.5634483E-012  0.5930194E+02  0.7816164E-02  0.1266605E+00
        -11   -1    0    0    0    0  0.00000000000E+00  0.00000000000E+00  0.45593999997E+02  0.45594000000E+02  0.51100000000E-03 0. -1.
         11   -1    0    0    0    0 -0.00000000000E+00 -0.00000000000E+00 -0.45593999997E+02  0.45594000000E+02  0.51100000000E-03 0.  1.
    9900012    2    1    2    0    0  0.31471337378E+02  0.10049121115E+01 -0.50265419076E+01  0.59301936457E+02  0.49999986192E+02 0.  0.
         12    1    1    2    0    0 -0.31471337378E+02 -0.10049121115E+01  0.50265419076E+01  0.31886063543E+02  0.00000000000E+00 0. -1.
         11    1    3    3    0    0 -0.61749142936E+01  0.88784664981E+00 -0.82007373488E+01  0.10303879441E+02  0.51100000000E-03 0. -1.
        -11    1    3    3    0    0  0.51552942306E+01 -0.79146355820E+01  0.11128729541E+02  0.14596819395E+02  0.51100000000E-03 0.  1.
        -12    1    3    3    0    0  0.32490957441E+02  0.80317010437E+01 -0.79545340995E+01  0.34401237621E+02  0.00000000000E+00 0.  1.
</event>
<event>
 7    1  0.5634483E-012  0.5930214E+02  0.7816164E-02  0.1266604E+00
        -11   -1    0    0    0    0  0.00000000000E+00  0.00000000000E+00  0.45593999997E+02  0.45594000000E+02  0.51100000000E-03 0. -1.
         11   -1    0    0    0    0 -0.00000000000E+00 -0.00000000000E+00 -0.45593999997E+02  0.45594000000E+02  0.51100000000E-03 0.  1.
    9900012    2    1    2    0    0 -0.27136037971E+02 -0.51877669691E+01 -0.15919495963E+02  0.59302143659E+02  0.50000364077E+02 0.  0.
         12    1    1    2    0    0  0.27136037971E+02  0.51877669691E+01  0.15919495963E+02  0.31885856341E+02  0.00000000000E+00 0. -1.
         11    1    3    3    0    0  0.25521238468E+01 -0.11918935501E+02  0.37965060490E+01  0.12766668244E+02  0.51100000000E-03 0. -1.
        -11    1    3    3    0    0 -0.13435901042E+02  0.13769612753E+02  0.10196570093E+01  0.19265652672E+02  0.51100000000E-03 0.  1.
        -12    1    3    3    0    0 -0.16252260776E+02 -0.70384442216E+01 -0.20735659021E+02  0.27269822743E+02  0.00000000000E+00 0.  1.
</event>
<event>
 7    1  0.5634483E-012  0.5930194E+02  0.7816164E-02  0.1266605E+00
        -11   -1    0    0    0    0  0.00000000000E+00  0.00000000000E+00  0.45593999997E+02  0.45594000000E+02  0.51100000000E-03 0.  1.
         11   -1    0    0    0    0 -0.00000000000E+00 -0.00000000000E+00 -0.45593999997E+02  0.45594000000E+02  0.51100000000E-03 0. -1.
    9900012    2    1    2    0    0 -0.21874607383E+01 -0.19053674373E+02  0.25473385989E+02  0.59301939012E+02  0.49999990852E+02 0.  0.
         12    1    1    2    0    0  0.21874607383E+01  0.19053674373E+02 -0.25473385989E+02  0.31886060988E+02  0.00000000000E+00 0. -1.
         11    1    3    3    0    0 -0.36451082459E+01  0.12688054502E+02  0.55672741084E+01  0.14327179849E+02  0.51100000000E-03 0. -1.
        -11    1    3    3    0    0 -0.15951402682E+01 -0.64764793315E+01 -0.57729748830E+01  0.88213658958E+01  0.51100000000E-03 0.  1.
        -12    1    3    3    0    0  0.30527877758E+01 -0.25265249544E+02  0.25679086764E+02  0.36153393267E+02  0.00000000000E+00 0.  1.
</event>
<event>
 7    1  0.5634483E-012  0.5930195E+02  0.7816164E-02  0.1266605E+00
        -11   -1    0    0    0    0  0.00000000000E+00  0.00000000000E+00  0.45593999997E+02  0.45594000000E+02  0.51100000000E-03 0.  1.
         11   -1    0    0    0    0 -0.00000000000E+00 -0.00000000000E+00 -0.45593999997E+02  0.45594000000E+02  0.51100000000E-03 0. -1.
    9900012    2    1    2    0    0  0.63309342336E+01  0.19289193170E+02  0.24587932143E+02  0.59301951194E+02  0.50000013070E+02 0.  0.
         12    1    1    2    0    0 -0.63309342336E+01 -0.19289193170E+02 -0.24587932143E+02  0.31886048806E+02  0.00000000000E+00 0. -1.
         11    1    3    3    0    0 -0.93210575321E+01  0.57537304795E+01 -0.58268640899E+01  0.12407250837E+02  0.51100000000E-03 0. -1.
        -11    1    3    3    0    0  0.78626014899E+01 -0.77751352271E+00 -0.39713262785E+01  0.88428763498E+01  0.51100000000E-03 0.  1.
        -12    1    3    3    0    0  0.77893902758E+01  0.14312976213E+02  0.34386122511E+02  0.38051824007E+02  0.00000000000E+00 0.  1.
</event>
<event>
 7    1  0.5634483E-012  0.5930195E+02  0.7816164E-02  0.1266605E+00
        -11   -1    0    0    0    0  0.00000000000E+00  0.00000000000E+00  0.45593999997E+02  0.45594000000E+02  0.51100000000E-03 0. -1.
         11   -1    0    0    0    0 -0.00000000000E+00 -0.00000000000E+00 -0.45593999997E+02  0.45594000000E+02  0.51100000000E-03 0.  1.
    9900012    2    1    2    0    0  0.54132295823E+00 -0.30386410916E+02 -0.96484715087E+01  0.59301952874E+02  0.50000016133E+02 0.  0.
         12    1    1    2    0    0 -0.54132295823E+00  0.30386410916E+02  0.96484715087E+01  0.31886047126E+02  0.00000000000E+00 0. -1.
         11    1    3    3    0    0  0.28855096095E+01  0.50480358835E+01 -0.46705306356E+01  0.74580619913E+01  0.51100000000E-03 0. -1.
        -11    1    3    3    0    0  0.10749611909E+01  0.35716472226E+01 -0.11552855357E+02  0.12140044176E+02  0.51100000000E-03 0.  1.
         12    1    3    3    0    0 -0.34191478422E+01 -0.39006094022E+02  0.65749144834E+01  0.39703846706E+02  0.00000000000E+00 0. -1.
</event>
<event>
 7    1  0.5634483E-012  0.5930195E+02  0.7816164E-02  0.1266605E+00
        -11   -1    0    0    0    0  0.00000000000E+00  0.00000000000E+00  0.45593999997E+02  0.45594000000E+02  0.51100000000E-03 0. -1.
         11   -1    0    0    0    0 -0.00000000000E+00 -0.00000000000E+00 -0.45593999997E+02  0.45594000000E+02  0.51100000000E-03 0.  1.
    9900012    2    1    2    0    0 -0.23087473524E+02 -0.68573317862E+01  0.20896550056E+02  0.59301949176E+02  0.50000009389E+02 0.  0.
         12    1    1    2    0    0  0.23087473524E+02  0.68573317862E+01 -0.20896550056E+02  0.31886050824E+02  0.00000000000E+00 0. -1.
         11    1    3    3    0    0 -0.18094882083E+01  0.75890100251E+01  0.13619293159E+02  0.15695619362E+02  0.51100000000E-03 0. -1.
        -11    1    3    3    0    0 -0.26035464878E+02 -0.21652003336E+02  0.30695645041E+01  0.34001130958E+02  0.51100000000E-03 0.  1.
         12    1    3    3    0    0  0.47574795626E+01  0.72056615251E+01  0.42076923925E+01  0.96051988565E+01  0.00000000000E+00 0. -1.
</event>
<event>
 7    1  0.5634483E-012  0.5930193E+02  0.7816164E-02  0.1266605E+00
        -11   -1    0    0    0    0  0.00000000000E+00  0.00000000000E+00  0.45593999997E+02  0.45594000000E+02  0.51100000000E-03 0.  1.
         11   -1    0    0    0    0 -0.00000000000E+00 -0.00000000000E+00 -0.45593999997E+02  0.45594000000E+02  0.51100000000E-03 0. -1.
    9900012    2    1    2    0    0 -0.75701286636E+01  0.19097347047E+02  0.24386594980E+02  0.59301928951E+02  0.49999972503E+02 0.  0.
         12    1    1    2    0    0  0.75701286636E+01 -0.19097347047E+02 -0.24386594980E+02  0.31886071049E+02  0.00000000000E+00 0. -1.
         11    1    3    3    0    0 -0.86107804746E+01  0.24624521274E+02  0.65003340102E+01  0.26884325003E+02  0.51100000000E-03 0. -1.
        -11    1    3    3    0    0  0.42847893414E+01  0.40152363191E+01  0.21050182637E+02  0.21853872236E+02  0.51100000000E-03 0.  1.
         12    1    3    3    0    0 -0.32441375304E+01 -0.95424105461E+01 -0.31639216673E+01  0.10563731711E+02  0.00000000000E+00 0. -1.
</event>
<event>
 7    1  0.5634483E-012  0.5930196E+02  0.7816164E-02  0.1266605E+00
        -11   -1    0    0    0    0  0.00000000000E+00  0.00000000000E+00  0.45593999997E+02  0.45594000000E+02  0.51100000000E-03 0.  1.
         11   -1    0    0    0    0 -0.00000000000E+00 -0.00000000000E+00 -0.45593999997E+02  0.45594000000E+02  0.51100000000E-03 0. -1.
    9900012    2    1    2    0    0  0.25971804005E+02  0.18452891739E+02  0.12944900117E+01  0.59301960403E+02  0.50000029865E+02 0.  0.
         12    1    1    2    0    0 -0.25971804005E+02 -0.18452891739E+02 -0.12944900117E+01  0.31886039597E+02  0.00000000000E+00 0. -1.
         11    1    3    3    0    0  0.73050529303E+01  0.18443240615E+01  0.33358459209E+01  0.82397328735E+01  0.51100000000E-03 0. -1.
        -11    1    3    3    0    0  0.29444502713E+02  0.23971630166E+02 -0.15135367208E+01  0.37998797172E+02  0.51100000000E-03 0.  1.
         12    1    3    3    0    0 -0.10777751639E+02 -0.73630624891E+01 -0.52781918837E+00  0.13063430358E+02  0.00000000000E+00 0. -1.
</event>
<event>
 7    1  0.5634483E-012  0.5930198E+02  0.7816164E-02  0.1266605E+00
        -11   -1    0    0    0    0  0.00000000000E+00  0.00000000000E+00  0.45593999997E+02  0.45594000000E+02  0.51100000000E-03 0.  1.
         11   -1    0    0    0    0 -0.00000000000E+00 -0.00000000000E+00 -0.45593999997E+02  0.45594000000E+02  0.51100000000E-03 0. -1.
    9900012    2    1    2    0    0  0.20958985422E+02 -0.19316206642E+02  0.14294178901E+02  0.59301977053E+02  0.50000060230E+02 0.  0.
         12    1    1    2    0    0 -0.20958985422E+02  0.19316206642E+02 -0.14294178901E+02  0.31886022947E+02  0.00000000000E+00 0. -1.
         11    1    3    3    0    0  0.14060154112E+02 -0.71534848014E+01 -0.22737547110E+01  0.15938326111E+02  0.51100000000E-03 0. -1.
        -11    1    3    3    0    0  0.16514157750E+02  0.73178224850E+01  0.10110105284E+02  0.20699810657E+02  0.51100000000E-03 0.  1.
        -12    1    3    3    0    0 -0.96153264408E+01 -0.19480544325E+02  0.64578283280E+01  0.22663840285E+02  0.00000000000E+00 0.  1.
</event>
<event>
 7    1  0.5634483E-012  0.5930194E+02  0.7816164E-02  0.1266605E+00
        -11   -1    0    0    0    0  0.00000000000E+00  0.00000000000E+00  0.45593999997E+02  0.45594000000E+02  0.51100000000E-03 0.  1.
         11   -1    0    0    0    0 -0.00000000000E+00 -0.00000000000E+00 -0.45593999997E+02  0.45594000000E+02  0.51100000000E-03 0. -1.
    9900012    2    1    2    0    0 -0.19362825989E+02 -0.11789060624E+02  0.22423649529E+02  0.59301936604E+02  0.49999986462E+02 0.  0.
         12    1    1    2    0    0  0.19362825989E+02  0.11789060624E+02 -0.22423649529E+02  0.31886063396E+02  0.00000000000E+00 0. -1.
         11    1    3    3    0    0 -0.60862511127E+01  0.21373116621E+01  0.16946152840E+02  0.18132364713E+02  0.51100000000E-03 0. -1.
        -11    1    3    3    0    0 -0.11726377348E+02 -0.92653076664E+01  0.20497171790E+02  0.25367063360E+02  0.51100000000E-03 0.  1.
         12    1    3    3    0    0 -0.15501975275E+01 -0.46610646197E+01 -0.15019675101E+02  0.15802508532E+02  0.00000000000E+00 0. -1.
</event>
<event>
 7    1  0.5634483E-012  0.5930194E+02  0.7816164E-02  0.1266605E+00
        -11   -1    0    0    0    0  0.00000000000E+00  0.00000000000E+00  0.45593999997E+02  0.45594000000E+02  0.51100000000E-03 0.  1.
         11   -1    0    0    0    0 -0.00000000000E+00 -0.00000000000E+00 -0.45593999997E+02  0.45594000000E+02  0.51100000000E-03 0. -1.
    9900012    2    1    2    0    0  0.64179930442E+01 -0.23905821599E+02  0.20100786493E+02  0.59301944134E+02  0.50000000195E+02 0.  0.
         12    1    1    2    0    0 -0.64179930442E+01  0.23905821599E+02 -0.20100786493E+02  0.31886055866E+02  0.00000000000E+00 0. -1.
         11    1    3    3    0    0  0.48285813269E+01  0.34215165275E+01  0.10817771074E+02  0.12330699260E+02  0.51100000000E-03 0. -1.
        -11    1    3    3    0    0  0.13616213693E+02 -0.16846957497E+02  0.18553107799E+02  0.28520853100E+02  0.51100000000E-03 0.  1.
        -12    1    3    3    0    0 -0.12026801976E+02 -0.10480380629E+02 -0.92700923806E+01  0.18450391775E+02  0.00000000000E+00 0.  1.
</event>
<event>
 7    1 -0.5634483E-012  0.5930195E+02  0.7816164E-02  0.1266605E+00
        -11   -1    0    0    0    0  0.00000000000E+00  0.00000000000E+00  0.45593999997E+02  0.45594000000E+02  0.51100000000E-03 0.  1.
         11   -1    0    0    0    0 -0.00000000000E+00 -0.00000000000E+00 -0.45593999997E+02  0.45594000000E+02  0.51100000000E-03 0. -1.
    9900012    2    1    2    0    0  0.17332590649E+02  0.24526854486E+02 -0.10711424814E+02  0.59301954288E+02  0.50000018712E+02 0.  0.
         12    1    1    2    0    0 -0.17332590649E+02 -0.24526854486E+02  0.10711424814E+02  0.31886045712E+02  0.00000000000E+00 0. -1.
         11    1    3    3    0    0  0.74072787536E+01 -0.43324953174E+01  0.32210840947E+01  0.91658975128E+01  0.51100000000E-03 0. -1.
        -11    1    3    3    0    0  0.17903900211E+02  0.43209976696E+01  0.38280150543E+01  0.18811548664E+02  0.51100000000E-03 0.  1.
         12    1    3    3    0    0 -0.79785883153E+01  0.24538352134E+02 -0.17760523963E+02  0.31324508111E+02  0.00000000000E+00 0. -1.
</event>
<event>
 7    1  0.5634483E-012  0.5930194E+02  0.7816164E-02  0.1266605E+00
        -11   -1    0    0    0    0  0.00000000000E+00  0.00000000000E+00  0.45593999997E+02  0.45594000000E+02  0.51100000000E-03 0.  1.
         11   -1    0    0    0    0 -0.00000000000E+00 -0.00000000000E+00 -0.45593999997E+02  0.45594000000E+02  0.51100000000E-03 0. -1.
    9900012    2    1    2    0    0 -0.88077740959E+01  0.10275312430E+02  0.28871466770E+02  0.59301944685E+02  0.50000001199E+02 0.  0.
         12    1    1    2    0    0  0.88077740959E+01 -0.10275312430E+02 -0.28871466770E+02  0.31886055315E+02  0.00000000000E+00 0. -1.
         11    1    3    3    0    0 -0.13894792280E+02 -0.11153269392E+02  0.66220582203E+01  0.19008217328E+02  0.51100000000E-03 0. -1.
        -11    1    3    3    0    0 -0.10170531591E+02  0.56139645964E+01  0.74893378403E+01  0.13821956912E+02  0.51100000000E-03 0.  1.
        -12    1    3    3    0    0  0.15257549775E+02  0.15814617226E+02  0.14760070710E+02  0.26471770445E+02  0.00000000000E+00 0.  1.
</event>
<event>
 7    1  0.5634483E-012  0.5930196E+02  0.7816164E-02  0.1266605E+00
        -11   -1    0    0    0    0  0.00000000000E+00  0.00000000000E+00  0.45593999997E+02  0.45594000000E+02  0.51100000000E-03 0.  1.
         11   -1    0    0    0    0 -0.00000000000E+00 -0.00000000000E+00 -0.45593999997E+02  0.45594000000E+02  0.51100000000E-03 0. -1.
    9900012    2    1    2    0    0  0.77419738429E+01 -0.20993788325E+02  0.22716567844E+02  0.59301956629E+02  0.50000022982E+02 0.  0.
         12    1    1    2    0    0 -0.77419738429E+01  0.20993788325E+02 -0.22716567844E+02  0.31886043371E+02  0.00000000000E+00 0. -1.
         11    1    3    3    0    0 -0.11399184710E+02 -0.66818976658E+01 -0.40377308571E+01  0.13816383000E+02  0.51100000000E-03 0. -1.
        -11    1    3    3    0    0 -0.25711387048E+01 -0.21857911454E+01  0.19200326815E+02  0.19494639961E+02  0.51100000000E-03 0.  1.
        -12    1    3    3    0    0  0.21712297258E+02 -0.12126099514E+02  0.75539718866E+01  0.25990933667E+02  0.00000000000E+00 0.  1.
</event>
<event>
 7    1  0.5634483E-012  0.5930201E+02  0.7816164E-02  0.1266605E+00
        -11   -1    0    0    0    0  0.00000000000E+00  0.00000000000E+00  0.45593999997E+02  0.45594000000E+02  0.51100000000E-03 0. -1.
         11   -1    0    0    0    0 -0.00000000000E+00 -0.00000000000E+00 -0.45593999997E+02  0.45594000000E+02  0.51100000000E-03 0.  1.
    9900012    2    1    2    0    0  0.27170684635E+02  0.35354817683E+01  0.16308614750E+02  0.59302005426E+02  0.50000111976E+02 0.  0.
         12    1    1    2    0    0 -0.27170684635E+02 -0.35354817683E+01 -0.16308614750E+02  0.31885994574E+02  0.00000000000E+00 0. -1.
         11    1    3    3    0    0 -0.96021063907E+01 -0.27857082616E+00  0.65221698139E+01  0.11611061458E+02  0.51100000000E-03 0. -1.
        -11    1    3    3    0    0 -0.24072851832E+01  0.30745937290E+01  0.74777650254E+01  0.84359420688E+01  0.51100000000E-03 0.  1.
        -12    1    3    3    0    0  0.39180076209E+02  0.73945886539E+00  0.23086799103E+01  0.39255001899E+02  0.00000000000E+00 0.  1.
</event>
<event>
 7    1  0.5634483E-012  0.5930188E+02  0.7816164E-02  0.1266605E+00
        -11   -1    0    0    0    0  0.00000000000E+00  0.00000000000E+00  0.45593999997E+02  0.45594000000E+02  0.51100000000E-03 0.  1.
         11   -1    0    0    0    0 -0.00000000000E+00 -0.00000000000E+00 -0.45593999997E+02  0.45594000000E+02  0.51100000000E-03 0. -1.
    9900012    2    1    2    0    0  0.11471985510E+02 -0.11495715415E-01  0.29750937326E+02  0.59301876758E+02  0.49999877315E+02 0.  0.
         12    1    1    2    0    0 -0.11471985510E+02  0.11495715415E-01 -0.29750937326E+02  0.31886123242E+02  0.00000000000E+00 0. -1.
         11    1    3    3    0    0  0.16634917802E+02  0.23917721652E+00  0.66916147214E+01  0.17931965978E+02  0.51100000000E-03 0. -1.
        -11    1    3    3    0    0  0.97950634300E+01  0.38873837367E+01  0.23594384675E+02  0.25840859281E+02  0.51100000000E-03 0.  1.
         12    1    3    3    0    0 -0.14957995722E+02 -0.41380566686E+01 -0.53506207110E+00  0.15529051498E+02  0.00000000000E+00 0. -1.
</event>
<event>
 7    1  0.5634483E-012  0.5930194E+02  0.7816164E-02  0.1266605E+00
        -11   -1    0    0    0    0  0.00000000000E+00  0.00000000000E+00  0.45593999997E+02  0.45594000000E+02  0.51100000000E-03 0.  1.
         11   -1    0    0    0    0 -0.00000000000E+00 -0.00000000000E+00 -0.45593999997E+02  0.45594000000E+02  0.51100000000E-03 0. -1.
    9900012    2    1    2    0    0 -0.11753632371E+02  0.27233437902E+02  0.11700980733E+02  0.59301937779E+02  0.49999988603E+02 0.  0.
         12    1    1    2    0    0  0.11753632371E+02 -0.27233437902E+02 -0.11700980733E+02  0.31886062221E+02  0.00000000000E+00 0. -1.
         11    1    3    3    0    0  0.50384866972E+01  0.21534908970E+02  0.35633462536E+01  0.22401698358E+02  0.51100000000E-03 0.  1.
        -11    1    3    3    0    0 -0.12584182861E+02  0.15092907125E+02 -0.49351893203E+01  0.20261135152E+02  0.51100000000E-03 0. -1.
        -12    1    3    3    0    0 -0.42079362076E+01 -0.93943781932E+01  0.13072823800E+02  0.16639104269E+02  0.00000000000E+00 0.  1.
</event>
<event>
 7    1  0.5634483E-012  0.5930196E+02  0.7816164E-02  0.1266605E+00
        -11   -1    0    0    0    0  0.00000000000E+00  0.00000000000E+00  0.45593999997E+02  0.45594000000E+02  0.51100000000E-03 0.  1.
         11   -1    0    0    0    0 -0.00000000000E+00 -0.00000000000E+00 -0.45593999997E+02  0.45594000000E+02  0.51100000000E-03 0. -1.
    9900012    2    1    2    0    0  0.24240421525E+02  0.20651480382E+02 -0.16241473718E+01  0.59301960227E+02  0.50000029544E+02 0.  0.
         12    1    1    2    0    0 -0.24240421525E+02 -0.20651480382E+02  0.16241473718E+01  0.31886039773E+02  0.00000000000E+00 0. -1.
         11    1    3    3    0    0  0.48294155512E+01 -0.55219819973E+01 -0.28451843957E+01  0.78683298261E+01  0.51100000000E-03 0. -1.
        -11    1    3    3    0    0 -0.50269271962E+01  0.76890234358E+01 -0.14368794653E+02  0.17054422842E+02  0.51100000000E-03 0.  1.
        -12    1    3    3    0    0  0.24437933170E+02  0.18484438943E+02  0.15589831677E+02  0.34379207559E+02  0.00000000000E+00 0.  1.
</event>
<event>
 7    1  0.5634483E-012  0.5930195E+02  0.7816164E-02  0.1266605E+00
        -11   -1    0    0    0    0  0.00000000000E+00  0.00000000000E+00  0.45593999997E+02  0.45594000000E+02  0.51100000000E-03 0. -1.
         11   -1    0    0    0    0 -0.00000000000E+00 -0.00000000000E+00 -0.45593999997E+02  0.45594000000E+02  0.51100000000E-03 0.  1.
    9900012    2    1    2    0    0  0.25018285295E+01 -0.66465273890E+01 -0.31085124528E+02  0.59301946007E+02  0.50000003610E+02 0.  0.
         12    1    1    2    0    0 -0.25018285295E+01  0.66465273890E+01  0.31085124528E+02  0.31886053993E+02  0.00000000000E+00 0. -1.
         11    1    3    3    0    0  0.19368384739E+01 -0.25271769336E+02 -0.23819250852E+02  0.34781753551E+02  0.51100000000E-03 0.  1.
        -11    1    3    3    0    0  0.59739137754E+01  0.26336394230E+01 -0.23268650479E+01  0.69309453626E+01  0.51100000000E-03 0. -1.
        -12    1    3    3    0    0 -0.54089237198E+01  0.15991602524E+02 -0.49390086276E+01  0.17589247094E+02  0.00000000000E+00 0.  1.
</event>
<event>
 7    1  0.5634483E-012  0.5930194E+02  0.7816164E-02  0.1266605E+00
        -11   -1    0    0    0    0  0.00000000000E+00  0.00000000000E+00  0.45593999997E+02  0.45594000000E+02  0.51100000000E-03 0.  1.
         11   -1    0    0    0    0 -0.00000000000E+00 -0.00000000000E+00 -0.45593999997E+02  0.45594000000E+02  0.51100000000E-03 0. -1.
    9900012    2    1    2    0    0  0.26085919973E+02  0.15231441391E+02  0.10210231853E+02  0.59301939375E+02  0.49999991514E+02 0.  0.
         12    1    1    2    0    0 -0.26085919973E+02 -0.15231441391E+02 -0.10210231853E+02  0.31886060625E+02  0.00000000000E+00 0. -1.
         11    1    3    3    0    0  0.16529442799E+00 -0.62884375478E+01 -0.65126544230E+01  0.90546362122E+01  0.51100000000E-03 0. -1.
        -11    1    3    3    0    0  0.10752284345E+02 -0.81723327682E+01  0.83197690380E+01  0.15862446174E+02  0.51100000000E-03 0.  1.
        -12    1    3    3    0    0  0.15168341201E+02  0.29692211707E+02  0.84031172379E+01  0.34384856989E+02  0.00000000000E+00 0.  1.
</event>
<event>
 7    1  0.5634483E-012  0.5930194E+02  0.7816164E-02  0.1266605E+00
        -11   -1    0    0    0    0  0.00000000000E+00  0.00000000000E+00  0.45593999997E+02  0.45594000000E+02  0.51100000000E-03 0. -1.
         11   -1    0    0    0    0 -0.00000000000E+00 -0.00000000000E+00 -0.45593999997E+02  0.45594000000E+02  0.51100000000E-03 0.  1.
    9900012    2    1    2    0    0 -0.20326064567E+02  0.23959599823E+02  0.54322523164E+01  0.59301942079E+02  0.49999996447E+02 0.  0.
         12    1    1    2    0    0  0.20326064567E+02 -0.23959599823E+02 -0.54322523164E+01  0.31886057921E+02  0.00000000000E+00 0. -1.
         11    1    3    3    0    0 -0.19579227504E+02  0.18199783935E+02  0.17860563466E+01  0.26791197854E+02  0.51100000000E-03 0. -1.
        -11    1    3    3    0    0 -0.11746489548E+01  0.19004220472E+02  0.26175486038E+01  0.19219567031E+02  0.51100000000E-03 0.  1.
         12    1    3    3    0    0  0.42781189172E+00 -0.13244404584E+02  0.10286473660E+01  0.13291177194E+02  0.00000000000E+00 0. -1.
</event>
<event>
 7    1  0.5634483E-012  0.5930194E+02  0.7816164E-02  0.1266605E+00
        -11   -1    0    0    0    0  0.00000000000E+00  0.00000000000E+00  0.45593999997E+02  0.45594000000E+02  0.51100000000E-03 0.  1.
         11   -1    0    0    0    0 -0.00000000000E+00 -0.00000000000E+00 -0.45593999997E+02  0.45594000000E+02  0.51100000000E-03 0. -1.
    9900012    2    1    2    0    0 -0.47920860405E+01  0.28726258822E+01  0.31392751524E+02  0.59301938526E+02  0.49999989966E+02 0.  0.
         12    1    1    2    0    0  0.47920860405E+01 -0.28726258822E+01 -0.31392751524E+02  0.31886061474E+02  0.00000000000E+00 0. -1.
         11    1    3    3    0    0 -0.33471706907E+01  0.13886386604E+02  0.53642495555E+01  0.15258127608E+02  0.51100000000E-03 0. -1.
        -11    1    3    3    0    0 -0.85807757198E+01  0.63679875078E+01  0.22524198269E+02  0.24930312569E+02  0.51100000000E-03 0.  1.
         12    1    3    3    0    0  0.71358603699E+01 -0.17381748230E+02  0.35043036992E+01  0.19113498349E+02  0.00000000000E+00 0. -1.
</event>
<event>
 7    1  0.5634483E-012  0.5930195E+02  0.7816164E-02  0.1266605E+00
        -11   -1    0    0    0    0  0.00000000000E+00  0.00000000000E+00  0.45593999997E+02  0.45594000000E+02  0.51100000000E-03 0.  1.
         11   -1    0    0    0    0 -0.00000000000E+00 -0.00000000000E+00 -0.45593999997E+02  0.45594000000E+02  0.51100000000E-03 0. -1.
    9900012    2    1    2    0    0 -0.26490113425E+02  0.10923739025E+02  0.13988066276E+02  0.59301950046E+02  0.50000010976E+02 0.  0.
         12    1    1    2    0    0  0.26490113425E+02 -0.10923739025E+02 -0.13988066276E+02  0.31886049954E+02  0.00000000000E+00 0. -1.
         11    1    3    3    0    0  0.41497729091E+00 -0.11668337070E+00 -0.93137271226E+01  0.93236974606E+01  0.51100000000E-03 0. -1.
        -11    1    3    3    0    0 -0.85099292059E+00 -0.60740652315E+01  0.17137727016E+02  0.18202201650E+02  0.51100000000E-03 0.  1.
         12    1    3    3    0    0 -0.26054097795E+02  0.17114487627E+02  0.61640663825E+01  0.31776050935E+02  0.00000000000E+00 0. -1.
</event>
<event>
 7    1  0.5634483E-012  0.5930194E+02  0.7816164E-02  0.1266605E+00
        -11   -1    0    0    0    0  0.00000000000E+00  0.00000000000E+00  0.45593999997E+02  0.45594000000E+02  0.51100000000E-03 0. -1.
         11   -1    0    0    0    0 -0.00000000000E+00 -0.00000000000E+00 -0.45593999997E+02  0.45594000000E+02  0.51100000000E-03 0.  1.
    9900012    2    1    2    0    0 -0.29670781574E+02  0.10943139047E+02 -0.40759518769E+01  0.59301937917E+02  0.49999988856E+02 0.  0.
         12    1    1    2    0    0  0.29670781574E+02 -0.10943139047E+02  0.40759518769E+01  0.31886062083E+02  0.00000000000E+00 0. -1.
         11    1    3    3    0    0 -0.41549613902E+01  0.13069229441E+02 -0.10210232270E+02  0.17097289423E+02  0.51100000000E-03 0. -1.
        -11    1    3    3    0    0 -0.13218878304E+02  0.14274254078E+02  0.91260760599E+01  0.21489028307E+02  0.51100000000E-03 0.  1.
         12    1    3    3    0    0 -0.12296941881E+02 -0.16400344472E+02 -0.29917956666E+01  0.20715620187E+02  0.00000000000E+00 0. -1.
</event>
<event>
 7    1  0.5634483E-012  0.5930207E+02  0.7816164E-02  0.1266604E+00
        -11   -1    0    0    0    0  0.00000000000E+00  0.00000000000E+00  0.45593999997E+02  0.45594000000E+02  0.51100000000E-03 0.  1.
         11   -1    0    0    0    0 -0.00000000000E+00 -0.00000000000E+00 -0.45593999997E+02  0.45594000000E+02  0.51100000000E-03 0. -1.
    9900012    2    1    2    0    0  0.30501187153E+02 -0.92325716711E+01  0.10721550904E+01  0.59302073419E+02  0.50000235978E+02 0.  0.
         12    1    1    2    0    0 -0.30501187153E+02  0.92325716711E+01 -0.10721550904E+01  0.31885926581E+02  0.00000000000E+00 0. -1.
         11    1    3    3    0    0  0.14102145397E+02 -0.11124572656E+02  0.79918028386E+00  0.17979580389E+02  0.51100000000E-03 0. -1.
        -11    1    3    3    0    0 -0.22881791143E+01 -0.15567518744E+02  0.59684362253E+00  0.15746098757E+02  0.51100000000E-03 0.  1.
         12    1    3    3    0    0  0.18687220870E+02  0.17459519729E+02 -0.32386881597E+00  0.25576394273E+02  0.00000000000E+00 0. -1.
</event>
<event>
 7    1  0.5634483E-012  0.5930203E+02  0.7816164E-02  0.1266604E+00
        -11   -1    0    0    0    0  0.00000000000E+00  0.00000000000E+00  0.45593999997E+02  0.45594000000E+02  0.51100000000E-03 0. -1.
         11   -1    0    0    0    0 -0.00000000000E+00 -0.00000000000E+00 -0.45593999997E+02  0.45594000000E+02  0.51100000000E-03 0.  1.
    9900012    2    1    2    0    0 -0.11949903444E+02  0.17433645972E+02 -0.23874315592E+02  0.59302028960E+02  0.50000154896E+02 0.  0.
         12    1    1    2    0    0  0.11949903444E+02 -0.17433645972E+02  0.23874315592E+02  0.31885971040E+02  0.00000000000E+00 0. -1.
         11    1    3    3    0    0 -0.35392149618E+01  0.44031546414E+00  0.12687480233E+02  0.13179228930E+02  0.51100000000E-03 0. -1.
        -11    1    3    3    0    0 -0.21178417617E+01  0.12306765537E+01  0.25202683219E+01  0.35144802151E+01  0.51100000000E-03 0.  1.
        -12    1    3    3    0    0 -0.62928467206E+01  0.15762653954E+02 -0.39082064146E+02  0.42608319815E+02  0.00000000000E+00 0.  1.
</event>
<event>
 7    1  0.5634483E-012  0.5930169E+02  0.7816164E-02  0.1266606E+00
        -11   -1    0    0    0    0  0.00000000000E+00  0.00000000000E+00  0.45593999997E+02  0.45594000000E+02  0.51100000000E-03 0. -1.
         11   -1    0    0    0    0 -0.00000000000E+00 -0.00000000000E+00 -0.45593999997E+02  0.45594000000E+02  0.51100000000E-03 0.  1.
    9900012    2    1    2    0    0 -0.14548191495E+02  0.19330308938E+02 -0.20770791789E+02  0.59301693990E+02  0.49999543990E+02 0.  0.
         12    1    1    2    0    0  0.14548191495E+02 -0.19330308938E+02  0.20770791789E+02  0.31886306010E+02  0.00000000000E+00 0. -1.
         11    1    3    3    0    0 -0.50959541142E+01 -0.86080609862E+01  0.79202076442E+01  0.12759198708E+02  0.51100000000E-03 0. -1.
        -11    1    3    3    0    0 -0.13073103938E+02  0.61579386683E+01 -0.13187821221E+02  0.19563866796E+02  0.51100000000E-03 0.  1.
        -12    1    3    3    0    0  0.36208665576E+01  0.21780431256E+02 -0.15503178213E+02  0.26978628486E+02  0.00000000000E+00 0.  1.
</event>
<event>
 7    1  0.5634483E-012  0.5930196E+02  0.7816164E-02  0.1266605E+00
        -11   -1    0    0    0    0  0.00000000000E+00  0.00000000000E+00  0.45593999997E+02  0.45594000000E+02  0.51100000000E-03 0.  1.
         11   -1    0    0    0    0 -0.00000000000E+00 -0.00000000000E+00 -0.45593999997E+02  0.45594000000E+02  0.51100000000E-03 0. -1.
    9900012    2    1    2    0    0 -0.18898278837E+02  0.25659709952E+02 -0.10742289469E+01  0.59301958765E+02  0.50000026877E+02 0.  0.
         12    1    1    2    0    0  0.18898278837E+02 -0.25659709952E+02  0.10742289469E+01  0.31886041235E+02  0.00000000000E+00 0. -1.
         11    1    3    3    0    0  0.74841894874E+01  0.16216225391E+02 -0.90629948319E+01  0.20027903880E+02  0.51100000000E-03 0. -1.
        -11    1    3    3    0    0 -0.23166055408E+02  0.21436867140E+01 -0.52199950071E+01  0.23843444886E+02  0.51100000000E-03 0.  1.
         12    1    3    3    0    0 -0.32164129159E+01  0.72997978468E+01  0.13208760892E+02  0.15430609999E+02  0.00000000000E+00 0. -1.
</event>
<event>
 7    1  0.5634483E-012  0.5930194E+02  0.7816164E-02  0.1266605E+00
        -11   -1    0    0    0    0  0.00000000000E+00  0.00000000000E+00  0.45593999997E+02  0.45594000000E+02  0.51100000000E-03 0.  1.
         11   -1    0    0    0    0 -0.00000000000E+00 -0.00000000000E+00 -0.45593999997E+02  0.45594000000E+02  0.51100000000E-03 0. -1.
    9900012    2    1    2    0    0  0.17772023011E+02 -0.21435876765E+02 -0.15536392161E+02  0.59301935709E+02  0.49999984828E+02 0.  0.
         12    1    1    2    0    0 -0.17772023011E+02  0.21435876765E+02  0.15536392161E+02  0.31886064291E+02  0.00000000000E+00 0. -1.
         11    1    3    3    0    0 -0.14594847504E+01 -0.29501213374E+00 -0.23879255906E+02  0.23925634596E+02  0.51100000000E-03 0. -1.
        -11    1    3    3    0    0 -0.37361292127E+01 -0.30559999167E+01 -0.45453961563E+00  0.48481340233E+01  0.51100000000E-03 0.  1.
        -12    1    3    3    0    0  0.22967636975E+02 -0.18084864715E+02  0.87974033614E+01  0.30528167090E+02  0.00000000000E+00 0.  1.
</event>
<event>
 7    1  0.5634483E-012  0.5930197E+02  0.7816164E-02  0.1266605E+00
        -11   -1    0    0    0    0  0.00000000000E+00  0.00000000000E+00  0.45593999997E+02  0.45594000000E+02  0.51100000000E-03 0. -1.
         11   -1    0    0    0    0 -0.00000000000E+00 -0.00000000000E+00 -0.45593999997E+02  0.45594000000E+02  0.51100000000E-03 0.  1.
    9900012    2    1    2    0    0  0.16167376491E+02 -0.43883023005E+01 -0.27130752538E+02  0.59301968686E+02  0.50000044971E+02 0.  0.
         12    1    1    2    0    0 -0.16167376491E+02  0.43883023005E+01  0.27130752538E+02  0.31886031314E+02  0.00000000000E+00 0. -1.
         11    1    3    3    0    0 -0.32873425466E+01  0.51016722702E+01  0.10307589711E+02  0.11961608875E+02  0.51100000000E-03 0.  1.
        -11    1    3    3    0    0 -0.10242445644E+01 -0.83349870809E+01 -0.12345184919E+02  0.14930662326E+02  0.51100000000E-03 0. -1.
        -12    1    3    3    0    0  0.20478963602E+02 -0.11549874899E+01 -0.25093157330E+02  0.32409697485E+02  0.00000000000E+00 0.  1.
</event>
<event>
 7    1  0.5634483E-012  0.5930193E+02  0.7816164E-02  0.1266605E+00
        -11   -1    0    0    0    0  0.00000000000E+00  0.00000000000E+00  0.45593999997E+02  0.45594000000E+02  0.51100000000E-03 0.  1.
         11   -1    0    0    0    0 -0.00000000000E+00 -0.00000000000E+00 -0.45593999997E+02  0.45594000000E+02  0.51100000000E-03 0. -1.
    9900012    2    1    2    0    0 -0.12302689758E+02 -0.29361858227E+02  0.18017409698E+01  0.59301934637E+02  0.49999982874E+02 0.  0.
         12    1    1    2    0    0  0.12302689758E+02  0.29361858227E+02 -0.18017409698E+01  0.31886065363E+02  0.00000000000E+00 0. -1.
         11    1    3    3    0    0 -0.19658174444E+01 -0.88634244286E+01 -0.45888421970E+01  0.10172620301E+02  0.51100000000E-03 0. -1.
        -11    1    3    3    0    0  0.53686229275E+01 -0.20732764619E+02 -0.12314010101E+02  0.24704341439E+02  0.51100000000E-03 0.  1.
        -12    1    3    3    0    0 -0.15705495241E+02  0.23433082110E+00  0.18704593268E+02  0.24424972897E+02  0.00000000000E+00 0.  1.
</event>
<event>
 7    1  0.5634483E-012  0.5930194E+02  0.7816164E-02  0.1266605E+00
        -11   -1    0    0    0    0  0.00000000000E+00  0.00000000000E+00  0.45593999997E+02  0.45594000000E+02  0.51100000000E-03 0.  1.
         11   -1    0    0    0    0 -0.00000000000E+00 -0.00000000000E+00 -0.45593999997E+02  0.45594000000E+02  0.51100000000E-03 0. -1.
    9900012    2    1    2    0    0 -0.81596396616E+01 -0.18512032183E+02  0.24646416733E+02  0.59301938582E+02  0.49999990069E+02 0.  0.
         12    1    1    2    0    0  0.81596396616E+01  0.18512032183E+02 -0.24646416733E+02  0.31886061418E+02  0.00000000000E+00 0. -1.
         11    1    3    3    0    0  0.88582925200E+01 -0.68101262804E+01 -0.18307161803E+01  0.11322485960E+02  0.51100000000E-03 0.  1.
        -11    1    3    3    0    0 -0.87056888320E+01  0.11007051892E+02  0.31567161751E+01  0.14384334071E+02  0.51100000000E-03 0. -1.
         12    1    3    3    0    0 -0.83122433496E+01 -0.22708957794E+02  0.23320416738E+02  0.33595118551E+02  0.00000000000E+00 0. -1.
</event>
<event>
 7    1  0.5634483E-012  0.5930195E+02  0.7816164E-02  0.1266605E+00
        -11   -1    0    0    0    0  0.00000000000E+00  0.00000000000E+00  0.45593999997E+02  0.45594000000E+02  0.51100000000E-03 0.  1.
         11   -1    0    0    0    0 -0.00000000000E+00 -0.00000000000E+00 -0.45593999997E+02  0.45594000000E+02  0.51100000000E-03 0. -1.
    9900012    2    1    2    0    0 -0.21809952631E+01  0.30611648838E+02  0.86539400255E+01  0.59301945636E+02  0.50000002934E+02 0.  0.
         12    1    1    2    0    0  0.21809952631E+01 -0.30611648838E+02 -0.86539400255E+01  0.31886054364E+02  0.00000000000E+00 0. -1.
         11    1    3    3    0    0  0.11783341711E+02  0.17414570166E+02  0.17333413617E+01  0.21097840375E+02  0.51100000000E-03 0. -1.
        -11    1    3    3    0    0 -0.51114890963E+01 -0.91230139933E+01  0.94046741595E+01  0.14064302379E+02  0.51100000000E-03 0.  1.
         12    1    3    3    0    0 -0.88528478779E+01  0.22320092665E+02 -0.24840754957E+01  0.24139802882E+02  0.00000000000E+00 0. -1.
</event>
<event>
 7    1  0.5634483E-012  0.5930224E+02  0.7816164E-02  0.1266604E+00
        -11   -1    0    0    0    0  0.00000000000E+00  0.00000000000E+00  0.45593999997E+02  0.45594000000E+02  0.51100000000E-03 0.  1.
         11   -1    0    0    0    0 -0.00000000000E+00 -0.00000000000E+00 -0.45593999997E+02  0.45594000000E+02  0.51100000000E-03 0. -1.
    9900012    2    1    2    0    0  0.90038257820E+01  0.80943331252E-01  0.30588003787E+02  0.59302244462E+02  0.50000547918E+02 0.  0.
         12    1    1    2    0    0 -0.90038257820E+01 -0.80943331252E-01 -0.30588003787E+02  0.31885755538E+02  0.00000000000E+00 0. -1.
         11    1    3    3    0    0  0.20789127026E+02  0.52421217689E+01  0.76494331967E+01  0.22763599708E+02  0.51100000000E-03 0. -1.
        -11    1    3    3    0    0 -0.14576527976E+01  0.77022030229E+01 -0.52500816262E+00  0.78564824773E+01  0.51100000000E-03 0.  1.
        -12    1    3    3    0    0 -0.10327648447E+02 -0.12863381461E+02  0.23463578753E+02  0.28682162278E+02  0.00000000000E+00 0.  1.
</event>
<event>
 7    1  0.5634483E-012  0.5930178E+02  0.7816164E-02  0.1266605E+00
        -11   -1    0    0    0    0  0.00000000000E+00  0.00000000000E+00  0.45593999997E+02  0.45594000000E+02  0.51100000000E-03 0. -1.
         11   -1    0    0    0    0 -0.00000000000E+00 -0.00000000000E+00 -0.45593999997E+02  0.45594000000E+02  0.51100000000E-03 0.  1.
    9900012    2    1    2    0    0  0.11364330482E+02 -0.26989788780E+02  0.12614850779E+02  0.59301777805E+02  0.49999696849E+02 0.  0.
         12    1    1    2    0    0 -0.11364330482E+02  0.26989788780E+02 -0.12614850779E+02  0.31886222195E+02  0.00000000000E+00 0. -1.
         11    1    3    3    0    0  0.59534717285E+01 -0.15924944422E+02  0.45651353450E+01  0.17603640005E+02  0.51100000000E-03 0. -1.
        -11    1    3    3    0    0 -0.14462334413E+02  0.45473219887E+01 -0.47497875253E-01  0.15160458775E+02  0.51100000000E-03 0.  1.
         12    1    3    3    0    0  0.19873193167E+02 -0.15612166347E+02  0.80972133094E+01  0.26537679025E+02  0.00000000000E+00 0. -1.
</event>
<event>
 7    1  0.5634483E-012  0.5930195E+02  0.7816164E-02  0.1266605E+00
        -11   -1    0    0    0    0  0.00000000000E+00  0.00000000000E+00  0.45593999997E+02  0.45594000000E+02  0.51100000000E-03 0.  1.
         11   -1    0    0    0    0 -0.00000000000E+00 -0.00000000000E+00 -0.45593999997E+02  0.45594000000E+02  0.51100000000E-03 0. -1.
    9900012    2    1    2    0    0  0.20763041548E+01  0.42354420836E+01  0.31535225460E+02  0.59301945785E+02  0.50000003205E+02 0.  0.
         12    1    1    2    0    0 -0.20763041548E+01 -0.42354420836E+01 -0.31535225460E+02  0.31886054215E+02  0.00000000000E+00 0. -1.
         11    1    3    3    0    0 -0.20381657524E+01  0.12629088491E+02 -0.31294158023E+01  0.13169709157E+02  0.51100000000E-03 0. -1.
        -11    1    3    3    0    0  0.27924010108E+01  0.34673923136E+01  0.33880780999E+02  0.34172029999E+02  0.51100000000E-03 0.  1.
        -12    1    3    3    0    0  0.13220688964E+01 -0.11861038721E+02  0.78386026300E+00  0.11960206629E+02  0.00000000000E+00 0.  1.
</event>
<event>
 7    1  0.5634483E-012  0.5930199E+02  0.7816164E-02  0.1266605E+00
        -11   -1    0    0    0    0  0.00000000000E+00  0.00000000000E+00  0.45593999997E+02  0.45594000000E+02  0.51100000000E-03 0. -1.
         11   -1    0    0    0    0 -0.00000000000E+00 -0.00000000000E+00 -0.45593999997E+02  0.45594000000E+02  0.51100000000E-03 0.  1.
    9900012    2    1    2    0    0  0.16793509430E+02 -0.24984390162E+02 -0.10510742348E+02  0.59301993423E+02  0.50000090085E+02 0.  0.
         12    1    1    2    0    0 -0.16793509430E+02  0.24984390162E+02  0.10510742348E+02  0.31886006577E+02  0.00000000000E+00 0. -1.
         11    1    3    3    0    0 -0.22235100838E+01  0.92287640272E+00 -0.68321566171E+01  0.72438982771E+01  0.51100000000E-03 0. -1.
        -11    1    3    3    0    0  0.13758805080E+02  0.51425410272E+01 -0.12572508827E+02  0.19334384498E+02  0.51100000000E-03 0.  1.
         12    1    3    3    0    0  0.52582144337E+01 -0.31049807592E+02  0.88939230960E+01  0.32723710648E+02  0.00000000000E+00 0. -1.
</event>
<event>
 7    1  0.5634483E-012  0.5930193E+02  0.7816164E-02  0.1266605E+00
        -11   -1    0    0    0    0  0.00000000000E+00  0.00000000000E+00  0.45593999997E+02  0.45594000000E+02  0.51100000000E-03 0. -1.
         11   -1    0    0    0    0 -0.00000000000E+00 -0.00000000000E+00 -0.45593999997E+02  0.45594000000E+02  0.51100000000E-03 0.  1.
    9900012    2    1    2    0    0 -0.30622742108E+02 -0.31539832222E+01  0.83079238992E+01  0.59301928685E+02  0.49999972019E+02 0.  0.
         12    1    1    2    0    0  0.30622742108E+02  0.31539832222E+01 -0.83079238992E+01  0.31886071315E+02  0.00000000000E+00 0. -1.
         11    1    3    3    0    0 -0.34550003876E+01  0.23546079902E+01  0.79413442350E+01  0.89747509707E+01  0.51100000000E-03 0. -1.
        -11    1    3    3    0    0 -0.20166619209E+02 -0.20449912689E+02  0.10935410188E+02  0.30732306382E+02  0.51100000000E-03 0.  1.
        -12    1    3    3    0    0 -0.70011225109E+01  0.14941321477E+02 -0.10568830524E+02  0.19594871332E+02  0.00000000000E+00 0.  1.
</event>
<event>
 7    1  0.5634483E-012  0.5930195E+02  0.7816164E-02  0.1266605E+00
        -11   -1    0    0    0    0  0.00000000000E+00  0.00000000000E+00  0.45593999997E+02  0.45594000000E+02  0.51100000000E-03 0. -1.
         11   -1    0    0    0    0 -0.00000000000E+00 -0.00000000000E+00 -0.45593999997E+02  0.45594000000E+02  0.51100000000E-03 0.  1.
    9900012    2    1    2    0    0  0.65829230924E+00 -0.16780910292E+02 -0.27105125883E+02  0.59301950572E+02  0.50000011935E+02 0.  0.
         12    1    1    2    0    0 -0.65829230924E+00  0.16780910292E+02  0.27105125883E+02  0.31886049428E+02  0.00000000000E+00 0. -1.
         11    1    3    3    0    0  0.33500235270E+01 -0.94121489388E+00  0.43330013009E+01  0.55572874357E+01  0.51100000000E-03 0. -1.
        -11    1    3    3    0    0  0.87459604784E+01 -0.26486779514E+02 -0.18666135495E+02  0.33562865317E+02  0.51100000000E-03 0.  1.
        -12    1    3    3    0    0 -0.11437691696E+02  0.10647084116E+02 -0.12771991689E+02  0.20181797819E+02  0.00000000000E+00 0.  1.
</event>
<event>
 7    1  0.5634483E-012  0.5930195E+02  0.7816164E-02  0.1266605E+00
        -11   -1    0    0    0    0  0.00000000000E+00  0.00000000000E+00  0.45593999997E+02  0.45594000000E+02  0.51100000000E-03 0.  1.
         11   -1    0    0    0    0 -0.00000000000E+00 -0.00000000000E+00 -0.45593999997E+02  0.45594000000E+02  0.51100000000E-03 0. -1.
    9900012    2    1    2    0    0 -0.91261933687E+01 -0.16103626666E+02  0.25963548208E+02  0.59301952381E+02  0.50000015235E+02 0.  0.
         12    1    1    2    0    0  0.91261933687E+01  0.16103626666E+02 -0.25963548208E+02  0.31886047619E+02  0.00000000000E+00 0. -1.
         11    1    3    3    0    0 -0.14320986760E+01 -0.11225891915E+02  0.17200756895E+02  0.20589744873E+02  0.51100000000E-03 0. -1.
        -11    1    3    3    0    0 -0.87748041663E+00 -0.20574252771E+02  0.49676781141E+01  0.21183665289E+02  0.51100000000E-03 0.  1.
         12    1    3    3    0    0 -0.68166142761E+01  0.15696518020E+02  0.37951131985E+01  0.17528542219E+02  0.00000000000E+00 0. -1.
</event>
<event>
 7    1  0.5634483E-012  0.5930197E+02  0.7816164E-02  0.1266605E+00
        -11   -1    0    0    0    0  0.00000000000E+00  0.00000000000E+00  0.45593999997E+02  0.45594000000E+02  0.51100000000E-03 0.  1.
         11   -1    0    0    0    0 -0.00000000000E+00 -0.00000000000E+00 -0.45593999997E+02  0.45594000000E+02  0.51100000000E-03 0. -1.
    9900012    2    1    2    0    0  0.31882460687E+02 -0.39210319077E+00  0.27211284269E+00  0.59301967168E+02  0.50000042202E+02 0.  0.
         12    1    1    2    0    0 -0.31882460687E+02  0.39210319077E+00 -0.27211284269E+00  0.31886032832E+02  0.00000000000E+00 0. -1.
         11    1    3    3    0    0 -0.39961198396E+01 -0.14833737416E+01  0.12025515922E+01  0.44289391532E+01  0.51100000000E-03 0. -1.
        -11    1    3    3    0    0 -0.28199994809E-01  0.92512562926E+01 -0.13148151063E+02  0.16076704105E+02  0.51100000000E-03 0.  1.
        -12    1    3    3    0    0  0.35906780522E+02 -0.81599857418E+01  0.12217712314E+02  0.38796323910E+02  0.00000000000E+00 0.  1.
</event>
<event>
 7    1  0.5634483E-012  0.5930197E+02  0.7816164E-02  0.1266605E+00
        -11   -1    0    0    0    0  0.00000000000E+00  0.00000000000E+00  0.45593999997E+02  0.45594000000E+02  0.51100000000E-03 0.  1.
         11   -1    0    0    0    0 -0.00000000000E+00 -0.00000000000E+00 -0.45593999997E+02  0.45594000000E+02  0.51100000000E-03 0. -1.
    9900012    2    1    2    0    0  0.77059054569E+01 -0.35476318122E+01  0.30736825019E+02  0.59301967280E+02  0.50000042406E+02 0.  0.
         12    1    1    2    0    0 -0.77059054569E+01  0.35476318122E+01 -0.30736825019E+02  0.31886032720E+02  0.00000000000E+00 0. -1.
         11    1    3    3    0    0 -0.27916514531E+01  0.18149118027E+02  0.23906877231E+02  0.30145025829E+02  0.51100000000E-03 0. -1.
        -11    1    3    3    0    0  0.78328958556E+01 -0.36322568992E+01 -0.20171813635E+01  0.88665984786E+01  0.51100000000E-03 0.  1.
        -12    1    3    3    0    0  0.26646610544E+01 -0.18064492940E+02  0.88471291515E+01  0.20290342973E+02  0.00000000000E+00 0.  1.
</event>
<event>
 7    1  0.5634483E-012  0.5930192E+02  0.7816164E-02  0.1266605E+00
        -11   -1    0    0    0    0  0.00000000000E+00  0.00000000000E+00  0.45593999997E+02  0.45594000000E+02  0.51100000000E-03 0.  1.
         11   -1    0    0    0    0 -0.00000000000E+00 -0.00000000000E+00 -0.45593999997E+02  0.45594000000E+02  0.51100000000E-03 0. -1.
    9900012    2    1    2    0    0  0.95973192306E+01  0.19439083604E+02  0.23382382901E+02  0.59301916234E+02  0.49999949311E+02 0.  0.
         12    1    1    2    0    0 -0.95973192306E+01 -0.19439083604E+02 -0.23382382901E+02  0.31886083766E+02  0.00000000000E+00 0. -1.
         11    1    3    3    0    0  0.48327400717E+01  0.11715871658E+01  0.17492448206E+02  0.18185536494E+02  0.51100000000E-03 0. -1.
        -11    1    3    3    0    0 -0.30365120741E+00  0.16091244246E+02  0.20172361851E+02  0.25805901037E+02  0.51100000000E-03 0.  1.
         12    1    3    3    0    0  0.50682303663E+01  0.21762521923E+01 -0.14282427155E+02  0.15310478703E+02  0.00000000000E+00 0. -1.
</event>
<event>
 7    1  0.5634483E-012  0.5930192E+02  0.7816164E-02  0.1266605E+00
        -11   -1    0    0    0    0  0.00000000000E+00  0.00000000000E+00  0.45593999997E+02  0.45594000000E+02  0.51100000000E-03 0.  1.
         11   -1    0    0    0    0 -0.00000000000E+00 -0.00000000000E+00 -0.45593999997E+02  0.45594000000E+02  0.51100000000E-03 0. -1.
    9900012    2    1    2    0    0  0.31078456468E+02  0.58893505683E+01 -0.40208088571E+01  0.59301924506E+02  0.49999964397E+02 0.  0.
         12    1    1    2    0    0 -0.31078456468E+02 -0.58893505683E+01  0.40208088571E+01  0.31886075494E+02  0.00000000000E+00 0. -1.
         11    1    3    3    0    0  0.98100442964E+01  0.73887106295E+01 -0.56045441225E+01  0.13499664031E+02  0.51100000000E-03 0. -1.
        -11    1    3    3    0    0 -0.24985292465E+01  0.13893699649E+02  0.87302556559E+01  0.16598039114E+02  0.51100000000E-03 0.  1.
        -12    1    3    3    0    0  0.23766941418E+02 -0.15393059710E+02 -0.71465203904E+01  0.29204221361E+02  0.00000000000E+00 0.  1.
</event>
<event>
 7    1  0.5634483E-012  0.5930200E+02  0.7816164E-02  0.1266605E+00
        -11   -1    0    0    0    0  0.00000000000E+00  0.00000000000E+00  0.45593999997E+02  0.45594000000E+02  0.51100000000E-03 0.  1.
         11   -1    0    0    0    0 -0.00000000000E+00 -0.00000000000E+00 -0.45593999997E+02  0.45594000000E+02  0.51100000000E-03 0. -1.
    9900012    2    1    2    0    0  0.31407404300E+02  0.38108946413E+01 -0.39710582172E+01  0.59301995763E+02  0.50000094352E+02 0.  0.
         12    1    1    2    0    0 -0.31407404300E+02 -0.38108946413E+01  0.39710582172E+01  0.31886004237E+02  0.00000000000E+00 0. -1.
         11    1    3    3    0    0 -0.52150051745E+01  0.53319694385E+01  0.71016775097E+01  0.10298543624E+02  0.51100000000E-03 0.  1.
        -11    1    3    3    0    0  0.94915272834E+01 -0.46191255706E+01 -0.17967916568E+02  0.20839180341E+02  0.51100000000E-03 0. -1.
        -12    1    3    3    0    0  0.27130882192E+02  0.30980507733E+01  0.68951808412E+01  0.28164271798E+02  0.00000000000E+00 0.  1.
</event>
<event>
 7    1  0.5634483E-012  0.5930193E+02  0.7816164E-02  0.1266605E+00
        -11   -1    0    0    0    0  0.00000000000E+00  0.00000000000E+00  0.45593999997E+02  0.45594000000E+02  0.51100000000E-03 0. -1.
         11   -1    0    0    0    0 -0.00000000000E+00 -0.00000000000E+00 -0.45593999997E+02  0.45594000000E+02  0.51100000000E-03 0.  1.
    9900012    2    1    2    0    0  0.16132306615E+02 -0.97850085010E+01 -0.25704548666E+02  0.59301928899E+02  0.49999972410E+02 0.  0.
         12    1    1    2    0    0 -0.16132306615E+02  0.97850085010E+01  0.25704548666E+02  0.31886071101E+02  0.00000000000E+00 0. -1.
         11    1    3    3    0    0 -0.45347161991E+01 -0.10439145787E+02 -0.21486173964E+01  0.11582571940E+02  0.51100000000E-03 0. -1.
        -11    1    3    3    0    0 -0.79266855618E+01 -0.49735368750E+01 -0.14398439804E+02  0.17172171735E+02  0.51100000000E-03 0.  1.
        -12    1    3    3    0    0  0.28593708376E+02  0.56276741613E+01 -0.91574914657E+01  0.30547185224E+02  0.00000000000E+00 0.  1.
</event>
<event>
 7    1  0.5634483E-012  0.5930194E+02  0.7816164E-02  0.1266605E+00
        -11   -1    0    0    0    0  0.00000000000E+00  0.00000000000E+00  0.45593999997E+02  0.45594000000E+02  0.51100000000E-03 0. -1.
         11   -1    0    0    0    0 -0.00000000000E+00 -0.00000000000E+00 -0.45593999997E+02  0.45594000000E+02  0.51100000000E-03 0.  1.
    9900012    2    1    2    0    0  0.29693544795E+02  0.11126868526E+02 -0.33476451295E+01  0.59301944527E+02  0.50000000911E+02 0.  0.
         12    1    1    2    0    0 -0.29693544795E+02 -0.11126868526E+02  0.33476451295E+01  0.31886055473E+02  0.00000000000E+00 0. -1.
         11    1    3    3    0    0  0.22618399842E+02  0.93493524175E+01  0.30834950055E+01  0.24668002427E+02  0.51100000000E-03 0. -1.
        -11    1    3    3    0    0  0.53304153745E+01  0.17409837245E+02 -0.21618710728E+01  0.18335469663E+02  0.51100000000E-03 0.  1.
         12    1    3    3    0    0  0.17447295787E+01 -0.15632321137E+02 -0.42692690623E+01  0.16298472437E+02  0.00000000000E+00 0. -1.
</event>
<event>
 7    1  0.5634483E-012  0.5930197E+02  0.7816164E-02  0.1266605E+00
        -11   -1    0    0    0    0  0.00000000000E+00  0.00000000000E+00  0.45593999997E+02  0.45594000000E+02  0.51100000000E-03 0. -1.
         11   -1    0    0    0    0 -0.00000000000E+00 -0.00000000000E+00 -0.45593999997E+02  0.45594000000E+02  0.51100000000E-03 0.  1.
    9900012    2    1    2    0    0  0.23491185113E+02 -0.17146488123E+02  0.13072154855E+02  0.59301967548E+02  0.50000042896E+02 0.  0.
         12    1    1    2    0    0 -0.23491185113E+02  0.17146488123E+02 -0.13072154855E+02  0.31886032452E+02  0.00000000000E+00 0. -1.
         11    1    3    3    0    0  0.41879026643E+01  0.40000311503E+01  0.15628976685E+02  0.16667444028E+02  0.51100000000E-03 0. -1.
        -11    1    3    3    0    0 -0.63743723920E+01  0.60602530054E+00  0.50234671453E+01  0.81384957134E+01  0.51100000000E-03 0.  1.
        -12    1    3    3    0    0  0.25677654840E+02 -0.21752544574E+02 -0.75802889754E+01  0.34496027807E+02  0.00000000000E+00 0.  1.
</event>
<event>
 7    1  0.5634483E-012  0.5930194E+02  0.7816164E-02  0.1266605E+00
        -11   -1    0    0    0    0  0.00000000000E+00  0.00000000000E+00  0.45593999997E+02  0.45594000000E+02  0.51100000000E-03 0.  1.
         11   -1    0    0    0    0 -0.00000000000E+00 -0.00000000000E+00 -0.45593999997E+02  0.45594000000E+02  0.51100000000E-03 0. -1.
    9900012    2    1    2    0    0 -0.42078039662E+01 -0.14926407462E+02  0.27860680111E+02  0.59301941132E+02  0.49999994718E+02 0.  0.
         12    1    1    2    0    0  0.42078039662E+01  0.14926407462E+02 -0.27860680111E+02  0.31886058868E+02  0.00000000000E+00 0. -1.
         11    1    3    3    0    0  0.11835250328E+02 -0.62276316278E+01  0.79005760768E+01  0.15533050204E+02  0.51100000000E-03 0. -1.
        -11    1    3    3    0    0  0.60333276544E+00 -0.19173925509E+02  0.11432811889E+02  0.22331874480E+02  0.51100000000E-03 0.  1.
         12    1    3    3    0    0 -0.16646387060E+02  0.10475149675E+02  0.85272921446E+01  0.21437016448E+02  0.00000000000E+00 0. -1.
</event>
<event>
 7    1  0.5634483E-012  0.5930196E+02  0.7816164E-02  0.1266605E+00
        -11   -1    0    0    0    0  0.00000000000E+00  0.00000000000E+00  0.45593999997E+02  0.45594000000E+02  0.51100000000E-03 0.  1.
         11   -1    0    0    0    0 -0.00000000000E+00 -0.00000000000E+00 -0.45593999997E+02  0.45594000000E+02  0.51100000000E-03 0. -1.
    9900012    2    1    2    0    0 -0.10206000439E+02 -0.14014719906E+02  0.26760885895E+02  0.59301955515E+02  0.50000020950E+02 0.  0.
         12    1    1    2    0    0  0.10206000439E+02  0.14014719906E+02 -0.26760885895E+02  0.31886044485E+02  0.00000000000E+00 0. -1.
         11    1    3    3    0    0 -0.38067816105E+01  0.11552591630E+02 -0.28249664649E+01  0.12487369435E+02  0.51100000000E-03 0. -1.
        -11    1    3    3    0    0 -0.64563009743E+01  0.33929404461E+01  0.52442254294E+01  0.89831936279E+01  0.51100000000E-03 0.  1.
         12    1    3    3    0    0  0.57082145371E-01 -0.28960251982E+02  0.24341626931E+02  0.37831392452E+02  0.00000000000E+00 0. -1.
</event>
<event>
 7    1  0.5634483E-012  0.5930193E+02  0.7816164E-02  0.1266605E+00
        -11   -1    0    0    0    0  0.00000000000E+00  0.00000000000E+00  0.45593999997E+02  0.45594000000E+02  0.51100000000E-03 0. -1.
         11   -1    0    0    0    0 -0.00000000000E+00 -0.00000000000E+00 -0.45593999997E+02  0.45594000000E+02  0.51100000000E-03 0.  1.
    9900012    2    1    2    0    0  0.14444965204E+02 -0.27063162923E+02 -0.86976862527E+01  0.59301928538E+02  0.49999971751E+02 0.  0.
         12    1    1    2    0    0 -0.14444965204E+02  0.27063162923E+02  0.86976862527E+01  0.31886071462E+02  0.00000000000E+00 0. -1.
         11    1    3    3    0    0 -0.64395668107E+00  0.52366829708E+01 -0.11827778638E+02  0.12951211392E+02  0.51100000000E-03 0.  1.
        -11    1    3    3    0    0 -0.71338883941E+01 -0.11080331705E+02 -0.57332208354E+01  0.14371358172E+02  0.51100000000E-03 0. -1.
         12    1    3    3    0    0  0.22222810279E+02 -0.21219514189E+02  0.88633132212E+01  0.31979358974E+02  0.00000000000E+00 0. -1.
</event>
<event>
 7    1  0.5634483E-012  0.5930195E+02  0.7816164E-02  0.1266605E+00
        -11   -1    0    0    0    0  0.00000000000E+00  0.00000000000E+00  0.45593999997E+02  0.45594000000E+02  0.51100000000E-03 0.  1.
         11   -1    0    0    0    0 -0.00000000000E+00 -0.00000000000E+00 -0.45593999997E+02  0.45594000000E+02  0.51100000000E-03 0. -1.
    9900012    2    1    2    0    0 -0.15564821512E+01  0.25764437411E+02  0.18721420719E+02  0.59301945595E+02  0.50000002858E+02 0.  0.
         12    1    1    2    0    0  0.15564821512E+01 -0.25764437411E+02 -0.18721420719E+02  0.31886054405E+02  0.00000000000E+00 0. -1.
         11    1    3    3    0    0 -0.14332486687E+02  0.96081454411E+01  0.14610500761E+02  0.22609806859E+02  0.51100000000E-03 0. -1.
        -11    1    3    3    0    0  0.68261963897E+00  0.20811458703E+02  0.92074445197E+01  0.22767516724E+02  0.51100000000E-03 0.  1.
         12    1    3    3    0    0  0.12093384896E+02 -0.46551667335E+01 -0.50965245621E+01  0.13924622012E+02  0.00000000000E+00 0. -1.
</event>
<event>
 7    1  0.5634483E-012  0.5930198E+02  0.7816164E-02  0.1266605E+00
        -11   -1    0    0    0    0  0.00000000000E+00  0.00000000000E+00  0.45593999997E+02  0.45594000000E+02  0.51100000000E-03 0.  1.
         11   -1    0    0    0    0 -0.00000000000E+00 -0.00000000000E+00 -0.45593999997E+02  0.45594000000E+02  0.51100000000E-03 0. -1.
    9900012    2    1    2    0    0 -0.20159648916E+02 -0.10185964138E+01  0.24683380085E+02  0.59301980564E+02  0.50000066633E+02 0.  0.
         12    1    1    2    0    0  0.20159648916E+02  0.10185964138E+01 -0.24683380085E+02  0.31886019436E+02  0.00000000000E+00 0. -1.
         11    1    3    3    0    0 -0.58011583424E+01 -0.12757029464E+01 -0.65191387463E+01  0.88192985195E+01  0.51100000000E-03 0. -1.
        -11    1    3    3    0    0 -0.51309596135E+01 -0.15958296650E+02  0.35658695711E+01  0.17137952170E+02  0.51100000000E-03 0.  1.
        -12    1    3    3    0    0 -0.92275309598E+01  0.16215403183E+02  0.27636649261E+02  0.33344729874E+02  0.00000000000E+00 0.  1.
</event>
<event>
 7    1  0.5634483E-012  0.5930195E+02  0.7816164E-02  0.1266605E+00
        -11   -1    0    0    0    0  0.00000000000E+00  0.00000000000E+00  0.45593999997E+02  0.45594000000E+02  0.51100000000E-03 0. -1.
         11   -1    0    0    0    0 -0.00000000000E+00 -0.00000000000E+00 -0.45593999997E+02  0.45594000000E+02  0.51100000000E-03 0.  1.
    9900012    2    1    2    0    0  0.10356904818E+02 -0.11254910927E+02 -0.27978238017E+02  0.59301948192E+02  0.50000007595E+02 0.  0.
         12    1    1    2    0    0 -0.10356904818E+02  0.11254910927E+02  0.27978238017E+02  0.31886051808E+02  0.00000000000E+00 0. -1.
         11    1    3    3    0    0 -0.43327506584E+01  0.12879465856E+02 -0.14261845055E+02  0.19699075959E+02  0.51100000000E-03 0. -1.
        -11    1    3    3    0    0 -0.10286206869E+01 -0.14242722781E+02 -0.15343080748E+02  0.20960041504E+02  0.51100000000E-03 0.  1.
         12    1    3    3    0    0  0.15718276163E+02 -0.98916540022E+01  0.16266877865E+01  0.18642830729E+02  0.00000000000E+00 0. -1.
</event>
<event>
 7    1  0.5634483E-012  0.5930192E+02  0.7816164E-02  0.1266605E+00
        -11   -1    0    0    0    0  0.00000000000E+00  0.00000000000E+00  0.45593999997E+02  0.45594000000E+02  0.51100000000E-03 0.  1.
         11   -1    0    0    0    0 -0.00000000000E+00 -0.00000000000E+00 -0.45593999997E+02  0.45594000000E+02  0.51100000000E-03 0. -1.
    9900012    2    1    2    0    0  0.23664620411E+02  0.21102528062E+02  0.33751195088E+01  0.59301915550E+02  0.49999948064E+02 0.  0.
         12    1    1    2    0    0 -0.23664620411E+02 -0.21102528062E+02 -0.33751195088E+01  0.31886084450E+02  0.00000000000E+00 0. -1.
         11    1    3    3    0    0  0.15774675974E+02  0.15416749436E+02 -0.15961037251E+01  0.22114793977E+02  0.51100000000E-03 0. -1.
        -11    1    3    3    0    0  0.12172975568E+02  0.12510995920E+02  0.15898098514E+02  0.23610503800E+02  0.51100000000E-03 0.  1.
         12    1    3    3    0    0 -0.42830311312E+01 -0.68252172937E+01 -0.10926875280E+02  0.13576617773E+02  0.00000000000E+00 0. -1.
</event>
<event>
 7    1  0.5634483E-012  0.5930196E+02  0.7816164E-02  0.1266605E+00
        -11   -1    0    0    0    0  0.00000000000E+00  0.00000000000E+00  0.45593999997E+02  0.45594000000E+02  0.51100000000E-03 0.  1.
         11   -1    0    0    0    0 -0.00000000000E+00 -0.00000000000E+00 -0.45593999997E+02  0.45594000000E+02  0.51100000000E-03 0. -1.
    9900012    2    1    2    0    0  0.94746685584E+01 -0.17540220106E+02  0.24885561750E+02  0.59301955259E+02  0.50000020483E+02 0.  0.
         12    1    1    2    0    0 -0.94746685584E+01  0.17540220106E+02 -0.24885561750E+02  0.31886044741E+02  0.00000000000E+00 0. -1.
         11    1    3    3    0    0 -0.94005679123E+01  0.67156576971E+01  0.44081784020E+01  0.12365386062E+02  0.51100000000E-03 0. -1.
        -11    1    3    3    0    0 -0.51258805697E+01 -0.46471271741E+01 -0.34978717682E+01  0.77527769060E+01  0.51100000000E-03 0.  1.
        -12    1    3    3    0    0  0.24001117040E+02 -0.19608750629E+02  0.23975255116E+02  0.39183792291E+02  0.00000000000E+00 0.  1.
</event>
<event>
 7    1  0.5634483E-012  0.5930193E+02  0.7816164E-02  0.1266605E+00
        -11   -1    0    0    0    0  0.00000000000E+00  0.00000000000E+00  0.45593999997E+02  0.45594000000E+02  0.51100000000E-03 0.  1.
         11   -1    0    0    0    0 -0.00000000000E+00 -0.00000000000E+00 -0.45593999997E+02  0.45594000000E+02  0.51100000000E-03 0. -1.
    9900012    2    1    2    0    0  0.99710190383E+01  0.28485975748E+02  0.10288306857E+02  0.59301932620E+02  0.49999979196E+02 0.  0.
         12    1    1    2    0    0 -0.99710190383E+01 -0.28485975748E+02 -0.10288306857E+02  0.31886067380E+02  0.00000000000E+00 0. -1.
         11    1    3    3    0    0  0.15865725541E+02  0.17895148675E+02 -0.87075506494E+01  0.25451503524E+02  0.51100000000E-03 0.  1.
        -11    1    3    3    0    0 -0.50867107660E+01 -0.64622712439E+01 -0.11454809269E+00  0.82248828303E+01  0.51100000000E-03 0. -1.
        -12    1    3    3    0    0 -0.80799573689E+00  0.17053098316E+02  0.19110405599E+02  0.25625546266E+02  0.00000000000E+00 0.  1.
</event>
<event>
 7    1  0.5634483E-012  0.5930193E+02  0.7816164E-02  0.1266605E+00
        -11   -1    0    0    0    0  0.00000000000E+00  0.00000000000E+00  0.45593999997E+02  0.45594000000E+02  0.51100000000E-03 0.  1.
         11   -1    0    0    0    0 -0.00000000000E+00 -0.00000000000E+00 -0.45593999997E+02  0.45594000000E+02  0.51100000000E-03 0. -1.
    9900012    2    1    2    0    0 -0.24510146808E+02  0.20393732453E+02 -0.26396815398E+00  0.59301932524E+02  0.49999979019E+02 0.  0.
         12    1    1    2    0    0  0.24510146808E+02 -0.20393732453E+02  0.26396815398E+00  0.31886067476E+02  0.00000000000E+00 0. -1.
         11    1    3    3    0    0  0.22927611438E+00 -0.31573424276E+01  0.99756735183E+01  0.10465918075E+02  0.51100000000E-03 0.  1.
        -11    1    3    3    0    0  0.64604605006E+01  0.96915034480E+01 -0.89201899866E+01  0.14670807020E+02  0.51100000000E-03 0. -1.
         12    1    3    3    0    0 -0.31199883423E+02  0.13859571433E+02 -0.13194516857E+01  0.34165207429E+02  0.00000000000E+00 0. -1.
</event>
<event>
 7    1  0.5634483E-012  0.5930202E+02  0.7816164E-02  0.1266605E+00
        -11   -1    0    0    0    0  0.00000000000E+00  0.00000000000E+00  0.45593999997E+02  0.45594000000E+02  0.51100000000E-03 0.  1.
         11   -1    0    0    0    0 -0.00000000000E+00 -0.00000000000E+00 -0.45593999997E+02  0.45594000000E+02  0.51100000000E-03 0. -1.
    9900012    2    1    2    0    0  0.27697610454E+02 -0.14976214049E+02  0.50270491743E+01  0.59302018198E+02  0.50000135268E+02 0.  0.
         12    1    1    2    0    0 -0.27697610454E+02  0.14976214049E+02 -0.50270491743E+01  0.31885981802E+02  0.00000000000E+00 0. -1.
         11    1    3    3    0    0 -0.68751860858E+00 -0.63466401627E+01 -0.67676678840E+01  0.93034322720E+01  0.51100000000E-03 0. -1.
        -11    1    3    3    0    0 -0.81738419802E+01 -0.70680800418E+01  0.75031538124E+01  0.13155484240E+02  0.51100000000E-03 0.  1.
        -12    1    3    3    0    0  0.36558971043E+02 -0.15614938447E+01  0.42915632458E+01  0.36843101686E+02  0.00000000000E+00 0.  1.
</event>
<event>
 7    1  0.5634483E-012  0.5930197E+02  0.7816164E-02  0.1266605E+00
        -11   -1    0    0    0    0  0.00000000000E+00  0.00000000000E+00  0.45593999997E+02  0.45594000000E+02  0.51100000000E-03 0.  1.
         11   -1    0    0    0    0 -0.00000000000E+00 -0.00000000000E+00 -0.45593999997E+02  0.45594000000E+02  0.51100000000E-03 0. -1.
    9900012    2    1    2    0    0  0.13976609474E+02  0.53402255832E+01  0.28157685562E+02  0.59301970491E+02  0.50000048262E+02 0.  0.
         12    1    1    2    0    0 -0.13976609474E+02 -0.53402255832E+01 -0.28157685562E+02  0.31886029509E+02  0.00000000000E+00 0. -1.
         11    1    3    3    0    0  0.12735418220E+02  0.27201947570E+01  0.25166046448E+02  0.28335847099E+02  0.51100000000E-03 0. -1.
        -11    1    3    3    0    0  0.10084112696E+02  0.99734498379E+01  0.10130763271E+02  0.17429612596E+02  0.51100000000E-03 0.  1.
         12    1    3    3    0    0 -0.88429214422E+01 -0.73534190118E+01 -0.71391241565E+01  0.13536510796E+02  0.00000000000E+00 0. -1.
</event>
<event>
 7    1  0.5634483E-012  0.5930196E+02  0.7816164E-02  0.1266605E+00
        -11   -1    0    0    0    0  0.00000000000E+00  0.00000000000E+00  0.45593999997E+02  0.45594000000E+02  0.51100000000E-03 0. -1.
         11   -1    0    0    0    0 -0.00000000000E+00 -0.00000000000E+00 -0.45593999997E+02  0.45594000000E+02  0.51100000000E-03 0.  1.
    9900012    2    1    2    0    0 -0.26007982181E+02  0.11016091547E+02 -0.14796961679E+02  0.59301960970E+02  0.50000030898E+02 0.  0.
         12    1    1    2    0    0  0.26007982181E+02 -0.11016091547E+02  0.14796961679E+02  0.31886039030E+02  0.00000000000E+00 0. -1.
         11    1    3    3    0    0 -0.17218911822E+02  0.15765537662E+02  0.57591220013E+01  0.24046009827E+02  0.51100000000E-03 0. -1.
        -11    1    3    3    0    0 -0.13944366088E+02  0.43038808738E+01 -0.30873927632E+01  0.14916458377E+02  0.51100000000E-03 0.  1.
        -12    1    3    3    0    0  0.51552957290E+01 -0.90533269889E+01 -0.17468690918E+02  0.20339492766E+02  0.00000000000E+00 0.  1.
</event>
<event>
 7    1  0.5634483E-012  0.5930194E+02  0.7816164E-02  0.1266605E+00
        -11   -1    0    0    0    0  0.00000000000E+00  0.00000000000E+00  0.45593999997E+02  0.45594000000E+02  0.51100000000E-03 0. -1.
         11   -1    0    0    0    0 -0.00000000000E+00 -0.00000000000E+00 -0.45593999997E+02  0.45594000000E+02  0.51100000000E-03 0.  1.
    9900012    2    1    2    0    0 -0.81392272515E+01  0.15620428502E+02 -0.26579614523E+02  0.59301941682E+02  0.49999995722E+02 0.  0.
         12    1    1    2    0    0  0.81392272515E+01 -0.15620428502E+02  0.26579614523E+02  0.31886058318E+02  0.00000000000E+00 0. -1.
         11    1    3    3    0    0  0.11410579451E+02  0.33065413736E+01  0.35464911028E+01  0.12398069957E+02  0.51100000000E-03 0. -1.
        -11    1    3    3    0    0  0.27888414819E+01 -0.62280236352E+01 -0.71195893691E+01  0.98617680087E+01  0.51100000000E-03 0.  1.
         12    1    3    3    0    0 -0.22338648184E+02  0.18541910764E+02 -0.23006516257E+02  0.37042103717E+02  0.00000000000E+00 0. -1.
</event>
<event>
 7    1  0.5634483E-012  0.5930195E+02  0.7816164E-02  0.1266605E+00
        -11   -1    0    0    0    0  0.00000000000E+00  0.00000000000E+00  0.45593999997E+02  0.45594000000E+02  0.51100000000E-03 0. -1.
         11   -1    0    0    0    0 -0.00000000000E+00 -0.00000000000E+00 -0.45593999997E+02  0.45594000000E+02  0.51100000000E-03 0.  1.
    9900012    2    1    2    0    0 -0.23218637332E+02 -0.14971620776E+02  0.15920594473E+02  0.59301954830E+02  0.50000019701E+02 0.  0.
         12    1    1    2    0    0  0.23218637332E+02  0.14971620776E+02 -0.15920594473E+02  0.31886045170E+02  0.00000000000E+00 0. -1.
         11    1    3    3    0    0 -0.12492895744E+02  0.48993901552E+01  0.16017759974E+02  0.20896054718E+02  0.51100000000E-03 0. -1.
        -11    1    3    3    0    0 -0.63778548510E+01  0.56675513218E+01 -0.76096067328E+01  0.11432597490E+02  0.51100000000E-03 0.  1.
        -12    1    3    3    0    0 -0.43478867370E+01 -0.25538562253E+02  0.75124412322E+01  0.26973302622E+02  0.00000000000E+00 0.  1.
</event>
<event>
 7    1  0.5634483E-012  0.5930202E+02  0.7816164E-02  0.1266605E+00
        -11   -1    0    0    0    0  0.00000000000E+00  0.00000000000E+00  0.45593999997E+02  0.45594000000E+02  0.51100000000E-03 0. -1.
         11   -1    0    0    0    0 -0.00000000000E+00 -0.00000000000E+00 -0.45593999997E+02  0.45594000000E+02  0.51100000000E-03 0.  1.
    9900012    2    1    2    0    0 -0.15229149691E+01  0.31604935957E+02  0.39401462321E+01  0.59302015631E+02  0.50000130586E+02 0.  0.
         12    1    1    2    0    0  0.15229149691E+01 -0.31604935957E+02 -0.39401462321E+01  0.31885984369E+02  0.00000000000E+00 0. -1.
         11    1    3    3    0    0  0.90150793871E-01  0.17387062124E+02 -0.22088074673E+01  0.17527033039E+02  0.51100000000E-03 0. -1.
        -11    1    3    3    0    0 -0.11098851927E+02  0.19382309763E+02 -0.82197950573E+01  0.23799652874E+02  0.51100000000E-03 0.  1.
         12    1    3    3    0    0  0.94857861643E+01 -0.51644359299E+01  0.14368748757E+02  0.17975329718E+02  0.00000000000E+00 0. -1.
</event>
<event>
 7    1  0.5634483E-012  0.5930193E+02  0.7816164E-02  0.1266605E+00
        -11   -1    0    0    0    0  0.00000000000E+00  0.00000000000E+00  0.45593999997E+02  0.45594000000E+02  0.51100000000E-03 0. -1.
         11   -1    0    0    0    0 -0.00000000000E+00 -0.00000000000E+00 -0.45593999997E+02  0.45594000000E+02  0.51100000000E-03 0.  1.
    9900012    2    1    2    0    0  0.11070346862E+02  0.18968769501E+02 -0.23116109567E+02  0.59301932234E+02  0.49999978492E+02 0.  0.
         12    1    1    2    0    0 -0.11070346862E+02 -0.18968769501E+02  0.23116109567E+02  0.31886067766E+02  0.00000000000E+00 0. -1.
         11    1    3    3    0    0  0.13290614189E+02  0.49486399120E+00 -0.64429014668E+00  0.13315420607E+02  0.51100000000E-03 0. -1.
        -11    1    3    3    0    0  0.10337895620E+02 -0.12311893720E+01 -0.19925723827E+02  0.22481600998E+02  0.51100000000E-03 0.  1.
         12    1    3    3    0    0 -0.12558162947E+02  0.19705094882E+02 -0.25460955934E+01  0.23504910630E+02  0.00000000000E+00 0. -1.
</event>
<event>
 7    1  0.5634483E-012  0.5930196E+02  0.7816164E-02  0.1266605E+00
        -11   -1    0    0    0    0  0.00000000000E+00  0.00000000000E+00  0.45593999997E+02  0.45594000000E+02  0.51100000000E-03 0.  1.
         11   -1    0    0    0    0 -0.00000000000E+00 -0.00000000000E+00 -0.45593999997E+02  0.45594000000E+02  0.51100000000E-03 0. -1.
    9900012    2    1    2    0    0 -0.29621804601E+01  0.21185411903E+02  0.23645788394E+02  0.59301960745E+02  0.50000030489E+02 0.  0.
         12    1    1    2    0    0  0.29621804601E+01 -0.21185411903E+02 -0.23645788394E+02  0.31886039255E+02  0.00000000000E+00 0. -1.
         11    1    3    3    0    0 -0.63029987184E+01 -0.91596666079E+01  0.13242491821E+02  0.17291352610E+02  0.51100000000E-03 0. -1.
        -11    1    3    3    0    0 -0.10538627791E+02  0.10625578712E+02  0.98001893170E+01  0.17888804029E+02  0.51100000000E-03 0.  1.
         12    1    3    3    0    0  0.13879446049E+02  0.19719499799E+02  0.60310725607E+00  0.24121804106E+02  0.00000000000E+00 0. -1.
</event>
<event>
 7    1  0.5634483E-012  0.5930192E+02  0.7816164E-02  0.1266605E+00
        -11   -1    0    0    0    0  0.00000000000E+00  0.00000000000E+00  0.45593999997E+02  0.45594000000E+02  0.51100000000E-03 0.  1.
         11   -1    0    0    0    0 -0.00000000000E+00 -0.00000000000E+00 -0.45593999997E+02  0.45594000000E+02  0.51100000000E-03 0. -1.
    9900012    2    1    2    0    0  0.30415749602E+02 -0.94108412336E+01  0.17435851765E+01  0.59301923950E+02  0.49999963383E+02 0.  0.
         12    1    1    2    0    0 -0.30415749602E+02  0.94108412336E+01 -0.17435851765E+01  0.31886076050E+02  0.00000000000E+00 0. -1.
         11    1    3    3    0    0  0.12296093391E+02 -0.10803767287E+02 -0.60188686715E+01  0.17439669740E+02  0.51100000000E-03 0. -1.
        -11    1    3    3    0    0  0.24389260796E+02 -0.98612748275E+01  0.11101418077E+02  0.28553848549E+02  0.51100000000E-03 0.  1.
         12    1    3    3    0    0 -0.62696045848E+01  0.11254200881E+02 -0.33389642289E+01  0.13308405661E+02  0.00000000000E+00 0. -1.
</event>
<event>
 7    1  0.5634483E-012  0.5930194E+02  0.7816164E-02  0.1266605E+00
        -11   -1    0    0    0    0  0.00000000000E+00  0.00000000000E+00  0.45593999997E+02  0.45594000000E+02  0.51100000000E-03 0. -1.
         11   -1    0    0    0    0 -0.00000000000E+00 -0.00000000000E+00 -0.45593999997E+02  0.45594000000E+02  0.51100000000E-03 0.  1.
    9900012    2    1    2    0    0 -0.81498933606E+01 -0.12923376957E+02 -0.27987258116E+02  0.59301936420E+02  0.49999986126E+02 0.  0.
         12    1    1    2    0    0  0.81498933606E+01  0.12923376957E+02  0.27987258116E+02  0.31886063580E+02  0.00000000000E+00 0. -1.
         11    1    3    3    0    0 -0.28511523849E+01  0.79580711968E+00  0.33196491041E+01  0.44477465450E+01  0.51100000000E-03 0. -1.
        -11    1    3    3    0    0 -0.61819148224E+01  0.14284006580E+02 -0.48066110443E+01  0.16289641642E+02  0.51100000000E-03 0.  1.
        -12    1    3    3    0    0  0.88317384660E+00 -0.28003190657E+02 -0.26500296176E+02  0.38564548233E+02  0.00000000000E+00 0.  1.
</event>
<event>
 7    1  0.5634483E-012  0.5930188E+02  0.7816164E-02  0.1266605E+00
        -11   -1    0    0    0    0  0.00000000000E+00  0.00000000000E+00  0.45593999997E+02  0.45594000000E+02  0.51100000000E-03 0.  1.
         11   -1    0    0    0    0 -0.00000000000E+00 -0.00000000000E+00 -0.45593999997E+02  0.45594000000E+02  0.51100000000E-03 0. -1.
    9900012    2    1    2    0    0  0.18227644221E+02 -0.22738789822E+02  0.12939289179E+02  0.59301877927E+02  0.49999879447E+02 0.  0.
         12    1    1    2    0    0 -0.18227644221E+02  0.22738789822E+02 -0.12939289179E+02  0.31886122073E+02  0.00000000000E+00 0. -1.
         11    1    3    3    0    0  0.94970040587E+01  0.51008400726E+01 -0.11827776298E+02  0.16003373018E+02  0.51100000000E-03 0. -1.
        -11    1    3    3    0    0 -0.21697964089E+00 -0.21075348369E+01  0.13749289853E+02  0.13911569105E+02  0.51100000000E-03 0.  1.
        -12    1    3    3    0    0  0.89476198035E+01 -0.25732095057E+02  0.11017775624E+02  0.29386935803E+02  0.00000000000E+00 0.  1.
</event>
<event>
 7    1  0.5634483E-012  0.5930194E+02  0.7816164E-02  0.1266605E+00
        -11   -1    0    0    0    0  0.00000000000E+00  0.00000000000E+00  0.45593999997E+02  0.45594000000E+02  0.51100000000E-03 0.  1.
         11   -1    0    0    0    0 -0.00000000000E+00 -0.00000000000E+00 -0.45593999997E+02  0.45594000000E+02  0.51100000000E-03 0. -1.
    9900012    2    1    2    0    0  0.27596866981E+02  0.13871786032E+02  0.79187855228E+01  0.59301942246E+02  0.49999996751E+02 0.  0.
         12    1    1    2    0    0 -0.27596866981E+02 -0.13871786032E+02 -0.79187855228E+01  0.31886057754E+02  0.00000000000E+00 0. -1.
         11    1    3    3    0    0  0.29463680531E+02  0.93761783802E+01 -0.10890228279E+02  0.32781370680E+02  0.51100000000E-03 0. -1.
        -11    1    3    3    0    0  0.27934966129E+01  0.77099786781E+01  0.15354916249E+01  0.83429688562E+01  0.51100000000E-03 0.  1.
        -12    1    3    3    0    0 -0.46603101625E+01 -0.32143710260E+01  0.17273522177E+02  0.18177602710E+02  0.00000000000E+00 0.  1.
</event>
<event>
 7    1  0.5634483E-012  0.5930197E+02  0.7816164E-02  0.1266605E+00
        -11   -1    0    0    0    0  0.00000000000E+00  0.00000000000E+00  0.45593999997E+02  0.45594000000E+02  0.51100000000E-03 0. -1.
         11   -1    0    0    0    0 -0.00000000000E+00 -0.00000000000E+00 -0.45593999997E+02  0.45594000000E+02  0.51100000000E-03 0.  1.
    9900012    2    1    2    0    0 -0.17052746091E+02  0.16357047239E+02 -0.21409565546E+02  0.59301974213E+02  0.50000055051E+02 0.  0.
         12    1    1    2    0    0  0.17052746091E+02 -0.16357047239E+02  0.21409565546E+02  0.31886025787E+02  0.00000000000E+00 0. -1.
         11    1    3    3    0    0  0.42660921751E+01  0.75850815798E+01 -0.13271696465E+02  0.15870442096E+02  0.51100000000E-03 0. -1.
        -11    1    3    3    0    0 -0.60107208917E+01  0.21178205710E+02  0.25070115159E+00  0.22016085348E+02  0.51100000000E-03 0.  1.
         12    1    3    3    0    0 -0.15308117375E+02 -0.12406240051E+02 -0.83885702328E+01  0.21415446769E+02  0.00000000000E+00 0. -1.
</event>
<event>
 7    1  0.5634483E-012  0.5930189E+02  0.7816164E-02  0.1266605E+00
        -11   -1    0    0    0    0  0.00000000000E+00  0.00000000000E+00  0.45593999997E+02  0.45594000000E+02  0.51100000000E-03 0.  1.
         11   -1    0    0    0    0 -0.00000000000E+00 -0.00000000000E+00 -0.45593999997E+02  0.45594000000E+02  0.51100000000E-03 0. -1.
    9900012    2    1    2    0    0  0.74073605186E+01  0.31008724859E+02 -0.56009564185E+00  0.59301894650E+02  0.49999909947E+02 0.  0.
         12    1    1    2    0    0 -0.74073605186E+01 -0.31008724859E+02  0.56009564185E+00  0.31886105350E+02  0.00000000000E+00 0. -1.
         11    1    3    3    0    0  0.71457990793E+00 -0.56474950166E+01  0.67867419982E+01  0.88580297820E+01  0.51100000000E-03 0. -1.
        -11    1    3    3    0    0 -0.59717466755E+01  0.27512735567E+02  0.72424705347E+01  0.29070014731E+02  0.51100000000E-03 0.  1.
         12    1    3    3    0    0  0.12664527286E+02  0.91434843086E+01 -0.14589308175E+02  0.21373850138E+02  0.00000000000E+00 0. -1.
</event>
<event>
 7    1  0.5634483E-012  0.5930194E+02  0.7816164E-02  0.1266605E+00
        -11   -1    0    0    0    0  0.00000000000E+00  0.00000000000E+00  0.45593999997E+02  0.45594000000E+02  0.51100000000E-03 0. -1.
         11   -1    0    0    0    0 -0.00000000000E+00 -0.00000000000E+00 -0.45593999997E+02  0.45594000000E+02  0.51100000000E-03 0.  1.
    9900012    2    1    2    0    0 -0.45702350951E+01  0.11360610185E+02 -0.29440964466E+02  0.59301938762E+02  0.49999990396E+02 0.  0.
         12    1    1    2    0    0  0.45702350951E+01 -0.11360610185E+02  0.29440964466E+02  0.31886061238E+02  0.00000000000E+00 0. -1.
         11    1    3    3    0    0  0.73462311525E+01 -0.55330035655E+01 -0.13810404244E+01  0.92999200812E+01  0.51100000000E-03 0. -1.
        -11    1    3    3    0    0 -0.82951808695E+01 -0.87935747679E+01 -0.42085545013E+00  0.12096036641E+02  0.51100000000E-03 0.  1.
        -12    1    3    3    0    0 -0.36212853782E+01  0.25687188518E+02 -0.27639068592E+02  0.37905982039E+02  0.00000000000E+00 0.  1.
</event>
<event>
 7    1  0.5634483E-012  0.5930195E+02  0.7816164E-02  0.1266605E+00
        -11   -1    0    0    0    0  0.00000000000E+00  0.00000000000E+00  0.45593999997E+02  0.45594000000E+02  0.51100000000E-03 0.  1.
         11   -1    0    0    0    0 -0.00000000000E+00 -0.00000000000E+00 -0.45593999997E+02  0.45594000000E+02  0.51100000000E-03 0. -1.
    9900012    2    1    2    0    0  0.14460575811E+02  0.26006536361E+02  0.11457411727E+02  0.59301945529E+02  0.50000002738E+02 0.  0.
         12    1    1    2    0    0 -0.14460575811E+02 -0.26006536361E+02 -0.11457411727E+02  0.31886054471E+02  0.00000000000E+00 0. -1.
         11    1    3    3    0    0  0.28419143601E+01  0.10673120401E+02 -0.67038575039E+01  0.12920281809E+02  0.51100000000E-03 0. -1.
        -11    1    3    3    0    0  0.94639905687E+01  0.26540018146E+02  0.20355964695E+02  0.34760681518E+02  0.51100000000E-03 0.  1.
         12    1    3    3    0    0  0.21546708818E+01 -0.11206602186E+02 -0.21946954644E+01  0.11620982202E+02  0.00000000000E+00 0. -1.
</event>
<event>
 7    1  0.5634483E-012  0.5930195E+02  0.7816164E-02  0.1266605E+00
        -11   -1    0    0    0    0  0.00000000000E+00  0.00000000000E+00  0.45593999997E+02  0.45594000000E+02  0.51100000000E-03 0.  1.
         11   -1    0    0    0    0 -0.00000000000E+00 -0.00000000000E+00 -0.45593999997E+02  0.45594000000E+02  0.51100000000E-03 0. -1.
    9900012    2    1    2    0    0 -0.23740042570E+02 -0.15754376562E+02 -0.14315387132E+02  0.59301948021E+02  0.50000007283E+02 0.  0.
         12    1    1    2    0    0  0.23740042570E+02  0.15754376562E+02  0.14315387132E+02  0.31886051979E+02  0.00000000000E+00 0. -1.
         11    1    3    3    0    0  0.69414405852E+01  0.67273024965E+01 -0.11534565698E+02  0.15049465186E+02  0.51100000000E-03 0. -1.
        -11    1    3    3    0    0 -0.84317273401E+01  0.35652925524E+01  0.27362919357E+01  0.95547177217E+01  0.51100000000E-03 0.  1.
        -12    1    3    3    0    0 -0.22249755815E+02 -0.26046971611E+02 -0.55171133692E+01  0.34697765113E+02  0.00000000000E+00 0.  1.
</event>
<event>
 7    1  0.5634483E-012  0.5930195E+02  0.7816164E-02  0.1266605E+00
        -11   -1    0    0    0    0  0.00000000000E+00  0.00000000000E+00  0.45593999997E+02  0.45594000000E+02  0.51100000000E-03 0.  1.
         11   -1    0    0    0    0 -0.00000000000E+00 -0.00000000000E+00 -0.45593999997E+02  0.45594000000E+02  0.51100000000E-03 0. -1.
    9900012    2    1    2    0    0  0.11267798771E+02 -0.29746567792E+02 -0.22133210263E+01  0.59301947022E+02  0.50000005461E+02 0.  0.
         12    1    1    2    0    0 -0.11267798771E+02  0.29746567792E+02  0.22133210263E+01  0.31886052978E+02  0.00000000000E+00 0. -1.
         11    1    3    3    0    0  0.16808604281E+02 -0.16714587831E+02  0.10971543778E+02  0.26120516790E+02  0.51100000000E-03 0. -1.
        -11    1    3    3    0    0  0.10744101888E+02 -0.39538768405E+01 -0.25928935950E+01  0.11738482224E+02  0.51100000000E-03 0.  1.
         12    1    3    3    0    0 -0.16284907398E+02 -0.90781031206E+01 -0.10591971209E+02  0.21442948009E+02  0.00000000000E+00 0. -1.
</event>
<event>
 7    1  0.5634483E-012  0.5930190E+02  0.7816164E-02  0.1266605E+00
        -11   -1    0    0    0    0  0.00000000000E+00  0.00000000000E+00  0.45593999997E+02  0.45594000000E+02  0.51100000000E-03 0. -1.
         11   -1    0    0    0    0 -0.00000000000E+00 -0.00000000000E+00 -0.45593999997E+02  0.45594000000E+02  0.51100000000E-03 0.  1.
    9900012    2    1    2    0    0 -0.14944556767E+02 -0.23747240114E+01 -0.28066778958E+02  0.59301903152E+02  0.49999925453E+02 0.  0.
         12    1    1    2    0    0  0.14944556767E+02  0.23747240114E+01  0.28066778958E+02  0.31886096848E+02  0.00000000000E+00 0. -1.
         11    1    3    3    0    0 -0.83980327698E+01 -0.48607996987E+01  0.10179941228E+02  0.14063624418E+02  0.51100000000E-03 0. -1.
        -11    1    3    3    0    0  0.60352122362E+01 -0.40632108663E+01 -0.43094303696E+01  0.84560427891E+01  0.51100000000E-03 0.  1.
         12    1    3    3    0    0 -0.12581736234E+02  0.65492865536E+01 -0.33937289817E+02  0.36782235945E+02  0.00000000000E+00 0. -1.
</event>
<event>
 7    1  0.5634483E-012  0.5930195E+02  0.7816164E-02  0.1266605E+00
        -11   -1    0    0    0    0  0.00000000000E+00  0.00000000000E+00  0.45593999997E+02  0.45594000000E+02  0.51100000000E-03 0.  1.
         11   -1    0    0    0    0 -0.00000000000E+00 -0.00000000000E+00 -0.45593999997E+02  0.45594000000E+02  0.51100000000E-03 0. -1.
    9900012    2    1    2    0    0 -0.12772947736E+02  0.26858060331E+02  0.11498559156E+02  0.59301945662E+02  0.50000002980E+02 0.  0.
         12    1    1    2    0    0  0.12772947736E+02 -0.26858060331E+02 -0.11498559156E+02  0.31886054338E+02  0.00000000000E+00 0. -1.
         11    1    3    3    0    0  0.31921746964E+00  0.48225992841E+01  0.53686057586E+01  0.72236619315E+01  0.51100000000E-03 0. -1.
        -11    1    3    3    0    0  0.13947745234E+02 -0.45052335831E+00 -0.55550300915E+01  0.15020017576E+02  0.51100000000E-03 0.  1.
        -12    1    3    3    0    0 -0.27039910440E+02  0.22485984405E+02  0.11684983489E+02  0.37058266154E+02  0.00000000000E+00 0.  1.
</event>
<event>
 7    1  0.5634483E-012  0.5930195E+02  0.7816164E-02  0.1266605E+00
        -11   -1    0    0    0    0  0.00000000000E+00  0.00000000000E+00  0.45593999997E+02  0.45594000000E+02  0.51100000000E-03 0. -1.
         11   -1    0    0    0    0 -0.00000000000E+00 -0.00000000000E+00 -0.45593999997E+02  0.45594000000E+02  0.51100000000E-03 0.  1.
    9900012    2    1    2    0    0 -0.32621608524E+01 -0.13555947655E+02 -0.28676027124E+02  0.59301953807E+02  0.50000017835E+02 0.  0.
         12    1    1    2    0    0  0.32621608524E+01  0.13555947655E+02  0.28676027124E+02  0.31886046193E+02  0.00000000000E+00 0. -1.
         11    1    3    3    0    0  0.47624583148E+01  0.32592720383E+01 -0.39648429947E+01  0.70017029110E+01  0.51100000000E-03 0. -1.
        -11    1    3    3    0    0  0.16069944321E+02 -0.14755524060E+02 -0.13398938258E+02  0.25602737109E+02  0.51100000000E-03 0.  1.
        -12    1    3    3    0    0 -0.24094563488E+02 -0.20596956329E+01 -0.11312245871E+02  0.26697513787E+02  0.00000000000E+00 0.  1.
</event>
<event>
 7    1  0.5634483E-012  0.5930195E+02  0.7816164E-02  0.1266605E+00
        -11   -1    0    0    0    0  0.00000000000E+00  0.00000000000E+00  0.45593999997E+02  0.45594000000E+02  0.51100000000E-03 0.  1.
         11   -1    0    0    0    0 -0.00000000000E+00 -0.00000000000E+00 -0.45593999997E+02  0.45594000000E+02  0.51100000000E-03 0. -1.
    9900012    2    1    2    0    0 -0.23582447380E+02 -0.15160071604E+02  0.15190812911E+02  0.59301946742E+02  0.50000004950E+02 0.  0.
         12    1    1    2    0    0  0.23582447380E+02  0.15160071604E+02 -0.15190812911E+02  0.31886053258E+02  0.00000000000E+00 0. -1.
         11    1    3    3    0    0 -0.20976561540E+02  0.19967226425E+01  0.47460013821E+01  0.21599249171E+02  0.51100000000E-03 0.  1.
        -11    1    3    3    0    0 -0.86193141381E+01  0.50061056608E+01 -0.38133197931E+01  0.10672163708E+02  0.51100000000E-03 0. -1.
        -12    1    3    3    0    0  0.60134282978E+01 -0.22162899907E+02  0.14258131322E+02  0.27030533864E+02  0.00000000000E+00 0.  1.
</event>
<event>
 7    1  0.5634483E-012  0.5930196E+02  0.7816164E-02  0.1266605E+00
        -11   -1    0    0    0    0  0.00000000000E+00  0.00000000000E+00  0.45593999997E+02  0.45594000000E+02  0.51100000000E-03 0. -1.
         11   -1    0    0    0    0 -0.00000000000E+00 -0.00000000000E+00 -0.45593999997E+02  0.45594000000E+02  0.51100000000E-03 0.  1.
    9900012    2    1    2    0    0 -0.26934100652E+02 -0.76467882726E+00 -0.17049613163E+02  0.59301955708E+02  0.50000021301E+02 0.  0.
         12    1    1    2    0    0  0.26934100652E+02  0.76467882726E+00  0.17049613163E+02  0.31886044292E+02  0.00000000000E+00 0. -1.
         11    1    3    3    0    0 -0.11763867895E+02  0.49543168351E+01 -0.16605295660E+02  0.20944442876E+02  0.51100000000E-03 0. -1.
        -11    1    3    3    0    0 -0.25390819173E+02 -0.94884768922E+01 -0.26764634530E+01  0.27237627446E+02  0.51100000000E-03 0.  1.
         12    1    3    3    0    0  0.10220586417E+02  0.37694812299E+01  0.22321459500E+01  0.11119885386E+02  0.00000000000E+00 0. -1.
</event>
<event>
 7    1  0.5634483E-012  0.5930197E+02  0.7816164E-02  0.1266605E+00
        -11   -1    0    0    0    0  0.00000000000E+00  0.00000000000E+00  0.45593999997E+02  0.45594000000E+02  0.51100000000E-03 0. -1.
         11   -1    0    0    0    0 -0.00000000000E+00 -0.00000000000E+00 -0.45593999997E+02  0.45594000000E+02  0.51100000000E-03 0.  1.
    9900012    2    1    2    0    0  0.22217223569E+02  0.21481155018E+02 -0.78532803370E+01  0.59301967696E+02  0.50000043166E+02 0.  0.
         12    1    1    2    0    0 -0.22217223569E+02 -0.21481155018E+02  0.78532803370E+01  0.31886032304E+02  0.00000000000E+00 0. -1.
         11    1    3    3    0    0  0.33061854053E+01  0.12921586073E+02  0.69182656816E+00  0.13355780502E+02  0.51100000000E-03 0. -1.
        -11    1    3    3    0    0  0.11325292418E+02  0.13128787570E+02  0.13638830998E+02  0.22060032245E+02  0.51100000000E-03 0.  1.
        -12    1    3    3    0    0  0.75857457456E+01 -0.45692186254E+01 -0.22183937903E+02  0.23886154949E+02  0.00000000000E+00 0.  1.
</event>
<event>
 7    1  0.5634483E-012  0.5930208E+02  0.7816164E-02  0.1266604E+00
        -11   -1    0    0    0    0  0.00000000000E+00  0.00000000000E+00  0.45593999997E+02  0.45594000000E+02  0.51100000000E-03 0. -1.
         11   -1    0    0    0    0 -0.00000000000E+00 -0.00000000000E+00 -0.45593999997E+02  0.45594000000E+02  0.51100000000E-03 0.  1.
    9900012    2    1    2    0    0  0.16131496897E+02  0.27468414130E+02  0.14046322135E+01  0.59302078990E+02  0.50000246138E+02 0.  0.
         12    1    1    2    0    0 -0.16131496897E+02 -0.27468414130E+02 -0.14046322135E+01  0.31885921010E+02  0.00000000000E+00 0. -1.
         11    1    3    3    0    0 -0.63087495622E+01  0.16060403815E+02  0.55108331935E+01  0.18113701292E+02  0.51100000000E-03 0. -1.
        -11    1    3    3    0    0  0.11759953955E+01 -0.97747163957E+01  0.30983159415E+01  0.10321221232E+02  0.51100000000E-03 0.  1.
        -12    1    3    3    0    0  0.21264251064E+02  0.21182726711E+02 -0.72045169216E+01  0.30867156466E+02  0.00000000000E+00 0.  1.
</event>
<event>
 7    1  0.5634483E-012  0.5930198E+02  0.7816164E-02  0.1266605E+00
        -11   -1    0    0    0    0  0.00000000000E+00  0.00000000000E+00  0.45593999997E+02  0.45594000000E+02  0.51100000000E-03 0.  1.
         11   -1    0    0    0    0 -0.00000000000E+00 -0.00000000000E+00 -0.45593999997E+02  0.45594000000E+02  0.51100000000E-03 0. -1.
    9900012    2    1    2    0    0  0.13778662688E+02 -0.27854263156E+02 -0.71418906552E+01  0.59301982319E+02  0.50000069834E+02 0.  0.
         12    1    1    2    0    0 -0.13778662688E+02  0.27854263156E+02  0.71418906552E+01  0.31886017681E+02  0.00000000000E+00 0. -1.
         11    1    3    3    0    0  0.26781138414E+01 -0.95110456752E+01 -0.97880933826E+01  0.13908236981E+02  0.51100000000E-03 0. -1.
        -11    1    3    3    0    0  0.21511479972E+02 -0.24745993483E+02 -0.42483352118E+00  0.32791591115E+02  0.51100000000E-03 0.  1.
         12    1    3    3    0    0 -0.10410931125E+02  0.64027760031E+01  0.30710362486E+01  0.12602154224E+02  0.00000000000E+00 0. -1.
</event>
<event>
 7    1  0.5634483E-012  0.5930194E+02  0.7816164E-02  0.1266605E+00
        -11   -1    0    0    0    0  0.00000000000E+00  0.00000000000E+00  0.45593999997E+02  0.45594000000E+02  0.51100000000E-03 0. -1.
         11   -1    0    0    0    0 -0.00000000000E+00 -0.00000000000E+00 -0.45593999997E+02  0.45594000000E+02  0.51100000000E-03 0.  1.
    9900012    2    1    2    0    0 -0.85116695048E+01  0.28259330164E+02 -0.12069889996E+02  0.59301944998E+02  0.50000001769E+02 0.  0.
         12    1    1    2    0    0  0.85116695048E+01 -0.28259330164E+02  0.12069889996E+02  0.31886055002E+02  0.00000000000E+00 0. -1.
         11    1    3    3    0    0 -0.63871307395E+01  0.13909191893E+02 -0.88075506475E+01  0.17658822352E+02  0.51100000000E-03 0. -1.
        -11    1    3    3    0    0 -0.15078441628E+02 -0.69173396811E+01 -0.61519999275E+00  0.16600827132E+02  0.51100000000E-03 0.  1.
         12    1    3    3    0    0  0.12953902862E+02  0.21267477952E+02 -0.26471393561E+01  0.25042295513E+02  0.00000000000E+00 0. -1.
</event>
<event>
 7    1  0.5634483E-012  0.5930189E+02  0.7816164E-02  0.1266605E+00
        -11   -1    0    0    0    0  0.00000000000E+00  0.00000000000E+00  0.45593999997E+02  0.45594000000E+02  0.51100000000E-03 0. -1.
         11   -1    0    0    0    0 -0.00000000000E+00 -0.00000000000E+00 -0.45593999997E+02  0.45594000000E+02  0.51100000000E-03 0.  1.
    9900012    2    1    2    0    0 -0.91898358934E+01  0.28126229966E+02  0.11882169412E+02  0.59301892590E+02  0.49999906190E+02 0.  0.
         12    1    1    2    0    0  0.91898358934E+01 -0.28126229966E+02 -0.11882169412E+02  0.31886107410E+02  0.00000000000E+00 0. -1.
         11    1    3    3    0    0 -0.16132726569E+02 -0.38098663358E+01  0.28147326541E+01  0.16813764249E+02  0.51100000000E-03 0. -1.
        -11    1    3    3    0    0  0.11858341381E+02  0.31303232681E+01  0.33224333878E+01  0.12706602534E+02  0.51100000000E-03 0.  1.
        -12    1    3    3    0    0 -0.49154507050E+01  0.28805773033E+02  0.57450033699E+01  0.29781525807E+02  0.00000000000E+00 0.  1.
</event>
<event>
 7    1  0.5634483E-012  0.5930196E+02  0.7816164E-02  0.1266605E+00
        -11   -1    0    0    0    0  0.00000000000E+00  0.00000000000E+00  0.45593999997E+02  0.45594000000E+02  0.51100000000E-03 0. -1.
         11   -1    0    0    0    0 -0.00000000000E+00 -0.00000000000E+00 -0.45593999997E+02  0.45594000000E+02  0.51100000000E-03 0.  1.
    9900012    2    1    2    0    0  0.30548920029E+02 -0.68631112703E+01  0.60316653815E+01  0.59301956054E+02  0.50000021932E+02 0.  0.
         12    1    1    2    0    0 -0.30548920029E+02  0.68631112703E+01 -0.60316653815E+01  0.31886043946E+02  0.00000000000E+00 0. -1.
         11    1    3    3    0    0 -0.39824759497E+01 -0.84202862383E+01 -0.72233081852E+01  0.11787175931E+02  0.51100000000E-03 0. -1.
        -11    1    3    3    0    0 -0.51894894538E+01 -0.12739349756E+01  0.38822846837E+01  0.66049864299E+01  0.51100000000E-03 0.  1.
        -12    1    3    3    0    0  0.39720885433E+02  0.28311099436E+01  0.93726888830E+01  0.40909793693E+02  0.00000000000E+00 0.  1.
</event>
<event>
 7    1  0.5634483E-012  0.5930185E+02  0.7816164E-02  0.1266605E+00
        -11   -1    0    0    0    0  0.00000000000E+00  0.00000000000E+00  0.45593999997E+02  0.45594000000E+02  0.51100000000E-03 0. -1.
         11   -1    0    0    0    0 -0.00000000000E+00 -0.00000000000E+00 -0.45593999997E+02  0.45594000000E+02  0.51100000000E-03 0.  1.
    9900012    2    1    2    0    0  0.22764295742E+02  0.40248918240E+01 -0.21961634827E+02  0.59301853806E+02  0.49999835457E+02 0.  0.
         12    1    1    2    0    0 -0.22764295742E+02 -0.40248918240E+01  0.21961634827E+02  0.31886146194E+02  0.00000000000E+00 0. -1.
         11    1    3    3    0    0  0.78391458147E+01 -0.60304283418E+01 -0.11642550453E+02  0.15276362604E+02  0.51100000000E-03 0. -1.
        -11    1    3    3    0    0  0.32541963368E+01 -0.13692034971E+02  0.30188957003E+01  0.14393587008E+02  0.51100000000E-03 0.  1.
         12    1    3    3    0    0  0.11670953591E+02  0.23747355137E+02 -0.13337980074E+02  0.29631904194E+02  0.00000000000E+00 0. -1.
</event>
<event>
 7    1  0.5634483E-012  0.5930196E+02  0.7816164E-02  0.1266605E+00
        -11   -1    0    0    0    0  0.00000000000E+00  0.00000000000E+00  0.45593999997E+02  0.45594000000E+02  0.51100000000E-03 0.  1.
         11   -1    0    0    0    0 -0.00000000000E+00 -0.00000000000E+00 -0.45593999997E+02  0.45594000000E+02  0.51100000000E-03 0. -1.
    9900012    2    1    2    0    0 -0.30384108019E+02  0.89254523646E+01  0.37231831969E+01  0.59301955825E+02  0.50000021516E+02 0.  0.
         12    1    1    2    0    0  0.30384108019E+02 -0.89254523646E+01 -0.37231831969E+01  0.31886044175E+02  0.00000000000E+00 0. -1.
         11    1    3    3    0    0 -0.17153432361E+02 -0.23061865877E+01  0.22242169594E+01  0.17450096839E+02  0.51100000000E-03 0. -1.
        -11    1    3    3    0    0 -0.22627172129E+02  0.87681315795E+01  0.12399517674E+02  0.27251001610E+02  0.51100000000E-03 0.  1.
         12    1    3    3    0    0  0.93964964712E+01  0.24635073728E+01 -0.10900551436E+02  0.14600857376E+02  0.00000000000E+00 0. -1.
</event>
<event>
 7    1  0.5634483E-012  0.5930199E+02  0.7816164E-02  0.1266605E+00
        -11   -1    0    0    0    0  0.00000000000E+00  0.00000000000E+00  0.45593999997E+02  0.45594000000E+02  0.51100000000E-03 0.  1.
         11   -1    0    0    0    0 -0.00000000000E+00 -0.00000000000E+00 -0.45593999997E+02  0.45594000000E+02  0.51100000000E-03 0. -1.
    9900012    2    1    2    0    0 -0.18525560665E+02 -0.11488004445E+02  0.23271157235E+02  0.59301993616E+02  0.50000090437E+02 0.  0.
         12    1    1    2    0    0  0.18525560665E+02  0.11488004445E+02 -0.23271157235E+02  0.31886006384E+02  0.00000000000E+00 0. -1.
         11    1    3    3    0    0  0.21423043979E+01 -0.59648136220E+01 -0.26313561640E+01  0.68623979192E+01  0.51100000000E-03 0. -1.
        -11    1    3    3    0    0 -0.27731898090E+01 -0.12851125544E+02  0.29927768374E+02  0.32688122148E+02  0.51100000000E-03 0.  1.
         12    1    3    3    0    0 -0.17894675254E+02  0.73279347204E+01 -0.40252549755E+01  0.19751473549E+02  0.00000000000E+00 0. -1.
</event>
<event>
 7    1  0.5634483E-012  0.5930199E+02  0.7816164E-02  0.1266605E+00
        -11   -1    0    0    0    0  0.00000000000E+00  0.00000000000E+00  0.45593999997E+02  0.45594000000E+02  0.51100000000E-03 0.  1.
         11   -1    0    0    0    0 -0.00000000000E+00 -0.00000000000E+00 -0.45593999997E+02  0.45594000000E+02  0.51100000000E-03 0. -1.
    9900012    2    1    2    0    0 -0.17863149410E+02 -0.51555572602E+01  0.25904555179E+02  0.59301986506E+02  0.50000077471E+02 0.  0.
         12    1    1    2    0    0  0.17863149410E+02  0.51555572602E+01 -0.25904555179E+02  0.31886013494E+02  0.00000000000E+00 0. -1.
         11    1    3    3    0    0 -0.14541201726E+02 -0.10632761265E+02 -0.85501767482E+00  0.18034223444E+02  0.51100000000E-03 0. -1.
        -11    1    3    3    0    0 -0.14923728687E+02 -0.10879234589E+01  0.22961448698E+02  0.27406739717E+02  0.51100000000E-03 0.  1.
         12    1    3    3    0    0  0.11601781003E+02  0.65651274641E+01  0.37981241556E+01  0.13861023344E+02  0.00000000000E+00 0. -1.
</event>
<event>
 7    1  0.5634483E-012  0.5930192E+02  0.7816164E-02  0.1266605E+00
        -11   -1    0    0    0    0  0.00000000000E+00  0.00000000000E+00  0.45593999997E+02  0.45594000000E+02  0.51100000000E-03 0. -1.
         11   -1    0    0    0    0 -0.00000000000E+00 -0.00000000000E+00 -0.45593999997E+02  0.45594000000E+02  0.51100000000E-03 0.  1.
    9900012    2    1    2    0    0 -0.53573222312E+01  0.16448536516E+02 -0.26785567726E+02  0.59301923204E+02  0.49999962022E+02 0.  0.
         12    1    1    2    0    0  0.53573222312E+01 -0.16448536516E+02  0.26785567726E+02  0.31886076796E+02  0.00000000000E+00 0. -1.
         11    1    3    3    0    0  0.67010095307E+01 -0.47632011345E+01 -0.17596474297E+02  0.19422345937E+02  0.51100000000E-03 0. -1.
        -11    1    3    3    0    0  0.88455254646E+01  0.14075636007E+02 -0.25772615967E+01  0.16822875122E+02  0.51100000000E-03 0.  1.
         12    1    3    3    0    0 -0.20903857227E+02  0.71361016433E+01 -0.66118318331E+01  0.23056702145E+02  0.00000000000E+00 0. -1.
</event>
<event>
 7    1  0.5634483E-012  0.5930198E+02  0.7816164E-02  0.1266605E+00
        -11   -1    0    0    0    0  0.00000000000E+00  0.00000000000E+00  0.45593999997E+02  0.45594000000E+02  0.51100000000E-03 0.  1.
         11   -1    0    0    0    0 -0.00000000000E+00 -0.00000000000E+00 -0.45593999997E+02  0.45594000000E+02  0.51100000000E-03 0. -1.
    9900012    2    1    2    0    0 -0.17729802802E+02  0.26216173185E+02 -0.38838668005E+01  0.59301983234E+02  0.50000071502E+02 0.  0.
         12    1    1    2    0    0  0.17729802802E+02 -0.26216173185E+02  0.38838668005E+01  0.31886016766E+02  0.00000000000E+00 0. -1.
         11    1    3    3    0    0  0.60327095149E+01  0.39220163767E+01  0.44055988852E+01  0.84371261901E+01  0.51100000000E-03 0. -1.
        -11    1    3    3    0    0 -0.21024966915E+01  0.24891834161E+01  0.13769562890E+02  0.14149819393E+02  0.51100000000E-03 0.  1.
        -12    1    3    3    0    0 -0.21660015626E+02  0.19804973393E+02 -0.22059028576E+02  0.36715037651E+02  0.00000000000E+00 0.  1.
</event>
<event>
 7    1  0.5634483E-012  0.5930197E+02  0.7816164E-02  0.1266605E+00
        -11   -1    0    0    0    0  0.00000000000E+00  0.00000000000E+00  0.45593999997E+02  0.45594000000E+02  0.51100000000E-03 0. -1.
         11   -1    0    0    0    0 -0.00000000000E+00 -0.00000000000E+00 -0.45593999997E+02  0.45594000000E+02  0.51100000000E-03 0.  1.
    9900012    2    1    2    0    0 -0.69930482943E+01 -0.15285121328E+02 -0.27095782055E+02  0.59301967578E+02  0.50000042949E+02 0.  0.
         12    1    1    2    0    0  0.69930482943E+01  0.15285121328E+02  0.27095782055E+02  0.31886032422E+02  0.00000000000E+00 0. -1.
         11    1    3    3    0    0 -0.26778945267E+01 -0.19807838902E+02 -0.85983217260E+01  0.21758969135E+02  0.51100000000E-03 0. -1.
        -11    1    3    3    0    0 -0.14764116945E+02 -0.75815685723E+01 -0.10752592688E+02  0.19775681555E+02  0.51100000000E-03 0.  1.
        -12    1    3    3    0    0  0.10448963177E+02  0.12104286146E+02 -0.77448676410E+01  0.17767316887E+02  0.00000000000E+00 0.  1.
</event>
<event>
 7    1  0.5634483E-012  0.5930195E+02  0.7816164E-02  0.1266605E+00
        -11   -1    0    0    0    0  0.00000000000E+00  0.00000000000E+00  0.45593999997E+02  0.45594000000E+02  0.51100000000E-03 0.  1.
         11   -1    0    0    0    0 -0.00000000000E+00 -0.00000000000E+00 -0.45593999997E+02  0.45594000000E+02  0.51100000000E-03 0. -1.
    9900012    2    1    2    0    0  0.21317250892E+02  0.10365756815E+02  0.21327119387E+02  0.59301950993E+02  0.50000012702E+02 0.  0.
         12    1    1    2    0    0 -0.21317250892E+02 -0.10365756815E+02 -0.21327119387E+02  0.31886049007E+02  0.00000000000E+00 0. -1.
         11    1    3    3    0    0  0.68438097906E+01  0.48838682701E+01  0.73878383691E+00  0.84401246169E+01  0.51100000000E-03 0. -1.
        -11    1    3    3    0    0  0.21853585897E+02  0.14187054501E+02  0.27205631686E+02  0.37669591551E+02  0.51100000000E-03 0.  1.
         12    1    3    3    0    0 -0.73801447950E+01 -0.87051659564E+01 -0.66172961355E+01  0.13192234825E+02  0.00000000000E+00 0. -1.
</event>
<event>
 7    1  0.5634483E-012  0.5930198E+02  0.7816164E-02  0.1266605E+00
        -11   -1    0    0    0    0  0.00000000000E+00  0.00000000000E+00  0.45593999997E+02  0.45594000000E+02  0.51100000000E-03 0.  1.
         11   -1    0    0    0    0 -0.00000000000E+00 -0.00000000000E+00 -0.45593999997E+02  0.45594000000E+02  0.51100000000E-03 0. -1.
    9900012    2    1    2    0    0  0.19514271459E+02  0.23068608078E+02 -0.10185807504E+02  0.59301982003E+02  0.50000069257E+02 0.  0.
         12    1    1    2    0    0 -0.19514271459E+02 -0.23068608078E+02  0.10185807504E+02  0.31886017997E+02  0.00000000000E+00 0. -1.
         11    1    3    3    0    0  0.75919628048E+01  0.72911233135E+00 -0.35696843351E+01  0.84209352530E+01  0.51100000000E-03 0. -1.
        -11    1    3    3    0    0 -0.12935166649E+02  0.18475322223E+02 -0.11405219151E+02  0.25273208970E+02  0.51100000000E-03 0.  1.
         12    1    3    3    0    0  0.24857475303E+02  0.38641735229E+01  0.47890959816E+01  0.25607837780E+02  0.00000000000E+00 0. -1.
</event>
<event>
 7    1  0.5634483E-012  0.5930196E+02  0.7816164E-02  0.1266605E+00
        -11   -1    0    0    0    0  0.00000000000E+00  0.00000000000E+00  0.45593999997E+02  0.45594000000E+02  0.51100000000E-03 0. -1.
         11   -1    0    0    0    0 -0.00000000000E+00 -0.00000000000E+00 -0.45593999997E+02  0.45594000000E+02  0.51100000000E-03 0.  1.
    9900012    2    1    2    0    0  0.33070860352E+01 -0.31666295110E+02  0.17401832783E+01  0.59301963842E+02  0.50000036136E+02 0.  0.
         12    1    1    2    0    0 -0.33070860352E+01  0.31666295110E+02 -0.17401832783E+01  0.31886036158E+02  0.00000000000E+00 0. -1.
         11    1    3    3    0    0 -0.72067165511E+01  0.24382935156E+01 -0.21199163576E+01  0.78978531476E+01  0.51100000000E-03 0. -1.
        -11    1    3    3    0    0 -0.93244582255E+01 -0.18691654055E+02 -0.95037587302E+01  0.22948744688E+02  0.51100000000E-03 0.  1.
         12    1    3    3    0    0  0.19838260812E+02 -0.15412934571E+02  0.13363858366E+02  0.28455366006E+02  0.00000000000E+00 0. -1.
</event>
<event>
 7    1  0.5634483E-012  0.5930194E+02  0.7816164E-02  0.1266605E+00
        -11   -1    0    0    0    0  0.00000000000E+00  0.00000000000E+00  0.45593999997E+02  0.45594000000E+02  0.51100000000E-03 0. -1.
         11   -1    0    0    0    0 -0.00000000000E+00 -0.00000000000E+00 -0.45593999997E+02  0.45594000000E+02  0.51100000000E-03 0.  1.
    9900012    2    1    2    0    0  0.65713890358E+00 -0.28109078054E+02 -0.15038908994E+02  0.59301939028E+02  0.49999990882E+02 0.  0.
         12    1    1    2    0    0 -0.65713890358E+00  0.28109078054E+02  0.15038908994E+02  0.31886060972E+02  0.00000000000E+00 0. -1.
         11    1    3    3    0    0 -0.40785799466E+01 -0.67294049794E+01  0.10160275339E+02  0.12851105049E+02  0.51100000000E-03 0. -1.
        -11    1    3    3    0    0  0.25098046237E+01 -0.24447873764E+02 -0.39809859263E+01  0.24896704602E+02  0.51100000000E-03 0.  1.
         12    1    3    3    0    0  0.22259142265E+01  0.30682006895E+01 -0.21218198406E+02  0.21554129378E+02  0.00000000000E+00 0. -1.
</event>
<event>
 7    1  0.5634483E-012  0.5930195E+02  0.7816164E-02  0.1266605E+00
        -11   -1    0    0    0    0  0.00000000000E+00  0.00000000000E+00  0.45593999997E+02  0.45594000000E+02  0.51100000000E-03 0.  1.
         11   -1    0    0    0    0 -0.00000000000E+00 -0.00000000000E+00 -0.45593999997E+02  0.45594000000E+02  0.51100000000E-03 0. -1.
    9900012    2    1    2    0    0 -0.73136607732E+01  0.30916124078E+02 -0.27246841871E+01  0.59301948727E+02  0.50000008570E+02 0.  0.
         12    1    1    2    0    0  0.73136607732E+01 -0.30916124078E+02  0.27246841871E+01  0.31886051273E+02  0.00000000000E+00 0. -1.
         11    1    3    3    0    0  0.34966992618E+01  0.12718706357E+02 -0.12417745918E+02  0.18116092600E+02  0.51100000000E-03 0. -1.
        -11    1    3    3    0    0  0.76069712080E+01 -0.59286428100E+01  0.16344179213E+01  0.97819291927E+01  0.51100000000E-03 0.  1.
        -12    1    3    3    0    0 -0.18417331243E+02  0.24126060531E+02  0.80586438101E+01  0.31403926934E+02  0.00000000000E+00 0.  1.
</event>
<event>
 7    1  0.5634483E-012  0.5930191E+02  0.7816164E-02  0.1266605E+00
        -11   -1    0    0    0    0  0.00000000000E+00  0.00000000000E+00  0.45593999997E+02  0.45594000000E+02  0.51100000000E-03 0. -1.
         11   -1    0    0    0    0 -0.00000000000E+00 -0.00000000000E+00 -0.45593999997E+02  0.45594000000E+02  0.51100000000E-03 0.  1.
    9900012    2    1    2    0    0 -0.21234459756E+02 -0.30160214000E+01 -0.23594997573E+02  0.59301912490E+02  0.49999942483E+02 0.  0.
         12    1    1    2    0    0  0.21234459756E+02  0.30160214000E+01  0.23594997573E+02  0.31886087510E+02  0.00000000000E+00 0. -1.
         11    1    3    3    0    0 -0.16049808559E+02  0.99786112711E+01 -0.11127280550E+02  0.21931379582E+02  0.51100000000E-03 0. -1.
        -11    1    3    3    0    0 -0.11818106939E+02 -0.69487212458E+01 -0.20939611767E+02  0.25028378290E+02  0.51100000000E-03 0.  1.
        -12    1    3    3    0    0  0.66334557422E+01 -0.60459114253E+01  0.84718947449E+01  0.12342154618E+02  0.00000000000E+00 0.  1.
</event>
<event>
 7    1  0.5634483E-012  0.5930194E+02  0.7816164E-02  0.1266605E+00
        -11   -1    0    0    0    0  0.00000000000E+00  0.00000000000E+00  0.45593999997E+02  0.45594000000E+02  0.51100000000E-03 0. -1.
         11   -1    0    0    0    0 -0.00000000000E+00 -0.00000000000E+00 -0.45593999997E+02  0.45594000000E+02  0.51100000000E-03 0.  1.
    9900012    2    1    2    0    0 -0.21851976161E+02  0.20222932534E+02 -0.11412492850E+02  0.59301939480E+02  0.49999991706E+02 0.  0.
         12    1    1    2    0    0  0.21851976161E+02 -0.20222932534E+02  0.11412492850E+02  0.31886060520E+02  0.00000000000E+00 0. -1.
         11    1    3    3    0    0 -0.24869150386E+01 -0.22935116987E+01  0.72351142394E+00  0.34595391836E+01  0.51100000000E-03 0. -1.
        -11    1    3    3    0    0  0.13421592155E+02  0.61613470457E+01  0.47301695591E+01  0.15507283377E+02  0.51100000000E-03 0.  1.
         12    1    3    3    0    0 -0.32786653278E+02  0.16355097187E+02 -0.16866173833E+02  0.40335116920E+02  0.00000000000E+00 0. -1.
</event>
<event>
 7    1  0.5634483E-012  0.5930198E+02  0.7816164E-02  0.1266605E+00
        -11   -1    0    0    0    0  0.00000000000E+00  0.00000000000E+00  0.45593999997E+02  0.45594000000E+02  0.51100000000E-03 0.  1.
         11   -1    0    0    0    0 -0.00000000000E+00 -0.00000000000E+00 -0.45593999997E+02  0.45594000000E+02  0.51100000000E-03 0. -1.
    9900012    2    1    2    0    0  0.27977348690E+02 -0.90847546776E+01  0.12306632637E+02  0.59301984035E+02  0.50000072964E+02 0.  0.
         12    1    1    2    0    0 -0.27977348690E+02  0.90847546776E+01 -0.12306632637E+02  0.31886015965E+02  0.00000000000E+00 0. -1.
         11    1    3    3    0    0  0.10842840300E+02  0.14657919363E+02  0.35716191263E+01  0.18578973310E+02  0.51100000000E-03 0. -1.
        -11    1    3    3    0    0  0.10271320855E+02  0.30848810869E+01  0.73409921372E+01  0.12996410630E+02  0.51100000000E-03 0.  1.
         12    1    3    3    0    0  0.68631875343E+01 -0.26827555127E+02  0.13940213738E+01  0.27726600095E+02  0.00000000000E+00 0. -1.
</event>
<event>
 7    1  0.5634483E-012  0.5930198E+02  0.7816164E-02  0.1266605E+00
        -11   -1    0    0    0    0  0.00000000000E+00  0.00000000000E+00  0.45593999997E+02  0.45594000000E+02  0.51100000000E-03 0. -1.
         11   -1    0    0    0    0 -0.00000000000E+00 -0.00000000000E+00 -0.45593999997E+02  0.45594000000E+02  0.51100000000E-03 0.  1.
    9900012    2    1    2    0    0 -0.21708673346E+02 -0.31725867301E+00 -0.23352758377E+02  0.59301976803E+02  0.50000059774E+02 0.  0.
         12    1    1    2    0    0  0.21708673346E+02  0.31725867301E+00  0.23352758377E+02  0.31886023197E+02  0.00000000000E+00 0. -1.
         11    1    3    3    0    0  0.86160114135E+01 -0.32405999265E+01 -0.69389358708E+01  0.11527617787E+02  0.51100000000E-03 0. -1.
        -11    1    3    3    0    0 -0.16585781603E+01 -0.11749695883E+02 -0.85480701394E+01  0.14624491042E+02  0.51100000000E-03 0.  1.
         12    1    3    3    0    0 -0.28666106599E+02  0.14673037137E+02 -0.78657523670E+01  0.33149867974E+02  0.00000000000E+00 0. -1.
</event>
<event>
 7    1  0.5634483E-012  0.5930195E+02  0.7816164E-02  0.1266605E+00
        -11   -1    0    0    0    0  0.00000000000E+00  0.00000000000E+00  0.45593999997E+02  0.45594000000E+02  0.51100000000E-03 0.  1.
         11   -1    0    0    0    0 -0.00000000000E+00 -0.00000000000E+00 -0.45593999997E+02  0.45594000000E+02  0.51100000000E-03 0. -1.
    9900012    2    1    2    0    0 -0.20053788488E+02  0.15552350725E+02  0.19305179591E+02  0.59301952820E+02  0.50000016034E+02 0.  0.
         12    1    1    2    0    0  0.20053788488E+02 -0.15552350725E+02 -0.19305179591E+02  0.31886047180E+02  0.00000000000E+00 0. -1.
         11    1    3    3    0    0  0.63810405473E+01 -0.11716555287E+01 -0.66829240653E+01  0.93140715837E+01  0.51100000000E-03 0. -1.
        -11    1    3    3    0    0  0.19533887532E+01 -0.28011568724E+01  0.12548412020E+02  0.13004801111E+02  0.51100000000E-03 0.  1.
        -12    1    3    3    0    0 -0.28388217788E+02  0.19525163126E+02  0.13439691635E+02  0.36983080125E+02  0.00000000000E+00 0.  1.
</event>
<event>
 7    1  0.5634483E-012  0.5930198E+02  0.7816164E-02  0.1266605E+00
        -11   -1    0    0    0    0  0.00000000000E+00  0.00000000000E+00  0.45593999997E+02  0.45594000000E+02  0.51100000000E-03 0.  1.
         11   -1    0    0    0    0 -0.00000000000E+00 -0.00000000000E+00 -0.45593999997E+02  0.45594000000E+02  0.51100000000E-03 0. -1.
    9900012    2    1    2    0    0  0.21013769673E+02  0.60451224307E+01  0.23207674218E+02  0.59301981690E+02  0.50000068686E+02 0.  0.
         12    1    1    2    0    0 -0.21013769673E+02 -0.60451224307E+01 -0.23207674218E+02  0.31886018310E+02  0.00000000000E+00 0. -1.
         11    1    3    3    0    0 -0.20411038150E+00  0.51422218550E+01 -0.77191318166E+01  0.92773435269E+01  0.51100000000E-03 0. -1.
        -11    1    3    3    0    0  0.19615264671E+02 -0.12341996114E+02  0.10075784910E+02  0.25270633510E+02  0.51100000000E-03 0.  1.
        -12    1    3    3    0    0  0.16026153839E+01  0.13244896690E+02  0.20851021125E+02  0.24754004653E+02  0.00000000000E+00 0.  1.
</event>
<event>
 7    1  0.5634483E-012  0.5930195E+02  0.7816164E-02  0.1266605E+00
        -11   -1    0    0    0    0  0.00000000000E+00  0.00000000000E+00  0.45593999997E+02  0.45594000000E+02  0.51100000000E-03 0. -1.
         11   -1    0    0    0    0 -0.00000000000E+00 -0.00000000000E+00 -0.45593999997E+02  0.45594000000E+02  0.51100000000E-03 0.  1.
    9900012    2    1    2    0    0 -0.40465269177E+01  0.25258404501E+02 -0.19035728941E+02  0.59301947338E+02  0.50000006037E+02 0.  0.
         12    1    1    2    0    0  0.40465269177E+01 -0.25258404501E+02  0.19035728941E+02  0.31886052662E+02  0.00000000000E+00 0. -1.
         11    1    3    3    0    0  0.11272182178E+02  0.58774076381E-02 -0.28306318092E+01  0.11622159967E+02  0.51100000000E-03 0. -1.
        -11    1    3    3    0    0 -0.46712134363E+01  0.97040339159E+01  0.10469560177E+02  0.15019993335E+02  0.51100000000E-03 0.  1.
        -12    1    3    3    0    0 -0.10647495660E+02  0.15548493178E+02 -0.26674657309E+02  0.32659794036E+02  0.00000000000E+00 0.  1.
</event>
<event>
 7    1  0.5634483E-012  0.5930197E+02  0.7816164E-02  0.1266605E+00
        -11   -1    0    0    0    0  0.00000000000E+00  0.00000000000E+00  0.45593999997E+02  0.45594000000E+02  0.51100000000E-03 0.  1.
         11   -1    0    0    0    0 -0.00000000000E+00 -0.00000000000E+00 -0.45593999997E+02  0.45594000000E+02  0.51100000000E-03 0. -1.
    9900012    2    1    2    0    0  0.37355574911E+01  0.28743665282E+02  0.13287823843E+02  0.59301969421E+02  0.50000046311E+02 0.  0.
         12    1    1    2    0    0 -0.37355574911E+01 -0.28743665282E+02 -0.13287823843E+02  0.31886030579E+02  0.00000000000E+00 0. -1.
         11    1    3    3    0    0  0.53751130565E+01 -0.49817458221E+01 -0.17204313226E+01  0.75279157808E+01  0.51100000000E-03 0. -1.
        -11    1    3    3    0    0  0.52901359171E+01 -0.65538363021E+01  0.62345736203E+00  0.84455318151E+01  0.51100000000E-03 0.  1.
         12    1    3    3    0    0 -0.69296914826E+01  0.40279247406E+02  0.14384797804E+02  0.43328521825E+02  0.00000000000E+00 0. -1.
</event>
<event>
 7    1  0.5634483E-012  0.5930168E+02  0.7816164E-02  0.1266606E+00
        -11   -1    0    0    0    0  0.00000000000E+00  0.00000000000E+00  0.45593999997E+02  0.45594000000E+02  0.51100000000E-03 0.  1.
         11   -1    0    0    0    0 -0.00000000000E+00 -0.00000000000E+00 -0.45593999997E+02  0.45594000000E+02  0.51100000000E-03 0. -1.
    9900012    2    1    2    0    0 -0.23978277912E+02 -0.19241791925E+02 -0.84577317642E+01  0.59301676996E+02  0.49999512996E+02 0.  0.
         12    1    1    2    0    0  0.23978277912E+02  0.19241791925E+02  0.84577317642E+01  0.31886323004E+02  0.00000000000E+00 0. -1.
         11    1    3    3    0    0 -0.19976542755E+02 -0.19207718832E+02 -0.11930463002E+02  0.30171752864E+02  0.51100000000E-03 0. -1.
        -11    1    3    3    0    0 -0.43837699558E+01 -0.13331017094E+02  0.65338714777E+01  0.15479823402E+02  0.51100000000E-03 0.  1.
         12    1    3    3    0    0  0.38203479846E+00  0.13296944002E+02 -0.30611402402E+01  0.13650100731E+02  0.00000000000E+00 0. -1.
</event>
<event>
 7    1  0.5634483E-012  0.5930195E+02  0.7816164E-02  0.1266605E+00
        -11   -1    0    0    0    0  0.00000000000E+00  0.00000000000E+00  0.45593999997E+02  0.45594000000E+02  0.51100000000E-03 0.  1.
         11   -1    0    0    0    0 -0.00000000000E+00 -0.00000000000E+00 -0.45593999997E+02  0.45594000000E+02  0.51100000000E-03 0. -1.
    9900012    2    1    2    0    0 -0.14489122529E+02 -0.34619414280E+01  0.28192201454E+02  0.59301953946E+02  0.50000018088E+02 0.  0.
         12    1    1    2    0    0  0.14489122529E+02  0.34619414280E+01 -0.28192201454E+02  0.31886046054E+02  0.00000000000E+00 0. -1.
         11    1    3    3    0    0  0.55646194272E+01  0.33055728054E+00 -0.51794725282E+00  0.55984397025E+01  0.51100000000E-03 0. -1.
        -11    1    3    3    0    0 -0.12194453820E+02  0.30373613854E-01 -0.88964099214E+01  0.15094758569E+02  0.51100000000E-03 0.  1.
        -12    1    3    3    0    0 -0.78592881367E+01 -0.38228723224E+01  0.37606558629E+02  0.38608755674E+02  0.00000000000E+00 0.  1.
</event>
<event>
 7    1  0.5634483E-012  0.5930196E+02  0.7816164E-02  0.1266605E+00
        -11   -1    0    0    0    0  0.00000000000E+00  0.00000000000E+00  0.45593999997E+02  0.45594000000E+02  0.51100000000E-03 0. -1.
         11   -1    0    0    0    0 -0.00000000000E+00 -0.00000000000E+00 -0.45593999997E+02  0.45594000000E+02  0.51100000000E-03 0.  1.
    9900012    2    1    2    0    0 -0.27552656399E+02  0.70915764239E+01 -0.14397222265E+02  0.59301963248E+02  0.50000035053E+02 0.  0.
         12    1    1    2    0    0  0.27552656399E+02 -0.70915764239E+01  0.14397222265E+02  0.31886036752E+02  0.00000000000E+00 0. -1.
         11    1    3    3    0    0 -0.19855822958E+02  0.62521909537E+01 -0.32917111662E+01  0.21075553604E+02  0.51100000000E-03 0. -1.
        -11    1    3    3    0    0 -0.20975058370E+02 -0.73581646227E-01 -0.13156278602E+02  0.24759768876E+02  0.51100000000E-03 0.  1.
         12    1    3    3    0    0  0.13278224929E+02  0.91296711639E+00  0.20507675038E+01  0.13466640768E+02  0.00000000000E+00 0. -1.
</event>
<event>
 7    1  0.5634483E-012  0.5930195E+02  0.7816164E-02  0.1266605E+00
        -11   -1    0    0    0    0  0.00000000000E+00  0.00000000000E+00  0.45593999997E+02  0.45594000000E+02  0.51100000000E-03 0.  1.
         11   -1    0    0    0    0 -0.00000000000E+00 -0.00000000000E+00 -0.45593999997E+02  0.45594000000E+02  0.51100000000E-03 0. -1.
    9900012    2    1    2    0    0 -0.37432751554E+01 -0.40970694244E+01  0.31399399120E+02  0.59301947377E+02  0.50000006109E+02 0.  0.
         12    1    1    2    0    0  0.37432751554E+01  0.40970694244E+01 -0.31399399120E+02  0.31886052623E+02  0.00000000000E+00 0. -1.
         11    1    3    3    0    0  0.97446922810E+01  0.46514347679E+01  0.28349941862E+02  0.30336678739E+02  0.51100000000E-03 0. -1.
        -11    1    3    3    0    0  0.64044009308E+01 -0.20937854262E+01 -0.26315076589E+01  0.72336105447E+01  0.51100000000E-03 0.  1.
        -12    1    3    3    0    0 -0.19892368367E+02 -0.66547187662E+01  0.56809649171E+01  0.21731658094E+02  0.00000000000E+00 0.  1.
</event>
<event>
 7    1  0.5634483E-012  0.5930195E+02  0.7816164E-02  0.1266605E+00
        -11   -1    0    0    0    0  0.00000000000E+00  0.00000000000E+00  0.45593999997E+02  0.45594000000E+02  0.51100000000E-03 0. -1.
         11   -1    0    0    0    0 -0.00000000000E+00 -0.00000000000E+00 -0.45593999997E+02  0.45594000000E+02  0.51100000000E-03 0.  1.
    9900012    2    1    2    0    0 -0.65253049694E+01  0.24502791540E+02  0.19332715774E+02  0.59301948231E+02  0.50000007666E+02 0.  0.
         12    1    1    2    0    0  0.65253049694E+01 -0.24502791540E+02 -0.19332715774E+02  0.31886051769E+02  0.00000000000E+00 0. -1.
         11    1    3    3    0    0 -0.71258565594E+01  0.16513629047E+02  0.17482236920E+02  0.25081993222E+02  0.51100000000E-03 0. -1.
        -11    1    3    3    0    0  0.41681864157E+01  0.15523131340E+02  0.12737421245E+02  0.20508127288E+02  0.51100000000E-03 0.  1.
        -12    1    3    3    0    0 -0.35676348257E+01 -0.75339688481E+01 -0.10886942390E+02  0.13711827722E+02  0.00000000000E+00 0.  1.
</event>
<event>
 7    1  0.5634483E-012  0.5930197E+02  0.7816164E-02  0.1266605E+00
        -11   -1    0    0    0    0  0.00000000000E+00  0.00000000000E+00  0.45593999997E+02  0.45594000000E+02  0.51100000000E-03 0.  1.
         11   -1    0    0    0    0 -0.00000000000E+00 -0.00000000000E+00 -0.45593999997E+02  0.45594000000E+02  0.51100000000E-03 0. -1.
    9900012    2    1    2    0    0  0.19987896729E+02  0.24332580889E+02 -0.50128462369E+01  0.59301966447E+02  0.50000040887E+02 0.  0.
         12    1    1    2    0    0 -0.19987896729E+02 -0.24332580889E+02  0.50128462369E+01  0.31886033553E+02  0.00000000000E+00 0. -1.
         11    1    3    3    0    0  0.16330851881E+02  0.97471926533E+01 -0.10236123212E+02  0.21598210724E+02  0.51100000000E-03 0. -1.
        -11    1    3    3    0    0  0.11302425547E+02 -0.63068157261E+01  0.81041860882E+01  0.15270840850E+02  0.51100000000E-03 0.  1.
        -12    1    3    3    0    0 -0.76453806991E+01  0.20892203962E+02 -0.28809091134E+01  0.22432914874E+02  0.00000000000E+00 0.  1.
</event>
<event>
 7    1  0.5634483E-012  0.5930192E+02  0.7816164E-02  0.1266605E+00
        -11   -1    0    0    0    0  0.00000000000E+00  0.00000000000E+00  0.45593999997E+02  0.45594000000E+02  0.51100000000E-03 0.  1.
         11   -1    0    0    0    0 -0.00000000000E+00 -0.00000000000E+00 -0.45593999997E+02  0.45594000000E+02  0.51100000000E-03 0. -1.
    9900012    2    1    2    0    0 -0.13328851933E+02 -0.18546232575E+02  0.22250869351E+02  0.59301918029E+02  0.49999952584E+02 0.  0.
         12    1    1    2    0    0  0.13328851933E+02  0.18546232575E+02 -0.22250869351E+02  0.31886081971E+02  0.00000000000E+00 0. -1.
         11    1    3    3    0    0 -0.33840677031E+01  0.84631556051E+00 -0.74596162674E+01  0.82349280121E+01  0.51100000000E-03 0. -1.
        -11    1    3    3    0    0 -0.18759496646E+02 -0.18829727267E+01  0.24251208451E+02  0.30717835410E+02  0.51100000000E-03 0.  1.
         12    1    3    3    0    0  0.88147124162E+01 -0.17509575409E+02  0.54592771678E+01  0.20349154606E+02  0.00000000000E+00 0. -1.
</event>
<event>
 7    1  0.5634483E-012  0.5930189E+02  0.7816164E-02  0.1266605E+00
        -11   -1    0    0    0    0  0.00000000000E+00  0.00000000000E+00  0.45593999997E+02  0.45594000000E+02  0.51100000000E-03 0.  1.
         11   -1    0    0    0    0 -0.00000000000E+00 -0.00000000000E+00 -0.45593999997E+02  0.45594000000E+02  0.51100000000E-03 0. -1.
    9900012    2    1    2    0    0 -0.22282107871E+01  0.28710094129E+02  0.13692675477E+02  0.59301893466E+02  0.49999907787E+02 0.  0.
         12    1    1    2    0    0  0.22282107871E+01 -0.28710094129E+02 -0.13692675477E+02  0.31886106534E+02  0.00000000000E+00 0. -1.
         11    1    3    3    0    0  0.79105818375E+01 -0.18088163280E+00 -0.55095219554E+01  0.96418284371E+01  0.51100000000E-03 0. -1.
        -11    1    3    3    0    0  0.25503435147E+01  0.17893862235E+02 -0.62871936962E+01  0.19136963253E+02  0.51100000000E-03 0.  1.
        -12    1    3    3    0    0 -0.12689136139E+02  0.10997113527E+02  0.25489391129E+02  0.30523101776E+02  0.00000000000E+00 0.  1.
</event>
<event>
 7    1  0.5634483E-012  0.5930210E+02  0.7816164E-02  0.1266604E+00
        -11   -1    0    0    0    0  0.00000000000E+00  0.00000000000E+00  0.45593999997E+02  0.45594000000E+02  0.51100000000E-03 0.  1.
         11   -1    0    0    0    0 -0.00000000000E+00 -0.00000000000E+00 -0.45593999997E+02  0.45594000000E+02  0.51100000000E-03 0. -1.
    9900012    2    1    2    0    0  0.19128942054E+02  0.29731652591E+01  0.25336825568E+02  0.59302096130E+02  0.50000277397E+02 0.  0.
         12    1    1    2    0    0 -0.19128942054E+02 -0.29731652591E+01 -0.25336825568E+02  0.31885903870E+02  0.00000000000E+00 0. -1.
         11    1    3    3    0    0  0.72266322583E+01  0.26109338888E+01  0.19771765820E+02  0.21212352851E+02  0.51100000000E-03 0. -1.
        -11    1    3    3    0    0  0.14301989426E+02 -0.56609504239E+01  0.18235743718E+02  0.23856563257E+02  0.51100000000E-03 0.  1.
         12    1    3    3    0    0 -0.23996796305E+01  0.60231817941E+01 -0.12670683970E+02  0.14233180022E+02  0.00000000000E+00 0. -1.
</event>
<event>
 7    1  0.5634483E-012  0.5930183E+02  0.7816164E-02  0.1266605E+00
        -11   -1    0    0    0    0  0.00000000000E+00  0.00000000000E+00  0.45593999997E+02  0.45594000000E+02  0.51100000000E-03 0. -1.
         11   -1    0    0    0    0 -0.00000000000E+00 -0.00000000000E+00 -0.45593999997E+02  0.45594000000E+02  0.51100000000E-03 0.  1.
    9900012    2    1    2    0    0  0.18422085168E+02  0.11479502339E+02 -0.23357557709E+02  0.59301832183E+02  0.49999796022E+02 0.  0.
         12    1    1    2    0    0 -0.18422085168E+02 -0.11479502339E+02  0.23357557709E+02  0.31886167817E+02  0.00000000000E+00 0. -1.
         11    1    3    3    0    0  0.12689531308E+02  0.12011955496E+02  0.11599043554E+02  0.20972579509E+02  0.51100000000E-03 0. -1.
        -11    1    3    3    0    0  0.53512924727E+01  0.57742818894E+01 -0.10830142671E+02  0.13389199117E+02  0.51100000000E-03 0.  1.
        -12    1    3    3    0    0  0.38126138754E+00 -0.63067350465E+01 -0.24126458593E+02  0.24940053557E+02  0.00000000000E+00 0.  1.
</event>
<event>
 7    1  0.5634483E-012  0.5930192E+02  0.7816164E-02  0.1266605E+00
        -11   -1    0    0    0    0  0.00000000000E+00  0.00000000000E+00  0.45593999997E+02  0.45594000000E+02  0.51100000000E-03 0.  1.
         11   -1    0    0    0    0 -0.00000000000E+00 -0.00000000000E+00 -0.45593999997E+02  0.45594000000E+02  0.51100000000E-03 0. -1.
    9900012    2    1    2    0    0  0.14322226794E+02 -0.16272010624E+02  0.23384126269E+02  0.59301923549E+02  0.49999962652E+02 0.  0.
         12    1    1    2    0    0 -0.14322226794E+02  0.16272010624E+02 -0.23384126269E+02  0.31886076451E+02  0.00000000000E+00 0. -1.
         11    1    3    3    0    0  0.81994055522E+01 -0.11527951086E+02  0.41643273076E+01  0.14746712510E+02  0.51100000000E-03 0. -1.
        -11    1    3    3    0    0  0.19059831367E+02 -0.26736323019E+01  0.23861076652E+02  0.30655773693E+02  0.51100000000E-03 0.  1.
         12    1    3    3    0    0 -0.12937010126E+02 -0.20704272357E+01 -0.46412776916E+01  0.13899437347E+02  0.00000000000E+00 0. -1.
</event>
<event>
 7    1  0.5634483E-012  0.5930195E+02  0.7816164E-02  0.1266605E+00
        -11   -1    0    0    0    0  0.00000000000E+00  0.00000000000E+00  0.45593999997E+02  0.45594000000E+02  0.51100000000E-03 0.  1.
         11   -1    0    0    0    0 -0.00000000000E+00 -0.00000000000E+00 -0.45593999997E+02  0.45594000000E+02  0.51100000000E-03 0. -1.
    9900012    2    1    2    0    0 -0.20972682579E+02  0.11957134393E+02  0.20830111711E+02  0.59301952403E+02  0.50000015275E+02 0.  0.
         12    1    1    2    0    0  0.20972682579E+02 -0.11957134393E+02 -0.20830111711E+02  0.31886047597E+02  0.00000000000E+00 0. -1.
         11    1    3    3    0    0  0.81546067587E+00  0.23437860013E+02  0.16647264441E+02  0.28759862165E+02  0.51100000000E-03 0. -1.
        -11    1    3    3    0    0  0.77067447658E+00 -0.11777053549E+00  0.52043737256E+01  0.52624438414E+01  0.51100000000E-03 0.  1.
         12    1    3    3    0    0 -0.22558817731E+02 -0.11362955085E+02 -0.10215264554E+01  0.25279646397E+02  0.00000000000E+00 0. -1.
</event>
<event>
 7    1  0.5634483E-012  0.5930195E+02  0.7816164E-02  0.1266605E+00
        -11   -1    0    0    0    0  0.00000000000E+00  0.00000000000E+00  0.45593999997E+02  0.45594000000E+02  0.51100000000E-03 0.  1.
         11   -1    0    0    0    0 -0.00000000000E+00 -0.00000000000E+00 -0.45593999997E+02  0.45594000000E+02  0.51100000000E-03 0. -1.
    9900012    2    1    2    0    0 -0.12522122757E+02 -0.21319455579E+02  0.20134477694E+02  0.59301953890E+02  0.50000017986E+02 0.  0.
         12    1    1    2    0    0  0.12522122757E+02  0.21319455579E+02 -0.20134477694E+02  0.31886046110E+02  0.00000000000E+00 0. -1.
         11    1    3    3    0    0  0.37941514391E+01  0.50772236208E+01  0.11242652168E+01  0.64372165862E+01  0.51100000000E-03 0. -1.
        -11    1    3    3    0    0 -0.10063780017E+02  0.17457600728E+00  0.23161390781E+02  0.25253913918E+02  0.51100000000E-03 0.  1.
         12    1    3    3    0    0 -0.62524941794E+01 -0.26571255207E+02 -0.41511783039E+01  0.27610823386E+02  0.00000000000E+00 0. -1.
</event>
<event>
 7    1  0.5634483E-012  0.5930192E+02  0.7816164E-02  0.1266605E+00
        -11   -1    0    0    0    0  0.00000000000E+00  0.00000000000E+00  0.45593999997E+02  0.45594000000E+02  0.51100000000E-03 0.  1.
         11   -1    0    0    0    0 -0.00000000000E+00 -0.00000000000E+00 -0.45593999997E+02  0.45594000000E+02  0.51100000000E-03 0. -1.
    9900012    2    1    2    0    0  0.24406336639E+02  0.24273109763E+01  0.20375506680E+02  0.59301915587E+02  0.49999948132E+02 0.  0.
         12    1    1    2    0    0 -0.24406336639E+02 -0.24273109763E+01 -0.20375506680E+02  0.31886084413E+02  0.00000000000E+00 0. -1.
         11    1    3    3    0    0  0.17180411397E+02  0.23590185937E+02  0.29947723452E+01  0.29336531321E+02  0.51100000000E-03 0. -1.
        -11    1    3    3    0    0  0.63347247421E+01 -0.10157095591E+02  0.40092468269E+01  0.12624158934E+02  0.51100000000E-03 0.  1.
        -12    1    3    3    0    0  0.89120049952E+00 -0.11005779369E+02  0.13371487508E+02  0.17341225332E+02  0.00000000000E+00 0.  1.
</event>
<event>
 7    1  0.5634483E-012  0.5930196E+02  0.7816164E-02  0.1266605E+00
        -11   -1    0    0    0    0  0.00000000000E+00  0.00000000000E+00  0.45593999997E+02  0.45594000000E+02  0.51100000000E-03 0. -1.
         11   -1    0    0    0    0 -0.00000000000E+00 -0.00000000000E+00 -0.45593999997E+02  0.45594000000E+02  0.51100000000E-03 0.  1.
    9900012    2    1    2    0    0  0.21548093099E+00  0.17311548603E+02 -0.26776551296E+02  0.59301955304E+02  0.50000020565E+02 0.  0.
         12    1    1    2    0    0 -0.21548093099E+00 -0.17311548603E+02  0.26776551296E+02  0.31886044696E+02  0.00000000000E+00 0. -1.
         11    1    3    3    0    0  0.11768412371E+02  0.23460223085E+02 -0.17544585179E+02  0.31570398577E+02  0.51100000000E-03 0. -1.
        -11    1    3    3    0    0 -0.21290595237E+01  0.84769316126E+01 -0.27127724207E+01  0.91515243805E+01  0.51100000000E-03 0.  1.
         12    1    3    3    0    0 -0.94238719164E+01 -0.14625606095E+02 -0.65191936964E+01  0.18580032346E+02  0.00000000000E+00 0. -1.
</event>
<event>
 7    1  0.5634483E-012  0.5930191E+02  0.7816164E-02  0.1266605E+00
        -11   -1    0    0    0    0  0.00000000000E+00  0.00000000000E+00  0.45593999997E+02  0.45594000000E+02  0.51100000000E-03 0. -1.
         11   -1    0    0    0    0 -0.00000000000E+00 -0.00000000000E+00 -0.45593999997E+02  0.45594000000E+02  0.51100000000E-03 0.  1.
    9900012    2    1    2    0    0  0.15120590739E+02  0.57072048887E+01 -0.27486690807E+02  0.59301911757E+02  0.49999941145E+02 0.  0.
         12    1    1    2    0    0 -0.15120590739E+02 -0.57072048887E+01  0.27486690807E+02  0.31886088243E+02  0.00000000000E+00 0. -1.
         11    1    3    3    0    0  0.30806488455E+01  0.15981218810E+02  0.34592156076E+01  0.16638988095E+02  0.51100000000E-03 0. -1.
        -11    1    3    3    0    0  0.17987617289E+01 -0.13022815057E+02 -0.40561516400E+01  0.13757965770E+02  0.51100000000E-03 0.  1.
        -12    1    3    3    0    0  0.10241180164E+02  0.27488011356E+01 -0.26889754775E+02  0.28904957891E+02  0.00000000000E+00 0.  1.
</event>
<event>
 7    1  0.5634483E-012  0.5930193E+02  0.7816164E-02  0.1266605E+00
        -11   -1    0    0    0    0  0.00000000000E+00  0.00000000000E+00  0.45593999997E+02  0.45594000000E+02  0.51100000000E-03 0.  1.
         11   -1    0    0    0    0 -0.00000000000E+00 -0.00000000000E+00 -0.45593999997E+02  0.45594000000E+02  0.51100000000E-03 0. -1.
    9900012    2    1    2    0    0  0.18888896591E+02  0.18496119365E+02  0.17827634078E+02  0.59301931211E+02  0.49999976625E+02 0.  0.
         12    1    1    2    0    0 -0.18888896591E+02 -0.18496119365E+02 -0.17827634078E+02  0.31886068789E+02  0.00000000000E+00 0. -1.
         11    1    3    3    0    0 -0.30387339977E+01  0.44742658545E+01 -0.15623267175E+02  0.16532980273E+02  0.51100000000E-03 0. -1.
        -11    1    3    3    0    0  0.21716648786E+01  0.13793480273E+01  0.10712879907E+01  0.27868239172E+01  0.51100000000E-03 0.  1.
         12    1    3    3    0    0  0.19755965710E+02  0.12642505484E+02  0.32379613262E+02  0.39982127020E+02  0.00000000000E+00 0. -1.
</event>
<event>
 7    1  0.5634483E-012  0.5930202E+02  0.7816164E-02  0.1266604E+00
        -11   -1    0    0    0    0  0.00000000000E+00  0.00000000000E+00  0.45593999997E+02  0.45594000000E+02  0.51100000000E-03 0. -1.
         11   -1    0    0    0    0 -0.00000000000E+00 -0.00000000000E+00 -0.45593999997E+02  0.45594000000E+02  0.51100000000E-03 0.  1.
    9900012    2    1    2    0    0  0.26502119640E+01  0.20264086803E+02  0.24475676872E+02  0.59302021957E+02  0.50000142124E+02 0.  0.
         12    1    1    2    0    0 -0.26502119640E+01 -0.20264086803E+02 -0.24475676872E+02  0.31885978043E+02  0.00000000000E+00 0. -1.
         11    1    3    3    0    0  0.14158659132E+01  0.19093829453E+02  0.16905338476E+01  0.19220741515E+02  0.51100000000E-03 0. -1.
        -11    1    3    3    0    0  0.16707655428E+01  0.50446844124E+01 -0.76956234347E+01  0.93521611743E+01  0.51100000000E-03 0.  1.
         12    1    3    3    0    0 -0.43641949197E+00 -0.38744270619E+01  0.30480766459E+02  0.30729119267E+02  0.00000000000E+00 0. -1.
</event>
<event>
 7    1  0.5634483E-012  0.5930195E+02  0.7816164E-02  0.1266605E+00
        -11   -1    0    0    0    0  0.00000000000E+00  0.00000000000E+00  0.45593999997E+02  0.45594000000E+02  0.51100000000E-03 0.  1.
         11   -1    0    0    0    0 -0.00000000000E+00 -0.00000000000E+00 -0.45593999997E+02  0.45594000000E+02  0.51100000000E-03 0. -1.
    9900012    2    1    2    0    0 -0.46187700093E+01 -0.30719120516E+02 -0.71918453751E+01  0.59301952243E+02  0.50000014983E+02 0.  0.
         12    1    1    2    0    0  0.46187700093E+01  0.30719120516E+02  0.71918453751E+01  0.31886047757E+02  0.00000000000E+00 0. -1.
         11    1    3    3    0    0 -0.51416787252E+01 -0.22026298143E+02 -0.55307532253E+01  0.23284842742E+02  0.51100000000E-03 0.  1.
        -11    1    3    3    0    0  0.67239272801E+01 -0.20331960100E+02 -0.58150436766E+01  0.22190415336E+02  0.51100000000E-03 0. -1.
         12    1    3    3    0    0 -0.62010185643E+01  0.11639137727E+02  0.41539515268E+01  0.13826694165E+02  0.00000000000E+00 0. -1.
</event>
<event>
 7    1  0.5634483E-012  0.5930196E+02  0.7816164E-02  0.1266605E+00
        -11   -1    0    0    0    0  0.00000000000E+00  0.00000000000E+00  0.45593999997E+02  0.45594000000E+02  0.51100000000E-03 0. -1.
         11   -1    0    0    0    0 -0.00000000000E+00 -0.00000000000E+00 -0.45593999997E+02  0.45594000000E+02  0.51100000000E-03 0.  1.
    9900012    2    1    2    0    0  0.16145311129E+02  0.23244873036E+02 -0.14687548525E+02  0.59301964254E+02  0.50000036889E+02 0.  0.
         12    1    1    2    0    0 -0.16145311129E+02 -0.23244873036E+02  0.14687548525E+02  0.31886035746E+02  0.00000000000E+00 0. -1.
         11    1    3    3    0    0  0.11267538128E+02  0.12025731664E+02 -0.98626763921E+01  0.19205416512E+02  0.51100000000E-03 0.  1.
        -11    1    3    3    0    0  0.52632175774E+01  0.15377572538E+02  0.13607163566E+02  0.21197313438E+02  0.51100000000E-03 0. -1.
         12    1    3    3    0    0 -0.38544457663E+00 -0.41584311664E+01 -0.18432035699E+02  0.18899234304E+02  0.00000000000E+00 0. -1.
</event>
<event>
 7    1  0.5634483E-012  0.5930199E+02  0.7816164E-02  0.1266605E+00
        -11   -1    0    0    0    0  0.00000000000E+00  0.00000000000E+00  0.45593999997E+02  0.45594000000E+02  0.51100000000E-03 0.  1.
         11   -1    0    0    0    0 -0.00000000000E+00 -0.00000000000E+00 -0.45593999997E+02  0.45594000000E+02  0.51100000000E-03 0. -1.
    9900012    2    1    2    0    0  0.14999706236E+02  0.14786161507E+02  0.23939421580E+02  0.59301989512E+02  0.50000082952E+02 0.  0.
         12    1    1    2    0    0 -0.14999706236E+02 -0.14786161507E+02 -0.23939421580E+02  0.31886010488E+02  0.00000000000E+00 0. -1.
         11    1    3    3    0    0  0.13795302545E+02 -0.11344658849E+02  0.14112704784E+01  0.17916566115E+02  0.51100000000E-03 0. -1.
        -11    1    3    3    0    0  0.73258377780E+01  0.11028804691E+02 -0.41201085120E+00  0.13246591459E+02  0.51100000000E-03 0.  1.
        -12    1    3    3    0    0 -0.61214340875E+01  0.15102015665E+02  0.22940161953E+02  0.28138831938E+02  0.00000000000E+00 0.  1.
</event>
<event>
 7    1  0.5634483E-012  0.5930194E+02  0.7816164E-02  0.1266605E+00
        -11   -1    0    0    0    0  0.00000000000E+00  0.00000000000E+00  0.45593999997E+02  0.45594000000E+02  0.51100000000E-03 0.  1.
         11   -1    0    0    0    0 -0.00000000000E+00 -0.00000000000E+00 -0.45593999997E+02  0.45594000000E+02  0.51100000000E-03 0. -1.
    9900012    2    1    2    0    0 -0.55061761459E+01  0.25825692677E+02  0.17872784003E+02  0.59301940570E+02  0.49999993693E+02 0.  0.
         12    1    1    2    0    0  0.55061761459E+01 -0.25825692677E+02 -0.17872784003E+02  0.31886059430E+02  0.00000000000E+00 0. -1.
         11    1    3    3    0    0  0.40273667635E+01 -0.23166995724E+01  0.19963601189E+02  0.20497125473E+02  0.51100000000E-03 0. -1.
        -11    1    3    3    0    0 -0.15002577687E+02  0.73542147499E+01  0.22991101128E+01  0.16865577944E+02  0.51100000000E-03 0.  1.
        -12    1    3    3    0    0  0.54690347772E+01  0.20788177499E+02 -0.43899272988E+01  0.21939237152E+02  0.00000000000E+00 0.  1.
</event>
<event>
 7    1  0.5634483E-012  0.5930191E+02  0.7816164E-02  0.1266605E+00
        -11   -1    0    0    0    0  0.00000000000E+00  0.00000000000E+00  0.45593999997E+02  0.45594000000E+02  0.51100000000E-03 0.  1.
         11   -1    0    0    0    0 -0.00000000000E+00 -0.00000000000E+00 -0.45593999997E+02  0.45594000000E+02  0.51100000000E-03 0. -1.
    9900012    2    1    2    0    0 -0.37358943577E+01 -0.95534379908E+01  0.30191019778E+02  0.59301909626E+02  0.49999937260E+02 0.  0.
         12    1    1    2    0    0  0.37358943577E+01  0.95534379908E+01 -0.30191019778E+02  0.31886090374E+02  0.00000000000E+00 0. -1.
         11    1    3    3    0    0  0.87179391166E+00  0.77808707730E+01 -0.23946583237E+01  0.81875737163E+01  0.51100000000E-03 0. -1.
        -11    1    3    3    0    0  0.13337975612E+02  0.11414323690E+01  0.13866990894E+02  0.19274280738E+02  0.51100000000E-03 0.  1.
         12    1    3    3    0    0 -0.17945663881E+02 -0.18475741133E+02  0.18718687208E+02  0.31840055172E+02  0.00000000000E+00 0. -1.
</event>
<event>
 7    1  0.5634483E-012  0.5930191E+02  0.7816164E-02  0.1266605E+00
        -11   -1    0    0    0    0  0.00000000000E+00  0.00000000000E+00  0.45593999997E+02  0.45594000000E+02  0.51100000000E-03 0.  1.
         11   -1    0    0    0    0 -0.00000000000E+00 -0.00000000000E+00 -0.45593999997E+02  0.45594000000E+02  0.51100000000E-03 0. -1.
    9900012    2    1    2    0    0  0.55812943108E+00  0.21756104644E+02  0.23304144310E+02  0.59301909933E+02  0.49999937819E+02 0.  0.
         12    1    1    2    0    0 -0.55812943108E+00 -0.21756104644E+02 -0.23304144310E+02  0.31886090067E+02  0.00000000000E+00 0. -1.
         11    1    3    3    0    0  0.55621811736E+01  0.27547263024E+02  0.29238582163E+02  0.40554706838E+02  0.51100000000E-03 0. -1.
        -11    1    3    3    0    0  0.15258189816E+01 -0.66469772981E+00  0.48556879026E+01  0.51329963866E+01  0.51100000000E-03 0.  1.
         12    1    3    3    0    0 -0.65298707241E+01 -0.51264606501E+01 -0.10790125756E+02  0.13614206709E+02  0.00000000000E+00 0. -1.
</event>
<event>
 7    1  0.5634483E-012  0.5930181E+02  0.7816164E-02  0.1266605E+00
        -11   -1    0    0    0    0  0.00000000000E+00  0.00000000000E+00  0.45593999997E+02  0.45594000000E+02  0.51100000000E-03 0. -1.
         11   -1    0    0    0    0 -0.00000000000E+00 -0.00000000000E+00 -0.45593999997E+02  0.45594000000E+02  0.51100000000E-03 0.  1.
    9900012    2    1    2    0    0  0.21530775983E+02 -0.57958821884E+01 -0.22793913515E+02  0.59301810857E+02  0.49999757128E+02 0.  0.
         12    1    1    2    0    0 -0.21530775983E+02  0.57958821884E+01  0.22793913515E+02  0.31886189143E+02  0.00000000000E+00 0. -1.
         11    1    3    3    0    0  0.84984854013E+01  0.53606688850E+01  0.23100976910E+00  0.10050591564E+02  0.51100000000E-03 0. -1.
        -11    1    3    3    0    0  0.25840870957E+02 -0.91121876992E+01 -0.23749257992E+02  0.36260306561E+02  0.51100000000E-03 0.  1.
         12    1    3    3    0    0 -0.12808580375E+02 -0.20443633742E+01  0.72433470809E+00  0.12990912732E+02  0.00000000000E+00 0. -1.
</event>
<event>
 7    1  0.5634483E-012  0.5930193E+02  0.7816164E-02  0.1266605E+00
        -11   -1    0    0    0    0  0.00000000000E+00  0.00000000000E+00  0.45593999997E+02  0.45594000000E+02  0.51100000000E-03 0.  1.
         11   -1    0    0    0    0 -0.00000000000E+00 -0.00000000000E+00 -0.45593999997E+02  0.45594000000E+02  0.51100000000E-03 0. -1.
    9900012    2    1    2    0    0  0.11603693586E+02 -0.58979848428E+01  0.29108237934E+02  0.59301930226E+02  0.49999974829E+02 0.  0.
         12    1    1    2    0    0 -0.11603693586E+02  0.58979848428E+01 -0.29108237934E+02  0.31886069774E+02  0.00000000000E+00 0. -1.
         11    1    3    3    0    0  0.17271598616E+02  0.72858613338E+01  0.98364877675E+01  0.21169515488E+02  0.51100000000E-03 0. -1.
        -11    1    3    3    0    0 -0.18264557522E+01  0.94662376490E+01  0.80739780568E+01  0.12575162733E+02  0.51100000000E-03 0.  1.
         12    1    3    3    0    0 -0.38414492779E+01 -0.22650083826E+02  0.11197772109E+02  0.25557252005E+02  0.00000000000E+00 0. -1.
</event>
<event>
 7    1  0.5634483E-012  0.5930200E+02  0.7816164E-02  0.1266605E+00
        -11   -1    0    0    0    0  0.00000000000E+00  0.00000000000E+00  0.45593999997E+02  0.45594000000E+02  0.51100000000E-03 0. -1.
         11   -1    0    0    0    0 -0.00000000000E+00 -0.00000000000E+00 -0.45593999997E+02  0.45594000000E+02  0.51100000000E-03 0.  1.
    9900012    2    1    2    0    0 -0.20556144971E+02 -0.24358010102E+02  0.92156125266E+00  0.59301999509E+02  0.50000101184E+02 0.  0.
         12    1    1    2    0    0  0.20556144971E+02  0.24358010102E+02 -0.92156125266E+00  0.31886000491E+02  0.00000000000E+00 0. -1.
         11    1    3    3    0    0  0.25645730426E+01  0.51061135804E+01 -0.89278249322E+01  0.10599787218E+02  0.51100000000E-03 0. -1.
        -11    1    3    3    0    0 -0.99574479365E+00 -0.19986442270E+02  0.13803336868E+02  0.24310110886E+02  0.51100000000E-03 0.  1.
        -12    1    3    3    0    0 -0.22124973220E+02 -0.94776814121E+01 -0.39539506835E+01  0.24392101405E+02  0.00000000000E+00 0.  1.
</event>
<event>
 7    1  0.5634483E-012  0.5930189E+02  0.7816164E-02  0.1266605E+00
        -11   -1    0    0    0    0  0.00000000000E+00  0.00000000000E+00  0.45593999997E+02  0.45594000000E+02  0.51100000000E-03 0.  1.
         11   -1    0    0    0    0 -0.00000000000E+00 -0.00000000000E+00 -0.45593999997E+02  0.45594000000E+02  0.51100000000E-03 0. -1.
    9900012    2    1    2    0    0 -0.27266760603E+02  0.39736112482E+01  0.16045505931E+02  0.59301888906E+02  0.49999899471E+02 0.  0.
         12    1    1    2    0    0  0.27266760603E+02 -0.39736112482E+01 -0.16045505931E+02  0.31886111094E+02  0.00000000000E+00 0. -1.
         11    1    3    3    0    0  0.71770304811E+01 -0.42714428258E+01  0.11292821770E+02  0.14045740070E+02  0.51100000000E-03 0. -1.
        -11    1    3    3    0    0  0.37651365919E+01  0.27557416966E+01 -0.34377550954E+01  0.57955609056E+01  0.51100000000E-03 0.  1.
        -12    1    3    3    0    0 -0.38208927676E+02  0.54893123774E+01  0.81904392560E+01  0.39460587930E+02  0.00000000000E+00 0.  1.
</event>
<event>
 7    1  0.5634483E-012  0.5930196E+02  0.7816164E-02  0.1266605E+00
        -11   -1    0    0    0    0  0.00000000000E+00  0.00000000000E+00  0.45593999997E+02  0.45594000000E+02  0.51100000000E-03 0.  1.
         11   -1    0    0    0    0 -0.00000000000E+00 -0.00000000000E+00 -0.45593999997E+02  0.45594000000E+02  0.51100000000E-03 0. -1.
    9900012    2    1    2    0    0 -0.14285148511E+02  0.11352855280E+02  0.26148931506E+02  0.59301962148E+02  0.50000033047E+02 0.  0.
         12    1    1    2    0    0  0.14285148511E+02 -0.11352855280E+02 -0.26148931506E+02  0.31886037852E+02  0.00000000000E+00 0. -1.
         11    1    3    3    0    0  0.16773441062E+00  0.20968396200E+02 -0.22047501941E+01  0.21084655504E+02  0.51100000000E-03 0. -1.
        -11    1    3    3    0    0  0.23282643433E+01  0.11091527874E+01 -0.98249106854E+00  0.27597687799E+01  0.51100000000E-03 0.  1.
        -12    1    3    3    0    0 -0.16781147265E+02 -0.10724693708E+02  0.29336172769E+02  0.35457537864E+02  0.00000000000E+00 0.  1.
</event>
<event>
 7    1  0.5634483E-012  0.5930195E+02  0.7816164E-02  0.1266605E+00
        -11   -1    0    0    0    0  0.00000000000E+00  0.00000000000E+00  0.45593999997E+02  0.45594000000E+02  0.51100000000E-03 0.  1.
         11   -1    0    0    0    0 -0.00000000000E+00 -0.00000000000E+00 -0.45593999997E+02  0.45594000000E+02  0.51100000000E-03 0. -1.
    9900012    2    1    2    0    0  0.27141388450E+02 -0.13247711874E+02 -0.10225625605E+02  0.59301948882E+02  0.50000008853E+02 0.  0.
         12    1    1    2    0    0 -0.27141388450E+02  0.13247711874E+02  0.10225625605E+02  0.31886051118E+02  0.00000000000E+00 0. -1.
         11    1    3    3    0    0  0.14022929106E+02 -0.43970767566E+01 -0.15476786701E+02  0.21342627569E+02  0.51100000000E-03 0. -1.
        -11    1    3    3    0    0  0.23262542899E+02  0.11434046755E+01  0.43270669589E+01  0.23689170208E+02  0.51100000000E-03 0.  1.
        -12    1    3    3    0    0 -0.10144083556E+02 -0.99940397933E+01  0.92409413630E+00  0.14270151105E+02  0.00000000000E+00 0.  1.
</event>
<event>
 7    1  0.5634483E-012  0.5930196E+02  0.7816164E-02  0.1266605E+00
        -11   -1    0    0    0    0  0.00000000000E+00  0.00000000000E+00  0.45593999997E+02  0.45594000000E+02  0.51100000000E-03 0.  1.
         11   -1    0    0    0    0 -0.00000000000E+00 -0.00000000000E+00 -0.45593999997E+02  0.45594000000E+02  0.51100000000E-03 0. -1.
    9900012    2    1    2    0    0 -0.13084074976E+02  0.67197231218E+01  0.28290838948E+02  0.59301964417E+02  0.50000037185E+02 0.  0.
         12    1    1    2    0    0  0.13084074976E+02 -0.67197231218E+01 -0.28290838948E+02  0.31886035583E+02  0.00000000000E+00 0. -1.
         11    1    3    3    0    0  0.76407146651E+00  0.37043887127E+00  0.92952751559E+01  0.93339793576E+01  0.51100000000E-03 0.  1.
        -11    1    3    3    0    0 -0.18536748357E+01 -0.10441674401E+02 -0.98686358431E+01  0.14486360770E+02  0.51100000000E-03 0. -1.
         12    1    3    3    0    0 -0.11994471606E+02  0.16790958652E+02  0.28864199636E+02  0.35481624289E+02  0.00000000000E+00 0. -1.
</event>
<event>
 7    1  0.5634483E-012  0.5930195E+02  0.7816164E-02  0.1266605E+00
        -11   -1    0    0    0    0  0.00000000000E+00  0.00000000000E+00  0.45593999997E+02  0.45594000000E+02  0.51100000000E-03 0. -1.
         11   -1    0    0    0    0 -0.00000000000E+00 -0.00000000000E+00 -0.45593999997E+02  0.45594000000E+02  0.51100000000E-03 0.  1.
    9900012    2    1    2    0    0  0.15610886283E+02  0.16562317090E+02 -0.22331819988E+02  0.59301948160E+02  0.50000007536E+02 0.  0.
         12    1    1    2    0    0 -0.15610886283E+02 -0.16562317090E+02  0.22331819988E+02  0.31886051840E+02  0.00000000000E+00 0. -1.
         11    1    3    3    0    0 -0.79122132907E+00 -0.15668254108E+01  0.53330930830E+01  0.56145218098E+01  0.51100000000E-03 0. -1.
        -11    1    3    3    0    0  0.14234787595E+02  0.76739513709E-01 -0.31975876167E+02  0.35001310315E+02  0.51100000000E-03 0.  1.
         12    1    3    3    0    0  0.21673200172E+01  0.18052402988E+02  0.43109630957E+01  0.18686116036E+02  0.00000000000E+00 0. -1.
</event>
<event>
 7    1  0.5634483E-012  0.5930193E+02  0.7816164E-02  0.1266605E+00
        -11   -1    0    0    0    0  0.00000000000E+00  0.00000000000E+00  0.45593999997E+02  0.45594000000E+02  0.51100000000E-03 0.  1.
         11   -1    0    0    0    0 -0.00000000000E+00 -0.00000000000E+00 -0.45593999997E+02  0.45594000000E+02  0.51100000000E-03 0. -1.
    9900012    2    1    2    0    0 -0.68906391504E+01 -0.17390659825E+02  0.25822577006E+02  0.59301930310E+02  0.49999974983E+02 0.  0.
         12    1    1    2    0    0  0.68906391504E+01  0.17390659825E+02 -0.25822577006E+02  0.31886069690E+02  0.00000000000E+00 0. -1.
         11    1    3    3    0    0 -0.14317956087E+02 -0.11115986137E+02 -0.62670566679E+01  0.19179286062E+02  0.51100000000E-03 0. -1.
        -11    1    3    3    0    0  0.19344651994E+01 -0.66927506047E+01 -0.58094672850E+00  0.69908916188E+01  0.51100000000E-03 0.  1.
        -12    1    3    3    0    0  0.54928517374E+01  0.41807691662E+00  0.32670580402E+02  0.33131752630E+02  0.00000000000E+00 0.  1.
</event>
<event>
 7    1  0.5634483E-012  0.5930205E+02  0.7816164E-02  0.1266604E+00
        -11   -1    0    0    0    0  0.00000000000E+00  0.00000000000E+00  0.45593999997E+02  0.45594000000E+02  0.51100000000E-03 0. -1.
         11   -1    0    0    0    0 -0.00000000000E+00 -0.00000000000E+00 -0.45593999997E+02  0.45594000000E+02  0.51100000000E-03 0.  1.
    9900012    2    1    2    0    0 -0.30046702599E+01  0.25838587767E+02 -0.18440534794E+02  0.59302047221E+02  0.50000188199E+02 0.  0.
         12    1    1    2    0    0  0.30046702599E+01 -0.25838587767E+02  0.18440534794E+02  0.31885952779E+02  0.00000000000E+00 0. -1.
         11    1    3    3    0    0 -0.14681837698E+02  0.33312715107E+02 -0.15238892224E+02  0.39465392212E+02  0.51100000000E-03 0. -1.
        -11    1    3    3    0    0  0.77368922203E+01  0.54773453478E-01  0.39890552731E+01  0.87048873395E+01  0.51100000000E-03 0.  1.
        -12    1    3    3    0    0  0.39402752181E+01 -0.75289007937E+01 -0.71906978433E+01  0.11131767669E+02  0.00000000000E+00 0.  1.
</event>
<event>
 7    1  0.5634483E-012  0.5930191E+02  0.7816164E-02  0.1266605E+00
        -11   -1    0    0    0    0  0.00000000000E+00  0.00000000000E+00  0.45593999997E+02  0.45594000000E+02  0.51100000000E-03 0. -1.
         11   -1    0    0    0    0 -0.00000000000E+00 -0.00000000000E+00 -0.45593999997E+02  0.45594000000E+02  0.51100000000E-03 0.  1.
    9900012    2    1    2    0    0 -0.22028494891E+02  0.18091589249E+02 -0.14288541531E+02  0.59301912002E+02  0.49999941592E+02 0.  0.
         12    1    1    2    0    0  0.22028494891E+02 -0.18091589249E+02  0.14288541531E+02  0.31886087998E+02  0.00000000000E+00 0. -1.
         11    1    3    3    0    0 -0.78637736833E+00 -0.16038336086E+02 -0.29857561486E+01  0.16332830551E+02  0.51100000000E-03 0. -1.
        -11    1    3    3    0    0  0.73279831790E+00  0.36218190092E+01 -0.21404550249E+01  0.42703763634E+01  0.51100000000E-03 0.  1.
        -12    1    3    3    0    0 -0.21974915841E+02  0.30508106326E+02 -0.91623303578E+01  0.38698705087E+02  0.00000000000E+00 0.  1.
</event>
<event>
 7    1  0.5634483E-012  0.5930194E+02  0.7816164E-02  0.1266605E+00
        -11   -1    0    0    0    0  0.00000000000E+00  0.00000000000E+00  0.45593999997E+02  0.45594000000E+02  0.51100000000E-03 0.  1.
         11   -1    0    0    0    0 -0.00000000000E+00 -0.00000000000E+00 -0.45593999997E+02  0.45594000000E+02  0.51100000000E-03 0. -1.
    9900012    2    1    2    0    0 -0.19004797294E+01 -0.10739008878E+02  0.29963022626E+02  0.59301939413E+02  0.49999991583E+02 0.  0.
         12    1    1    2    0    0  0.19004797294E+01  0.10739008878E+02 -0.29963022626E+02  0.31886060587E+02  0.00000000000E+00 0. -1.
         11    1    3    3    0    0  0.63990097800E+01  0.76737360270E+01 -0.14985583483E+01  0.10103426555E+02  0.51100000000E-03 0. -1.
        -11    1    3    3    0    0  0.70083135647E+00 -0.19440747233E+02  0.34531144311E+02  0.39633745032E+02  0.51100000000E-03 0.  1.
         12    1    3    3    0    0 -0.90003208659E+01  0.10280023273E+01 -0.30695633369E+01  0.95647678254E+01  0.00000000000E+00 0. -1.
</event>
<event>
 7    1  0.5634483E-012  0.5930194E+02  0.7816164E-02  0.1266605E+00
        -11   -1    0    0    0    0  0.00000000000E+00  0.00000000000E+00  0.45593999997E+02  0.45594000000E+02  0.51100000000E-03 0. -1.
         11   -1    0    0    0    0 -0.00000000000E+00 -0.00000000000E+00 -0.45593999997E+02  0.45594000000E+02  0.51100000000E-03 0.  1.
    9900012    2    1    2    0    0 -0.69075086966E+01  0.74017092181E+00 -0.31120074508E+02  0.59301944007E+02  0.49999999962E+02 0.  0.
         12    1    1    2    0    0  0.69075086966E+01 -0.74017092181E+00  0.31120074508E+02  0.31886055993E+02  0.00000000000E+00 0. -1.
         11    1    3    3    0    0  0.62599223326E+01 -0.39385787824E+01 -0.21838503911E+01  0.77115649013E+01  0.51100000000E-03 0. -1.
        -11    1    3    3    0    0  0.10824585604E+02  0.51533491396E+01 -0.24375384912E+02  0.27164094881E+02  0.51100000000E-03 0.  1.
        -12    1    3    3    0    0 -0.23992016633E+02 -0.47459943535E+00 -0.45608392053E+01  0.24426284224E+02  0.00000000000E+00 0.  1.
</event>
<event>
 7    1  0.5634483E-012  0.5930191E+02  0.7816164E-02  0.1266605E+00
        -11   -1    0    0    0    0  0.00000000000E+00  0.00000000000E+00  0.45593999997E+02  0.45594000000E+02  0.51100000000E-03 0.  1.
         11   -1    0    0    0    0 -0.00000000000E+00 -0.00000000000E+00 -0.45593999997E+02  0.45594000000E+02  0.51100000000E-03 0. -1.
    9900012    2    1    2    0    0 -0.31734892205E+02  0.10082951237E+01  0.29329946159E+01  0.59301913697E+02  0.49999944684E+02 0.  0.
         12    1    1    2    0    0  0.31734892205E+02 -0.10082951237E+01 -0.29329946159E+01  0.31886086303E+02  0.00000000000E+00 0. -1.
         11    1    3    3    0    0 -0.29695262563E+01 -0.11061383137E+02 -0.24722896785E+01  0.11716846829E+02  0.51100000000E-03 0. -1.
        -11    1    3    3    0    0 -0.86674008993E+01 -0.38803041571E+01  0.16966029715E+02  0.19442910360E+02  0.51100000000E-03 0.  1.
         12    1    3    3    0    0 -0.20097965049E+02  0.15949982418E+02 -0.11560745421E+02  0.28142156508E+02  0.00000000000E+00 0. -1.
</event>
<event>
 7    1  0.5634483E-012  0.5930194E+02  0.7816164E-02  0.1266605E+00
        -11   -1    0    0    0    0  0.00000000000E+00  0.00000000000E+00  0.45593999997E+02  0.45594000000E+02  0.51100000000E-03 0. -1.
         11   -1    0    0    0    0 -0.00000000000E+00 -0.00000000000E+00 -0.45593999997E+02  0.45594000000E+02  0.51100000000E-03 0.  1.
    9900012    2    1    2    0    0 -0.22479354264E+02  0.14380367017E+02 -0.17452928914E+02  0.59301936409E+02  0.49999986105E+02 0.  0.
         12    1    1    2    0    0  0.22479354264E+02 -0.14380367017E+02  0.17452928914E+02  0.31886063591E+02  0.00000000000E+00 0. -1.
         11    1    3    3    0    0  0.25086320338E+01  0.25569738068E+02 -0.42699801664E+01  0.26044912564E+02  0.51100000000E-03 0. -1.
        -11    1    3    3    0    0 -0.68049729358E+01  0.26897117949E+01 -0.11389807532E+01  0.74053685670E+01  0.51100000000E-03 0.  1.
        -12    1    3    3    0    0 -0.18183013362E+02 -0.13879082846E+02 -0.12043967994E+02  0.25851655278E+02  0.00000000000E+00 0.  1.
</event>
<event>
 7    1  0.5634483E-012  0.5930200E+02  0.7816164E-02  0.1266605E+00
        -11   -1    0    0    0    0  0.00000000000E+00  0.00000000000E+00  0.45593999997E+02  0.45594000000E+02  0.51100000000E-03 0. -1.
         11   -1    0    0    0    0 -0.00000000000E+00 -0.00000000000E+00 -0.45593999997E+02  0.45594000000E+02  0.51100000000E-03 0.  1.
    9900012    2    1    2    0    0  0.22170052391E+02 -0.22816767403E+02  0.21450358817E+01  0.59301995599E+02  0.50000094053E+02 0.  0.
         12    1    1    2    0    0 -0.22170052391E+02  0.22816767403E+02 -0.21450358817E+01  0.31886004401E+02  0.00000000000E+00 0. -1.
         11    1    3    3    0    0 -0.13291454509E+01 -0.34719349337E+01  0.13059458510E+02  0.13578306841E+02  0.51100000000E-03 0. -1.
        -11    1    3    3    0    0 -0.45156798598E+01 -0.11586582997E+02 -0.11077606459E+02  0.16653937530E+02  0.51100000000E-03 0.  1.
        -12    1    3    3    0    0  0.28014877701E+02 -0.77582494724E+01  0.16318382986E+00  0.29069751228E+02  0.00000000000E+00 0.  1.
</event>
<event>
 7    1  0.5634483E-012  0.5930195E+02  0.7816164E-02  0.1266605E+00
        -11   -1    0    0    0    0  0.00000000000E+00  0.00000000000E+00  0.45593999997E+02  0.45594000000E+02  0.51100000000E-03 0. -1.
         11   -1    0    0    0    0 -0.00000000000E+00 -0.00000000000E+00 -0.45593999997E+02  0.45594000000E+02  0.51100000000E-03 0.  1.
    9900012    2    1    2    0    0  0.91250673041E+01  0.20400169081E+02 -0.22743929812E+02  0.59301951403E+02  0.50000013451E+02 0.  0.
         12    1    1    2    0    0 -0.91250673041E+01 -0.20400169081E+02  0.22743929812E+02  0.31886048597E+02  0.00000000000E+00 0. -1.
         11    1    3    3    0    0  0.84952133776E+01 -0.52746744432E+01  0.69405904004E+01  0.12172207531E+02  0.51100000000E-03 0. -1.
        -11    1    3    3    0    0  0.10100467943E+02  0.82406980984E+01 -0.22547797084E+02  0.26044802004E+02  0.51100000000E-03 0.  1.
         12    1    3    3    0    0 -0.94706140160E+01  0.17434145426E+02 -0.71367231283E+01  0.21084941868E+02  0.00000000000E+00 0. -1.
</event>
<event>
 7    1  0.5634483E-012  0.5930194E+02  0.7816164E-02  0.1266605E+00
        -11   -1    0    0    0    0  0.00000000000E+00  0.00000000000E+00  0.45593999997E+02  0.45594000000E+02  0.51100000000E-03 0.  1.
         11   -1    0    0    0    0 -0.00000000000E+00 -0.00000000000E+00 -0.45593999997E+02  0.45594000000E+02  0.51100000000E-03 0. -1.
    9900012    2    1    2    0    0 -0.18689224633E+02  0.18398726468E+02  0.18136160788E+02  0.59301943782E+02  0.49999999551E+02 0.  0.
         12    1    1    2    0    0  0.18689224633E+02 -0.18398726468E+02 -0.18136160788E+02  0.31886056218E+02  0.00000000000E+00 0. -1.
         11    1    3    3    0    0 -0.15052146248E+01 -0.45669224065E+01 -0.99945644507E+00  0.49113506066E+01  0.51100000000E-03 0. -1.
        -11    1    3    3    0    0 -0.24929166085E+02  0.44806855403E-01  0.25540295888E+01  0.25059696661E+02  0.51100000000E-03 0.  1.
         12    1    3    3    0    0  0.77451560767E+01  0.22920842020E+02  0.16581587644E+02  0.29330896514E+02  0.00000000000E+00 0. -1.
</event>
<event>
 7    1  0.5634483E-012  0.5930195E+02  0.7816164E-02  0.1266605E+00
        -11   -1    0    0    0    0  0.00000000000E+00  0.00000000000E+00  0.45593999997E+02  0.45594000000E+02  0.51100000000E-03 0.  1.
         11   -1    0    0    0    0 -0.00000000000E+00 -0.00000000000E+00 -0.45593999997E+02  0.45594000000E+02  0.51100000000E-03 0. -1.
    9900012    2    1    2    0    0  0.59835870820E+01 -0.31283581964E+02 -0.15014799355E+01  0.59301948867E+02  0.50000008826E+02 0.  0.
         12    1    1    2    0    0 -0.59835870820E+01  0.31283581964E+02  0.15014799355E+01  0.31886051133E+02  0.00000000000E+00 0. -1.
         11    1    3    3    0    0  0.62119288711E+01  0.94742257524E+01 -0.59864554227E+01  0.12813534356E+02  0.51100000000E-03 0.  1.
        -11    1    3    3    0    0 -0.21166641280E-01 -0.24051073541E+02 -0.83075638831E+01  0.25445435828E+02  0.51100000000E-03 0. -1.
        -12    1    3    3    0    0 -0.20717514788E+00 -0.16706734175E+02  0.12792539370E+02  0.21042978683E+02  0.00000000000E+00 0.  1.
</event>
<event>
 7    1  0.5634483E-012  0.5930159E+02  0.7816164E-02  0.1266606E+00
        -11   -1    0    0    0    0  0.00000000000E+00  0.00000000000E+00  0.45593999997E+02  0.45594000000E+02  0.51100000000E-03 0.  1.
         11   -1    0    0    0    0 -0.00000000000E+00 -0.00000000000E+00 -0.45593999997E+02  0.45594000000E+02  0.51100000000E-03 0. -1.
    9900012    2    1    2    0    0 -0.16107349786E+02 -0.20097920903E+02  0.18798136203E+02  0.59301591196E+02  0.49999356515E+02 0.  0.
         12    1    1    2    0    0  0.16107349786E+02  0.20097920903E+02 -0.18798136203E+02  0.31886408804E+02  0.00000000000E+00 0. -1.
         11    1    3    3    0    0  0.55095420303E+01 -0.13431319627E+02  0.15327170047E+02  0.21111076292E+02  0.51100000000E-03 0. -1.
        -11    1    3    3    0    0 -0.20528819571E+02 -0.16876177829E+02  0.67377258373E+01  0.27415958141E+02  0.51100000000E-03 0.  1.
        -12    1    3    3    0    0 -0.10880722460E+01  0.10209576553E+02 -0.32667596817E+01  0.10774556762E+02  0.00000000000E+00 0.  1.
</event>
<event>
 7    1  0.5634483E-012  0.5930220E+02  0.7816164E-02  0.1266604E+00
        -11   -1    0    0    0    0  0.00000000000E+00  0.00000000000E+00  0.45593999997E+02  0.45594000000E+02  0.51100000000E-03 0. -1.
         11   -1    0    0    0    0 -0.00000000000E+00 -0.00000000000E+00 -0.45593999997E+02  0.45594000000E+02  0.51100000000E-03 0.  1.
    9900012    2    1    2    0    0 -0.28249149284E+02 -0.54555777444E+01 -0.13745041327E+02  0.59302204967E+02  0.50000475888E+02 0.  0.
         12    1    1    2    0    0  0.28249149284E+02  0.54555777444E+01  0.13745041327E+02  0.31885795033E+02  0.00000000000E+00 0. -1.
         11    1    3    3    0    0  0.57223908621E+00  0.13605491738E+01  0.54642751775E+01  0.56601108737E+01  0.51100000000E-03 0. -1.
        -11    1    3    3    0    0 -0.38105570897E+02 -0.49736769861E+00 -0.18572464930E+02  0.42393612276E+02  0.51100000000E-03 0.  1.
         12    1    3    3    0    0  0.92841825263E+01 -0.63187592196E+01 -0.63685157430E+00  0.11248481817E+02  0.00000000000E+00 0. -1.
</event>
<event>
 7    1  0.5634483E-012  0.5930177E+02  0.7816164E-02  0.1266605E+00
        -11   -1    0    0    0    0  0.00000000000E+00  0.00000000000E+00  0.45593999997E+02  0.45594000000E+02  0.51100000000E-03 0.  1.
         11   -1    0    0    0    0 -0.00000000000E+00 -0.00000000000E+00 -0.45593999997E+02  0.45594000000E+02  0.51100000000E-03 0. -1.
    9900012    2    1    2    0    0  0.22372881830E+02 -0.12586975496E+02  0.18914382485E+02  0.59301770083E+02  0.49999682766E+02 0.  0.
         12    1    1    2    0    0 -0.22372881830E+02  0.12586975496E+02 -0.18914382485E+02  0.31886229917E+02  0.00000000000E+00 0. -1.
         11    1    3    3    0    0  0.10490925405E+02  0.15785665762E+02  0.13558341403E+02  0.23303977799E+02  0.51100000000E-03 0.  1.
        -11    1    3    3    0    0 -0.27619162828E+01 -0.40107291579E+01 -0.37545311832E+01  0.61490352575E+01  0.51100000000E-03 0. -1.
        -12    1    3    3    0    0  0.14643872707E+02 -0.24361912100E+02  0.91105722657E+01  0.29848757027E+02  0.00000000000E+00 0.  1.
</event>
<event>
 7    1  0.5634483E-012  0.5930199E+02  0.7816164E-02  0.1266605E+00
        -11   -1    0    0    0    0  0.00000000000E+00  0.00000000000E+00  0.45593999997E+02  0.45594000000E+02  0.51100000000E-03 0.  1.
         11   -1    0    0    0    0 -0.00000000000E+00 -0.00000000000E+00 -0.45593999997E+02  0.45594000000E+02  0.51100000000E-03 0. -1.
    9900012    2    1    2    0    0 -0.25043058783E+02 -0.18080376893E+02  0.79159931165E+01  0.59301987881E+02  0.50000079979E+02 0.  0.
         12    1    1    2    0    0  0.25043058783E+02  0.18080376893E+02 -0.79159931165E+01  0.31886012119E+02  0.00000000000E+00 0. -1.
         11    1    3    3    0    0 -0.57522457111E+01 -0.57002935426E+01 -0.40968082944E+01  0.90755449233E+01  0.51100000000E-03 0.  1.
        -11    1    3    3    0    0  0.39404509409E+01 -0.22901274380E+02  0.48741867557E+01  0.23743487921E+02  0.51100000000E-03 0. -1.
        -12    1    3    3    0    0 -0.23231264013E+02  0.10521191030E+02  0.71386146551E+01  0.26482955037E+02  0.00000000000E+00 0.  1.
</event>
<event>
 7    1  0.5634483E-012  0.5930197E+02  0.7816164E-02  0.1266605E+00
        -11   -1    0    0    0    0  0.00000000000E+00  0.00000000000E+00  0.45593999997E+02  0.45594000000E+02  0.51100000000E-03 0. -1.
         11   -1    0    0    0    0 -0.00000000000E+00 -0.00000000000E+00 -0.45593999997E+02  0.45594000000E+02  0.51100000000E-03 0.  1.
    9900012    2    1    2    0    0 -0.70992349215E+00 -0.31547509748E+02 -0.45792825613E+01  0.59301965574E+02  0.50000039295E+02 0.  0.
         12    1    1    2    0    0  0.70992349215E+00  0.31547509748E+02  0.45792825613E+01  0.31886034426E+02  0.00000000000E+00 0. -1.
         11    1    3    3    0    0 -0.15789474317E+02 -0.18048273801E+02  0.99280135639E+00  0.24000694598E+02  0.51100000000E-03 0. -1.
        -11    1    3    3    0    0 -0.75094451135E+00  0.59939088346E+01 -0.80537340227E+01  0.10067447181E+02  0.51100000000E-03 0.  1.
        -12    1    3    3    0    0  0.15830495336E+02 -0.19493144782E+02  0.24816501050E+01  0.25233823795E+02  0.00000000000E+00 0.  1.
</event>
<event>
 7    1  0.5634483E-012  0.5930193E+02  0.7816164E-02  0.1266605E+00
        -11   -1    0    0    0    0  0.00000000000E+00  0.00000000000E+00  0.45593999997E+02  0.45594000000E+02  0.51100000000E-03 0.  1.
         11   -1    0    0    0    0 -0.00000000000E+00 -0.00000000000E+00 -0.45593999997E+02  0.45594000000E+02  0.51100000000E-03 0. -1.
    9900012    2    1    2    0    0 -0.32473335444E+01 -0.31711091686E+02 -0.76330798311E+00  0.59301934859E+02  0.49999983279E+02 0.  0.
         12    1    1    2    0    0  0.32473335444E+01  0.31711091686E+02  0.76330798311E+00  0.31886065141E+02  0.00000000000E+00 0. -1.
         11    1    3    3    0    0 -0.13286708812E+02 -0.10379160829E+02 -0.93334836860E+01  0.19271157945E+02  0.51100000000E-03 0. -1.
        -11    1    3    3    0    0 -0.10239800335E+02 -0.12590000457E+02  0.76169065046E+01  0.17927043465E+02  0.51100000000E-03 0.  1.
        -12    1    3    3    0    0  0.20279175603E+02 -0.87419304001E+01  0.95326919829E+00  0.22103733450E+02  0.00000000000E+00 0.  1.
</event>
<event>
 7    1  0.5634483E-012  0.5930192E+02  0.7816164E-02  0.1266605E+00
        -11   -1    0    0    0    0  0.00000000000E+00  0.00000000000E+00  0.45593999997E+02  0.45594000000E+02  0.51100000000E-03 0.  1.
         11   -1    0    0    0    0 -0.00000000000E+00 -0.00000000000E+00 -0.45593999997E+02  0.45594000000E+02  0.51100000000E-03 0. -1.
    9900012    2    1    2    0    0  0.22884995301E+02 -0.12790170621E+02  0.18149666598E+02  0.59301923540E+02  0.49999962635E+02 0.  0.
         12    1    1    2    0    0 -0.22884995301E+02  0.12790170621E+02 -0.18149666598E+02  0.31886076460E+02  0.00000000000E+00 0. -1.
         11    1    3    3    0    0 -0.81255246214E+00  0.55156599157E+01  0.75070327917E+01  0.93508442082E+01  0.51100000000E-03 0. -1.
        -11    1    3    3    0    0  0.14149610491E+02 -0.14256434262E+02  0.25106843465E+02  0.32152931187E+02  0.51100000000E-03 0.  1.
         12    1    3    3    0    0  0.95479372719E+01 -0.40493962749E+01 -0.14464209658E+02  0.17798148144E+02  0.00000000000E+00 0. -1.
</event>
<event>
 7    1  0.5634483E-012  0.5930187E+02  0.7816164E-02  0.1266605E+00
        -11   -1    0    0    0    0  0.00000000000E+00  0.00000000000E+00  0.45593999997E+02  0.45594000000E+02  0.51100000000E-03 0. -1.
         11   -1    0    0    0    0 -0.00000000000E+00 -0.00000000000E+00 -0.45593999997E+02  0.45594000000E+02  0.51100000000E-03 0.  1.
    9900012    2    1    2    0    0 -0.22255527169E+02  0.17264105923E+02 -0.14945487143E+02  0.59301867766E+02  0.49999860916E+02 0.  0.
         12    1    1    2    0    0  0.22255527169E+02 -0.17264105923E+02  0.14945487143E+02  0.31886132234E+02  0.00000000000E+00 0. -1.
         11    1    3    3    0    0 -0.18193495592E+02  0.19494065033E+02  0.17461250693E+01  0.26722103330E+02  0.51100000000E-03 0. -1.
        -11    1    3    3    0    0  0.62638371726E-01  0.11079376642E+02 -0.14845494685E+02  0.18524179417E+02  0.51100000000E-03 0.  1.
        -12    1    3    3    0    0 -0.41246699491E+01 -0.13309335751E+02 -0.18461175268E+01  0.14055585020E+02  0.00000000000E+00 0.  1.
</event>
<event>
 7    1  0.5634483E-012  0.5930194E+02  0.7816164E-02  0.1266605E+00
        -11   -1    0    0    0    0  0.00000000000E+00  0.00000000000E+00  0.45593999997E+02  0.45594000000E+02  0.51100000000E-03 0. -1.
         11   -1    0    0    0    0 -0.00000000000E+00 -0.00000000000E+00 -0.45593999997E+02  0.45594000000E+02  0.51100000000E-03 0.  1.
    9900012    2    1    2    0    0 -0.13676603906E+02  0.17905969634E+02 -0.22562083544E+02  0.59301939460E+02  0.49999991669E+02 0.  0.
         12    1    1    2    0    0  0.13676603906E+02 -0.17905969634E+02  0.22562083544E+02  0.31886060540E+02  0.00000000000E+00 0. -1.
         11    1    3    3    0    0 -0.10699203799E+02 -0.88193317756E+01  0.97096795736E+00  0.13899509125E+02  0.51100000000E-03 0. -1.
        -11    1    3    3    0    0  0.90508391135E+01 -0.49508470746E+00 -0.52322976117E+01  0.10466123260E+02  0.51100000000E-03 0.  1.
        -12    1    3    3    0    0 -0.12028239221E+02  0.27220386117E+02 -0.18300753890E+02  0.34936307075E+02  0.00000000000E+00 0.  1.
</event>
<event>
 7    1  0.5634483E-012  0.5930194E+02  0.7816164E-02  0.1266605E+00
        -11   -1    0    0    0    0  0.00000000000E+00  0.00000000000E+00  0.45593999997E+02  0.45594000000E+02  0.51100000000E-03 0. -1.
         11   -1    0    0    0    0 -0.00000000000E+00 -0.00000000000E+00 -0.45593999997E+02  0.45594000000E+02  0.51100000000E-03 0.  1.
    9900012    2    1    2    0    0  0.30381125476E+01 -0.23868250520E+02  0.20923600874E+02  0.59301943732E+02  0.49999999461E+02 0.  0.
         12    1    1    2    0    0 -0.30381125476E+01  0.23868250520E+02 -0.20923600874E+02  0.31886056268E+02  0.00000000000E+00 0. -1.
         11    1    3    3    0    0  0.48116515913E+00 -0.71823111424E+01  0.58134860861E+01  0.92527689905E+01  0.51100000000E-03 0. -1.
        -11    1    3    3    0    0  0.29678225808E+00 -0.22774328487E+02 -0.94396553040E+01  0.24654922638E+02  0.51100000000E-03 0.  1.
         12    1    3    3    0    0  0.22601651304E+01  0.60883891091E+01  0.24549770092E+02  0.25394252104E+02  0.00000000000E+00 0. -1.
</event>
<event>
 7    1  0.5634483E-012  0.5930196E+02  0.7816164E-02  0.1266605E+00
        -11   -1    0    0    0    0  0.00000000000E+00  0.00000000000E+00  0.45593999997E+02  0.45594000000E+02  0.51100000000E-03 0. -1.
         11   -1    0    0    0    0 -0.00000000000E+00 -0.00000000000E+00 -0.45593999997E+02  0.45594000000E+02  0.51100000000E-03 0.  1.
    9900012    2    1    2    0    0 -0.13360490324E+02 -0.17843410602E+01 -0.28896938997E+02  0.59301958256E+02  0.50000025949E+02 0.  0.
         12    1    1    2    0    0  0.13360490324E+02  0.17843410602E+01  0.28896938997E+02  0.31886041744E+02  0.00000000000E+00 0. -1.
         11    1    3    3    0    0 -0.62057926502E+01  0.34125418495E+01  0.16801527916E+01  0.72787511261E+01  0.51100000000E-03 0. -1.
        -11    1    3    3    0    0 -0.84583168884E+01  0.14885187379E+02 -0.26407114716E+02  0.31471378041E+02  0.51100000000E-03 0.  1.
        -12    1    3    3    0    0  0.13036192149E+01 -0.20082070288E+02 -0.41699770726E+01  0.20551829089E+02  0.00000000000E+00 0.  1.
</event>
<event>
 7    1  0.5634483E-012  0.5930195E+02  0.7816164E-02  0.1266605E+00
        -11   -1    0    0    0    0  0.00000000000E+00  0.00000000000E+00  0.45593999997E+02  0.45594000000E+02  0.51100000000E-03 0. -1.
         11   -1    0    0    0    0 -0.00000000000E+00 -0.00000000000E+00 -0.45593999997E+02  0.45594000000E+02  0.51100000000E-03 0.  1.
    9900012    2    1    2    0    0 -0.15686170690E+01 -0.28972963670E+02 -0.13222219310E+02  0.59301948711E+02  0.50000008541E+02 0.  0.
         12    1    1    2    0    0  0.15686170690E+01  0.28972963670E+02  0.13222219310E+02  0.31886051289E+02  0.00000000000E+00 0. -1.
         11    1    3    3    0    0 -0.49931070893E+01 -0.48319241789E+01  0.26752072932E+01  0.74454915216E+01  0.51100000000E-03 0. -1.
        -11    1    3    3    0    0 -0.49476865902E+01 -0.18908641784E+02 -0.29293466292E+02  0.35215387323E+02  0.51100000000E-03 0.  1.
         12    1    3    3    0    0  0.83721766105E+01 -0.52323977072E+01  0.13396039688E+02  0.16641069866E+02  0.00000000000E+00 0. -1.
</event>
<event>
 7    1  0.5634483E-012  0.5930195E+02  0.7816164E-02  0.1266605E+00
        -11   -1    0    0    0    0  0.00000000000E+00  0.00000000000E+00  0.45593999997E+02  0.45594000000E+02  0.51100000000E-03 0.  1.
         11   -1    0    0    0    0 -0.00000000000E+00 -0.00000000000E+00 -0.45593999997E+02  0.45594000000E+02  0.51100000000E-03 0. -1.
    9900012    2    1    2    0    0 -0.78606907565E+01 -0.29507673226E+02  0.91775342957E+01  0.59301947028E+02  0.50000005472E+02 0.  0.
         12    1    1    2    0    0  0.78606907565E+01  0.29507673226E+02 -0.91775342957E+01  0.31886052972E+02  0.00000000000E+00 0. -1.
         11    1    3    3    0    0 -0.29353896504E+01 -0.82528736557E+01 -0.10011379571E+02  0.13302411704E+02  0.51100000000E-03 0. -1.
        -11    1    3    3    0    0 -0.14588374137E+02  0.10097394980E+01 -0.67108004610E+00  0.14638667375E+02  0.51100000000E-03 0.  1.
        -12    1    3    3    0    0  0.96630730308E+01 -0.22264539068E+02  0.19859993913E+02  0.31360867949E+02  0.00000000000E+00 0.  1.
</event>
<event>
 7    1  0.5634483E-012  0.5930195E+02  0.7816164E-02  0.1266605E+00
        -11   -1    0    0    0    0  0.00000000000E+00  0.00000000000E+00  0.45593999997E+02  0.45594000000E+02  0.51100000000E-03 0.  1.
         11   -1    0    0    0    0 -0.00000000000E+00 -0.00000000000E+00 -0.45593999997E+02  0.45594000000E+02  0.51100000000E-03 0. -1.
    9900012    2    1    2    0    0 -0.50356385446E+01  0.10583117752E+02  0.29654002013E+02  0.59301954897E+02  0.50000019823E+02 0.  0.
         12    1    1    2    0    0  0.50356385446E+01 -0.10583117752E+02 -0.29654002013E+02  0.31886045103E+02  0.00000000000E+00 0. -1.
         11    1    3    3    0    0 -0.59353360238E+01 -0.57240579633E+01 -0.65732303313E+00  0.82719482054E+01  0.51100000000E-03 0. -1.
        -11    1    3    3    0    0  0.37287356813E+01 -0.11534890949E+02  0.44158887858E+01  0.12901831382E+02  0.51100000000E-03 0.  1.
         12    1    3    3    0    0 -0.28290382022E+01  0.27842066664E+02  0.25895436261E+02  0.38128175309E+02  0.00000000000E+00 0. -1.
</event>
<event>
 7    1  0.5634483E-012  0.5930193E+02  0.7816164E-02  0.1266605E+00
        -11   -1    0    0    0    0  0.00000000000E+00  0.00000000000E+00  0.45593999997E+02  0.45594000000E+02  0.51100000000E-03 0.  1.
         11   -1    0    0    0    0 -0.00000000000E+00 -0.00000000000E+00 -0.45593999997E+02  0.45594000000E+02  0.51100000000E-03 0. -1.
    9900012    2    1    2    0    0 -0.20372087984E+02  0.24519651037E+02  0.69731563772E+00  0.59301929296E+02  0.49999973134E+02 0.  0.
         12    1    1    2    0    0  0.20372087984E+02 -0.24519651037E+02 -0.69731563772E+00  0.31886070704E+02  0.00000000000E+00 0. -1.
         11    1    3    3    0    0  0.89221123532E+00  0.27587313845E+02 -0.38059821143E+00  0.27604361636E+02  0.51100000000E-03 0. -1.
        -11    1    3    3    0    0 -0.54671003142E+01  0.54595825419E+01  0.91829442600E+01  0.12000945501E+02  0.51100000000E-03 0.  1.
         12    1    3    3    0    0 -0.15797198905E+02 -0.85272453502E+01 -0.81050304109E+01  0.19696622159E+02  0.00000000000E+00 0. -1.
</event>
<event>
 7    1  0.5634483E-012  0.5930195E+02  0.7816164E-02  0.1266605E+00
        -11   -1    0    0    0    0  0.00000000000E+00  0.00000000000E+00  0.45593999997E+02  0.45594000000E+02  0.51100000000E-03 0. -1.
         11   -1    0    0    0    0 -0.00000000000E+00 -0.00000000000E+00 -0.45593999997E+02  0.45594000000E+02  0.51100000000E-03 0.  1.
    9900012    2    1    2    0    0  0.18100645155E+02 -0.20477719421E+02 -0.16424057919E+02  0.59301952483E+02  0.50000015421E+02 0.  0.
         12    1    1    2    0    0 -0.18100645155E+02  0.20477719421E+02  0.16424057919E+02  0.31886047517E+02  0.00000000000E+00 0. -1.
         11    1    3    3    0    0 -0.10915738132E+02 -0.10440539240E+02  0.23422771983E+01  0.15285432978E+02  0.51100000000E-03 0. -1.
        -11    1    3    3    0    0  0.10638129567E+02 -0.81905464025E+01  0.46353951728E+01  0.14203581933E+02  0.51100000000E-03 0.  1.
        -12    1    3    3    0    0  0.18378253719E+02 -0.18466337786E+01 -0.23401730291E+02  0.29812937572E+02  0.00000000000E+00 0.  1.
</event>
<event>
 7    1  0.5634483E-012  0.5930194E+02  0.7816164E-02  0.1266605E+00
        -11   -1    0    0    0    0  0.00000000000E+00  0.00000000000E+00  0.45593999997E+02  0.45594000000E+02  0.51100000000E-03 0.  1.
         11   -1    0    0    0    0 -0.00000000000E+00 -0.00000000000E+00 -0.45593999997E+02  0.45594000000E+02  0.51100000000E-03 0. -1.
    9900012    2    1    2    0    0  0.14416110043E+02 -0.28160797291E+02  0.39832573709E+01  0.59301936083E+02  0.49999985511E+02 0.  0.
         12    1    1    2    0    0 -0.14416110043E+02  0.28160797291E+02 -0.39832573709E+01  0.31886063917E+02  0.00000000000E+00 0. -1.
         11    1    3    3    0    0  0.15508603275E+02  0.74339370246E+00 -0.13535434550E+02  0.20597995010E+02  0.51100000000E-03 0. -1.
        -11    1    3    3    0    0  0.84634648159E+01 -0.18252302727E+02  0.89078785293E+01  0.22002888257E+02  0.51100000000E-03 0.  1.
        -12    1    3    3    0    0 -0.95559580476E+01 -0.10651888267E+02  0.86108133919E+01  0.16701052815E+02  0.00000000000E+00 0.  1.
</event>
<event>
 7    1  0.5634483E-012  0.5930194E+02  0.7816164E-02  0.1266605E+00
        -11   -1    0    0    0    0  0.00000000000E+00  0.00000000000E+00  0.45593999997E+02  0.45594000000E+02  0.51100000000E-03 0.  1.
         11   -1    0    0    0    0 -0.00000000000E+00 -0.00000000000E+00 -0.45593999997E+02  0.45594000000E+02  0.51100000000E-03 0. -1.
    9900012    2    1    2    0    0 -0.21595082735E+01  0.36304440117E+01  0.31605018394E+02  0.59301940548E+02  0.49999993654E+02 0.  0.
         12    1    1    2    0    0  0.21595082735E+01 -0.36304440117E+01 -0.31605018394E+02  0.31886059452E+02  0.00000000000E+00 0. -1.
         11    1    3    3    0    0 -0.10187475506E+01 -0.25941112983E+00 -0.25706401657E+00  0.10822305096E+01  0.51100000000E-03 0. -1.
        -11    1    3    3    0    0  0.32032927648E+01  0.18880470818E+02  0.37104889864E+02  0.41755312416E+02  0.51100000000E-03 0.  1.
         12    1    3    3    0    0 -0.43440534877E+01 -0.14990615677E+02 -0.52428074544E+01  0.16464397622E+02  0.00000000000E+00 0. -1.
</event>
<event>
 7    1  0.5634483E-012  0.5930195E+02  0.7816164E-02  0.1266605E+00
        -11   -1    0    0    0    0  0.00000000000E+00  0.00000000000E+00  0.45593999997E+02  0.45594000000E+02  0.51100000000E-03 0.  1.
         11   -1    0    0    0    0 -0.00000000000E+00 -0.00000000000E+00 -0.45593999997E+02  0.45594000000E+02  0.51100000000E-03 0. -1.
    9900012    2    1    2    0    0  0.24750583918E+02  0.19815494551E+02 -0.33875131808E+01  0.59301945460E+02  0.50000002611E+02 0.  0.
         12    1    1    2    0    0 -0.24750583918E+02 -0.19815494551E+02  0.33875131808E+01  0.31886054540E+02  0.00000000000E+00 0. -1.
         11    1    3    3    0    0  0.17255843379E+02 -0.13177095922E+02 -0.94877696896E+01  0.23694255878E+02  0.51100000000E-03 0. -1.
        -11    1    3    3    0    0  0.77635268770E+01  0.13671703874E+02  0.19320742626E+01  0.15840478137E+02  0.51100000000E-03 0.  1.
        -12    1    3    3    0    0 -0.26878633807E+00  0.19320886599E+02  0.41681822462E+01  0.19767211444E+02  0.00000000000E+00 0.  1.
</event>
<event>
 7    1  0.5634483E-012  0.5930195E+02  0.7816164E-02  0.1266605E+00
        -11   -1    0    0    0    0  0.00000000000E+00  0.00000000000E+00  0.45593999997E+02  0.45594000000E+02  0.51100000000E-03 0. -1.
         11   -1    0    0    0    0 -0.00000000000E+00 -0.00000000000E+00 -0.45593999997E+02  0.45594000000E+02  0.51100000000E-03 0.  1.
    9900012    2    1    2    0    0 -0.12968379601E+02 -0.28673830577E+02  0.51335194533E+01  0.59301945816E+02  0.50000003262E+02 0.  0.
         12    1    1    2    0    0  0.12968379601E+02  0.28673830577E+02 -0.51335194533E+01  0.31886054184E+02  0.00000000000E+00 0. -1.
         11    1    3    3    0    0  0.11415053270E+01 -0.10045682542E+02 -0.94567390639E+01  0.13843723709E+02  0.51100000000E-03 0. -1.
        -11    1    3    3    0    0  0.85827486986E+01 -0.18459866551E+02  0.66627930356E+01  0.21420155453E+02  0.51100000000E-03 0.  1.
         12    1    3    3    0    0 -0.22692633626E+02 -0.16828148412E+00  0.79274654816E+01  0.24038066655E+02  0.00000000000E+00 0. -1.
</event>
<event>
 7    1  0.5634483E-012  0.5930192E+02  0.7816164E-02  0.1266605E+00
        -11   -1    0    0    0    0  0.00000000000E+00  0.00000000000E+00  0.45593999997E+02  0.45594000000E+02  0.51100000000E-03 0.  1.
         11   -1    0    0    0    0 -0.00000000000E+00 -0.00000000000E+00 -0.45593999997E+02  0.45594000000E+02  0.51100000000E-03 0. -1.
    9900012    2    1    2    0    0 -0.18699284654E+01 -0.16427408043E+02  0.27264731325E+02  0.59301922447E+02  0.49999960641E+02 0.  0.
         12    1    1    2    0    0  0.18699284654E+01  0.16427408043E+02 -0.27264731325E+02  0.31886077553E+02  0.00000000000E+00 0. -1.
         11    1    3    3    0    0  0.59850063735E+01 -0.15451307444E+02  0.30428946724E+01  0.16847029746E+02  0.51100000000E-03 0. -1.
        -11    1    3    3    0    0  0.10761046322E+02 -0.91564169321E+01  0.13150433751E+02  0.19302175968E+02  0.51100000000E-03 0.  1.
         12    1    3    3    0    0 -0.18615981161E+02  0.81803163325E+01  0.11071402902E+02  0.23152716733E+02  0.00000000000E+00 0. -1.
</event>
<event>
 7    1  0.5634483E-012  0.5930196E+02  0.7816164E-02  0.1266605E+00
        -11   -1    0    0    0    0  0.00000000000E+00  0.00000000000E+00  0.45593999997E+02  0.45594000000E+02  0.51100000000E-03 0.  1.
         11   -1    0    0    0    0 -0.00000000000E+00 -0.00000000000E+00 -0.45593999997E+02  0.45594000000E+02  0.51100000000E-03 0. -1.
    9900012    2    1    2    0    0  0.18231017160E+02 -0.26133222111E+02  0.11849199491E+01  0.59301963560E+02  0.50000035621E+02 0.  0.
         12    1    1    2    0    0 -0.18231017160E+02  0.26133222111E+02 -0.11849199491E+01  0.31886036440E+02  0.00000000000E+00 0. -1.
         11    1    3    3    0    0  0.10907847699E+02 -0.13170352358E+02  0.41833621889E+01  0.17605108410E+02  0.51100000000E-03 0.  1.
        -11    1    3    3    0    0  0.20064121572E+02  0.28009415645E+01 -0.61786704792E+01  0.21179948471E+02  0.51100000000E-03 0. -1.
        -12    1    3    3    0    0 -0.12740952112E+02 -0.15763811318E+02  0.31802282394E+01  0.20516906678E+02  0.00000000000E+00 0.  1.
</event>
<event>
 7    1  0.5634483E-012  0.5930191E+02  0.7816164E-02  0.1266605E+00
        -11   -1    0    0    0    0  0.00000000000E+00  0.00000000000E+00  0.45593999997E+02  0.45594000000E+02  0.51100000000E-03 0.  1.
         11   -1    0    0    0    0 -0.00000000000E+00 -0.00000000000E+00 -0.45593999997E+02  0.45594000000E+02  0.51100000000E-03 0. -1.
    9900012    2    1    2    0    0 -0.13319970964E+02 -0.21400921453E+00  0.28969902605E+02  0.59301910818E+02  0.49999939433E+02 0.  0.
         12    1    1    2    0    0  0.13319970964E+02  0.21400921453E+00 -0.28969902605E+02  0.31886089182E+02  0.00000000000E+00 0. -1.
         11    1    3    3    0    0 -0.87522652726E+01 -0.97347566008E+00  0.43106815186E+01  0.98046814165E+01  0.51100000000E-03 0. -1.
        -11    1    3    3    0    0  0.41838193081E+01  0.31218159110E+01  0.35205617935E+02  0.35590527013E+02  0.51100000000E-03 0.  1.
         12    1    3    3    0    0 -0.87515249993E+01 -0.23623494655E+01 -0.10546396849E+02  0.13906702388E+02  0.00000000000E+00 0. -1.
</event>
<event>
 7    1  0.5634483E-012  0.5930201E+02  0.7816164E-02  0.1266605E+00
        -11   -1    0    0    0    0  0.00000000000E+00  0.00000000000E+00  0.45593999997E+02  0.45594000000E+02  0.51100000000E-03 0.  1.
         11   -1    0    0    0    0 -0.00000000000E+00 -0.00000000000E+00 -0.45593999997E+02  0.45594000000E+02  0.51100000000E-03 0. -1.
    9900012    2    1    2    0    0 -0.28726192261E+02  0.11380646843E+02 -0.78742131088E+01  0.59302008147E+02  0.50000116937E+02 0.  0.
         12    1    1    2    0    0  0.28726192261E+02 -0.11380646843E+02  0.78742131088E+01  0.31885991853E+02  0.00000000000E+00 0. -1.
         11    1    3    3    0    0 -0.17658512672E+02 -0.34246084646E+00  0.12673568462E+02  0.21738438009E+02  0.51100000000E-03 0.  1.
        -11    1    3    3    0    0 -0.17240268524E+02 -0.10226694564E+01 -0.10751517085E+02  0.20343741826E+02  0.51100000000E-03 0. -1.
        -12    1    3    3    0    0  0.61725889350E+01  0.12745777145E+02 -0.97962644862E+01  0.17219828312E+02  0.00000000000E+00 0.  1.
</event>
<event>
 7    1  0.5634483E-012  0.5930194E+02  0.7816164E-02  0.1266605E+00
        -11   -1    0    0    0    0  0.00000000000E+00  0.00000000000E+00  0.45593999997E+02  0.45594000000E+02  0.51100000000E-03 0. -1.
         11   -1    0    0    0    0 -0.00000000000E+00 -0.00000000000E+00 -0.45593999997E+02  0.45594000000E+02  0.51100000000E-03 0.  1.
    9900012    2    1    2    0    0 -0.16172208204E+02 -0.19219857332E+02 -0.19641215017E+02  0.59301944091E+02  0.50000000116E+02 0.  0.
         12    1    1    2    0    0  0.16172208204E+02  0.19219857332E+02  0.19641215017E+02  0.31886055909E+02  0.00000000000E+00 0. -1.
         11    1    3    3    0    0 -0.26471853170E+01 -0.13548876658E+02  0.62911528049E+01  0.15170967427E+02  0.51100000000E-03 0. -1.
        -11    1    3    3    0    0 -0.89955943203E+01 -0.19313273871E+02 -0.14625665213E+02  0.25842471786E+02  0.51100000000E-03 0.  1.
         12    1    3    3    0    0 -0.45294285665E+01  0.13642293197E+02 -0.11306702609E+02  0.18288504878E+02  0.00000000000E+00 0. -1.
</event>
<event>
 7    1  0.5634483E-012  0.5930193E+02  0.7816164E-02  0.1266605E+00
        -11   -1    0    0    0    0  0.00000000000E+00  0.00000000000E+00  0.45593999997E+02  0.45594000000E+02  0.51100000000E-03 0. -1.
         11   -1    0    0    0    0 -0.00000000000E+00 -0.00000000000E+00 -0.45593999997E+02  0.45594000000E+02  0.51100000000E-03 0.  1.
    9900012    2    1    2    0    0  0.16846780831E+01 -0.64611089980E+01 -0.31179121144E+02  0.59301926785E+02  0.49999968554E+02 0.  0.
         12    1    1    2    0    0 -0.16846780831E+01  0.64611089980E+01  0.31179121144E+02  0.31886073215E+02  0.00000000000E+00 0. -1.
         11    1    3    3    0    0  0.76163063858E+01  0.17322635087E+00 -0.84197566039E+01  0.11354753712E+02  0.51100000000E-03 0. -1.
        -11    1    3    3    0    0  0.12069551089E+02 -0.16981795356E+02 -0.73570622716E+01  0.22094836559E+02  0.51100000000E-03 0.  1.
        -12    1    3    3    0    0 -0.18001179392E+02  0.10347460007E+02 -0.15402302269E+02  0.25852336515E+02  0.00000000000E+00 0.  1.
</event>
<event>
 7    1  0.5634483E-012  0.5930192E+02  0.7816164E-02  0.1266605E+00
        -11   -1    0    0    0    0  0.00000000000E+00  0.00000000000E+00  0.45593999997E+02  0.45594000000E+02  0.51100000000E-03 0.  1.
         11   -1    0    0    0    0 -0.00000000000E+00 -0.00000000000E+00 -0.45593999997E+02  0.45594000000E+02  0.51100000000E-03 0. -1.
    9900012    2    1    2    0    0 -0.26289835561E+02 -0.10019274435E+02 -0.15006024885E+02  0.59301920014E+02  0.49999956205E+02 0.  0.
         12    1    1    2    0    0  0.26289835561E+02  0.10019274435E+02  0.15006024885E+02  0.31886079986E+02  0.00000000000E+00 0. -1.
         11    1    3    3    0    0  0.50131195971E+01  0.21853119777E+01 -0.10271290418E+02  0.11636424006E+02  0.51100000000E-03 0. -1.
        -11    1    3    3    0    0 -0.24085917053E+02  0.50840014663E+01 -0.12229996711E+02  0.27487293265E+02  0.51100000000E-03 0.  1.
        -12    1    3    3    0    0 -0.72170381049E+01 -0.17288587879E+02  0.74952622447E+01  0.20178202744E+02  0.00000000000E+00 0.  1.
</event>
<event>
 7    1  0.5634483E-012  0.5930201E+02  0.7816164E-02  0.1266605E+00
        -11   -1    0    0    0    0  0.00000000000E+00  0.00000000000E+00  0.45593999997E+02  0.45594000000E+02  0.51100000000E-03 0.  1.
         11   -1    0    0    0    0 -0.00000000000E+00 -0.00000000000E+00 -0.45593999997E+02  0.45594000000E+02  0.51100000000E-03 0. -1.
    9900012    2    1    2    0    0 -0.12865252721E+02 -0.16420326906E+00  0.29174898120E+02  0.59302009807E+02  0.50000119965E+02 0.  0.
         12    1    1    2    0    0  0.12865252721E+02  0.16420326906E+00 -0.29174898120E+02  0.31885990193E+02  0.00000000000E+00 0. -1.
         11    1    3    3    0    0  0.69049249881E+01 -0.19855650257E+01 -0.15487161996E+01  0.73497605192E+01  0.51100000000E-03 0. -1.
        -11    1    3    3    0    0  0.87731012672E+01 -0.59955844086E+01  0.15164992815E+02  0.18517325551E+02  0.51100000000E-03 0.  1.
        -12    1    3    3    0    0 -0.28543278977E+02  0.78169461652E+01  0.15558621505E+02  0.33434923736E+02  0.00000000000E+00 0.  1.
</event>
<event>
 7    1  0.5634483E-012  0.5930194E+02  0.7816164E-02  0.1266605E+00
        -11   -1    0    0    0    0  0.00000000000E+00  0.00000000000E+00  0.45593999997E+02  0.45594000000E+02  0.51100000000E-03 0.  1.
         11   -1    0    0    0    0 -0.00000000000E+00 -0.00000000000E+00 -0.45593999997E+02  0.45594000000E+02  0.51100000000E-03 0. -1.
    9900012    2    1    2    0    0 -0.26778454974E+02 -0.16229178347E+02  0.60206859331E+01  0.59301944431E+02  0.50000000736E+02 0.  0.
         12    1    1    2    0    0  0.26778454974E+02  0.16229178347E+02 -0.60206859331E+01  0.31886055569E+02  0.00000000000E+00 0. -1.
         11    1    3    3    0    0 -0.26065347560E+02  0.10061867775E+02  0.31289147173E+01  0.28114651592E+02  0.51100000000E-03 0. -1.
        -11    1    3    3    0    0 -0.15296574027E+01 -0.92612976546E+01  0.90702429139E+01  0.13052999379E+02  0.51100000000E-03 0.  1.
        -12    1    3    3    0    0  0.81654998922E+00 -0.17029748468E+02 -0.61784716981E+01  0.18134293460E+02  0.00000000000E+00 0.  1.
</event>
<event>
 7    1  0.5634483E-012  0.5930187E+02  0.7816164E-02  0.1266605E+00
        -11   -1    0    0    0    0  0.00000000000E+00  0.00000000000E+00  0.45593999997E+02  0.45594000000E+02  0.51100000000E-03 0.  1.
         11   -1    0    0    0    0 -0.00000000000E+00 -0.00000000000E+00 -0.45593999997E+02  0.45594000000E+02  0.51100000000E-03 0. -1.
    9900012    2    1    2    0    0 -0.27836774339E+02 -0.15551144596E+02  0.30874677488E-01  0.59301873595E+02  0.49999871548E+02 0.  0.
         12    1    1    2    0    0  0.27836774339E+02  0.15551144596E+02 -0.30874677488E-01  0.31886126405E+02  0.00000000000E+00 0. -1.
         11    1    3    3    0    0 -0.29844091353E+01  0.16387866837E+01 -0.11133440650E+02  0.11642414726E+02  0.51100000000E-03 0. -1.
        -11    1    3    3    0    0 -0.32182500039E+02 -0.61178017437E+01  0.54745082253E+01  0.33213115595E+02  0.51100000000E-03 0.  1.
         12    1    3    3    0    0  0.73301348349E+01 -0.11072129536E+02  0.56898071018E+01  0.14446343275E+02  0.00000000000E+00 0. -1.
</event>
<event>
 7    1  0.5634483E-012  0.5930185E+02  0.7816164E-02  0.1266605E+00
        -11   -1    0    0    0    0  0.00000000000E+00  0.00000000000E+00  0.45593999997E+02  0.45594000000E+02  0.51100000000E-03 0.  1.
         11   -1    0    0    0    0 -0.00000000000E+00 -0.00000000000E+00 -0.45593999997E+02  0.45594000000E+02  0.51100000000E-03 0. -1.
    9900012    2    1    2    0    0  0.24266665971E+02 -0.20157406728E+02 -0.46405244427E+01  0.59301849551E+02  0.49999827697E+02 0.  0.
         12    1    1    2    0    0 -0.24266665971E+02  0.20157406728E+02  0.46405244427E+01  0.31886150449E+02  0.00000000000E+00 0. -1.
         11    1    3    3    0    0 -0.50680727496E+00 -0.11051510075E+02  0.22998549827E+01  0.11299648745E+02  0.51100000000E-03 0.  1.
        -11    1    3    3    0    0  0.11743486677E+02  0.91476254662E+01  0.11625465562E+02  0.18887561537E+02  0.51100000000E-03 0. -1.
         12    1    3    3    0    0  0.13029986569E+02 -0.18253522119E+02 -0.18565844987E+02  0.29114639270E+02  0.00000000000E+00 0. -1.
</event>
<event>
 7    1  0.5634483E-012  0.5930194E+02  0.7816164E-02  0.1266605E+00
        -11   -1    0    0    0    0  0.00000000000E+00  0.00000000000E+00  0.45593999997E+02  0.45594000000E+02  0.51100000000E-03 0. -1.
         11   -1    0    0    0    0 -0.00000000000E+00 -0.00000000000E+00 -0.45593999997E+02  0.45594000000E+02  0.51100000000E-03 0.  1.
    9900012    2    1    2    0    0 -0.10701464610E+02  0.15198373183E+02 -0.25907702023E+02  0.59301938526E+02  0.49999989966E+02 0.  0.
         12    1    1    2    0    0  0.10701464610E+02 -0.15198373183E+02  0.25907702023E+02  0.31886061474E+02  0.00000000000E+00 0. -1.
         11    1    3    3    0    0 -0.38891565698E+01 -0.75565872157E+01  0.98279988184E+00  0.85553167704E+01  0.51100000000E-03 0. -1.
        -11    1    3    3    0    0 -0.18708369636E+02  0.24350026229E+01 -0.16284121319E+02  0.24921977041E+02  0.51100000000E-03 0.  1.
         12    1    3    3    0    0  0.11896061596E+02  0.20319957776E+02 -0.10606380586E+02  0.25824644715E+02  0.00000000000E+00 0. -1.
</event>
<event>
 7    1  0.5634483E-012  0.5930195E+02  0.7816164E-02  0.1266605E+00
        -11   -1    0    0    0    0  0.00000000000E+00  0.00000000000E+00  0.45593999997E+02  0.45594000000E+02  0.51100000000E-03 0. -1.
         11   -1    0    0    0    0 -0.00000000000E+00 -0.00000000000E+00 -0.45593999997E+02  0.45594000000E+02  0.51100000000E-03 0.  1.
    9900012    2    1    2    0    0  0.75081353291E-01 -0.31235996807E+02  0.64052115000E+01  0.59301954963E+02  0.50000019943E+02 0.  0.
         12    1    1    2    0    0 -0.75081353291E-01  0.31235996807E+02 -0.64052115000E+01  0.31886045037E+02  0.00000000000E+00 0. -1.
         11    1    3    3    0    0 -0.80913577827E+01  0.31276490284E+01 -0.12683059603E+01  0.87670325357E+01  0.51100000000E-03 0. -1.
        -11    1    3    3    0    0  0.15617415216E+02 -0.19863348814E+01 -0.21502190832E+01  0.15889387234E+02  0.51100000000E-03 0.  1.
         12    1    3    3    0    0 -0.74509760804E+01 -0.32377310954E+02  0.98237365434E+01  0.34645535193E+02  0.00000000000E+00 0. -1.
</event>
<event>
 7    1  0.5634483E-012  0.5930194E+02  0.7816164E-02  0.1266605E+00
        -11   -1    0    0    0    0  0.00000000000E+00  0.00000000000E+00  0.45593999997E+02  0.45594000000E+02  0.51100000000E-03 0.  1.
         11   -1    0    0    0    0 -0.00000000000E+00 -0.00000000000E+00 -0.45593999997E+02  0.45594000000E+02  0.51100000000E-03 0. -1.
    9900012    2    1    2    0    0 -0.13017796801E+02 -0.17270494719E+02  0.23430488212E+02  0.59301940362E+02  0.49999993315E+02 0.  0.
         12    1    1    2    0    0  0.13017796801E+02  0.17270494719E+02 -0.23430488212E+02  0.31886059638E+02  0.00000000000E+00 0. -1.
         11    1    3    3    0    0  0.71574332564E+01 -0.11453259680E+01  0.18873973417E+02  0.20217999288E+02  0.51100000000E-03 0. -1.
        -11    1    3    3    0    0 -0.23812275925E+02 -0.31257485786E+01  0.77063906662E+01  0.25222673258E+02  0.51100000000E-03 0.  1.
         12    1    3    3    0    0  0.36370458679E+01 -0.12999420172E+02 -0.31498758716E+01  0.13861267816E+02  0.00000000000E+00 0. -1.
</event>
<event>
 7    1  0.5634483E-012  0.5930195E+02  0.7816164E-02  0.1266605E+00
        -11   -1    0    0    0    0  0.00000000000E+00  0.00000000000E+00  0.45593999997E+02  0.45594000000E+02  0.51100000000E-03 0.  1.
         11   -1    0    0    0    0 -0.00000000000E+00 -0.00000000000E+00 -0.45593999997E+02  0.45594000000E+02  0.51100000000E-03 0. -1.
    9900012    2    1    2    0    0 -0.22419379489E+02  0.19151252588E+02  0.12137604344E+02  0.59301945186E+02  0.50000002113E+02 0.  0.
         12    1    1    2    0    0  0.22419379489E+02 -0.19151252588E+02 -0.12137604344E+02  0.31886054814E+02  0.00000000000E+00 0. -1.
         11    1    3    3    0    0  0.94445183305E+01 -0.49062998687E+01  0.13568104948E+02  0.17244250550E+02  0.51100000000E-03 0. -1.
        -11    1    3    3    0    0 -0.90415689061E+01  0.11436381025E+02  0.46048169739E+01  0.15288725220E+02  0.51100000000E-03 0.  1.
        -12    1    3    3    0    0 -0.22822328913E+02  0.12621171432E+02 -0.60353175778E+01  0.26768969416E+02  0.00000000000E+00 0.  1.
</event>
<event>
 7    1  0.5634483E-012  0.5930196E+02  0.7816164E-02  0.1266605E+00
        -11   -1    0    0    0    0  0.00000000000E+00  0.00000000000E+00  0.45593999997E+02  0.45594000000E+02  0.51100000000E-03 0.  1.
         11   -1    0    0    0    0 -0.00000000000E+00 -0.00000000000E+00 -0.45593999997E+02  0.45594000000E+02  0.51100000000E-03 0. -1.
    9900012    2    1    2    0    0  0.10710426442E+02  0.29365283431E+02  0.62996962678E+01  0.59301964206E+02  0.50000036801E+02 0.  0.
         12    1    1    2    0    0 -0.10710426442E+02 -0.29365283431E+02 -0.62996962678E+01  0.31886035794E+02  0.00000000000E+00 0. -1.
         11    1    3    3    0    0 -0.48959927771E+01  0.74339286128E+01  0.82814892778E+00  0.89397914294E+01  0.51100000000E-03 0.  1.
        -11    1    3    3    0    0  0.29162840100E+02  0.10555882163E+02 -0.21607500911E+01  0.31089656353E+02  0.51100000000E-03 0. -1.
         12    1    3    3    0    0 -0.13556420881E+02  0.11375472655E+02  0.76322974311E+01  0.19272516424E+02  0.00000000000E+00 0. -1.
</event>
<event>
 7    1  0.5634483E-012  0.5930209E+02  0.7816164E-02  0.1266604E+00
        -11   -1    0    0    0    0  0.00000000000E+00  0.00000000000E+00  0.45593999997E+02  0.45594000000E+02  0.51100000000E-03 0.  1.
         11   -1    0    0    0    0 -0.00000000000E+00 -0.00000000000E+00 -0.45593999997E+02  0.45594000000E+02  0.51100000000E-03 0. -1.
    9900012    2    1    2    0    0 -0.25006476771E+02  0.12243474470E+02  0.15539785271E+02  0.59302086592E+02  0.50000260002E+02 0.  0.
         12    1    1    2    0    0  0.25006476771E+02 -0.12243474470E+02 -0.15539785271E+02  0.31885913408E+02  0.00000000000E+00 0. -1.
         11    1    3    3    0    0 -0.95511417244E+01 -0.11634295539E+02  0.67006531790E+01  0.16476646935E+02  0.51100000000E-03 0. -1.
        -11    1    3    3    0    0 -0.18085324346E+02  0.25709451700E+01  0.10877277769E+02  0.21260383056E+02  0.51100000000E-03 0.  1.
         12    1    3    3    0    0  0.26299892992E+01  0.21306824839E+02 -0.20381456765E+01  0.21565056601E+02  0.00000000000E+00 0. -1.
</event>
<event>
 7    1  0.5634483E-012  0.5930187E+02  0.7816164E-02  0.1266605E+00
        -11   -1    0    0    0    0  0.00000000000E+00  0.00000000000E+00  0.45593999997E+02  0.45594000000E+02  0.51100000000E-03 0. -1.
         11   -1    0    0    0    0 -0.00000000000E+00 -0.00000000000E+00 -0.45593999997E+02  0.45594000000E+02  0.51100000000E-03 0.  1.
    9900012    2    1    2    0    0 -0.19462968086E+02 -0.94555937938E+01 -0.23420285419E+02  0.59301872141E+02  0.49999868897E+02 0.  0.
         12    1    1    2    0    0  0.19462968086E+02  0.94555937938E+01  0.23420285419E+02  0.31886127859E+02  0.00000000000E+00 0. -1.
         11    1    3    3    0    0 -0.81079440291E+01 -0.10741489353E+02 -0.25639478741E+01  0.13700079520E+02  0.51100000000E-03 0. -1.
        -11    1    3    3    0    0  0.17294534575E+01 -0.82421382112E+01 -0.27004665568E+02  0.28287379063E+02  0.51100000000E-03 0.  1.
        -12    1    3    3    0    0 -0.13084477514E+02  0.95280337706E+01  0.61483280237E+01  0.17314413558E+02  0.00000000000E+00 0.  1.
</event>
<event>
 7    1  0.5634483E-012  0.5930194E+02  0.7816164E-02  0.1266605E+00
        -11   -1    0    0    0    0  0.00000000000E+00  0.00000000000E+00  0.45593999997E+02  0.45594000000E+02  0.51100000000E-03 0.  1.
         11   -1    0    0    0    0 -0.00000000000E+00 -0.00000000000E+00 -0.45593999997E+02  0.45594000000E+02  0.51100000000E-03 0. -1.
    9900012    2    1    2    0    0 -0.27666091527E+02 -0.13493712470E+02  0.83203374473E+01  0.59301938596E+02  0.49999990095E+02 0.  0.
         12    1    1    2    0    0  0.27666091527E+02  0.13493712470E+02 -0.83203374473E+01  0.31886061404E+02  0.00000000000E+00 0. -1.
         11    1    3    3    0    0 -0.68920931634E+01  0.73619552091E+01  0.10780215915E+02  0.14761855849E+02  0.51100000000E-03 0. -1.
        -11    1    3    3    0    0 -0.28597738874E+02 -0.84830928310E+01 -0.19306205662E+01  0.29891818759E+02  0.51100000000E-03 0.  1.
         12    1    3    3    0    0  0.78237405104E+01 -0.12372574848E+02 -0.52925790153E+00  0.14648263989E+02  0.00000000000E+00 0. -1.
</event>
<event>
 7    1  0.5634483E-012  0.5930202E+02  0.7816164E-02  0.1266604E+00
        -11   -1    0    0    0    0  0.00000000000E+00  0.00000000000E+00  0.45593999997E+02  0.45594000000E+02  0.51100000000E-03 0. -1.
         11   -1    0    0    0    0 -0.00000000000E+00 -0.00000000000E+00 -0.45593999997E+02  0.45594000000E+02  0.51100000000E-03 0.  1.
    9900012    2    1    2    0    0 -0.10127760063E+02  0.14313531757E+02 -0.26632067284E+02  0.59302019961E+02  0.50000138484E+02 0.  0.
         12    1    1    2    0    0  0.10127760063E+02 -0.14313531757E+02  0.26632067284E+02  0.31885980039E+02  0.00000000000E+00 0. -1.
         11    1    3    3    0    0  0.59062122522E+01  0.92678546720E+01  0.41605886991E+01  0.11751041314E+02  0.51100000000E-03 0. -1.
        -11    1    3    3    0    0  0.35248508350E+01 -0.10443231299E+02 -0.12161238928E+02  0.16412842103E+02  0.51100000000E-03 0.  1.
         12    1    3    3    0    0 -0.19558823150E+02  0.15488908383E+02 -0.18631417055E+02  0.31138136544E+02  0.00000000000E+00 0. -1.
</event>
<event>
 7    1  0.5634483E-012  0.5930198E+02  0.7816164E-02  0.1266605E+00
        -11   -1    0    0    0    0  0.00000000000E+00  0.00000000000E+00  0.45593999997E+02  0.45594000000E+02  0.51100000000E-03 0.  1.
         11   -1    0    0    0    0 -0.00000000000E+00 -0.00000000000E+00 -0.45593999997E+02  0.45594000000E+02  0.51100000000E-03 0. -1.
    9900012    2    1    2    0    0 -0.38999431344E+01 -0.31253917934E+02 -0.49700586671E+01  0.59301977579E+02  0.50000061190E+02 0.  0.
         12    1    1    2    0    0  0.38999431344E+01  0.31253917934E+02  0.49700586671E+01  0.31886022421E+02  0.00000000000E+00 0. -1.
         11    1    3    3    0    0  0.18536970369E+01 -0.12071939893E+02 -0.11287576440E+02  0.16630613567E+02  0.51100000000E-03 0. -1.
        -11    1    3    3    0    0  0.14095466685E+02 -0.16317989750E+01 -0.31507352140E+01  0.14535201465E+02  0.51100000000E-03 0.  1.
        -12    1    3    3    0    0 -0.19849106857E+02 -0.17550179066E+02  0.94682529866E+01  0.28136162547E+02  0.00000000000E+00 0.  1.
</event>
<event>
 7    1  0.5634483E-012  0.5930187E+02  0.7816164E-02  0.1266605E+00
        -11   -1    0    0    0    0  0.00000000000E+00  0.00000000000E+00  0.45593999997E+02  0.45594000000E+02  0.51100000000E-03 0.  1.
         11   -1    0    0    0    0 -0.00000000000E+00 -0.00000000000E+00 -0.45593999997E+02  0.45594000000E+02  0.51100000000E-03 0. -1.
    9900012    2    1    2    0    0  0.10558625156E+02  0.90282836238E+01  0.28700713715E+02  0.59301867620E+02  0.49999860651E+02 0.  0.
         12    1    1    2    0    0 -0.10558625156E+02 -0.90282836238E+01 -0.28700713715E+02  0.31886132380E+02  0.00000000000E+00 0. -1.
         11    1    3    3    0    0  0.44317291204E+01  0.58948564803E+01  0.67408540092E+01  0.99914297753E+01  0.51100000000E-03 0. -1.
        -11    1    3    3    0    0  0.59653676785E+01 -0.30203905513E+01  0.34605749586E+02  0.35245797981E+02  0.51100000000E-03 0.  1.
         12    1    3    3    0    0  0.16152835722E+00  0.61538176948E+01 -0.12645889880E+02  0.14064639864E+02  0.00000000000E+00 0. -1.
</event>
<event>
 7    1  0.5634483E-012  0.5930189E+02  0.7816164E-02  0.1266605E+00
        -11   -1    0    0    0    0  0.00000000000E+00  0.00000000000E+00  0.45593999997E+02  0.45594000000E+02  0.51100000000E-03 0.  1.
         11   -1    0    0    0    0 -0.00000000000E+00 -0.00000000000E+00 -0.45593999997E+02  0.45594000000E+02  0.51100000000E-03 0. -1.
    9900012    2    1    2    0    0  0.91366982583E+01  0.25554329151E+02  0.16739798968E+02  0.59301892322E+02  0.49999905700E+02 0.  0.
         12    1    1    2    0    0 -0.91366982583E+01 -0.25554329151E+02 -0.16739798968E+02  0.31886107678E+02  0.00000000000E+00 0. -1.
         11    1    3    3    0    0 -0.44787936687E+01  0.54976525865E+01  0.21026514785E+02  0.22190045087E+02  0.51100000000E-03 0. -1.
        -11    1    3    3    0    0 -0.47075591509E+01 -0.43054511332E+01 -0.67813329932E+00  0.64154413451E+01  0.51100000000E-03 0.  1.
        -12    1    3    3    0    0  0.18323051078E+02  0.24362127697E+02 -0.36085825183E+01  0.30696405889E+02  0.00000000000E+00 0.  1.
</event>
<event>
 7    1  0.5634483E-012  0.5930196E+02  0.7816164E-02  0.1266605E+00
        -11   -1    0    0    0    0  0.00000000000E+00  0.00000000000E+00  0.45593999997E+02  0.45594000000E+02  0.51100000000E-03 0. -1.
         11   -1    0    0    0    0 -0.00000000000E+00 -0.00000000000E+00 -0.45593999997E+02  0.45594000000E+02  0.51100000000E-03 0.  1.
    9900012    2    1    2    0    0 -0.21060097713E+02 -0.23632140303E+02  0.38358306758E+01  0.59301962806E+02  0.50000034247E+02 0.  0.
         12    1    1    2    0    0  0.21060097713E+02  0.23632140303E+02 -0.38358306758E+01  0.31886037194E+02  0.00000000000E+00 0. -1.
         11    1    3    3    0    0 -0.25056462487E+02 -0.20260715939E+02 -0.68392240860E+01  0.32940824353E+02  0.51100000000E-03 0. -1.
        -11    1    3    3    0    0 -0.10408262271E+01 -0.10464459014E+02 -0.22758341810E+01  0.10759537313E+02  0.51100000000E-03 0.  1.
         12    1    3    3    0    0  0.50371910007E+01  0.70930346504E+01  0.12950888943E+02  0.15601601140E+02  0.00000000000E+00 0. -1.
</event>
<event>
 7    1  0.5634483E-012  0.5930195E+02  0.7816164E-02  0.1266605E+00
        -11   -1    0    0    0    0  0.00000000000E+00  0.00000000000E+00  0.45593999997E+02  0.45594000000E+02  0.51100000000E-03 0.  1.
         11   -1    0    0    0    0 -0.00000000000E+00 -0.00000000000E+00 -0.45593999997E+02  0.45594000000E+02  0.51100000000E-03 0. -1.
    9900012    2    1    2    0    0 -0.15313010929E+02 -0.77135254523E+01  0.26883697109E+02  0.59301953697E+02  0.50000017634E+02 0.  0.
         12    1    1    2    0    0  0.15313010929E+02  0.77135254523E+01 -0.26883697109E+02  0.31886046303E+02  0.00000000000E+00 0. -1.
         11    1    3    3    0    0 -0.13666955401E+02 -0.11070530819E+02  0.47471500323E+01  0.18217512351E+02  0.51100000000E-03 0. -1.
        -11    1    3    3    0    0  0.53768815311E+00 -0.15302198347E+02  0.13477899198E+02  0.20398533032E+02  0.51100000000E-03 0.  1.
         12    1    3    3    0    0 -0.21837436813E+01  0.18659203714E+02  0.86586478784E+01  0.20685908314E+02  0.00000000000E+00 0. -1.
</event>
<event>
 7    1  0.5634483E-012  0.5930192E+02  0.7816164E-02  0.1266605E+00
        -11   -1    0    0    0    0  0.00000000000E+00  0.00000000000E+00  0.45593999997E+02  0.45594000000E+02  0.51100000000E-03 0.  1.
         11   -1    0    0    0    0 -0.00000000000E+00 -0.00000000000E+00 -0.45593999997E+02  0.45594000000E+02  0.51100000000E-03 0. -1.
    9900012    2    1    2    0    0 -0.64902204746E+01  0.17499685759E+02  0.25852660073E+02  0.59301921591E+02  0.49999959080E+02 0.  0.
         12    1    1    2    0    0  0.64902204746E+01 -0.17499685759E+02 -0.25852660073E+02  0.31886078409E+02  0.00000000000E+00 0. -1.
         11    1    3    3    0    0 -0.12095872474E+02  0.12311424861E+02  0.46600314695E+01  0.17877281857E+02  0.51100000000E-03 0.  1.
        -11    1    3    3    0    0  0.64560569598E+01 -0.11652929277E+02 -0.12192465579E+01  0.13377518254E+02  0.51100000000E-03 0. -1.
         12    1    3    3    0    0 -0.85040496039E+00  0.16841190175E+02  0.22411875161E+02  0.28047121480E+02  0.00000000000E+00 0. -1.
</event>
<event>
 7    1  0.5634483E-012  0.5930195E+02  0.7816164E-02  0.1266605E+00
        -11   -1    0    0    0    0  0.00000000000E+00  0.00000000000E+00  0.45593999997E+02  0.45594000000E+02  0.51100000000E-03 0.  1.
         11   -1    0    0    0    0 -0.00000000000E+00 -0.00000000000E+00 -0.45593999997E+02  0.45594000000E+02  0.51100000000E-03 0. -1.
    9900012    2    1    2    0    0  0.41574329508E+01  0.31041797921E+02  0.59869051268E+01  0.59301945056E+02  0.50000001875E+02 0.  0.
         12    1    1    2    0    0 -0.41574329508E+01 -0.31041797921E+02 -0.59869051268E+01  0.31886054944E+02  0.00000000000E+00 0. -1.
         11    1    3    3    0    0  0.83487382264E+01 -0.11245956900E+01 -0.39866955622E+01  0.93198651925E+01  0.51100000000E-03 0. -1.
        -11    1    3    3    0    0  0.12398044810E+02  0.17194904890E+02 -0.65533413657E+01  0.22188342719E+02  0.51100000000E-03 0.  1.
        -12    1    3    3    0    0 -0.16589350086E+02  0.14971488721E+02  0.16526942055E+02  0.27793737145E+02  0.00000000000E+00 0.  1.
</event>
<event>
 7    1  0.5634483E-012  0.5930194E+02  0.7816164E-02  0.1266605E+00
        -11   -1    0    0    0    0  0.00000000000E+00  0.00000000000E+00  0.45593999997E+02  0.45594000000E+02  0.51100000000E-03 0. -1.
         11   -1    0    0    0    0 -0.00000000000E+00 -0.00000000000E+00 -0.45593999997E+02  0.45594000000E+02  0.51100000000E-03 0.  1.
    9900012    2    1    2    0    0  0.20350222246E+02  0.18733452385E+02 -0.15863380874E+02  0.59301942914E+02  0.49999997969E+02 0.  0.
         12    1    1    2    0    0 -0.20350222246E+02 -0.18733452385E+02  0.15863380874E+02  0.31886057086E+02  0.00000000000E+00 0. -1.
         11    1    3    3    0    0  0.14456209483E+02 -0.10128806508E+01  0.40128290055E+01  0.15036978311E+02  0.51100000000E-03 0. -1.
        -11    1    3    3    0    0  0.18996394540E+02  0.51764841710E+01 -0.73906970792E+01  0.21030487333E+02  0.51100000000E-03 0.  1.
        -12    1    3    3    0    0 -0.13102381777E+02  0.14569848865E+02 -0.12485512800E+02  0.23234477271E+02  0.00000000000E+00 0.  1.
</event>
<event>
 7    1  0.5634483E-012  0.5930195E+02  0.7816164E-02  0.1266605E+00
        -11   -1    0    0    0    0  0.00000000000E+00  0.00000000000E+00  0.45593999997E+02  0.45594000000E+02  0.51100000000E-03 0.  1.
         11   -1    0    0    0    0 -0.00000000000E+00 -0.00000000000E+00 -0.45593999997E+02  0.45594000000E+02  0.51100000000E-03 0. -1.
    9900012    2    1    2    0    0  0.16438414671E+00  0.17897482746E+02  0.26388882080E+02  0.59301952765E+02  0.50000015936E+02 0.  0.
         12    1    1    2    0    0 -0.16438414671E+00 -0.17897482746E+02 -0.26388882080E+02  0.31886047235E+02  0.00000000000E+00 0. -1.
         11    1    3    3    0    0  0.27295891753E+01  0.19603772618E+02 -0.11220921283E+01  0.19824672732E+02  0.51100000000E-03 0. -1.
        -11    1    3    3    0    0  0.10738489878E+02  0.40922656578E+01  0.20169425227E+02  0.23213520141E+02  0.51100000000E-03 0.  1.
         12    1    3    3    0    0 -0.13303694907E+02 -0.57985555297E+01  0.73415489815E+01  0.16263759893E+02  0.00000000000E+00 0. -1.
</event>
<event>
 7    1  0.5634483E-012  0.5930197E+02  0.7816164E-02  0.1266605E+00
        -11   -1    0    0    0    0  0.00000000000E+00  0.00000000000E+00  0.45593999997E+02  0.45594000000E+02  0.51100000000E-03 0.  1.
         11   -1    0    0    0    0 -0.00000000000E+00 -0.00000000000E+00 -0.45593999997E+02  0.45594000000E+02  0.51100000000E-03 0. -1.
    9900012    2    1    2    0    0 -0.98621394636E+01  0.26951436807E+02  0.13895232157E+02  0.59301965166E+02  0.50000038551E+02 0.  0.
         12    1    1    2    0    0  0.98621394636E+01 -0.26951436807E+02 -0.13895232157E+02  0.31886034834E+02  0.00000000000E+00 0. -1.
         11    1    3    3    0    0 -0.30994362579E+00  0.56961261651E+01 -0.68171537960E+01  0.88890665697E+01  0.51100000000E-03 0. -1.
        -11    1    3    3    0    0 -0.20539468086E+02  0.10872155963E+01  0.17915101688E+02  0.27276412077E+02  0.51100000000E-03 0.  1.
         12    1    3    3    0    0  0.10987272248E+02  0.20168095045E+02  0.27972842647E+01  0.23136486520E+02  0.00000000000E+00 0. -1.
</event>
<event>
 7    1  0.5634483E-012  0.5930194E+02  0.7816164E-02  0.1266605E+00
        -11   -1    0    0    0    0  0.00000000000E+00  0.00000000000E+00  0.45593999997E+02  0.45594000000E+02  0.51100000000E-03 0. -1.
         11   -1    0    0    0    0 -0.00000000000E+00 -0.00000000000E+00 -0.45593999997E+02  0.45594000000E+02  0.51100000000E-03 0.  1.
    9900012    2    1    2    0    0 -0.26208817967E+02 -0.87520094181E+01 -0.15912914973E+02  0.59301942373E+02  0.49999996981E+02 0.  0.
         12    1    1    2    0    0  0.26208817967E+02  0.87520094181E+01  0.15912914973E+02  0.31886057627E+02  0.00000000000E+00 0. -1.
         11    1    3    3    0    0 -0.71888520012E+01 -0.11367922805E+02  0.18318552098E+01  0.13574422852E+02  0.51100000000E-03 0. -1.
        -11    1    3    3    0    0 -0.21465187130E+02 -0.63531810424E+01  0.33877802317E+01  0.22640543789E+02  0.51100000000E-03 0.  1.
         12    1    3    3    0    0  0.24452211646E+01  0.89690944289E+01 -0.21132550415E+02  0.23086975732E+02  0.00000000000E+00 0. -1.
</event>
<event>
 7    1  0.5634483E-012  0.5930194E+02  0.7816164E-02  0.1266605E+00
        -11   -1    0    0    0    0  0.00000000000E+00  0.00000000000E+00  0.45593999997E+02  0.45594000000E+02  0.51100000000E-03 0.  1.
         11   -1    0    0    0    0 -0.00000000000E+00 -0.00000000000E+00 -0.45593999997E+02  0.45594000000E+02  0.51100000000E-03 0. -1.
    9900012    2    1    2    0    0  0.18179921806E+02 -0.13860981065E+02  0.22228006162E+02  0.59301943315E+02  0.49999998700E+02 0.  0.
         12    1    1    2    0    0 -0.18179921806E+02  0.13860981065E+02 -0.22228006162E+02  0.31886056685E+02  0.00000000000E+00 0. -1.
         11    1    3    3    0    0  0.32491046753E+01 -0.16705169851E+02 -0.66409851331E+01  0.18268061330E+02  0.51100000000E-03 0. -1.
        -11    1    3    3    0    0 -0.40524287587E+01  0.75819332978E+01  0.42591099041E+01  0.95941601411E+01  0.51100000000E-03 0.  1.
        -12    1    3    3    0    0  0.18983245890E+02 -0.47377445121E+01  0.24609881391E+02  0.31439721844E+02  0.00000000000E+00 0.  1.
</event>
<event>
 7    1  0.5634483E-012  0.5930188E+02  0.7816164E-02  0.1266605E+00
        -11   -1    0    0    0    0  0.00000000000E+00  0.00000000000E+00  0.45593999997E+02  0.45594000000E+02  0.51100000000E-03 0. -1.
         11   -1    0    0    0    0 -0.00000000000E+00 -0.00000000000E+00 -0.45593999997E+02  0.45594000000E+02  0.51100000000E-03 0.  1.
    9900012    2    1    2    0    0  0.11898784032E+01 -0.11526317785E+02 -0.29706104045E+02  0.59301883431E+02  0.49999889487E+02 0.  0.
         12    1    1    2    0    0 -0.11898784032E+01  0.11526317785E+02  0.29706104045E+02  0.31886116569E+02  0.00000000000E+00 0. -1.
         11    1    3    3    0    0 -0.46922572877E+01 -0.49548249744E+01  0.20350130181E+01  0.71210144801E+01  0.51100000000E-03 0. -1.
        -11    1    3    3    0    0 -0.71148988365E+01 -0.16027752143E+01  0.75508481614E+01  0.10497903698E+02  0.51100000000E-03 0.  1.
        -12    1    3    3    0    0  0.12997034527E+02 -0.49687175961E+01 -0.39291965225E+02  0.41682965253E+02  0.00000000000E+00 0.  1.
</event>
<event>
 7    1  0.5634483E-012  0.5930197E+02  0.7816164E-02  0.1266605E+00
        -11   -1    0    0    0    0  0.00000000000E+00  0.00000000000E+00  0.45593999997E+02  0.45594000000E+02  0.51100000000E-03 0.  1.
         11   -1    0    0    0    0 -0.00000000000E+00 -0.00000000000E+00 -0.45593999997E+02  0.45594000000E+02  0.51100000000E-03 0. -1.
    9900012    2    1    2    0    0 -0.16773762159E+02 -0.12856294306E+02  0.23876257268E+02  0.59301967613E+02  0.50000043014E+02 0.  0.
         12    1    1    2    0    0  0.16773762159E+02  0.12856294306E+02 -0.23876257268E+02  0.31886032387E+02  0.00000000000E+00 0. -1.
         11    1    3    3    0    0 -0.70112490385E+01  0.65256420760E+01 -0.10321454236E+02  0.14080981336E+02  0.51100000000E-03 0. -1.
        -11    1    3    3    0    0  0.48111950003E+01 -0.11732053772E+01  0.17319745597E+01  0.52463076849E+01  0.51100000000E-03 0.  1.
        -12    1    3    3    0    0 -0.14573708121E+02 -0.18208731004E+02  0.32465736945E+02  0.39974678592E+02  0.00000000000E+00 0.  1.
</event>
<event>
 7    1  0.5634483E-012  0.5930195E+02  0.7816164E-02  0.1266605E+00
        -11   -1    0    0    0    0  0.00000000000E+00  0.00000000000E+00  0.45593999997E+02  0.45594000000E+02  0.51100000000E-03 0.  1.
         11   -1    0    0    0    0 -0.00000000000E+00 -0.00000000000E+00 -0.45593999997E+02  0.45594000000E+02  0.51100000000E-03 0. -1.
    9900012    2    1    2    0    0 -0.14833138098E+01 -0.29696594453E+01  0.31712792554E+02  0.59301948055E+02  0.50000007345E+02 0.  0.
         12    1    1    2    0    0  0.14833138098E+01  0.29696594453E+01 -0.31712792554E+02  0.31886051945E+02  0.00000000000E+00 0. -1.
         11    1    3    3    0    0 -0.42254529508E+01 -0.39336861356E+01 -0.77651643155E+01  0.96760589271E+01  0.51100000000E-03 0. -1.
        -11    1    3    3    0    0 -0.33626397780E+01 -0.91799094796E+01  0.35974347631E+02  0.37279106374E+02  0.51100000000E-03 0.  1.
         12    1    3    3    0    0  0.61047789189E+01  0.10143936170E+02  0.35036092382E+01  0.12346782753E+02  0.00000000000E+00 0. -1.
</event>
<event>
 7    1  0.5634483E-012  0.5930190E+02  0.7816164E-02  0.1266605E+00
        -11   -1    0    0    0    0  0.00000000000E+00  0.00000000000E+00  0.45593999997E+02  0.45594000000E+02  0.51100000000E-03 0. -1.
         11   -1    0    0    0    0 -0.00000000000E+00 -0.00000000000E+00 -0.45593999997E+02  0.45594000000E+02  0.51100000000E-03 0.  1.
    9900012    2    1    2    0    0  0.28868251633E+02 -0.47950091935E+01  0.12663147971E+02  0.59301899861E+02  0.49999919451E+02 0.  0.
         12    1    1    2    0    0 -0.28868251633E+02  0.47950091935E+01 -0.12663147971E+02  0.31886100139E+02  0.00000000000E+00 0. -1.
         11    1    3    3    0    0 -0.97135710206E+01  0.25595253024E+00  0.36142041751E+01  0.10367325873E+02  0.51100000000E-03 0. -1.
        -11    1    3    3    0    0  0.47421215734E+00  0.71478722547E+01  0.49611678233E+01  0.87137902988E+01  0.51100000000E-03 0.  1.
        -12    1    3    3    0    0  0.38107610497E+02 -0.12198833979E+02  0.40877759727E+01  0.40220783690E+02  0.00000000000E+00 0.  1.
</event>
<event>
 7    1  0.5634483E-012  0.5930193E+02  0.7816164E-02  0.1266605E+00
        -11   -1    0    0    0    0  0.00000000000E+00  0.00000000000E+00  0.45593999997E+02  0.45594000000E+02  0.51100000000E-03 0. -1.
         11   -1    0    0    0    0 -0.00000000000E+00 -0.00000000000E+00 -0.45593999997E+02  0.45594000000E+02  0.51100000000E-03 0.  1.
    9900012    2    1    2    0    0  0.76918612269E+01  0.18137610911E+02 -0.25071567990E+02  0.59301934389E+02  0.49999982421E+02 0.  0.
         12    1    1    2    0    0 -0.76918612269E+01 -0.18137610911E+02  0.25071567990E+02  0.31886065611E+02  0.00000000000E+00 0. -1.
         11    1    3    3    0    0  0.51631148578E+01  0.32800429669E+01 -0.18112580599E+02  0.19117583873E+02  0.51100000000E-03 0. -1.
        -11    1    3    3    0    0  0.15361660194E+02 -0.38249799130E+01 -0.74889787106E+01  0.17512734727E+02  0.51100000000E-03 0.  1.
         12    1    3    3    0    0 -0.12832913825E+02  0.18682547858E+02  0.52999132025E+00  0.22671615789E+02  0.00000000000E+00 0. -1.
</event>
<event>
 7    1  0.5634483E-012  0.5930193E+02  0.7816164E-02  0.1266605E+00
        -11   -1    0    0    0    0  0.00000000000E+00  0.00000000000E+00  0.45593999997E+02  0.45594000000E+02  0.51100000000E-03 0.  1.
         11   -1    0    0    0    0 -0.00000000000E+00 -0.00000000000E+00 -0.45593999997E+02  0.45594000000E+02  0.51100000000E-03 0. -1.
    9900012    2    1    2    0    0 -0.18073168647E+02 -0.26269276940E+02  0.82904645044E-01  0.59301933935E+02  0.49999981594E+02 0.  0.
         12    1    1    2    0    0  0.18073168647E+02  0.26269276940E+02 -0.82904645044E-01  0.31886066065E+02  0.00000000000E+00 0. -1.
         11    1    3    3    0    0  0.45166867726E+01 -0.22321420951E+02  0.37932737972E+01  0.23087555501E+02  0.51100000000E-03 0. -1.
        -11    1    3    3    0    0 -0.21395799703E+01 -0.55601264854E+01  0.99296686691E+01  0.11579772412E+02  0.51100000000E-03 0.  1.
        -12    1    3    3    0    0 -0.20450275449E+02  0.16122704958E+01 -0.13640037821E+02  0.24634606022E+02  0.00000000000E+00 0.  1.
</event>
<event>
 7    1  0.5634483E-012  0.5930192E+02  0.7816164E-02  0.1266605E+00
        -11   -1    0    0    0    0  0.00000000000E+00  0.00000000000E+00  0.45593999997E+02  0.45594000000E+02  0.51100000000E-03 0. -1.
         11   -1    0    0    0    0 -0.00000000000E+00 -0.00000000000E+00 -0.45593999997E+02  0.45594000000E+02  0.51100000000E-03 0.  1.
    9900012    2    1    2    0    0 -0.76588799888E+01 -0.10241377349E+02 -0.29209209015E+02  0.59301919275E+02  0.49999954858E+02 0.  0.
         12    1    1    2    0    0  0.76588799888E+01  0.10241377349E+02  0.29209209015E+02  0.31886080725E+02  0.00000000000E+00 0. -1.
         11    1    3    3    0    0 -0.48508222604E+01 -0.11506612757E+02 -0.12127502184E+01  0.12546050259E+02  0.51100000000E-03 0. -1.
        -11    1    3    3    0    0  0.40839581904E+00  0.91244325913E+01  0.65123844240E+01  0.11217540212E+02  0.51100000000E-03 0.  1.
        -12    1    3    3    0    0 -0.32164535474E+01 -0.78591971832E+01 -0.34508843221E+02  0.35538328804E+02  0.00000000000E+00 0.  1.
</event>
<event>
 7    1  0.5634483E-012  0.5930194E+02  0.7816164E-02  0.1266605E+00
        -11   -1    0    0    0    0  0.00000000000E+00  0.00000000000E+00  0.45593999997E+02  0.45594000000E+02  0.51100000000E-03 0. -1.
         11   -1    0    0    0    0 -0.00000000000E+00 -0.00000000000E+00 -0.45593999997E+02  0.45594000000E+02  0.51100000000E-03 0.  1.
    9900012    2    1    2    0    0  0.23416351970E+02 -0.21322614148E+02 -0.37069349681E+01  0.59301940655E+02  0.49999993848E+02 0.  0.
         12    1    1    2    0    0 -0.23416351970E+02  0.21322614148E+02  0.37069349681E+01  0.31886059345E+02  0.00000000000E+00 0. -1.
         11    1    3    3    0    0  0.16556223174E+01 -0.16938259369E+02 -0.10772358146E+02  0.20141733193E+02  0.51100000000E-03 0. -1.
        -11    1    3    3    0    0  0.24810522828E+02 -0.76937527801E+01 -0.48484538843E+01  0.26424673700E+02  0.51100000000E-03 0.  1.
         12    1    3    3    0    0 -0.30497931749E+01  0.33093980010E+01  0.11913877062E+02  0.12735533762E+02  0.00000000000E+00 0. -1.
</event>
<event>
 7    1  0.5634483E-012  0.5930192E+02  0.7816164E-02  0.1266605E+00
        -11   -1    0    0    0    0  0.00000000000E+00  0.00000000000E+00  0.45593999997E+02  0.45594000000E+02  0.51100000000E-03 0.  1.
         11   -1    0    0    0    0 -0.00000000000E+00 -0.00000000000E+00 -0.45593999997E+02  0.45594000000E+02  0.51100000000E-03 0. -1.
    9900012    2    1    2    0    0  0.27596906579E+00  0.86136990199E+01  0.30699346682E+02  0.59301923784E+02  0.49999963081E+02 0.  0.
         12    1    1    2    0    0 -0.27596906579E+00 -0.86136990199E+01 -0.30699346682E+02  0.31886076216E+02  0.00000000000E+00 0. -1.
         11    1    3    3    0    0 -0.18431476736E+02  0.32317793147E+01  0.11015093515E+02  0.21713959050E+02  0.51100000000E-03 0. -1.
        -11    1    3    3    0    0 -0.44476140139E+00  0.11123444199E+02  0.11434448517E+02  0.15958553716E+02  0.51100000000E-03 0.  1.
         12    1    3    3    0    0  0.19152207203E+02 -0.57415244937E+01  0.82498046500E+01  0.21629411019E+02  0.00000000000E+00 0. -1.
</event>
<event>
 7    1  0.5634483E-012  0.5930205E+02  0.7816164E-02  0.1266604E+00
        -11   -1    0    0    0    0  0.00000000000E+00  0.00000000000E+00  0.45593999997E+02  0.45594000000E+02  0.51100000000E-03 0.  1.
         11   -1    0    0    0    0 -0.00000000000E+00 -0.00000000000E+00 -0.45593999997E+02  0.45594000000E+02  0.51100000000E-03 0. -1.
    9900012    2    1    2    0    0  0.17169006876E+02  0.24832113036E+02  0.10261841374E+02  0.59302046614E+02  0.50000187093E+02 0.  0.
         12    1    1    2    0    0 -0.17169006876E+02 -0.24832113036E+02 -0.10261841374E+02  0.31885953386E+02  0.00000000000E+00 0. -1.
         11    1    3    3    0    0 -0.85565853485E+01  0.34905707952E+01  0.14592186585E+02  0.17272265251E+02  0.51100000000E-03 0. -1.
        -11    1    3    3    0    0  0.17733139805E+02  0.24967836027E+02  0.27577402683E+01  0.30748369304E+02  0.51100000000E-03 0.  1.
        -12    1    3    3    0    0  0.79924524191E+01 -0.36262937862E+01 -0.70880854787E+01  0.11281412059E+02  0.00000000000E+00 0.  1.
</event>
<event>
 7    1  0.5634483E-012  0.5930193E+02  0.7816164E-02  0.1266605E+00
        -11   -1    0    0    0    0  0.00000000000E+00  0.00000000000E+00  0.45593999997E+02  0.45594000000E+02  0.51100000000E-03 0. -1.
         11   -1    0    0    0    0 -0.00000000000E+00 -0.00000000000E+00 -0.45593999997E+02  0.45594000000E+02  0.51100000000E-03 0.  1.
    9900012    2    1    2    0    0 -0.31272376006E+02  0.62184365773E+01  0.30139621194E+00  0.59301932600E+02  0.49999979159E+02 0.  0.
         12    1    1    2    0    0  0.31272376006E+02 -0.62184365773E+01 -0.30139621194E+00  0.31886067400E+02  0.00000000000E+00 0. -1.
         11    1    3    3    0    0 -0.13123010861E+02  0.11836369610E+02  0.12031080976E+02  0.21378960903E+02  0.51100000000E-03 0. -1.
        -11    1    3    3    0    0 -0.16363869736E+02 -0.43155235339E+01  0.75399405222E+01  0.18527025650E+02  0.51100000000E-03 0.  1.
         12    1    3    3    0    0 -0.17854954096E+01 -0.13024094987E+01 -0.19269625286E+02  0.19395946046E+02  0.00000000000E+00 0. -1.
</event>
<event>
 7    1  0.5634483E-012  0.5930195E+02  0.7816164E-02  0.1266605E+00
        -11   -1    0    0    0    0  0.00000000000E+00  0.00000000000E+00  0.45593999997E+02  0.45594000000E+02  0.51100000000E-03 0. -1.
         11   -1    0    0    0    0 -0.00000000000E+00 -0.00000000000E+00 -0.45593999997E+02  0.45594000000E+02  0.51100000000E-03 0.  1.
    9900012    2    1    2    0    0  0.57302982604E+01  0.30232875837E+02  0.83580648231E+01  0.59301947452E+02  0.50000006245E+02 0.  0.
         12    1    1    2    0    0 -0.57302982604E+01 -0.30232875837E+02 -0.83580648231E+01  0.31886052548E+02  0.00000000000E+00 0. -1.
         11    1    3    3    0    0  0.12759356202E+02  0.12367100720E+02  0.21085150917E+02  0.27574080952E+02  0.51100000000E-03 0. -1.
        -11    1    3    3    0    0 -0.93171572890E+01 -0.10355100257E+00  0.44858949788E+00  0.93285248328E+01  0.51100000000E-03 0.  1.
        -12    1    3    3    0    0  0.22880993473E+01  0.17969326120E+02 -0.13175675592E+02  0.22399341667E+02  0.00000000000E+00 0.  1.
</event>
<event>
 7    1  0.5634483E-012  0.5930193E+02  0.7816164E-02  0.1266605E+00
        -11   -1    0    0    0    0  0.00000000000E+00  0.00000000000E+00  0.45593999997E+02  0.45594000000E+02  0.51100000000E-03 0.  1.
         11   -1    0    0    0    0 -0.00000000000E+00 -0.00000000000E+00 -0.45593999997E+02  0.45594000000E+02  0.51100000000E-03 0. -1.
    9900012    2    1    2    0    0 -0.58970137540E+01  0.11526433008E+02  0.29139116154E+02  0.59301929070E+02  0.49999972722E+02 0.  0.
         12    1    1    2    0    0  0.58970137540E+01 -0.11526433008E+02 -0.29139116154E+02  0.31886070930E+02  0.00000000000E+00 0. -1.
         11    1    3    3    0    0 -0.10620737850E+02  0.15122875043E+02  0.15487588236E+02  0.24111549341E+02  0.51100000000E-03 0. -1.
        -11    1    3    3    0    0  0.54226600015E+01  0.87283921377E+01  0.19106321667E+02  0.21694275713E+02  0.51100000000E-03 0.  1.
         12    1    3    3    0    0 -0.69893590554E+00 -0.12324834173E+02 -0.54547937483E+01  0.13496104016E+02  0.00000000000E+00 0. -1.
</event>
<event>
 7    1  0.5634483E-012  0.5930195E+02  0.7816164E-02  0.1266605E+00
        -11   -1    0    0    0    0  0.00000000000E+00  0.00000000000E+00  0.45593999997E+02  0.45594000000E+02  0.51100000000E-03 0.  1.
         11   -1    0    0    0    0 -0.00000000000E+00 -0.00000000000E+00 -0.45593999997E+02  0.45594000000E+02  0.51100000000E-03 0. -1.
    9900012    2    1    2    0    0 -0.14361312043E+02 -0.13698774089E+02  0.24956292748E+02  0.59301949087E+02  0.50000009227E+02 0.  0.
         12    1    1    2    0    0  0.14361312043E+02  0.13698774089E+02 -0.24956292748E+02  0.31886050913E+02  0.00000000000E+00 0. -1.
         11    1    3    3    0    0  0.94860709224E+01  0.49035299348E+01  0.15458915803E+02  0.18788513124E+02  0.51100000000E-03 0.  1.
        -11    1    3    3    0    0 -0.14674923537E+01 -0.32082895982E+01 -0.76267021899E+01  0.84031685993E+01  0.51100000000E-03 0. -1.
        -12    1    3    3    0    0 -0.22379890612E+02 -0.15394014425E+02  0.17124079135E+02  0.32110267363E+02  0.00000000000E+00 0.  1.
</event>
<event>
 7    1  0.5634483E-012  0.5930199E+02  0.7816164E-02  0.1266605E+00
        -11   -1    0    0    0    0  0.00000000000E+00  0.00000000000E+00  0.45593999997E+02  0.45594000000E+02  0.51100000000E-03 0. -1.
         11   -1    0    0    0    0 -0.00000000000E+00 -0.00000000000E+00 -0.45593999997E+02  0.45594000000E+02  0.51100000000E-03 0.  1.
    9900012    2    1    2    0    0  0.33272083661E+01  0.24846216159E+02 -0.19705651051E+02  0.59301992783E+02  0.50000088918E+02 0.  0.
         12    1    1    2    0    0 -0.33272083661E+01 -0.24846216159E+02  0.19705651051E+02  0.31886007217E+02  0.00000000000E+00 0. -1.
         11    1    3    3    0    0 -0.37419604330E+01  0.10562568845E+02  0.13467239885E+02  0.17519608411E+02  0.51100000000E-03 0. -1.
        -11    1    3    3    0    0 -0.37698286967E+00 -0.37729799010E+01 -0.65263940127E+00  0.38475228221E+01  0.51100000000E-03 0.  1.
        -12    1    3    3    0    0  0.74461516687E+01  0.18056627214E+02 -0.32520251534E+02  0.37934861550E+02  0.00000000000E+00 0.  1.
</event>
<event>
 7    1  0.5634483E-012  0.5930190E+02  0.7816164E-02  0.1266605E+00
        -11   -1    0    0    0    0  0.00000000000E+00  0.00000000000E+00  0.45593999997E+02  0.45594000000E+02  0.51100000000E-03 0. -1.
         11   -1    0    0    0    0 -0.00000000000E+00 -0.00000000000E+00 -0.45593999997E+02  0.45594000000E+02  0.51100000000E-03 0.  1.
    9900012    2    1    2    0    0 -0.14560841023E+02  0.17008503794E+02 -0.22702776454E+02  0.59301900343E+02  0.49999920330E+02 0.  0.
         12    1    1    2    0    0  0.14560841023E+02 -0.17008503794E+02  0.22702776454E+02  0.31886099657E+02  0.00000000000E+00 0. -1.
         11    1    3    3    0    0  0.65885423466E+01  0.13701877652E+02 -0.21791142854E+02  0.26570740460E+02  0.51100000000E-03 0.  1.
        -11    1    3    3    0    0  0.44101411740E+01 -0.19906050812E+01 -0.42191771802E+01  0.64197593493E+01  0.51100000000E-03 0. -1.
        -12    1    3    3    0    0 -0.25559524544E+02  0.52972312225E+01  0.33075435803E+01  0.26311400534E+02  0.00000000000E+00 0.  1.
</event>
<event>
 7    1  0.5634483E-012  0.5930194E+02  0.7816164E-02  0.1266605E+00
        -11   -1    0    0    0    0  0.00000000000E+00  0.00000000000E+00  0.45593999997E+02  0.45594000000E+02  0.51100000000E-03 0.  1.
         11   -1    0    0    0    0 -0.00000000000E+00 -0.00000000000E+00 -0.45593999997E+02  0.45594000000E+02  0.51100000000E-03 0. -1.
    9900012    2    1    2    0    0  0.27933277147E+02 -0.91325479852E+01  0.12371320560E+02  0.59301937570E+02  0.49999988223E+02 0.  0.
         12    1    1    2    0    0 -0.27933277147E+02  0.91325479852E+01 -0.12371320560E+02  0.31886062430E+02  0.00000000000E+00 0. -1.
         11    1    3    3    0    0  0.30626599823E+02  0.62218808485E+01  0.16655741410E+02  0.35413473992E+02  0.51100000000E-03 0. -1.
        -11    1    3    3    0    0  0.77304890409E+00 -0.22883312711E+01  0.62822451184E+01  0.67305771375E+01  0.51100000000E-03 0.  1.
        -12    1    3    3    0    0 -0.34663715796E+01 -0.13066097563E+02 -0.10566665968E+02  0.17157886441E+02  0.00000000000E+00 0.  1.
</event>
<event>
 7    1  0.5634483E-012  0.5930197E+02  0.7816164E-02  0.1266605E+00
        -11   -1    0    0    0    0  0.00000000000E+00  0.00000000000E+00  0.45593999997E+02  0.45594000000E+02  0.51100000000E-03 0.  1.
         11   -1    0    0    0    0 -0.00000000000E+00 -0.00000000000E+00 -0.45593999997E+02  0.45594000000E+02  0.51100000000E-03 0. -1.
    9900012    2    1    2    0    0 -0.18477073964E+02 -0.25323440080E+02  0.58343861722E+01  0.59301969489E+02  0.50000046435E+02 0.  0.
         12    1    1    2    0    0  0.18477073964E+02  0.25323440080E+02 -0.58343861722E+01  0.31886030511E+02  0.00000000000E+00 0. -1.
         11    1    3    3    0    0 -0.17706168360E+02 -0.59325447374E+01 -0.42863397354E+01  0.19159232596E+02  0.51100000000E-03 0. -1.
        -11    1    3    3    0    0 -0.96528006239E+01  0.45349075499E+01  0.10001952430E+02  0.14621251623E+02  0.51100000000E-03 0.  1.
         12    1    3    3    0    0  0.88818950205E+01 -0.23925802893E+02  0.11877347810E+00  0.25521485270E+02  0.00000000000E+00 0. -1.
</event>
<event>
 7    1  0.5634483E-012  0.5930195E+02  0.7816164E-02  0.1266605E+00
        -11   -1    0    0    0    0  0.00000000000E+00  0.00000000000E+00  0.45593999997E+02  0.45594000000E+02  0.51100000000E-03 0. -1.
         11   -1    0    0    0    0 -0.00000000000E+00 -0.00000000000E+00 -0.45593999997E+02  0.45594000000E+02  0.51100000000E-03 0.  1.
    9900012    2    1    2    0    0 -0.20877747067E+02  0.12254544970E+02 -0.20752494171E+02  0.59301949613E+02  0.50000010186E+02 0.  0.
         12    1    1    2    0    0  0.20877747067E+02 -0.12254544970E+02  0.20752494171E+02  0.31886050387E+02  0.00000000000E+00 0. -1.
         11    1    3    3    0    0  0.41544944021E+01 -0.15593514802E+02 -0.71578876420E+01  0.17653693194E+02  0.51100000000E-03 0. -1.
        -11    1    3    3    0    0 -0.26972582506E+01  0.17215857267E+01  0.21362422518E+01  0.38474135084E+01  0.51100000000E-03 0.  1.
        -12    1    3    3    0    0 -0.22334983218E+02  0.26126474045E+02 -0.15730848781E+02  0.37800842911E+02  0.00000000000E+00 0.  1.
</event>
<event>
 7    1  0.5634483E-012  0.5930194E+02  0.7816164E-02  0.1266605E+00
        -11   -1    0    0    0    0  0.00000000000E+00  0.00000000000E+00  0.45593999997E+02  0.45594000000E+02  0.51100000000E-03 0. -1.
         11   -1    0    0    0    0 -0.00000000000E+00 -0.00000000000E+00 -0.45593999997E+02  0.45594000000E+02  0.51100000000E-03 0.  1.
    9900012    2    1    2    0    0 -0.27474556850E+02  0.76775167326E+01  0.14245182894E+02  0.59301940774E+02  0.49999994065E+02 0.  0.
         12    1    1    2    0    0  0.27474556850E+02 -0.76775167326E+01 -0.14245182894E+02  0.31886059226E+02  0.00000000000E+00 0. -1.
         11    1    3    3    0    0 -0.12866969308E+02  0.11208104129E+02 -0.91133935599E+01  0.19345139952E+02  0.51100000000E-03 0. -1.
        -11    1    3    3    0    0 -0.10065163732E+02 -0.36533082012E+01 -0.45836547439E+01  0.11647492127E+02  0.51100000000E-03 0.  1.
         12    1    3    3    0    0 -0.45424238097E+01  0.12272080513E+00  0.27942231198E+02  0.28309308695E+02  0.00000000000E+00 0. -1.
</event>
<event>
 7    1  0.5634483E-012  0.5930191E+02  0.7816164E-02  0.1266605E+00
        -11   -1    0    0    0    0  0.00000000000E+00  0.00000000000E+00  0.45593999997E+02  0.45594000000E+02  0.51100000000E-03 0.  1.
         11   -1    0    0    0    0 -0.00000000000E+00 -0.00000000000E+00 -0.45593999997E+02  0.45594000000E+02  0.51100000000E-03 0. -1.
    9900012    2    1    2    0    0 -0.16977735830E+02  0.17160311640E+02 -0.20832744211E+02  0.59301905211E+02  0.49999929208E+02 0.  0.
         12    1    1    2    0    0  0.16977735830E+02 -0.17160311640E+02  0.20832744211E+02  0.31886094789E+02  0.00000000000E+00 0. -1.
         11    1    3    3    0    0  0.10991478028E+02  0.16642327039E+02 -0.10586543618E+02  0.22579958914E+02  0.51100000000E-03 0. -1.
        -11    1    3    3    0    0 -0.16133392059E+02  0.10849865868E+02 -0.42212652265E+01  0.19895351444E+02  0.51100000000E-03 0.  1.
        -12    1    3    3    0    0 -0.11835821799E+02 -0.10331881268E+02 -0.60249353663E+01  0.16826594853E+02  0.00000000000E+00 0.  1.
</event>
<event>
 7    1  0.5634483E-012  0.5930187E+02  0.7816164E-02  0.1266605E+00
        -11   -1    0    0    0    0  0.00000000000E+00  0.00000000000E+00  0.45593999997E+02  0.45594000000E+02  0.51100000000E-03 0.  1.
         11   -1    0    0    0    0 -0.00000000000E+00 -0.00000000000E+00 -0.45593999997E+02  0.45594000000E+02  0.51100000000E-03 0. -1.
    9900012    2    1    2    0    0 -0.19891118400E+02 -0.34659852918E+01  0.24679058875E+02  0.59301865204E+02  0.49999856244E+02 0.  0.
         12    1    1    2    0    0  0.19891118400E+02  0.34659852918E+01 -0.24679058875E+02  0.31886134796E+02  0.00000000000E+00 0. -1.
         11    1    3    3    0    0 -0.43132505753E+01 -0.39433518866E+01 -0.97674942716E+01  0.11382359124E+02  0.51100000000E-03 0. -1.
        -11    1    3    3    0    0 -0.84085239447E+01  0.39762075321E+01 -0.28902356673E+01  0.97399673378E+01  0.51100000000E-03 0.  1.
        -12    1    3    3    0    0 -0.71693438802E+01 -0.34988409373E+01  0.37336788814E+02  0.38179538742E+02  0.00000000000E+00 0.  1.
</event>
<event>
 7    1  0.5634483E-012  0.5930213E+02  0.7816164E-02  0.1266604E+00
        -11   -1    0    0    0    0  0.00000000000E+00  0.00000000000E+00  0.45593999997E+02  0.45594000000E+02  0.51100000000E-03 0.  1.
         11   -1    0    0    0    0 -0.00000000000E+00 -0.00000000000E+00 -0.45593999997E+02  0.45594000000E+02  0.51100000000E-03 0. -1.
    9900012    2    1    2    0    0 -0.30798845772E+02  0.78945776549E+01 -0.24115648425E+01  0.59302126918E+02  0.50000333547E+02 0.  0.
         12    1    1    2    0    0  0.30798845772E+02 -0.78945776549E+01  0.24115648425E+01  0.31885873082E+02  0.00000000000E+00 0. -1.
         11    1    3    3    0    0  0.48442144920E+01 -0.10036423608E+02 -0.10864469719E+02  0.15563833571E+02  0.51100000000E-03 0. -1.
        -11    1    3    3    0    0  0.65709766377E+00  0.30242105404E+01 -0.12124115539E+01  0.33237883159E+01  0.51100000000E-03 0.  1.
        -12    1    3    3    0    0 -0.36300157928E+02  0.14906790723E+02  0.96653164301E+01  0.40414505031E+02  0.00000000000E+00 0.  1.
</event>
<event>
 7    1  0.5634483E-012  0.5930199E+02  0.7816164E-02  0.1266605E+00
        -11   -1    0    0    0    0  0.00000000000E+00  0.00000000000E+00  0.45593999997E+02  0.45594000000E+02  0.51100000000E-03 0.  1.
         11   -1    0    0    0    0 -0.00000000000E+00 -0.00000000000E+00 -0.45593999997E+02  0.45594000000E+02  0.51100000000E-03 0. -1.
    9900012    2    1    2    0    0 -0.14515970781E+02  0.84690769849E-01  0.28390091972E+02  0.59301985787E+02  0.50000076158E+02 0.  0.
         12    1    1    2    0    0  0.14515970781E+02 -0.84690769849E-01 -0.28390091972E+02  0.31886014213E+02  0.00000000000E+00 0. -1.
         11    1    3    3    0    0 -0.23768341436E+02 -0.56127708960E+01 -0.33485224607E+00  0.24424360341E+02  0.51100000000E-03 0. -1.
        -11    1    3    3    0    0  0.28943126892E+01  0.73440565595E+01  0.31941267989E+01  0.85155539433E+01  0.51100000000E-03 0.  1.
        -12    1    3    3    0    0  0.63580579661E+01 -0.16465948937E+01  0.25530817419E+02  0.26362071503E+02  0.00000000000E+00 0.  1.
</event>
<event>
 7    1  0.5634483E-012  0.5930194E+02  0.7816164E-02  0.1266605E+00
        -11   -1    0    0    0    0  0.00000000000E+00  0.00000000000E+00  0.45593999997E+02  0.45594000000E+02  0.51100000000E-03 0.  1.
         11   -1    0    0    0    0 -0.00000000000E+00 -0.00000000000E+00 -0.45593999997E+02  0.45594000000E+02  0.51100000000E-03 0. -1.
    9900012    2    1    2    0    0  0.28724458440E+02  0.13802640891E+02 -0.10551800608E+01  0.59301940143E+02  0.49999992916E+02 0.  0.
         12    1    1    2    0    0 -0.28724458440E+02 -0.13802640891E+02  0.10551800608E+01  0.31886059857E+02  0.00000000000E+00 0. -1.
         11    1    3    3    0    0  0.10139988081E+01  0.93996524734E+01 -0.10896445615E+02  0.14426163298E+02  0.51100000000E-03 0. -1.
        -11    1    3    3    0    0 -0.34460748957E+01 -0.91398959219E+01  0.13765576545E+01  0.98644838125E+01  0.51100000000E-03 0.  1.
        -12    1    3    3    0    0  0.31156534528E+02  0.13542884339E+02  0.84647078995E+01  0.35011293033E+02  0.00000000000E+00 0.  1.
</event>
<event>
 7    1  0.5634483E-012  0.5930204E+02  0.7816164E-02  0.1266604E+00
        -11   -1    0    0    0    0  0.00000000000E+00  0.00000000000E+00  0.45593999997E+02  0.45594000000E+02  0.51100000000E-03 0.  1.
         11   -1    0    0    0    0 -0.00000000000E+00 -0.00000000000E+00 -0.45593999997E+02  0.45594000000E+02  0.51100000000E-03 0. -1.
    9900012    2    1    2    0    0 -0.24578311575E+02  0.12631024943E+02  0.15908440865E+02  0.59302036289E+02  0.50000168263E+02 0.  0.
         12    1    1    2    0    0  0.24578311575E+02 -0.12631024943E+02 -0.15908440865E+02  0.31885963711E+02  0.00000000000E+00 0. -1.
         11    1    3    3    0    0  0.51683315162E+01  0.12804311228E+02 -0.51947827186E+01  0.14752891393E+02  0.51100000000E-03 0. -1.
        -11    1    3    3    0    0  0.45850683493E+01  0.13363552407E+01  0.36188598959E+01  0.59920651118E+01  0.51100000000E-03 0.  1.
        -12    1    3    3    0    0 -0.34331711441E+02 -0.15096415256E+01  0.17484363687E+02  0.38557079785E+02  0.00000000000E+00 0.  1.
</event>
<event>
 7    1  0.5634483E-012  0.5930193E+02  0.7816164E-02  0.1266605E+00
        -11   -1    0    0    0    0  0.00000000000E+00  0.00000000000E+00  0.45593999997E+02  0.45594000000E+02  0.51100000000E-03 0.  1.
         11   -1    0    0    0    0 -0.00000000000E+00 -0.00000000000E+00 -0.45593999997E+02  0.45594000000E+02  0.51100000000E-03 0. -1.
    9900012    2    1    2    0    0 -0.77272671869E+00 -0.29101167380E+02  0.13009473817E+02  0.59301930025E+02  0.49999974462E+02 0.  0.
         12    1    1    2    0    0  0.77272671869E+00  0.29101167380E+02 -0.13009473817E+02  0.31886069975E+02  0.00000000000E+00 0. -1.
         11    1    3    3    0    0  0.44937891510E+01 -0.12659610830E+02 -0.41080081112E+01  0.14047619663E+02  0.51100000000E-03 0. -1.
        -11    1    3    3    0    0  0.11568733864E+02 -0.21412664626E+02  0.10016888417E+02  0.26318735977E+02  0.51100000000E-03 0.  1.
        -12    1    3    3    0    0 -0.16835249733E+02  0.49711080756E+01  0.71005935112E+01  0.18935574385E+02  0.00000000000E+00 0.  1.
</event>
<event>
 7    1  0.5634483E-012  0.5930188E+02  0.7816164E-02  0.1266605E+00
        -11   -1    0    0    0    0  0.00000000000E+00  0.00000000000E+00  0.45593999997E+02  0.45594000000E+02  0.51100000000E-03 0. -1.
         11   -1    0    0    0    0 -0.00000000000E+00 -0.00000000000E+00 -0.45593999997E+02  0.45594000000E+02  0.51100000000E-03 0.  1.
    9900012    2    1    2    0    0 -0.31148571160E+02  0.12530158703E+00 -0.68172990017E+01  0.59301878388E+02  0.49999880288E+02 0.  0.
         12    1    1    2    0    0  0.31148571160E+02 -0.12530158703E+00  0.68172990017E+01  0.31886121612E+02  0.00000000000E+00 0. -1.
         11    1    3    3    0    0 -0.52591570849E+01 -0.23605316037E+01  0.63913924817E+01  0.86070169520E+01  0.51100000000E-03 0. -1.
        -11    1    3    3    0    0 -0.12605355275E+02  0.15477122764E+02  0.88659457977E+01  0.21841275279E+02  0.51100000000E-03 0.  1.
         12    1    3    3    0    0 -0.13284058800E+02 -0.12991289574E+02 -0.22074637281E+02  0.28853586156E+02  0.00000000000E+00 0. -1.
</event>
<event>
 7    1  0.5634483E-012  0.5930194E+02  0.7816164E-02  0.1266605E+00
        -11   -1    0    0    0    0  0.00000000000E+00  0.00000000000E+00  0.45593999997E+02  0.45594000000E+02  0.51100000000E-03 0. -1.
         11   -1    0    0    0    0 -0.00000000000E+00 -0.00000000000E+00 -0.45593999997E+02  0.45594000000E+02  0.51100000000E-03 0.  1.
    9900012    2    1    2    0    0 -0.74322431603E+01  0.22400772225E+02 -0.21440333274E+02  0.59301941517E+02  0.49999995421E+02 0.  0.
         12    1    1    2    0    0  0.74322431603E+01 -0.22400772225E+02  0.21440333274E+02  0.31886058483E+02  0.00000000000E+00 0. -1.
         11    1    3    3    0    0 -0.85790503542E+01  0.46978713699E+01  0.50872352824E+01  0.11024974534E+02  0.51100000000E-03 0. -1.
        -11    1    3    3    0    0 -0.30923533699E+01  0.19259135649E+02  0.18028010946E+01  0.19588952176E+02  0.51100000000E-03 0.  1.
        -12    1    3    3    0    0  0.42391605638E+01 -0.15562347938E+01 -0.28330369651E+02  0.28688014807E+02  0.00000000000E+00 0.  1.
</event>
<event>
 7    1  0.5634483E-012  0.5930196E+02  0.7816164E-02  0.1266605E+00
        -11   -1    0    0    0    0  0.00000000000E+00  0.00000000000E+00  0.45593999997E+02  0.45594000000E+02  0.51100000000E-03 0.  1.
         11   -1    0    0    0    0 -0.00000000000E+00 -0.00000000000E+00 -0.45593999997E+02  0.45594000000E+02  0.51100000000E-03 0. -1.
    9900012    2    1    2    0    0  0.25990074926E+02  0.59105445930E+01  0.17501458343E+02  0.59301959541E+02  0.50000028292E+02 0.  0.
         12    1    1    2    0    0 -0.25990074926E+02 -0.59105445930E+01 -0.17501458343E+02  0.31886040459E+02  0.00000000000E+00 0. -1.
         11    1    3    3    0    0  0.14768537021E+02  0.21138015595E+01  0.60386022326E+01  0.16094799159E+02  0.51100000000E-03 0. -1.
        -11    1    3    3    0    0  0.22786728945E+02  0.69462387624E+01 -0.34541478551E+01  0.24071069495E+02  0.51100000000E-03 0.  1.
         12    1    3    3    0    0 -0.11565191040E+02 -0.31494957289E+01  0.14917003965E+02  0.19136090887E+02  0.00000000000E+00 0. -1.
</event>
<event>
 7    1  0.5634483E-012  0.5930193E+02  0.7816164E-02  0.1266605E+00
        -11   -1    0    0    0    0  0.00000000000E+00  0.00000000000E+00  0.45593999997E+02  0.45594000000E+02  0.51100000000E-03 0.  1.
         11   -1    0    0    0    0 -0.00000000000E+00 -0.00000000000E+00 -0.45593999997E+02  0.45594000000E+02  0.51100000000E-03 0. -1.
    9900012    2    1    2    0    0  0.25465841071E+02  0.93679617483E+01  0.16746749584E+02  0.59301931092E+02  0.49999976408E+02 0.  0.
         12    1    1    2    0    0 -0.25465841071E+02 -0.93679617483E+01 -0.16746749584E+02  0.31886068908E+02  0.00000000000E+00 0. -1.
         11    1    3    3    0    0 -0.65750536370E+01  0.19838778287E+02  0.88850452423E+01  0.22710184576E+02  0.51100000000E-03 0.  1.
        -11    1    3    3    0    0  0.11280374423E+02 -0.17861439659E+01 -0.26953803192E+01  0.11734659463E+02  0.51100000000E-03 0. -1.
        -12    1    3    3    0    0  0.20760520285E+02 -0.86846725727E+01  0.10557084661E+02  0.24857087053E+02  0.00000000000E+00 0.  1.
</event>
<event>
 7    1  0.5634483E-012  0.5930197E+02  0.7816164E-02  0.1266605E+00
        -11   -1    0    0    0    0  0.00000000000E+00  0.00000000000E+00  0.45593999997E+02  0.45594000000E+02  0.51100000000E-03 0.  1.
         11   -1    0    0    0    0 -0.00000000000E+00 -0.00000000000E+00 -0.45593999997E+02  0.45594000000E+02  0.51100000000E-03 0. -1.
    9900012    2    1    2    0    0 -0.65747875064E+01 -0.88249556097E+01  0.29926768307E+02  0.59301966481E+02  0.50000040949E+02 0.  0.
         12    1    1    2    0    0  0.65747875064E+01  0.88249556097E+01 -0.29926768307E+02  0.31886033519E+02  0.00000000000E+00 0. -1.
         11    1    3    3    0    0 -0.12293653691E+02 -0.12944112840E+02  0.41338853852E+01  0.18324109444E+02  0.51100000000E-03 0. -1.
        -11    1    3    3    0    0 -0.29900326798E+01  0.20617469819E+01  0.30603414978E+02  0.30818178152E+02  0.51100000000E-03 0.  1.
         12    1    3    3    0    0  0.87088988642E+01  0.20574102487E+01 -0.48105320561E+01  0.10159678884E+02  0.00000000000E+00 0. -1.
</event>
<event>
 7    1  0.5634483E-012  0.5930191E+02  0.7816164E-02  0.1266605E+00
        -11   -1    0    0    0    0  0.00000000000E+00  0.00000000000E+00  0.45593999997E+02  0.45594000000E+02  0.51100000000E-03 0.  1.
         11   -1    0    0    0    0 -0.00000000000E+00 -0.00000000000E+00 -0.45593999997E+02  0.45594000000E+02  0.51100000000E-03 0. -1.
    9900012    2    1    2    0    0  0.24667495175E+02  0.19675312152E+02  0.45956107605E+01  0.59301907973E+02  0.49999934244E+02 0.  0.
         12    1    1    2    0    0 -0.24667495175E+02 -0.19675312152E+02 -0.45956107605E+01  0.31886092027E+02  0.00000000000E+00 0. -1.
         11    1    3    3    0    0 -0.21132197840E+00  0.19366552835E+02 -0.59686049648E+01  0.20266530813E+02  0.51100000000E-03 0. -1.
        -11    1    3    3    0    0 -0.56689265688E+01 -0.30930516312E+00  0.57928497191E+01  0.81110730644E+01  0.51100000000E-03 0.  1.
        -12    1    3    3    0    0  0.30547743722E+02  0.61806448007E+00  0.47713660062E+01  0.30924304096E+02  0.00000000000E+00 0.  1.
</event>
<event>
 7    1  0.5634483E-012  0.5930213E+02  0.7816164E-02  0.1266604E+00
        -11   -1    0    0    0    0  0.00000000000E+00  0.00000000000E+00  0.45593999997E+02  0.45594000000E+02  0.51100000000E-03 0. -1.
         11   -1    0    0    0    0 -0.00000000000E+00 -0.00000000000E+00 -0.45593999997E+02  0.45594000000E+02  0.51100000000E-03 0.  1.
    9900012    2    1    2    0    0  0.74624449803E+01  0.27424691905E+02 -0.14453618179E+02  0.59302127115E+02  0.50000333906E+02 0.  0.
         12    1    1    2    0    0 -0.74624449803E+01 -0.27424691905E+02  0.14453618179E+02  0.31885872885E+02  0.00000000000E+00 0. -1.
         11    1    3    3    0    0  0.62031499569E+01  0.22824150006E+02 -0.10146604527E+02  0.25736636854E+02  0.51100000000E-03 0. -1.
        -11    1    3    3    0    0 -0.66833918908E+01  0.87961163909E+01 -0.15612641920E+02  0.19125741259E+02  0.51100000000E-03 0.  1.
         12    1    3    3    0    0  0.79426869142E+01 -0.41955744917E+01  0.11305628267E+02  0.14439749002E+02  0.00000000000E+00 0. -1.
</event>
<event>
 7    1  0.5634483E-012  0.5930196E+02  0.7816164E-02  0.1266605E+00
        -11   -1    0    0    0    0  0.00000000000E+00  0.00000000000E+00  0.45593999997E+02  0.45594000000E+02  0.51100000000E-03 0. -1.
         11   -1    0    0    0    0 -0.00000000000E+00 -0.00000000000E+00 -0.45593999997E+02  0.45594000000E+02  0.51100000000E-03 0.  1.
    9900012    2    1    2    0    0  0.25939764567E+02 -0.76126699231E+01 -0.16908436697E+02  0.59301962920E+02  0.50000034455E+02 0.  0.
         12    1    1    2    0    0 -0.25939764567E+02  0.76126699231E+01  0.16908436697E+02  0.31886037080E+02  0.00000000000E+00 0. -1.
         11    1    3    3    0    0 -0.39194083763E+00 -0.18347001613E+02 -0.13767507094E+02  0.22941454567E+02  0.51100000000E-03 0. -1.
        -11    1    3    3    0    0 -0.26692152869E+01 -0.28396932233E+01  0.11269346724E+01  0.40569138354E+01  0.51100000000E-03 0.  1.
        -12    1    3    3    0    0  0.29000920691E+02  0.13574024913E+02 -0.42678642749E+01  0.32303594518E+02  0.00000000000E+00 0.  1.
</event>
<event>
 7    1  0.5634483E-012  0.5930195E+02  0.7816164E-02  0.1266605E+00
        -11   -1    0    0    0    0  0.00000000000E+00  0.00000000000E+00  0.45593999997E+02  0.45594000000E+02  0.51100000000E-03 0. -1.
         11   -1    0    0    0    0 -0.00000000000E+00 -0.00000000000E+00 -0.45593999997E+02  0.45594000000E+02  0.51100000000E-03 0.  1.
    9900012    2    1    2    0    0 -0.15075965852E+02 -0.19656891599E+02 -0.20075913423E+02  0.59301946097E+02  0.50000003775E+02 0.  0.
         12    1    1    2    0    0  0.15075965852E+02  0.19656891599E+02  0.20075913423E+02  0.31886053903E+02  0.00000000000E+00 0. -1.
         11    1    3    3    0    0  0.11860712491E+02 -0.52802583025E+00 -0.12835190037E+02  0.17484204747E+02  0.51100000000E-03 0. -1.
        -11    1    3    3    0    0  0.38769822536E+01  0.27313210419E+00  0.18238806284E+01  0.42932660469E+01  0.51100000000E-03 0.  1.
        -12    1    3    3    0    0 -0.30813660597E+02 -0.19401997873E+02 -0.90646040137E+01  0.37524475303E+02  0.00000000000E+00 0.  1.
</event>
<event>
 7    1  0.5634483E-012  0.5930196E+02  0.7816164E-02  0.1266605E+00
        -11   -1    0    0    0    0  0.00000000000E+00  0.00000000000E+00  0.45593999997E+02  0.45594000000E+02  0.51100000000E-03 0.  1.
         11   -1    0    0    0    0 -0.00000000000E+00 -0.00000000000E+00 -0.45593999997E+02  0.45594000000E+02  0.51100000000E-03 0. -1.
    9900012    2    1    2    0    0 -0.10137819203E+02 -0.24410614321E+02  0.17834412373E+02  0.59301957060E+02  0.50000023767E+02 0.  0.
         12    1    1    2    0    0  0.10137819203E+02  0.24410614321E+02 -0.17834412373E+02  0.31886042940E+02  0.00000000000E+00 0. -1.
         11    1    3    3    0    0  0.12835358477E+02 -0.10835970328E+01  0.10536550376E+02  0.16641499447E+02  0.51100000000E-03 0. -1.
        -11    1    3    3    0    0 -0.13928826718E+01  0.56326547434E+01 -0.59324131282E-01  0.58026236487E+01  0.51100000000E-03 0.  1.
        -12    1    3    3    0    0 -0.21580295008E+02 -0.28959672031E+02  0.73571861283E+01  0.36857833964E+02  0.00000000000E+00 0.  1.
</event>
<event>
 7    1  0.5634483E-012  0.5930195E+02  0.7816164E-02  0.1266605E+00
        -11   -1    0    0    0    0  0.00000000000E+00  0.00000000000E+00  0.45593999997E+02  0.45594000000E+02  0.51100000000E-03 0. -1.
         11   -1    0    0    0    0 -0.00000000000E+00 -0.00000000000E+00 -0.45593999997E+02  0.45594000000E+02  0.51100000000E-03 0.  1.
    9900012    2    1    2    0    0  0.30366277029E+02 -0.97024229011E+00 -0.96782251326E+01  0.59301949877E+02  0.50000010669E+02 0.  0.
         12    1    1    2    0    0 -0.30366277029E+02  0.97024229011E+00  0.96782251326E+01  0.31886050123E+02  0.00000000000E+00 0. -1.
         11    1    3    3    0    0 -0.14815330103E+01 -0.36829335845E+01 -0.80025281077E+01  0.89330507792E+01  0.51100000000E-03 0. -1.
        -11    1    3    3    0    0  0.25818164520E+02  0.12421139386E+01  0.16833958290E+02  0.30846436069E+02  0.51100000000E-03 0.  1.
         12    1    3    3    0    0  0.60296455196E+01  0.14705773558E+01 -0.18509655315E+02  0.19522463029E+02  0.00000000000E+00 0. -1.
</event>
<event>
 7    1  0.5634483E-012  0.5930191E+02  0.7816164E-02  0.1266605E+00
        -11   -1    0    0    0    0  0.00000000000E+00  0.00000000000E+00  0.45593999997E+02  0.45594000000E+02  0.51100000000E-03 0.  1.
         11   -1    0    0    0    0 -0.00000000000E+00 -0.00000000000E+00 -0.45593999997E+02  0.45594000000E+02  0.51100000000E-03 0. -1.
    9900012    2    1    2    0    0  0.30739080223E+02 -0.56274234514E+01 -0.63374692675E+01  0.59301914251E+02  0.49999945694E+02 0.  0.
         12    1    1    2    0    0 -0.30739080223E+02  0.56274234514E+01  0.63374692675E+01  0.31886085749E+02  0.00000000000E+00 0. -1.
         11    1    3    3    0    0 -0.42186825773E+01 -0.95290818658E+01  0.20222734587E+01  0.10615567535E+02  0.51100000000E-03 0. -1.
        -11    1    3    3    0    0  0.13983957925E+02 -0.12294586675E+01  0.12402110533E+02  0.18731657530E+02  0.51100000000E-03 0.  1.
         12    1    3    3    0    0  0.20973804875E+02  0.51311170819E+01 -0.20761853260E+02  0.29954689186E+02  0.00000000000E+00 0. -1.
</event>
<event>
 7    1  0.5634483E-012  0.5930194E+02  0.7816164E-02  0.1266605E+00
        -11   -1    0    0    0    0  0.00000000000E+00  0.00000000000E+00  0.45593999997E+02  0.45594000000E+02  0.51100000000E-03 0.  1.
         11   -1    0    0    0    0 -0.00000000000E+00 -0.00000000000E+00 -0.45593999997E+02  0.45594000000E+02  0.51100000000E-03 0. -1.
    9900012    2    1    2    0    0  0.17350262040E+02 -0.16174735880E+02  0.21308855737E+02  0.59301937112E+02  0.49999987387E+02 0.  0.
         12    1    1    2    0    0 -0.17350262040E+02  0.16174735880E+02 -0.21308855737E+02  0.31886062888E+02  0.00000000000E+00 0. -1.
         11    1    3    3    0    0  0.24558034862E+02 -0.16022358943E+01 -0.72175542916E+01  0.25646780039E+02  0.51100000000E-03 0. -1.
        -11    1    3    3    0    0  0.14584219526E+01 -0.11122441374E+01  0.25292106618E+01  0.31242580632E+01  0.51100000000E-03 0.  1.
        -12    1    3    3    0    0 -0.86661947747E+01 -0.13460255849E+02  0.25997199367E+02  0.30530899009E+02  0.00000000000E+00 0.  1.
</event>
<event>
 7    1  0.5634483E-012  0.5930194E+02  0.7816164E-02  0.1266605E+00
        -11   -1    0    0    0    0  0.00000000000E+00  0.00000000000E+00  0.45593999997E+02  0.45594000000E+02  0.51100000000E-03 0.  1.
         11   -1    0    0    0    0 -0.00000000000E+00 -0.00000000000E+00 -0.45593999997E+02  0.45594000000E+02  0.51100000000E-03 0. -1.
    9900012    2    1    2    0    0  0.14160918115E+02  0.28203885792E+02  0.45530418655E+01  0.59301937749E+02  0.49999988549E+02 0.  0.
         12    1    1    2    0    0 -0.14160918115E+02 -0.28203885792E+02 -0.45530418655E+01  0.31886062251E+02  0.00000000000E+00 0. -1.
         11    1    3    3    0    0 -0.47407523364E+01  0.23955574923E+02 -0.92291163141E+01  0.26105955083E+02  0.51100000000E-03 0. -1.
        -11    1    3    3    0    0  0.45680860456E+01  0.10504763228E+02 -0.12256968314E+01  0.11520407700E+02  0.51100000000E-03 0.  1.
         12    1    3    3    0    0  0.14333584406E+02 -0.62564523591E+01  0.15007855011E+02  0.21675574965E+02  0.00000000000E+00 0. -1.
</event>
<event>
 7    1  0.5634483E-012  0.5930194E+02  0.7816164E-02  0.1266605E+00
        -11   -1    0    0    0    0  0.00000000000E+00  0.00000000000E+00  0.45593999997E+02  0.45594000000E+02  0.51100000000E-03 0.  1.
         11   -1    0    0    0    0 -0.00000000000E+00 -0.00000000000E+00 -0.45593999997E+02  0.45594000000E+02  0.51100000000E-03 0. -1.
    9900012    2    1    2    0    0 -0.56461976732E+01  0.61665232959E+01  0.30770365158E+02  0.59301938316E+02  0.49999989583E+02 0.  0.
         12    1    1    2    0    0  0.56461976732E+01 -0.61665232959E+01 -0.30770365158E+02  0.31886061684E+02  0.00000000000E+00 0. -1.
         11    1    3    3    0    0  0.20127912967E+01  0.13315978735E+01  0.13094192575E+02  0.13314742249E+02  0.51100000000E-03 0. -1.
        -11    1    3    3    0    0  0.31598366825E+01 -0.36776026455E+01  0.28228465648E+02  0.28641850537E+02  0.51100000000E-03 0.  1.
         12    1    3    3    0    0 -0.10818825652E+02  0.85125280680E+01 -0.10552293065E+02  0.17345345530E+02  0.00000000000E+00 0. -1.
</event>
<event>
 7    1  0.5634483E-012  0.5930193E+02  0.7816164E-02  0.1266605E+00
        -11   -1    0    0    0    0  0.00000000000E+00  0.00000000000E+00  0.45593999997E+02  0.45594000000E+02  0.51100000000E-03 0.  1.
         11   -1    0    0    0    0 -0.00000000000E+00 -0.00000000000E+00 -0.45593999997E+02  0.45594000000E+02  0.51100000000E-03 0. -1.
    9900012    2    1    2    0    0  0.18343293138E+02  0.67686327395E+01  0.25187901528E+02  0.59301934459E+02  0.49999982549E+02 0.  0.
         12    1    1    2    0    0 -0.18343293138E+02 -0.67686327395E+01 -0.25187901528E+02  0.31886065541E+02  0.00000000000E+00 0. -1.
         11    1    3    3    0    0  0.45604771582E+01  0.78215110320E+01  0.14526429795E+01  0.91697414697E+01  0.51100000000E-03 0. -1.
        -11    1    3    3    0    0  0.27150100540E+02  0.73692318590E+01  0.17595721561E+02  0.33181967317E+02  0.51100000000E-03 0.  1.
         12    1    3    3    0    0 -0.13367284560E+02 -0.84221101515E+01  0.61395369868E+01  0.16950225672E+02  0.00000000000E+00 0. -1.
</event>
<event>
 7    1  0.5634483E-012  0.5930192E+02  0.7816164E-02  0.1266605E+00
        -11   -1    0    0    0    0  0.00000000000E+00  0.00000000000E+00  0.45593999997E+02  0.45594000000E+02  0.51100000000E-03 0.  1.
         11   -1    0    0    0    0 -0.00000000000E+00 -0.00000000000E+00 -0.45593999997E+02  0.45594000000E+02  0.51100000000E-03 0. -1.
    9900012    2    1    2    0    0 -0.13357996571E+02 -0.17375599400E+02  0.23159765369E+02  0.59301917474E+02  0.49999951573E+02 0.  0.
         12    1    1    2    0    0  0.13357996571E+02  0.17375599400E+02 -0.23159765369E+02  0.31886082526E+02  0.00000000000E+00 0. -1.
         11    1    3    3    0    0  0.72337992909E+01  0.98363409615E+01  0.79518192601E+01  0.14570960349E+02  0.51100000000E-03 0. -1.
        -11    1    3    3    0    0 -0.59083351069E+01 -0.65465159662E+01  0.17172221290E+02  0.19304157047E+02  0.51100000000E-03 0.  1.
         12    1    3    3    0    0 -0.14683460755E+02 -0.20665424395E+02 -0.19642751810E+01  0.25426800078E+02  0.00000000000E+00 0. -1.
</event>
<event>
 7    1  0.5634483E-012  0.5930195E+02  0.7816164E-02  0.1266605E+00
        -11   -1    0    0    0    0  0.00000000000E+00  0.00000000000E+00  0.45593999997E+02  0.45594000000E+02  0.51100000000E-03 0. -1.
         11   -1    0    0    0    0 -0.00000000000E+00 -0.00000000000E+00 -0.45593999997E+02  0.45594000000E+02  0.51100000000E-03 0.  1.
    9900012    2    1    2    0    0  0.21211690117E+02  0.67747779983E+01 -0.22822946809E+02  0.59301947946E+02  0.50000007147E+02 0.  0.
         12    1    1    2    0    0 -0.21211690117E+02 -0.67747779983E+01  0.22822946809E+02  0.31886052054E+02  0.00000000000E+00 0. -1.
         11    1    3    3    0    0  0.14179382328E+01  0.12570302944E+02 -0.13983690540E+02  0.18856475448E+02  0.51100000000E-03 0. -1.
        -11    1    3    3    0    0  0.89331659937E+01 -0.19745976895E+02 -0.64035248021E+01  0.22598897946E+02  0.51100000000E-03 0.  1.
         12    1    3    3    0    0  0.10860585890E+02  0.13950451950E+02 -0.24357314665E+01  0.17846574553E+02  0.00000000000E+00 0. -1.
</event>
<event>
 7    1  0.5634483E-012  0.5930196E+02  0.7816164E-02  0.1266605E+00
        -11   -1    0    0    0    0  0.00000000000E+00  0.00000000000E+00  0.45593999997E+02  0.45594000000E+02  0.51100000000E-03 0. -1.
         11   -1    0    0    0    0 -0.00000000000E+00 -0.00000000000E+00 -0.45593999997E+02  0.45594000000E+02  0.51100000000E-03 0.  1.
    9900012    2    1    2    0    0  0.42285293536E+01 -0.65835529835E+01 -0.30911095872E+02  0.59301961074E+02  0.50000031088E+02 0.  0.
         12    1    1    2    0    0 -0.42285293536E+01  0.65835529835E+01  0.30911095872E+02  0.31886038926E+02  0.00000000000E+00 0. -1.
         11    1    3    3    0    0  0.17509631008E+02 -0.15437744575E+01 -0.89099098647E+01  0.19706773244E+02  0.51100000000E-03 0. -1.
        -11    1    3    3    0    0 -0.15931488857E+02  0.28973135132E+01 -0.25756111956E+02  0.30423413125E+02  0.51100000000E-03 0.  1.
         12    1    3    3    0    0  0.26503872022E+01 -0.79370920392E+01  0.37549259491E+01  0.91717747052E+01  0.00000000000E+00 0. -1.
</event>
<event>
 7    1  0.5634483E-012  0.5930195E+02  0.7816164E-02  0.1266605E+00
        -11   -1    0    0    0    0  0.00000000000E+00  0.00000000000E+00  0.45593999997E+02  0.45594000000E+02  0.51100000000E-03 0. -1.
         11   -1    0    0    0    0 -0.00000000000E+00 -0.00000000000E+00 -0.45593999997E+02  0.45594000000E+02  0.51100000000E-03 0.  1.
    9900012    2    1    2    0    0 -0.27036927781E+02  0.61644606002E+01 -0.15739264500E+02  0.59301945284E+02  0.50000002292E+02 0.  0.
         12    1    1    2    0    0  0.27036927781E+02 -0.61644606002E+01  0.15739264500E+02  0.31886054716E+02  0.00000000000E+00 0. -1.
         11    1    3    3    0    0 -0.14838349208E+02  0.18227376096E+01 -0.68116676924E+01  0.16428566481E+02  0.51100000000E-03 0.  1.
        -11    1    3    3    0    0 -0.63602950514E+01 -0.17869379720E+02 -0.39422938087E+01  0.19372913189E+02  0.51100000000E-03 0. -1.
         12    1    3    3    0    0 -0.58382835210E+01  0.22211102710E+02 -0.49853029992E+01  0.23500465614E+02  0.00000000000E+00 0. -1.
</event>
<event>
 7    1  0.5634483E-012  0.5930187E+02  0.7816164E-02  0.1266605E+00
        -11   -1    0    0    0    0  0.00000000000E+00  0.00000000000E+00  0.45593999997E+02  0.45594000000E+02  0.51100000000E-03 0. -1.
         11   -1    0    0    0    0 -0.00000000000E+00 -0.00000000000E+00 -0.45593999997E+02  0.45594000000E+02  0.51100000000E-03 0.  1.
    9900012    2    1    2    0    0 -0.11395567083E+02 -0.22741546561E+02 -0.19227277604E+02  0.59301873029E+02  0.49999870515E+02 0.  0.
         12    1    1    2    0    0  0.11395567083E+02  0.22741546561E+02  0.19227277604E+02  0.31886126971E+02  0.00000000000E+00 0. -1.
         11    1    3    3    0    0 -0.79475714224E+01 -0.19715741079E+02  0.43894981052E+00  0.21261867628E+02  0.51100000000E-03 0. -1.
        -11    1    3    3    0    0 -0.17486298044E+02  0.71812854313E+00 -0.14125616474E+02  0.22490428384E+02  0.51100000000E-03 0.  1.
        -12    1    3    3    0    0  0.14038302384E+02 -0.37439340248E+01 -0.55406109412E+01  0.15549577017E+02  0.00000000000E+00 0.  1.
</event>
<event>
 7    1  0.5634483E-012  0.5930196E+02  0.7816164E-02  0.1266605E+00
        -11   -1    0    0    0    0  0.00000000000E+00  0.00000000000E+00  0.45593999997E+02  0.45594000000E+02  0.51100000000E-03 0. -1.
         11   -1    0    0    0    0 -0.00000000000E+00 -0.00000000000E+00 -0.45593999997E+02  0.45594000000E+02  0.51100000000E-03 0.  1.
    9900012    2    1    2    0    0  0.10432642249E+02 -0.30064959562E+02  0.19944747062E+01  0.59301956860E+02  0.50000023403E+02 0.  0.
         12    1    1    2    0    0 -0.10432642249E+02  0.30064959562E+02 -0.19944747062E+01  0.31886043140E+02  0.00000000000E+00 0. -1.
         11    1    3    3    0    0  0.26558023782E+02 -0.15522895151E+02  0.49573975208E+01  0.31158701698E+02  0.51100000000E-03 0. -1.
        -11    1    3    3    0    0  0.14019360573E+01  0.28337902284E+01 -0.12621040509E+01  0.34042177755E+01  0.51100000000E-03 0.  1.
        -12    1    3    3    0    0 -0.17527317590E+02 -0.17375854639E+02 -0.17008187637E+01  0.24739037386E+02  0.00000000000E+00 0.  1.
</event>
<event>
 7    1  0.5634483E-012  0.5930194E+02  0.7816164E-02  0.1266605E+00
        -11   -1    0    0    0    0  0.00000000000E+00  0.00000000000E+00  0.45593999997E+02  0.45594000000E+02  0.51100000000E-03 0.  1.
         11   -1    0    0    0    0 -0.00000000000E+00 -0.00000000000E+00 -0.45593999997E+02  0.45594000000E+02  0.51100000000E-03 0. -1.
    9900012    2    1    2    0    0  0.57023049136E+01  0.27596033938E+02  0.14921909572E+02  0.59301941045E+02  0.49999994560E+02 0.  0.
         12    1    1    2    0    0 -0.57023049136E+01 -0.27596033938E+02 -0.14921909572E+02  0.31886058955E+02  0.00000000000E+00 0. -1.
         11    1    3    3    0    0 -0.21297712247E+01  0.16229803348E+02 -0.73952833682E+01  0.17961978136E+02  0.51100000000E-03 0.  1.
        -11    1    3    3    0    0 -0.11905113634E+02  0.78620321179E+01  0.59374122804E+01  0.15453030269E+02  0.51100000000E-03 0. -1.
        -12    1    3    3    0    0  0.19737189772E+02  0.35041984714E+01  0.16379780660E+02  0.25886932640E+02  0.00000000000E+00 0.  1.
</event>
<event>
 7    1  0.5634483E-012  0.5930195E+02  0.7816164E-02  0.1266605E+00
        -11   -1    0    0    0    0  0.00000000000E+00  0.00000000000E+00  0.45593999997E+02  0.45594000000E+02  0.51100000000E-03 0.  1.
         11   -1    0    0    0    0 -0.00000000000E+00 -0.00000000000E+00 -0.45593999997E+02  0.45594000000E+02  0.51100000000E-03 0. -1.
    9900012    2    1    2    0    0 -0.17565238887E+02 -0.73334058266E+01  0.25581320649E+02  0.59301946240E+02  0.50000004035E+02 0.  0.
         12    1    1    2    0    0  0.17565238887E+02  0.73334058266E+01 -0.25581320649E+02  0.31886053760E+02  0.00000000000E+00 0. -1.
         11    1    3    3    0    0 -0.20215521236E+02 -0.14669907589E+02 -0.13390679049E+01  0.25013328260E+02  0.51100000000E-03 0. -1.
        -11    1    3    3    0    0  0.45398382945E+00 -0.62711822113E+01  0.37289554783E+01  0.73101940375E+01  0.51100000000E-03 0.  1.
        -12    1    3    3    0    0  0.21962985195E+01  0.13607683974E+02  0.23191433076E+02  0.26978423943E+02  0.00000000000E+00 0.  1.
</event>
<event>
 7    1  0.5634483E-012  0.5930198E+02  0.7816164E-02  0.1266605E+00
        -11   -1    0    0    0    0  0.00000000000E+00  0.00000000000E+00  0.45593999997E+02  0.45594000000E+02  0.51100000000E-03 0. -1.
         11   -1    0    0    0    0 -0.00000000000E+00 -0.00000000000E+00 -0.45593999997E+02  0.45594000000E+02  0.51100000000E-03 0.  1.
    9900012    2    1    2    0    0 -0.35666260398E+01  0.26730339446E+02 -0.17014303618E+02  0.59301978049E+02  0.50000062047E+02 0.  0.
         12    1    1    2    0    0  0.35666260398E+01 -0.26730339446E+02  0.17014303618E+02  0.31886021951E+02  0.00000000000E+00 0. -1.
         11    1    3    3    0    0  0.56493406841E+01  0.50865321320E+01  0.63982864104E+01  0.99360922171E+01  0.51100000000E-03 0. -1.
        -11    1    3    3    0    0  0.10662732141E+02  0.18941719957E+02 -0.53833885246E+01  0.22393380359E+02  0.51100000000E-03 0.  1.
         12    1    3    3    0    0 -0.19878698864E+02  0.27020873569E+01 -0.18029201504E+02  0.26972505473E+02  0.00000000000E+00 0. -1.
</event>
<event>
 7    1  0.5634483E-012  0.5930194E+02  0.7816164E-02  0.1266605E+00
        -11   -1    0    0    0    0  0.00000000000E+00  0.00000000000E+00  0.45593999997E+02  0.45594000000E+02  0.51100000000E-03 0. -1.
         11   -1    0    0    0    0 -0.00000000000E+00 -0.00000000000E+00 -0.45593999997E+02  0.45594000000E+02  0.51100000000E-03 0.  1.
    9900012    2    1    2    0    0  0.11304127023E+02  0.29668073905E+02  0.29568048100E+01  0.59301943616E+02  0.49999999250E+02 0.  0.
         12    1    1    2    0    0 -0.11304127023E+02 -0.29668073905E+02 -0.29568048100E+01  0.31886056384E+02  0.00000000000E+00 0. -1.
         11    1    3    3    0    0  0.70099935702E+01 -0.59215369222E+01 -0.20271874720E+01  0.93975581234E+01  0.51100000000E-03 0. -1.
        -11    1    3    3    0    0 -0.14563084705E+02  0.13406694914E+02 -0.21996770375E+01  0.19916362217E+02  0.51100000000E-03 0.  1.
        -12    1    3    3    0    0  0.18857218158E+02  0.22182915914E+02  0.71836693195E+01  0.29988023276E+02  0.00000000000E+00 0.  1.
</event>
<event>
 7    1  0.5634483E-012  0.5930195E+02  0.7816164E-02  0.1266605E+00
        -11   -1    0    0    0    0  0.00000000000E+00  0.00000000000E+00  0.45593999997E+02  0.45594000000E+02  0.51100000000E-03 0.  1.
         11   -1    0    0    0    0 -0.00000000000E+00 -0.00000000000E+00 -0.45593999997E+02  0.45594000000E+02  0.51100000000E-03 0. -1.
    9900012    2    1    2    0    0  0.30601226555E+02 -0.55438194963E+01  0.70392388619E+01  0.59301954697E+02  0.50000019458E+02 0.  0.
         12    1    1    2    0    0 -0.30601226555E+02  0.55438194963E+01 -0.70392388619E+01  0.31886045303E+02  0.00000000000E+00 0. -1.
         11    1    3    3    0    0  0.11417141982E+02 -0.13103458964E+01  0.44980615587E+01  0.12341016792E+02  0.51100000000E-03 0. -1.
        -11    1    3    3    0    0  0.30144513284E+01 -0.16430675165E+02  0.15604543812E+02  0.22859479239E+02  0.51100000000E-03 0.  1.
         12    1    3    3    0    0  0.16169633245E+02  0.12197201566E+02 -0.13063366509E+02  0.24101458667E+02  0.00000000000E+00 0. -1.
</event>
<event>
 7    1  0.5634483E-012  0.5930198E+02  0.7816164E-02  0.1266605E+00
        -11   -1    0    0    0    0  0.00000000000E+00  0.00000000000E+00  0.45593999997E+02  0.45594000000E+02  0.51100000000E-03 0. -1.
         11   -1    0    0    0    0 -0.00000000000E+00 -0.00000000000E+00 -0.45593999997E+02  0.45594000000E+02  0.51100000000E-03 0.  1.
    9900012    2    1    2    0    0 -0.77060427895E+01 -0.15009181186E+02 -0.27056602397E+02  0.59301978790E+02  0.50000063398E+02 0.  0.
         12    1    1    2    0    0  0.77060427895E+01  0.15009181186E+02  0.27056602397E+02  0.31886021210E+02  0.00000000000E+00 0. -1.
         11    1    3    3    0    0 -0.13189902416E+02 -0.61463508685E+01  0.69283479434E+00  0.14568156199E+02  0.51100000000E-03 0. -1.
        -11    1    3    3    0    0 -0.76789358075E+01  0.86384160921E+01 -0.35365988888E+01  0.12087010370E+02  0.51100000000E-03 0.  1.
        -12    1    3    3    0    0  0.13162795434E+02 -0.17501246409E+02 -0.24212838303E+02  0.32646812221E+02  0.00000000000E+00 0.  1.
</event>
<event>
 7    1  0.5634483E-012  0.5930196E+02  0.7816164E-02  0.1266605E+00
        -11   -1    0    0    0    0  0.00000000000E+00  0.00000000000E+00  0.45593999997E+02  0.45594000000E+02  0.51100000000E-03 0. -1.
         11   -1    0    0    0    0 -0.00000000000E+00 -0.00000000000E+00 -0.45593999997E+02  0.45594000000E+02  0.51100000000E-03 0.  1.
    9900012    2    1    2    0    0  0.18044683328E+02  0.18058158919E+02 -0.19105289861E+02  0.59301956021E+02  0.50000021873E+02 0.  0.
         12    1    1    2    0    0 -0.18044683328E+02 -0.18058158919E+02  0.19105289861E+02  0.31886043979E+02  0.00000000000E+00 0. -1.
         11    1    3    3    0    0  0.16280322003E+02 -0.33556832564E+01  0.75312833524E+01  0.18249102000E+02  0.51100000000E-03 0. -1.
        -11    1    3    3    0    0  0.11123632625E+02  0.10183434090E+02 -0.71445691119E+01  0.16687791966E+02  0.51100000000E-03 0.  1.
         12    1    3    3    0    0 -0.93592712998E+01  0.11230408085E+02 -0.19492004102E+02  0.24365062055E+02  0.00000000000E+00 0. -1.
</event>
<event>
 7    1  0.5634483E-012  0.5930190E+02  0.7816164E-02  0.1266605E+00
        -11   -1    0    0    0    0  0.00000000000E+00  0.00000000000E+00  0.45593999997E+02  0.45594000000E+02  0.51100000000E-03 0.  1.
         11   -1    0    0    0    0 -0.00000000000E+00 -0.00000000000E+00 -0.45593999997E+02  0.45594000000E+02  0.51100000000E-03 0. -1.
    9900012    2    1    2    0    0  0.54735438321E+01  0.20687092162E+02  0.23639124085E+02  0.59301895633E+02  0.49999911739E+02 0.  0.
         12    1    1    2    0    0 -0.54735438321E+01 -0.20687092162E+02 -0.23639124085E+02  0.31886104367E+02  0.00000000000E+00 0. -1.
         11    1    3    3    0    0 -0.86028264059E+00  0.21168109903E+01 -0.79833636575E+01  0.83039189868E+01  0.51100000000E-03 0. -1.
        -11    1    3    3    0    0  0.16531104522E+02  0.48927644595E+01  0.27445811820E+01  0.17457069825E+02  0.51100000000E-03 0.  1.
         12    1    3    3    0    0 -0.10197278049E+02  0.13677516712E+02  0.28877906561E+02  0.33540906821E+02  0.00000000000E+00 0. -1.
</event>
<event>
 7    1  0.5634483E-012  0.5930194E+02  0.7816164E-02  0.1266605E+00
        -11   -1    0    0    0    0  0.00000000000E+00  0.00000000000E+00  0.45593999997E+02  0.45594000000E+02  0.51100000000E-03 0. -1.
         11   -1    0    0    0    0 -0.00000000000E+00 -0.00000000000E+00 -0.45593999997E+02  0.45594000000E+02  0.51100000000E-03 0.  1.
    9900012    2    1    2    0    0  0.23523664583E+02  0.78580795154E+01 -0.20040180418E+02  0.59301936583E+02  0.49999986423E+02 0.  0.
         12    1    1    2    0    0 -0.23523664583E+02 -0.78580795154E+01  0.20040180418E+02  0.31886063417E+02  0.00000000000E+00 0. -1.
         11    1    3    3    0    0  0.26694885180E+01 -0.16703118881E+01  0.59304101114E+01  0.67146016339E+01  0.51100000000E-03 0. -1.
        -11    1    3    3    0    0 -0.40636898996E+01  0.15197644064E+02  0.57258185406E+00  0.15741976081E+02  0.51100000000E-03 0.  1.
        -12    1    3    3    0    0  0.24917865964E+02 -0.56692526608E+01 -0.26543172383E+02  0.36845358868E+02  0.00000000000E+00 0.  1.
</event>
<event>
 7    1  0.5634483E-012  0.5930195E+02  0.7816164E-02  0.1266605E+00
        -11   -1    0    0    0    0  0.00000000000E+00  0.00000000000E+00  0.45593999997E+02  0.45594000000E+02  0.51100000000E-03 0.  1.
         11   -1    0    0    0    0 -0.00000000000E+00 -0.00000000000E+00 -0.45593999997E+02  0.45594000000E+02  0.51100000000E-03 0. -1.
    9900012    2    1    2    0    0 -0.25049488712E+02  0.16297303581E+02 -0.11119401697E+02  0.59301951595E+02  0.50000013801E+02 0.  0.
         12    1    1    2    0    0  0.25049488712E+02 -0.16297303581E+02  0.11119401697E+02  0.31886048405E+02  0.00000000000E+00 0. -1.
         11    1    3    3    0    0  0.17003155152E+01  0.70218339075E-02  0.19887016060E+00  0.17119204886E+01  0.51100000000E-03 0. -1.
        -11    1    3    3    0    0 -0.14765586681E+02 -0.15409389869E+02  0.14121437086E+01  0.21388454742E+02  0.51100000000E-03 0.  1.
         12    1    3    3    0    0 -0.11984217547E+02  0.31699671616E+02 -0.12730415566E+02  0.36201576364E+02  0.00000000000E+00 0. -1.
</event>
<event>
 7    1  0.5634483E-012  0.5930193E+02  0.7816164E-02  0.1266605E+00
        -11   -1    0    0    0    0  0.00000000000E+00  0.00000000000E+00  0.45593999997E+02  0.45594000000E+02  0.51100000000E-03 0. -1.
         11   -1    0    0    0    0 -0.00000000000E+00 -0.00000000000E+00 -0.45593999997E+02  0.45594000000E+02  0.51100000000E-03 0.  1.
    9900012    2    1    2    0    0  0.24125557364E+02 -0.13721101469E+02 -0.15697457488E+02  0.59301932271E+02  0.49999978559E+02 0.  0.
         12    1    1    2    0    0 -0.24125557364E+02  0.13721101469E+02  0.15697457488E+02  0.31886067729E+02  0.00000000000E+00 0. -1.
         11    1    3    3    0    0  0.14237403746E+02 -0.16759456941E+02 -0.16014576152E+01  0.22048757995E+02  0.51100000000E-03 0. -1.
        -11    1    3    3    0    0  0.62199630736E+01 -0.13769327056E+02 -0.13139650207E+02  0.20023304324E+02  0.51100000000E-03 0.  1.
         12    1    3    3    0    0  0.36681905444E+01  0.16807682529E+02 -0.95634966545E+00  0.17229869952E+02  0.00000000000E+00 0. -1.
</event>
<event>
 7    1  0.5634483E-012  0.5930195E+02  0.7816164E-02  0.1266605E+00
        -11   -1    0    0    0    0  0.00000000000E+00  0.00000000000E+00  0.45593999997E+02  0.45594000000E+02  0.51100000000E-03 0. -1.
         11   -1    0    0    0    0 -0.00000000000E+00 -0.00000000000E+00 -0.45593999997E+02  0.45594000000E+02  0.51100000000E-03 0.  1.
    9900012    2    1    2    0    0  0.20685729747E+02  0.22437429496E+02 -0.92402641762E+01  0.59301950706E+02  0.50000012179E+02 0.  0.
         12    1    1    2    0    0 -0.20685729747E+02 -0.22437429496E+02  0.92402641762E+01  0.31886049294E+02  0.00000000000E+00 0. -1.
         11    1    3    3    0    0 -0.36770263311E+01  0.25881595118E+01 -0.18787868366E+02  0.19318465008E+02  0.51100000000E-03 0. -1.
        -11    1    3    3    0    0  0.18492878727E+02  0.20052663867E+02 -0.16616414708E+01  0.27328683547E+02  0.51100000000E-03 0.  1.
        -12    1    3    3    0    0  0.58698773505E+01 -0.20339388231E+00  0.11209245660E+02  0.12654802150E+02  0.00000000000E+00 0.  1.
</event>
<event>
 7    1  0.5634483E-012  0.5930194E+02  0.7816164E-02  0.1266605E+00
        -11   -1    0    0    0    0  0.00000000000E+00  0.00000000000E+00  0.45593999997E+02  0.45594000000E+02  0.51100000000E-03 0.  1.
         11   -1    0    0    0    0 -0.00000000000E+00 -0.00000000000E+00 -0.45593999997E+02  0.45594000000E+02  0.51100000000E-03 0. -1.
    9900012    2    1    2    0    0 -0.18884269755E+02  0.25296206415E+02  0.44952553415E+01  0.59301936841E+02  0.49999986894E+02 0.  0.
         12    1    1    2    0    0  0.18884269755E+02 -0.25296206415E+02 -0.44952553415E+01  0.31886063159E+02  0.00000000000E+00 0. -1.
         11    1    3    3    0    0 -0.14203688865E+01  0.19132727491E+02 -0.49580987936E+01  0.19815687041E+02  0.51100000000E-03 0. -1.
        -11    1    3    3    0    0 -0.50771396151E+01  0.63869687412E+01 -0.12118983981E+02  0.14609602642E+02  0.51100000000E-03 0.  1.
        -12    1    3    3    0    0 -0.12386761253E+02 -0.22348981684E+00  0.21572338116E+02  0.24876647158E+02  0.00000000000E+00 0.  1.
</event>
<event>
 7    1  0.5634483E-012  0.5930195E+02  0.7816164E-02  0.1266605E+00
        -11   -1    0    0    0    0  0.00000000000E+00  0.00000000000E+00  0.45593999997E+02  0.45594000000E+02  0.51100000000E-03 0. -1.
         11   -1    0    0    0    0 -0.00000000000E+00 -0.00000000000E+00 -0.45593999997E+02  0.45594000000E+02  0.51100000000E-03 0.  1.
    9900012    2    1    2    0    0 -0.73543214437E+01 -0.18963589517E+02 -0.24556390504E+02  0.59301951548E+02  0.50000013715E+02 0.  0.
         12    1    1    2    0    0  0.73543214437E+01  0.18963589517E+02  0.24556390504E+02  0.31886048452E+02  0.00000000000E+00 0. -1.
         11    1    3    3    0    0 -0.46411856451E+01 -0.55403020239E+01 -0.46577030347E+01  0.85982410137E+01  0.51100000000E-03 0. -1.
        -11    1    3    3    0    0 -0.15243630796E+02 -0.25169050177E+02 -0.11603598772E+02  0.31630568622E+02  0.51100000000E-03 0.  1.
         12    1    3    3    0    0  0.12530494997E+02  0.11745762684E+02 -0.82950886974E+01  0.19073141912E+02  0.00000000000E+00 0. -1.
</event>
<event>
 7    1  0.5634483E-012  0.5930194E+02  0.7816164E-02  0.1266605E+00
        -11   -1    0    0    0    0  0.00000000000E+00  0.00000000000E+00  0.45593999997E+02  0.45594000000E+02  0.51100000000E-03 0.  1.
         11   -1    0    0    0    0 -0.00000000000E+00 -0.00000000000E+00 -0.45593999997E+02  0.45594000000E+02  0.51100000000E-03 0. -1.
    9900012    2    1    2    0    0 -0.22101959225E+02 -0.19390034151E+02  0.12338982238E+02  0.59301944919E+02  0.50000001625E+02 0.  0.
         12    1    1    2    0    0  0.22101959225E+02  0.19390034151E+02 -0.12338982238E+02  0.31886055081E+02  0.00000000000E+00 0. -1.
         11    1    3    3    0    0  0.46931509517E+01 -0.51459601446E+01  0.99569311018E+01  0.12151010200E+02  0.51100000000E-03 0. -1.
        -11    1    3    3    0    0  0.22465796469E+01 -0.98313109680E+01 -0.10954932865E+02  0.14890008388E+02  0.51100000000E-03 0.  1.
         12    1    3    3    0    0 -0.29041689824E+02 -0.44127630381E+01  0.13336984001E+02  0.32260926331E+02  0.00000000000E+00 0. -1.
</event>
<event>
 7    1  0.5634483E-012  0.5930197E+02  0.7816164E-02  0.1266605E+00
        -11   -1    0    0    0    0  0.00000000000E+00  0.00000000000E+00  0.45593999997E+02  0.45594000000E+02  0.51100000000E-03 0.  1.
         11   -1    0    0    0    0 -0.00000000000E+00 -0.00000000000E+00 -0.45593999997E+02  0.45594000000E+02  0.51100000000E-03 0. -1.
    9900012    2    1    2    0    0  0.24375205496E+02 -0.84512625492E+01 -0.18738842134E+02  0.59301973497E+02  0.50000053745E+02 0.  0.
         12    1    1    2    0    0 -0.24375205496E+02  0.84512625492E+01  0.18738842134E+02  0.31886026503E+02  0.00000000000E+00 0. -1.
         11    1    3    3    0    0 -0.28621248327E+01 -0.91943681358E+00  0.23130701080E+01  0.37930747682E+01  0.51100000000E-03 0. -1.
        -11    1    3    3    0    0  0.97993700864E+01  0.16390219753E+02  0.14929993275E+00  0.19096838701E+02  0.51100000000E-03 0.  1.
        -12    1    3    3    0    0  0.17437960242E+02 -0.23922045489E+02 -0.21201212175E+02  0.36412060027E+02  0.00000000000E+00 0.  1.
</event>
<event>
 7    1  0.5634483E-012  0.5930195E+02  0.7816164E-02  0.1266605E+00
        -11   -1    0    0    0    0  0.00000000000E+00  0.00000000000E+00  0.45593999997E+02  0.45594000000E+02  0.51100000000E-03 0.  1.
         11   -1    0    0    0    0 -0.00000000000E+00 -0.00000000000E+00 -0.45593999997E+02  0.45594000000E+02  0.51100000000E-03 0. -1.
    9900012    2    1    2    0    0 -0.29895120811E+02  0.16870326513E+00  0.11089342249E+02  0.59301949436E+02  0.50000009863E+02 0.  0.
         12    1    1    2    0    0  0.29895120811E+02 -0.16870326513E+00 -0.11089342249E+02  0.31886050564E+02  0.00000000000E+00 0. -1.
         11    1    3    3    0    0 -0.87223016797E+01  0.11895463430E+02  0.74386774135E+01  0.16520124658E+02  0.51100000000E-03 0. -1.
        -11    1    3    3    0    0 -0.12139386865E+02  0.51955590039E+01  0.15400885856E+02  0.20286592426E+02  0.51100000000E-03 0.  1.
         12    1    3    3    0    0 -0.90334322660E+01 -0.16922319168E+02 -0.11750221021E+02  0.22495232352E+02  0.00000000000E+00 0. -1.
</event>
<event>
 7    1  0.5634483E-012  0.5930193E+02  0.7816164E-02  0.1266605E+00
        -11   -1    0    0    0    0  0.00000000000E+00  0.00000000000E+00  0.45593999997E+02  0.45594000000E+02  0.51100000000E-03 0.  1.
         11   -1    0    0    0    0 -0.00000000000E+00 -0.00000000000E+00 -0.45593999997E+02  0.45594000000E+02  0.51100000000E-03 0. -1.
    9900012    2    1    2    0    0  0.21213590543E+02 -0.23207808125E+02  0.53012030717E+01  0.59301928814E+02  0.49999972253E+02 0.  0.
         12    1    1    2    0    0 -0.21213590543E+02  0.23207808125E+02 -0.53012030717E+01  0.31886071186E+02  0.00000000000E+00 0. -1.
         11    1    3    3    0    0 -0.35954927421E+01 -0.56448072638E+01 -0.11305112161E+01  0.67874496664E+01  0.51100000000E-03 0. -1.
        -11    1    3    3    0    0 -0.34452629076E+01 -0.19224043305E+01  0.17834731454E+02  0.18265900504E+02  0.51100000000E-03 0.  1.
         12    1    3    3    0    0  0.28254346192E+02 -0.15640596531E+02 -0.11403017166E+02  0.34248578643E+02  0.00000000000E+00 0. -1.
</event>
<event>
 7    1  0.5634483E-012  0.5930186E+02  0.7816164E-02  0.1266605E+00
        -11   -1    0    0    0    0  0.00000000000E+00  0.00000000000E+00  0.45593999997E+02  0.45594000000E+02  0.51100000000E-03 0. -1.
         11   -1    0    0    0    0 -0.00000000000E+00 -0.00000000000E+00 -0.45593999997E+02  0.45594000000E+02  0.51100000000E-03 0.  1.
    9900012    2    1    2    0    0 -0.19584513713E+02 -0.95171706765E+01 -0.23293697236E+02  0.59301858089E+02  0.49999843268E+02 0.  0.
         12    1    1    2    0    0  0.19584513713E+02  0.95171706765E+01  0.23293697236E+02  0.31886141911E+02  0.00000000000E+00 0. -1.
         11    1    3    3    0    0  0.58002233633E+01 -0.18036574555E+02 -0.33867090222E+01  0.19246568812E+02  0.51100000000E-03 0.  1.
        -11    1    3    3    0    0 -0.34045715896E+01  0.11851201040E+02 -0.91727760216E+01  0.15368210501E+02  0.51100000000E-03 0. -1.
        -12    1    3    3    0    0 -0.21980165486E+02 -0.33317971610E+01 -0.10734212192E+02  0.24687078777E+02  0.00000000000E+00 0.  1.
</event>
<event>
 7    1  0.5634483E-012  0.5930193E+02  0.7816164E-02  0.1266605E+00
        -11   -1    0    0    0    0  0.00000000000E+00  0.00000000000E+00  0.45593999997E+02  0.45594000000E+02  0.51100000000E-03 0. -1.
         11   -1    0    0    0    0 -0.00000000000E+00 -0.00000000000E+00 -0.45593999997E+02  0.45594000000E+02  0.51100000000E-03 0.  1.
    9900012    2    1    2    0    0  0.23286463134E+02  0.21432336350E+02  0.38881033281E+01  0.59301925387E+02  0.49999966004E+02 0.  0.
         12    1    1    2    0    0 -0.23286463134E+02 -0.21432336350E+02 -0.38881033281E+01  0.31886074613E+02  0.00000000000E+00 0. -1.
         11    1    3    3    0    0 -0.58333833519E+01  0.13552336749E+02 -0.41392568015E+01  0.15324086916E+02  0.51100000000E-03 0. -1.
        -11    1    3    3    0    0  0.50444428618E+01  0.10136264853E+02 -0.89498477601E+01  0.14432257071E+02  0.51100000000E-03 0.  1.
         12    1    3    3    0    0  0.24075403624E+02 -0.22562652516E+01  0.16977207890E+02  0.29545581400E+02  0.00000000000E+00 0. -1.
</event>
<event>
 7    1  0.5634483E-012  0.5930198E+02  0.7816164E-02  0.1266605E+00
        -11   -1    0    0    0    0  0.00000000000E+00  0.00000000000E+00  0.45593999997E+02  0.45594000000E+02  0.51100000000E-03 0.  1.
         11   -1    0    0    0    0 -0.00000000000E+00 -0.00000000000E+00 -0.45593999997E+02  0.45594000000E+02  0.51100000000E-03 0. -1.
    9900012    2    1    2    0    0 -0.30809244628E+02 -0.77385990640E+01  0.27609817751E+01  0.59301976566E+02  0.50000059343E+02 0.  0.
         12    1    1    2    0    0  0.30809244628E+02  0.77385990640E+01 -0.27609817751E+01  0.31886023434E+02  0.00000000000E+00 0. -1.
         11    1    3    3    0    0 -0.20935494182E+02 -0.10291967344E+02  0.14104827610E+02  0.27261065104E+02  0.51100000000E-03 0. -1.
        -11    1    3    3    0    0 -0.75963266801E+01 -0.82417560319E+01  0.50392987114E+01  0.12289233226E+02  0.51100000000E-03 0.  1.
         12    1    3    3    0    0 -0.22774237664E+01  0.10795124312E+02 -0.16383144546E+02  0.19751678236E+02  0.00000000000E+00 0. -1.
</event>
<event>
 7    1  0.5634483E-012  0.5930197E+02  0.7816164E-02  0.1266605E+00
        -11   -1    0    0    0    0  0.00000000000E+00  0.00000000000E+00  0.45593999997E+02  0.45594000000E+02  0.51100000000E-03 0.  1.
         11   -1    0    0    0    0 -0.00000000000E+00 -0.00000000000E+00 -0.45593999997E+02  0.45594000000E+02  0.51100000000E-03 0. -1.
    9900012    2    1    2    0    0 -0.65659661396E+01  0.10604171160E+02  0.29345506314E+02  0.59301967037E+02  0.50000041963E+02 0.  0.
         12    1    1    2    0    0  0.65659661396E+01 -0.10604171160E+02 -0.29345506314E+02  0.31886032963E+02  0.00000000000E+00 0. -1.
         11    1    3    3    0    0  0.55092703459E+01  0.16022947251E+02  0.90420577276E+01  0.19205356195E+02  0.51100000000E-03 0. -1.
        -11    1    3    3    0    0 -0.82748015252E+01 -0.12281232820E+02  0.26327043636E+02  0.30206195503E+02  0.51100000000E-03 0.  1.
         12    1    3    3    0    0 -0.38004349603E+01  0.68624567295E+01 -0.60235950503E+01  0.98904153392E+01  0.00000000000E+00 0. -1.
</event>
<event>
 7    1  0.5634483E-012  0.5930195E+02  0.7816164E-02  0.1266605E+00
        -11   -1    0    0    0    0  0.00000000000E+00  0.00000000000E+00  0.45593999997E+02  0.45594000000E+02  0.51100000000E-03 0.  1.
         11   -1    0    0    0    0 -0.00000000000E+00 -0.00000000000E+00 -0.45593999997E+02  0.45594000000E+02  0.51100000000E-03 0. -1.
    9900012    2    1    2    0    0  0.25285597012E+02 -0.11622740360E+02  0.15565053590E+02  0.59301946575E+02  0.50000004646E+02 0.  0.
         12    1    1    2    0    0 -0.25285597012E+02  0.11622740360E+02 -0.15565053590E+02  0.31886053425E+02  0.00000000000E+00 0. -1.
         11    1    3    3    0    0  0.82832979083E+01  0.14775409112E+02  0.65110646496E+01  0.18147167873E+02  0.51100000000E-03 0. -1.
        -11    1    3    3    0    0  0.17897671304E+02 -0.97480698798E+01  0.12798181330E+02  0.24065430603E+02  0.51100000000E-03 0.  1.
         12    1    3    3    0    0 -0.89537220018E+00 -0.16650079592E+02 -0.37441923893E+01  0.17089348099E+02  0.00000000000E+00 0. -1.
</event>
<event>
 7    1  0.5634483E-012  0.5930194E+02  0.7816164E-02  0.1266605E+00
        -11   -1    0    0    0    0  0.00000000000E+00  0.00000000000E+00  0.45593999997E+02  0.45594000000E+02  0.51100000000E-03 0.  1.
         11   -1    0    0    0    0 -0.00000000000E+00 -0.00000000000E+00 -0.45593999997E+02  0.45594000000E+02  0.51100000000E-03 0. -1.
    9900012    2    1    2    0    0 -0.32066475768E+01 -0.27886411230E+02  0.15125691972E+02  0.59301935997E+02  0.49999985354E+02 0.  0.
         12    1    1    2    0    0  0.32066475768E+01  0.27886411230E+02 -0.15125691972E+02  0.31886064003E+02  0.00000000000E+00 0. -1.
         11    1    3    3    0    0  0.37665716647E+01 -0.22788309644E+01  0.97353689197E+01  0.10684453235E+02  0.51100000000E-03 0. -1.
        -11    1    3    3    0    0  0.79209975614E+01 -0.31046498345E+02  0.66053065586E+01  0.32714787740E+02  0.51100000000E-03 0.  1.
         12    1    3    3    0    0 -0.14894216803E+02  0.54389180796E+01 -0.12149835067E+01  0.15902695022E+02  0.00000000000E+00 0. -1.
</event>
<event>
 7    1  0.5634483E-012  0.5930186E+02  0.7816164E-02  0.1266605E+00
        -11   -1    0    0    0    0  0.00000000000E+00  0.00000000000E+00  0.45593999997E+02  0.45594000000E+02  0.51100000000E-03 0. -1.
         11   -1    0    0    0    0 -0.00000000000E+00 -0.00000000000E+00 -0.45593999997E+02  0.45594000000E+02  0.51100000000E-03 0.  1.
    9900012    2    1    2    0    0  0.23332249009E+02 -0.28311565826E+01 -0.21548007867E+02  0.59301859838E+02  0.49999846457E+02 0.  0.
         12    1    1    2    0    0 -0.23332249009E+02  0.28311565826E+01  0.21548007867E+02  0.31886140162E+02  0.00000000000E+00 0. -1.
         11    1    3    3    0    0 -0.97687382256E+01 -0.58374299962E+01  0.30337173739E+01  0.11777405353E+02  0.51100000000E-03 0. -1.
        -11    1    3    3    0    0 -0.21227337107E+00  0.56467730701E+01 -0.90602813891E+01  0.10678005675E+02  0.51100000000E-03 0.  1.
         12    1    3    3    0    0  0.33313260606E+02 -0.26404996564E+01 -0.15521443852E+02  0.36846448809E+02  0.00000000000E+00 0. -1.
</event>
<event>
 7    1  0.5634483E-012  0.5930194E+02  0.7816164E-02  0.1266605E+00
        -11   -1    0    0    0    0  0.00000000000E+00  0.00000000000E+00  0.45593999997E+02  0.45594000000E+02  0.51100000000E-03 0.  1.
         11   -1    0    0    0    0 -0.00000000000E+00 -0.00000000000E+00 -0.45593999997E+02  0.45594000000E+02  0.51100000000E-03 0. -1.
    9900012    2    1    2    0    0  0.18603736236E+02 -0.25360074307E+02  0.52429627205E+01  0.59301936761E+02  0.49999986747E+02 0.  0.
         12    1    1    2    0    0 -0.18603736236E+02  0.25360074307E+02 -0.52429627205E+01  0.31886063239E+02  0.00000000000E+00 0. -1.
         11    1    3    3    0    0 -0.86931165308E+01 -0.68874890024E+01  0.16013609007E+02  0.19479308342E+02  0.51100000000E-03 0.  1.
        -11    1    3    3    0    0  0.89902975162E+00  0.30012410536E+01 -0.40767089380E+01  0.51415229633E+01  0.51100000000E-03 0. -1.
        -12    1    3    3    0    0  0.26397823016E+02 -0.21473826358E+02 -0.66939373485E+01  0.34681105456E+02  0.00000000000E+00 0.  1.
</event>
<event>
 7    1  0.5634483E-012  0.5930182E+02  0.7816164E-02  0.1266605E+00
        -11   -1    0    0    0    0  0.00000000000E+00  0.00000000000E+00  0.45593999997E+02  0.45594000000E+02  0.51100000000E-03 0.  1.
         11   -1    0    0    0    0 -0.00000000000E+00 -0.00000000000E+00 -0.45593999997E+02  0.45594000000E+02  0.51100000000E-03 0. -1.
    9900012    2    1    2    0    0 -0.55899003090E+01  0.13925520307E+02  0.28134696521E+02  0.59301823534E+02  0.49999780248E+02 0.  0.
         12    1    1    2    0    0  0.55899003090E+01 -0.13925520307E+02 -0.28134696521E+02  0.31886176466E+02  0.00000000000E+00 0. -1.
         11    1    3    3    0    0 -0.16509719221E+02 -0.88456717426E+01  0.81278189504E+01  0.20417594826E+02  0.51100000000E-03 0. -1.
        -11    1    3    3    0    0  0.14232453458E+01 -0.43517653401E+01  0.32927486187E+01  0.56396527036E+01  0.51100000000E-03 0.  1.
         12    1    3    3    0    0  0.94965735664E+01  0.27122957390E+02  0.16714128952E+02  0.33244576004E+02  0.00000000000E+00 0. -1.
</event>
<event>
 7    1  0.5634483E-012  0.5930195E+02  0.7816164E-02  0.1266605E+00
        -11   -1    0    0    0    0  0.00000000000E+00  0.00000000000E+00  0.45593999997E+02  0.45594000000E+02  0.51100000000E-03 0.  1.
         11   -1    0    0    0    0 -0.00000000000E+00 -0.00000000000E+00 -0.45593999997E+02  0.45594000000E+02  0.51100000000E-03 0. -1.
    9900012    2    1    2    0    0 -0.45975794838E+01 -0.28151290218E+02 -0.14250880921E+02  0.59301945289E+02  0.50000002300E+02 0.  0.
         12    1    1    2    0    0  0.45975794838E+01  0.28151290218E+02  0.14250880921E+02  0.31886054711E+02  0.00000000000E+00 0. -1.
         11    1    3    3    0    0  0.12846368854E+01 -0.23800185703E+02 -0.23023524856E+02  0.33138826601E+02  0.51100000000E-03 0. -1.
        -11    1    3    3    0    0 -0.35400702380E+01 -0.12298770707E+02 -0.15886447517E+01  0.12896342528E+02  0.51100000000E-03 0.  1.
         12    1    3    3    0    0 -0.23421461313E+01  0.79476661930E+01  0.10361288686E+02  0.13266776159E+02  0.00000000000E+00 0. -1.
</event>
<event>
 7    1  0.5634483E-012  0.5930193E+02  0.7816164E-02  0.1266605E+00
        -11   -1    0    0    0    0  0.00000000000E+00  0.00000000000E+00  0.45593999997E+02  0.45594000000E+02  0.51100000000E-03 0.  1.
         11   -1    0    0    0    0 -0.00000000000E+00 -0.00000000000E+00 -0.45593999997E+02  0.45594000000E+02  0.51100000000E-03 0. -1.
    9900012    2    1    2    0    0  0.21742549596E+02 -0.19109580685E+02  0.13371872442E+02  0.59301929224E+02  0.49999973002E+02 0.  0.
         12    1    1    2    0    0 -0.21742549596E+02  0.19109580685E+02 -0.13371872442E+02  0.31886070776E+02  0.00000000000E+00 0. -1.
         11    1    3    3    0    0  0.88365608061E+00 -0.20653389786E+02  0.87957783510E+01  0.22465731120E+02  0.51100000000E-03 0. -1.
        -11    1    3    3    0    0  0.16673607049E+02 -0.10060016070E+02  0.11574681833E+02  0.22653616823E+02  0.51100000000E-03 0.  1.
         12    1    3    3    0    0  0.41852864666E+01  0.11603825171E+02 -0.69985877421E+01  0.14182581281E+02  0.00000000000E+00 0. -1.
</event>
<event>
 7    1  0.5634483E-012  0.5930194E+02  0.7816164E-02  0.1266605E+00
        -11   -1    0    0    0    0  0.00000000000E+00  0.00000000000E+00  0.45593999997E+02  0.45594000000E+02  0.51100000000E-03 0.  1.
         11   -1    0    0    0    0 -0.00000000000E+00 -0.00000000000E+00 -0.45593999997E+02  0.45594000000E+02  0.51100000000E-03 0. -1.
    9900012    2    1    2    0    0  0.11571544971E+02 -0.26201092947E+02  0.14011516121E+02  0.59301944919E+02  0.50000001625E+02 0.  0.
         12    1    1    2    0    0 -0.11571544971E+02  0.26201092947E+02 -0.14011516121E+02  0.31886055081E+02  0.00000000000E+00 0. -1.
         11    1    3    3    0    0  0.11499081505E+01  0.57220869054E+01  0.52682531520E+01  0.78625097038E+01  0.51100000000E-03 0. -1.
        -11    1    3    3    0    0  0.40261742371E+01 -0.20491122865E+02  0.23679751421E+02  0.31572564401E+02  0.51100000000E-03 0.  1.
         12    1    3    3    0    0  0.63954625835E+01 -0.11432056988E+02 -0.14936488452E+02  0.19866870813E+02  0.00000000000E+00 0. -1.
</event>
<event>
 7    1  0.5634483E-012  0.5930196E+02  0.7816164E-02  0.1266605E+00
        -11   -1    0    0    0    0  0.00000000000E+00  0.00000000000E+00  0.45593999997E+02  0.45594000000E+02  0.51100000000E-03 0.  1.
         11   -1    0    0    0    0 -0.00000000000E+00 -0.00000000000E+00 -0.45593999997E+02  0.45594000000E+02  0.51100000000E-03 0. -1.
    9900012    2    1    2    0    0  0.24598293192E+00  0.30934665243E+02 -0.77269166321E+01  0.59301964468E+02  0.50000037278E+02 0.  0.
         12    1    1    2    0    0 -0.24598293192E+00 -0.30934665243E+02  0.77269166321E+01  0.31886035532E+02  0.00000000000E+00 0. -1.
         11    1    3    3    0    0 -0.11257341399E+02 -0.17101799500E+01 -0.71007670859E+01  0.13419140968E+02  0.51100000000E-03 0. -1.
        -11    1    3    3    0    0  0.78416735567E+01  0.17618967153E+01  0.10170411886E+02  0.12962769858E+02  0.51100000000E-03 0.  1.
         12    1    3    3    0    0  0.36616507747E+01  0.30882948478E+02 -0.10796561432E+02  0.32920053642E+02  0.00000000000E+00 0. -1.
</event>
<event>
 7    1  0.5634483E-012  0.5930192E+02  0.7816164E-02  0.1266605E+00
        -11   -1    0    0    0    0  0.00000000000E+00  0.00000000000E+00  0.45593999997E+02  0.45594000000E+02  0.51100000000E-03 0. -1.
         11   -1    0    0    0    0 -0.00000000000E+00 -0.00000000000E+00 -0.45593999997E+02  0.45594000000E+02  0.51100000000E-03 0.  1.
    9900012    2    1    2    0    0  0.12381705733E+02  0.25015729203E+02  0.15415208880E+02  0.59301921388E+02  0.49999958711E+02 0.  0.
         12    1    1    2    0    0 -0.12381705733E+02 -0.25015729203E+02 -0.15415208880E+02  0.31886078612E+02  0.00000000000E+00 0. -1.
         11    1    3    3    0    0 -0.28477680154E+01  0.13335294504E+02  0.27620661055E+02  0.30803259236E+02  0.51100000000E-03 0. -1.
        -11    1    3    3    0    0  0.11399531637E+02  0.14720060542E+02 -0.41492419235E+01  0.19074740174E+02  0.51100000000E-03 0.  1.
        -12    1    3    3    0    0  0.38299421113E+01 -0.30396258432E+01 -0.80562102509E+01  0.94239219781E+01  0.00000000000E+00 0.  1.
</event>
<event>
 7    1  0.5634483E-012  0.5930199E+02  0.7816164E-02  0.1266605E+00
        -11   -1    0    0    0    0  0.00000000000E+00  0.00000000000E+00  0.45593999997E+02  0.45594000000E+02  0.51100000000E-03 0.  1.
         11   -1    0    0    0    0 -0.00000000000E+00 -0.00000000000E+00 -0.45593999997E+02  0.45594000000E+02  0.51100000000E-03 0. -1.
    9900012    2    1    2    0    0  0.98075671314E+01 -0.22898751468E+02  0.19904181720E+02  0.59301989873E+02  0.50000083612E+02 0.  0.
         12    1    1    2    0    0 -0.98075671314E+01  0.22898751468E+02 -0.19904181720E+02  0.31886010127E+02  0.00000000000E+00 0. -1.
         11    1    3    3    0    0 -0.38630382554E+00 -0.12547249061E+02 -0.70641306492E+01  0.14404326841E+02  0.51100000000E-03 0. -1.
        -11    1    3    3    0    0 -0.81318953181E+01 -0.13262618040E+02  0.19376773423E+02  0.24849227499E+02  0.51100000000E-03 0.  1.
        -12    1    3    3    0    0  0.18325766275E+02  0.29111156324E+01  0.75915389462E+01  0.20048435534E+02  0.00000000000E+00 0.  1.
</event>
<event>
 7    1  0.5634483E-012  0.5930183E+02  0.7816164E-02  0.1266605E+00
        -11   -1    0    0    0    0  0.00000000000E+00  0.00000000000E+00  0.45593999997E+02  0.45594000000E+02  0.51100000000E-03 0.  1.
         11   -1    0    0    0    0 -0.00000000000E+00 -0.00000000000E+00 -0.45593999997E+02  0.45594000000E+02  0.51100000000E-03 0. -1.
    9900012    2    1    2    0    0  0.23853168878E+02  0.21157405294E+02 -0.34394033261E+00  0.59301831224E+02  0.49999794273E+02 0.  0.
         12    1    1    2    0    0 -0.23853168878E+02 -0.21157405294E+02  0.34394033261E+00  0.31886168776E+02  0.00000000000E+00 0. -1.
         11    1    3    3    0    0  0.10990305350E+02  0.54258478335E+01 -0.10922981408E+02  0.16417617352E+02  0.51100000000E-03 0. -1.
        -11    1    3    3    0    0  0.10058756123E+02 -0.10862103666E+02  0.32453737823E+01  0.15155735616E+02  0.51100000000E-03 0.  1.
         12    1    3    3    0    0  0.28041074042E+01  0.26593661127E+02  0.73336672932E+01  0.27728478257E+02  0.00000000000E+00 0. -1.
</event>
<event>
 7    1  0.5634483E-012  0.5930218E+02  0.7816164E-02  0.1266604E+00
        -11   -1    0    0    0    0  0.00000000000E+00  0.00000000000E+00  0.45593999997E+02  0.45594000000E+02  0.51100000000E-03 0.  1.
         11   -1    0    0    0    0 -0.00000000000E+00 -0.00000000000E+00 -0.45593999997E+02  0.45594000000E+02  0.51100000000E-03 0. -1.
    9900012    2    1    2    0    0 -0.27756878296E+02  0.15401017360E+02  0.30116729299E+01  0.59302175528E+02  0.50000422199E+02 0.  0.
         12    1    1    2    0    0  0.27756878296E+02 -0.15401017360E+02 -0.30116729299E+01  0.31885824472E+02  0.00000000000E+00 0. -1.
         11    1    3    3    0    0  0.68292999697E+01  0.14367155937E+02 -0.34655095474E+01  0.16280794344E+02  0.51100000000E-03 0. -1.
        -11    1    3    3    0    0 -0.75812379569E+01 -0.90836976158E+01 -0.37685396022E+01  0.12417351663E+02  0.51100000000E-03 0.  1.
        -12    1    3    3    0    0 -0.27004940308E+02  0.10117559038E+02  0.10245722079E+02  0.30604029520E+02  0.00000000000E+00 0.  1.
</event>
<event>
 7    1  0.5634483E-012  0.5930193E+02  0.7816164E-02  0.1266605E+00
        -11   -1    0    0    0    0  0.00000000000E+00  0.00000000000E+00  0.45593999997E+02  0.45594000000E+02  0.51100000000E-03 0. -1.
         11   -1    0    0    0    0 -0.00000000000E+00 -0.00000000000E+00 -0.45593999997E+02  0.45594000000E+02  0.51100000000E-03 0.  1.
    9900012    2    1    2    0    0 -0.15567366336E+02  0.18888717647E+02 -0.20435137617E+02  0.59301930966E+02  0.49999976179E+02 0.  0.
         12    1    1    2    0    0  0.15567366336E+02 -0.18888717647E+02  0.20435137617E+02  0.31886069034E+02  0.00000000000E+00 0. -1.
         11    1    3    3    0    0  0.16131463482E+01 -0.32080731170E+01 -0.54582724142E+01  0.65335068893E+01  0.51100000000E-03 0. -1.
        -11    1    3    3    0    0  0.11533168021E+02  0.10278959897E+02 -0.15262310925E+02  0.21716563177E+02  0.51100000000E-03 0.  1.
         12    1    3    3    0    0 -0.28713680706E+02  0.11817830867E+02  0.28544572285E+00  0.31051860900E+02  0.00000000000E+00 0. -1.
</event>
<event>
 7    1  0.5634483E-012  0.5930191E+02  0.7816164E-02  0.1266605E+00
        -11   -1    0    0    0    0  0.00000000000E+00  0.00000000000E+00  0.45593999997E+02  0.45594000000E+02  0.51100000000E-03 0. -1.
         11   -1    0    0    0    0 -0.00000000000E+00 -0.00000000000E+00 -0.45593999997E+02  0.45594000000E+02  0.51100000000E-03 0.  1.
    9900012    2    1    2    0    0 -0.18168594219E+02  0.17416471926E+02 -0.19577825287E+02  0.59301912858E+02  0.49999943154E+02 0.  0.
         12    1    1    2    0    0  0.18168594219E+02 -0.17416471926E+02  0.19577825287E+02  0.31886087142E+02  0.00000000000E+00 0. -1.
         11    1    3    3    0    0 -0.20062642468E+01  0.71819665763E+01  0.68593641542E+01  0.10131960175E+02  0.51100000000E-03 0. -1.
        -11    1    3    3    0    0 -0.18427429570E+02  0.19551407473E+02 -0.74204995203E+01  0.27872773599E+02  0.51100000000E-03 0.  1.
         12    1    3    3    0    0  0.22650995982E+01 -0.93169021226E+01 -0.19016689921E+02  0.21297179083E+02  0.00000000000E+00 0. -1.
</event>
<event>
 7    1  0.5634483E-012  0.5930194E+02  0.7816164E-02  0.1266605E+00
        -11   -1    0    0    0    0  0.00000000000E+00  0.00000000000E+00  0.45593999997E+02  0.45594000000E+02  0.51100000000E-03 0. -1.
         11   -1    0    0    0    0 -0.00000000000E+00 -0.00000000000E+00 -0.45593999997E+02  0.45594000000E+02  0.51100000000E-03 0.  1.
    9900012    2    1    2    0    0  0.25032603211E+02 -0.19348652854E+02  0.39647393927E+01  0.59301941146E+02  0.49999994745E+02 0.  0.
         12    1    1    2    0    0 -0.25032603211E+02  0.19348652854E+02 -0.39647393927E+01  0.31886058854E+02  0.00000000000E+00 0. -1.
         11    1    3    3    0    0 -0.58249311238E+01 -0.10102352204E+02  0.38623251167E+01  0.12284335482E+02  0.51100000000E-03 0. -1.
        -11    1    3    3    0    0  0.86732472995E+01  0.14196971832E+01  0.15617660436E+02  0.17920716408E+02  0.51100000000E-03 0.  1.
        -12    1    3    3    0    0  0.22184287035E+02 -0.10665997833E+02 -0.15515246160E+02  0.29096889257E+02  0.00000000000E+00 0.  1.
</event>
<event>
 7    1  0.5634483E-012  0.5930190E+02  0.7816164E-02  0.1266605E+00
        -11   -1    0    0    0    0  0.00000000000E+00  0.00000000000E+00  0.45593999997E+02  0.45594000000E+02  0.51100000000E-03 0.  1.
         11   -1    0    0    0    0 -0.00000000000E+00 -0.00000000000E+00 -0.45593999997E+02  0.45594000000E+02  0.51100000000E-03 0. -1.
    9900012    2    1    2    0    0 -0.31245463693E+02  0.59174921188E+01  0.23297205740E+01  0.59301900955E+02  0.49999921445E+02 0.  0.
         12    1    1    2    0    0  0.31245463693E+02 -0.59174921188E+01 -0.23297205740E+01  0.31886099045E+02  0.00000000000E+00 0. -1.
         11    1    3    3    0    0 -0.20494996458E+01 -0.76388968173E+00  0.34254140673E+01  0.40641651095E+01  0.51100000000E-03 0. -1.
        -11    1    3    3    0    0 -0.32827458217E+02  0.19472756643E+02  0.81673006418E+01  0.39032487294E+02  0.51100000000E-03 0.  1.
         12    1    3    3    0    0  0.36314941701E+01 -0.12791374843E+02 -0.92629941351E+01  0.16205248552E+02  0.00000000000E+00 0. -1.
</event>
<event>
 7    1  0.5634483E-012  0.5930195E+02  0.7816164E-02  0.1266605E+00
        -11   -1    0    0    0    0  0.00000000000E+00  0.00000000000E+00  0.45593999997E+02  0.45594000000E+02  0.51100000000E-03 0.  1.
         11   -1    0    0    0    0 -0.00000000000E+00 -0.00000000000E+00 -0.45593999997E+02  0.45594000000E+02  0.51100000000E-03 0. -1.
    9900012    2    1    2    0    0 -0.18257699066E+00  0.28993069254E+02  0.13269841135E+02  0.59301951595E+02  0.50000013802E+02 0.  0.
         12    1    1    2    0    0  0.18257699066E+00 -0.28993069254E+02 -0.13269841135E+02  0.31886048405E+02  0.00000000000E+00 0. -1.
         11    1    3    3    0    0  0.15244975521E+02 -0.65748558248E+00  0.13545479918E+02  0.20403960213E+02  0.51100000000E-03 0.  1.
        -11    1    3    3    0    0 -0.77538470427E+01  0.25989676341E+02  0.66580353362E+01  0.27926955708E+02  0.51100000000E-03 0. -1.
        -12    1    3    3    0    0 -0.76737054689E+01  0.36608784950E+01 -0.69336741192E+01  0.10971035674E+02  0.00000000000E+00 0.  1.
</event>
<event>
 7    1  0.5634483E-012  0.5930194E+02  0.7816164E-02  0.1266605E+00
        -11   -1    0    0    0    0  0.00000000000E+00  0.00000000000E+00  0.45593999997E+02  0.45594000000E+02  0.51100000000E-03 0.  1.
         11   -1    0    0    0    0 -0.00000000000E+00 -0.00000000000E+00 -0.45593999997E+02  0.45594000000E+02  0.51100000000E-03 0. -1.
    9900012    2    1    2    0    0 -0.12076216706E+02  0.21849400234E+02  0.19836566418E+02  0.59301942424E+02  0.49999997075E+02 0.  0.
         12    1    1    2    0    0  0.12076216706E+02 -0.21849400234E+02 -0.19836566418E+02  0.31886057576E+02  0.00000000000E+00 0. -1.
         11    1    3    3    0    0 -0.53409903062E+01  0.85827297213E+01  0.11409849682E+02  0.15243821599E+02  0.51100000000E-03 0. -1.
        -11    1    3    3    0    0  0.33364658583E+01  0.23250832714E+02  0.15568114350E+02  0.28179769534E+02  0.51100000000E-03 0.  1.
         12    1    3    3    0    0 -0.10071692258E+02 -0.99841622015E+01 -0.71413976150E+01  0.15878351290E+02  0.00000000000E+00 0. -1.
</event>
<event>
 7    1  0.5634483E-012  0.5930186E+02  0.7816164E-02  0.1266605E+00
        -11   -1    0    0    0    0  0.00000000000E+00  0.00000000000E+00  0.45593999997E+02  0.45594000000E+02  0.51100000000E-03 0.  1.
         11   -1    0    0    0    0 -0.00000000000E+00 -0.00000000000E+00 -0.45593999997E+02  0.45594000000E+02  0.51100000000E-03 0. -1.
    9900012    2    1    2    0    0 -0.13246170684E+02 -0.26742083972E+02  0.11230578865E+02  0.59301858895E+02  0.49999844738E+02 0.  0.
         12    1    1    2    0    0  0.13246170684E+02  0.26742083972E+02 -0.11230578865E+02  0.31886141105E+02  0.00000000000E+00 0. -1.
         11    1    3    3    0    0 -0.14268501724E+02  0.89897454683E+00  0.10259743127E+02  0.17597176648E+02  0.51100000000E-03 0.  1.
        -11    1    3    3    0    0 -0.58806395286E+00 -0.30935170081E+02 -0.80468671816E+01  0.31970027195E+02  0.51100000000E-03 0. -1.
         12    1    3    3    0    0  0.16103949933E+01  0.32941115627E+01  0.90177029200E+01  0.97346550517E+01  0.00000000000E+00 0. -1.
</event>
<event>
 7    1  0.5634483E-012  0.5930196E+02  0.7816164E-02  0.1266605E+00
        -11   -1    0    0    0    0  0.00000000000E+00  0.00000000000E+00  0.45593999997E+02  0.45594000000E+02  0.51100000000E-03 0.  1.
         11   -1    0    0    0    0 -0.00000000000E+00 -0.00000000000E+00 -0.45593999997E+02  0.45594000000E+02  0.51100000000E-03 0. -1.
    9900012    2    1    2    0    0  0.20410211764E+02 -0.18752459788E+02  0.15763494166E+02  0.59301964801E+02  0.50000037886E+02 0.  0.
         12    1    1    2    0    0 -0.20410211764E+02  0.18752459788E+02 -0.15763494166E+02  0.31886035199E+02  0.00000000000E+00 0. -1.
         11    1    3    3    0    0 -0.55489480332E+01 -0.44052233063E+01 -0.59445377520E+01  0.92484780369E+01  0.51100000000E-03 0. -1.
        -11    1    3    3    0    0  0.16610965569E+02 -0.11858552947E+02 -0.55326079150E+01  0.21146139263E+02  0.51100000000E-03 0.  1.
        -12    1    3    3    0    0  0.93481942282E+01 -0.24886835353E+01  0.27240639833E+02  0.28907347502E+02  0.00000000000E+00 0.  1.
</event>
<event>
 7    1  0.5634483E-012  0.5930195E+02  0.7816164E-02  0.1266605E+00
        -11   -1    0    0    0    0  0.00000000000E+00  0.00000000000E+00  0.45593999997E+02  0.45594000000E+02  0.51100000000E-03 0. -1.
         11   -1    0    0    0    0 -0.00000000000E+00 -0.00000000000E+00 -0.45593999997E+02  0.45594000000E+02  0.51100000000E-03 0.  1.
    9900012    2    1    2    0    0  0.85040629724E+01 -0.13627491094E+02 -0.27544377723E+02  0.59301947490E+02  0.50000006314E+02 0.  0.
         12    1    1    2    0    0 -0.85040629724E+01  0.13627491094E+02  0.27544377723E+02  0.31886052510E+02  0.00000000000E+00 0. -1.
         11    1    3    3    0    0  0.23367082580E+01 -0.92710345615E+01  0.58267473404E+01  0.11196574126E+02  0.51100000000E-03 0. -1.
        -11    1    3    3    0    0  0.19891624588E+02 -0.33806738196E+01 -0.24481091821E+02  0.31724273691E+02  0.51100000000E-03 0.  1.
        -12    1    3    3    0    0 -0.13724269873E+02 -0.97578271303E+00 -0.88900332417E+01  0.16381099673E+02  0.00000000000E+00 0.  1.
</event>
<event>
 7    1  0.5634483E-012  0.5930200E+02  0.7816164E-02  0.1266605E+00
        -11   -1    0    0    0    0  0.00000000000E+00  0.00000000000E+00  0.45593999997E+02  0.45594000000E+02  0.51100000000E-03 0.  1.
         11   -1    0    0    0    0 -0.00000000000E+00 -0.00000000000E+00 -0.45593999997E+02  0.45594000000E+02  0.51100000000E-03 0. -1.
    9900012    2    1    2    0    0  0.21152588165E+02  0.22202235564E+02  0.87376219045E+01  0.59301995442E+02  0.50000093768E+02 0.  0.
         12    1    1    2    0    0 -0.21152588165E+02 -0.22202235564E+02 -0.87376219045E+01  0.31886004558E+02  0.00000000000E+00 0. -1.
         11    1    3    3    0    0  0.25453263383E+01  0.71688466710E+01  0.63834580512E+01  0.99307394344E+01  0.51100000000E-03 0. -1.
        -11    1    3    3    0    0  0.49224104214E+01  0.25356994267E+02  0.13279090827E+02  0.29043786532E+02  0.51100000000E-03 0.  1.
         12    1    3    3    0    0  0.13684851405E+02 -0.10323605375E+02 -0.10924926974E+02  0.20327469476E+02  0.00000000000E+00 0. -1.
</event>
<event>
 7    1  0.5634483E-012  0.5930193E+02  0.7816164E-02  0.1266605E+00
        -11   -1    0    0    0    0  0.00000000000E+00  0.00000000000E+00  0.45593999997E+02  0.45594000000E+02  0.51100000000E-03 0. -1.
         11   -1    0    0    0    0 -0.00000000000E+00 -0.00000000000E+00 -0.45593999997E+02  0.45594000000E+02  0.51100000000E-03 0.  1.
    9900012    2    1    2    0    0  0.14762443484E+02  0.25961908634E+02 -0.11170089567E+02  0.59301931906E+02  0.49999977893E+02 0.  0.
         12    1    1    2    0    0 -0.14762443484E+02 -0.25961908634E+02  0.11170089567E+02  0.31886068094E+02  0.00000000000E+00 0. -1.
         11    1    3    3    0    0 -0.95622137675E+00  0.26768696974E+02 -0.95448126548E+01  0.28435557773E+02  0.51100000000E-03 0. -1.
        -11    1    3    3    0    0 -0.73847863798E+01 -0.12780815213E+01 -0.19935603492E+01  0.77551818404E+01  0.51100000000E-03 0.  1.
        -12    1    3    3    0    0  0.23103451241E+02  0.47129318146E+00  0.36828343675E+00  0.23111192293E+02  0.00000000000E+00 0.  1.
</event>
<event>
 7    1  0.5634483E-012  0.5930195E+02  0.7816164E-02  0.1266605E+00
        -11   -1    0    0    0    0  0.00000000000E+00  0.00000000000E+00  0.45593999997E+02  0.45594000000E+02  0.51100000000E-03 0. -1.
         11   -1    0    0    0    0 -0.00000000000E+00 -0.00000000000E+00 -0.45593999997E+02  0.45594000000E+02  0.51100000000E-03 0.  1.
    9900012    2    1    2    0    0  0.21851239921E+02  0.21202144964E+02  0.94716574230E+01  0.59301953969E+02  0.50000018130E+02 0.  0.
         12    1    1    2    0    0 -0.21851239921E+02 -0.21202144964E+02 -0.94716574230E+01  0.31886046031E+02  0.00000000000E+00 0. -1.
         11    1    3    3    0    0  0.10321196822E+02  0.13829467404E+02 -0.25596217761E+01  0.17445140768E+02  0.51100000000E-03 0. -1.
        -11    1    3    3    0    0  0.12786788536E+02  0.12785391229E+02 -0.89331127059E+01  0.20168507451E+02  0.51100000000E-03 0.  1.
         12    1    3    3    0    0 -0.12567454362E+01 -0.54127136692E+01  0.20964391905E+02  0.21688305750E+02  0.00000000000E+00 0. -1.
</event>
<event>
 7    1  0.5634483E-012  0.5930195E+02  0.7816164E-02  0.1266605E+00
        -11   -1    0    0    0    0  0.00000000000E+00  0.00000000000E+00  0.45593999997E+02  0.45594000000E+02  0.51100000000E-03 0. -1.
         11   -1    0    0    0    0 -0.00000000000E+00 -0.00000000000E+00 -0.45593999997E+02  0.45594000000E+02  0.51100000000E-03 0.  1.
    9900012    2    1    2    0    0  0.14077009312E+02 -0.11691971756E+02 -0.26112371793E+02  0.59301947322E+02  0.50000006009E+02 0.  0.
         12    1    1    2    0    0 -0.14077009312E+02  0.11691971756E+02  0.26112371793E+02  0.31886052678E+02  0.00000000000E+00 0. -1.
         11    1    3    3    0    0  0.95747060857E+01 -0.15035675821E+02 -0.11569753044E+02  0.21251017147E+02  0.51100000000E-03 0.  1.
        -11    1    3    3    0    0  0.37290562822E+01 -0.55033213701E+01  0.99678195047E+01  0.11981228351E+02  0.51100000000E-03 0. -1.
        -12    1    3    3    0    0  0.77324694420E+00  0.88470254342E+01 -0.24510438253E+02  0.26069701825E+02  0.00000000000E+00 0.  1.
</event>
<event>
 7    1  0.5634483E-012  0.5930197E+02  0.7816164E-02  0.1266605E+00
        -11   -1    0    0    0    0  0.00000000000E+00  0.00000000000E+00  0.45593999997E+02  0.45594000000E+02  0.51100000000E-03 0.  1.
         11   -1    0    0    0    0 -0.00000000000E+00 -0.00000000000E+00 -0.45593999997E+02  0.45594000000E+02  0.51100000000E-03 0. -1.
    9900012    2    1    2    0    0  0.28223432698E+02 -0.13277053162E+02  0.66239651021E+01  0.59301965320E+02  0.50000038832E+02 0.  0.
         12    1    1    2    0    0 -0.28223432698E+02  0.13277053162E+02 -0.66239651021E+01  0.31886034680E+02  0.00000000000E+00 0. -1.
         11    1    3    3    0    0  0.10226328961E+02 -0.62260719582E+01  0.18384265571E+02  0.21939074660E+02  0.51100000000E-03 0. -1.
        -11    1    3    3    0    0  0.37832058574E+01 -0.11703653233E+02  0.63768007118E+01  0.13854664671E+02  0.51100000000E-03 0.  1.
         12    1    3    3    0    0  0.14213897879E+02  0.46526720288E+01 -0.18137101181E+02  0.23508225990E+02  0.00000000000E+00 0. -1.
</event>
<event>
 7    1  0.5634483E-012  0.5930195E+02  0.7816164E-02  0.1266605E+00
        -11   -1    0    0    0    0  0.00000000000E+00  0.00000000000E+00  0.45593999997E+02  0.45594000000E+02  0.51100000000E-03 0.  1.
         11   -1    0    0    0    0 -0.00000000000E+00 -0.00000000000E+00 -0.45593999997E+02  0.45594000000E+02  0.51100000000E-03 0. -1.
    9900012    2    1    2    0    0 -0.17343489583E+02  0.99693050569E+01  0.24830157786E+02  0.59301946467E+02  0.50000004449E+02 0.  0.
         12    1    1    2    0    0  0.17343489583E+02 -0.99693050569E+01 -0.24830157786E+02  0.31886053533E+02  0.00000000000E+00 0. -1.
         11    1    3    3    0    0 -0.67759126722E+01  0.11687904854E+02 -0.20501845820E+01  0.13664675975E+02  0.51100000000E-03 0. -1.
        -11    1    3    3    0    0 -0.40299709371E+00  0.13966613144E+02  0.22426739644E+02  0.26423234865E+02  0.51100000000E-03 0.  1.
        -12    1    3    3    0    0 -0.10164579817E+02 -0.15685212942E+02  0.44536027237E+01  0.19214035628E+02  0.00000000000E+00 0.  1.
</event>
<event>
 7    1  0.5634483E-012  0.5930194E+02  0.7816164E-02  0.1266605E+00
        -11   -1    0    0    0    0  0.00000000000E+00  0.00000000000E+00  0.45593999997E+02  0.45594000000E+02  0.51100000000E-03 0.  1.
         11   -1    0    0    0    0 -0.00000000000E+00 -0.00000000000E+00 -0.45593999997E+02  0.45594000000E+02  0.51100000000E-03 0. -1.
    9900012    2    1    2    0    0  0.29483061231E+02 -0.59158467437E+01  0.10605307083E+02  0.59301942222E+02  0.49999996707E+02 0.  0.
         12    1    1    2    0    0 -0.29483061231E+02  0.59158467437E+01 -0.10605307083E+02  0.31886057778E+02  0.00000000000E+00 0. -1.
         11    1    3    3    0    0  0.54365685866E+01  0.50976230391E+01 -0.18071398526E+02  0.19547825547E+02  0.51100000000E-03 0. -1.
        -11    1    3    3    0    0  0.12025340883E+02 -0.64168019558E+01  0.93299609802E+01  0.16517637326E+02  0.51100000000E-03 0.  1.
        -12    1    3    3    0    0  0.12021151762E+02 -0.45966678270E+01  0.19346744629E+02  0.23236479349E+02  0.00000000000E+00 0.  1.
</event>
<event>
 7    1  0.5634483E-012  0.5930196E+02  0.7816164E-02  0.1266605E+00
        -11   -1    0    0    0    0  0.00000000000E+00  0.00000000000E+00  0.45593999997E+02  0.45594000000E+02  0.51100000000E-03 0. -1.
         11   -1    0    0    0    0 -0.00000000000E+00 -0.00000000000E+00 -0.45593999997E+02  0.45594000000E+02  0.51100000000E-03 0.  1.
    9900012    2    1    2    0    0  0.47308891850E+01  0.31258786109E+02  0.41505141416E+01  0.59301956201E+02  0.50000022202E+02 0.  0.
         12    1    1    2    0    0 -0.47308891850E+01 -0.31258786109E+02 -0.41505141416E+01  0.31886043799E+02  0.00000000000E+00 0. -1.
         11    1    3    3    0    0  0.16030310094E+01  0.30214455836E+02  0.83007706879E+01  0.31374923811E+02  0.51100000000E-03 0. -1.
        -11    1    3    3    0    0  0.10213477518E+02  0.43979808604E+01  0.78368635237E+01  0.13604182769E+02  0.51100000000E-03 0.  1.
         12    1    3    3    0    0 -0.70856193421E+01 -0.33536505870E+01 -0.11987120070E+02  0.14322849622E+02  0.00000000000E+00 0. -1.
</event>
<event>
 7    1  0.5634483E-012  0.5930196E+02  0.7816164E-02  0.1266605E+00
        -11   -1    0    0    0    0  0.00000000000E+00  0.00000000000E+00  0.45593999997E+02  0.45594000000E+02  0.51100000000E-03 0.  1.
         11   -1    0    0    0    0 -0.00000000000E+00 -0.00000000000E+00 -0.45593999997E+02  0.45594000000E+02  0.51100000000E-03 0. -1.
    9900012    2    1    2    0    0 -0.13623513697E+02  0.27134268583E+02  0.97391436148E+01  0.59301959553E+02  0.50000028315E+02 0.  0.
         12    1    1    2    0    0  0.13623513697E+02 -0.27134268583E+02 -0.97391436148E+01  0.31886040447E+02  0.00000000000E+00 0. -1.
         11    1    3    3    0    0 -0.14574938633E+02  0.89222892067E+01  0.18743015748E+02  0.25364083276E+02  0.51100000000E-03 0. -1.
        -11    1    3    3    0    0 -0.10726148306E+02  0.23086978469E+00 -0.59878497654E+01  0.12286492722E+02  0.51100000000E-03 0.  1.
         12    1    3    3    0    0  0.11677573241E+02  0.17981109592E+02 -0.30160223676E+01  0.21651383556E+02  0.00000000000E+00 0. -1.
</event>
<event>
 7    1  0.5634483E-012  0.5930192E+02  0.7816164E-02  0.1266605E+00
        -11   -1    0    0    0    0  0.00000000000E+00  0.00000000000E+00  0.45593999997E+02  0.45594000000E+02  0.51100000000E-03 0. -1.
         11   -1    0    0    0    0 -0.00000000000E+00 -0.00000000000E+00 -0.45593999997E+02  0.45594000000E+02  0.51100000000E-03 0.  1.
    9900012    2    1    2    0    0  0.67711756065E+01 -0.13438464353E+02 -0.28111931039E+02  0.59301924512E+02  0.49999964408E+02 0.  0.
         12    1    1    2    0    0 -0.67711756065E+01  0.13438464353E+02  0.28111931039E+02  0.31886075488E+02  0.00000000000E+00 0. -1.
         11    1    3    3    0    0  0.74470621449E+01  0.10412718947E+02 -0.12016307234E+02  0.17557764387E+02  0.51100000000E-03 0. -1.
        -11    1    3    3    0    0 -0.10846880680E+02 -0.27254245298E+01 -0.14404506645E+02  0.18236572356E+02  0.51100000000E-03 0.  1.
         12    1    3    3    0    0  0.10170994141E+02 -0.21125758771E+02 -0.16911171595E+01  0.23507587769E+02  0.00000000000E+00 0. -1.
</event>
<event>
 7    1  0.5634483E-012  0.5930213E+02  0.7816164E-02  0.1266604E+00
        -11   -1    0    0    0    0  0.00000000000E+00  0.00000000000E+00  0.45593999997E+02  0.45594000000E+02  0.51100000000E-03 0.  1.
         11   -1    0    0    0    0 -0.00000000000E+00 -0.00000000000E+00 -0.45593999997E+02  0.45594000000E+02  0.51100000000E-03 0. -1.
    9900012    2    1    2    0    0  0.41187313144E+01  0.24868176378E+01  0.31520796295E+02  0.59302128385E+02  0.50000336222E+02 0.  0.
         12    1    1    2    0    0 -0.41187313144E+01 -0.24868176378E+01 -0.31520796295E+02  0.31885871615E+02  0.00000000000E+00 0. -1.
         11    1    3    3    0    0 -0.13548800963E+02 -0.29813811977E+01  0.18634589228E+02  0.23231585338E+02  0.51100000000E-03 0. -1.
        -11    1    3    3    0    0  0.59534708823E+01  0.14168455361E+01  0.20587619379E+02  0.21477926780E+02  0.51100000000E-03 0.  1.
         12    1    3    3    0    0  0.11714061395E+02  0.40513532995E+01 -0.77014123116E+01  0.14592616267E+02  0.00000000000E+00 0. -1.
</event>
<event>
 7    1  0.5634483E-012  0.5930194E+02  0.7816164E-02  0.1266605E+00
        -11   -1    0    0    0    0  0.00000000000E+00  0.00000000000E+00  0.45593999997E+02  0.45594000000E+02  0.51100000000E-03 0. -1.
         11   -1    0    0    0    0 -0.00000000000E+00 -0.00000000000E+00 -0.45593999997E+02  0.45594000000E+02  0.51100000000E-03 0.  1.
    9900012    2    1    2    0    0  0.43088246682E+01 -0.22214221029E+02 -0.22465159575E+02  0.59301937516E+02  0.49999988125E+02 0.  0.
         12    1    1    2    0    0 -0.43088246682E+01  0.22214221029E+02  0.22465159575E+02  0.31886062484E+02  0.00000000000E+00 0. -1.
         11    1    3    3    0    0 -0.35091375116E+01 -0.99985275817E+01  0.79851711707E+01  0.13268291479E+02  0.51100000000E-03 0. -1.
        -11    1    3    3    0    0  0.12277095948E+02 -0.95993548600E+01 -0.44983145371E+00  0.15590928364E+02  0.51100000000E-03 0.  1.
        -12    1    3    3    0    0 -0.44591337684E+01 -0.26163385875E+01 -0.30000499292E+02  0.30442717674E+02  0.00000000000E+00 0.  1.
</event>
<event>
 7    1  0.5634483E-012  0.5930204E+02  0.7816164E-02  0.1266604E+00
        -11   -1    0    0    0    0  0.00000000000E+00  0.00000000000E+00  0.45593999997E+02  0.45594000000E+02  0.51100000000E-03 0.  1.
         11   -1    0    0    0    0 -0.00000000000E+00 -0.00000000000E+00 -0.45593999997E+02  0.45594000000E+02  0.51100000000E-03 0. -1.
    9900012    2    1    2    0    0 -0.15006023011E+02  0.22062261767E+02  0.17458239165E+02  0.59302043285E+02  0.50000181022E+02 0.  0.
         12    1    1    2    0    0  0.15006023011E+02 -0.22062261767E+02 -0.17458239165E+02  0.31885956715E+02  0.00000000000E+00 0. -1.
         11    1    3    3    0    0  0.44152495594E+01  0.22495881670E+01 -0.20163754366E+01  0.53498453955E+01  0.51100000000E-03 0. -1.
        -11    1    3    3    0    0 -0.17698557058E+02  0.26336698024E+02  0.28521951342E+02  0.42665703948E+02  0.51100000000E-03 0.  1.
         12    1    3    3    0    0 -0.17227155123E+01 -0.65240244245E+01 -0.90473367399E+01  0.11286493942E+02  0.00000000000E+00 0. -1.
</event>
<event>
 7    1  0.5634483E-012  0.5930199E+02  0.7816164E-02  0.1266605E+00
        -11   -1    0    0    0    0  0.00000000000E+00  0.00000000000E+00  0.45593999997E+02  0.45594000000E+02  0.51100000000E-03 0. -1.
         11   -1    0    0    0    0 -0.00000000000E+00 -0.00000000000E+00 -0.45593999997E+02  0.45594000000E+02  0.51100000000E-03 0.  1.
    9900012    2    1    2    0    0 -0.26386817060E+02 -0.13381494561E+02 -0.11890709398E+02  0.59301992391E+02  0.50000088203E+02 0.  0.
         12    1    1    2    0    0  0.26386817060E+02  0.13381494561E+02  0.11890709398E+02  0.31886007609E+02  0.00000000000E+00 0. -1.
         11    1    3    3    0    0 -0.60420717622E+01 -0.28056810044E+01  0.36806012890E+01  0.76108674399E+01  0.51100000000E-03 0. -1.
        -11    1    3    3    0    0 -0.31380669790E+01 -0.25831588433E+02 -0.10970725178E+02  0.28239604044E+02  0.51100000000E-03 0.  1.
         12    1    3    3    0    0 -0.17206678319E+02  0.15255774877E+02 -0.46005855083E+01  0.23451520908E+02  0.00000000000E+00 0. -1.
</event>
<event>
 7    1  0.5634483E-012  0.5930196E+02  0.7816164E-02  0.1266605E+00
        -11   -1    0    0    0    0  0.00000000000E+00  0.00000000000E+00  0.45593999997E+02  0.45594000000E+02  0.51100000000E-03 0. -1.
         11   -1    0    0    0    0 -0.00000000000E+00 -0.00000000000E+00 -0.45593999997E+02  0.45594000000E+02  0.51100000000E-03 0.  1.
    9900012    2    1    2    0    0 -0.18915400921E+02  0.22992892362E+02 -0.11412894649E+02  0.59301958297E+02  0.50000026024E+02 0.  0.
         12    1    1    2    0    0  0.18915400921E+02 -0.22992892362E+02  0.11412894649E+02  0.31886041703E+02  0.00000000000E+00 0. -1.
         11    1    3    3    0    0  0.74637672019E+01  0.28319931452E+01  0.95235885947E+01  0.12426855837E+02  0.51100000000E-03 0. -1.
        -11    1    3    3    0    0 -0.61279137909E+01 -0.29434071501E+01  0.34744837066E+01  0.76345930061E+01  0.51100000000E-03 0.  1.
        -12    1    3    3    0    0 -0.20251254332E+02  0.23104306367E+02 -0.24410966951E+02  0.39240509454E+02  0.00000000000E+00 0.  1.
</event>
<event>
 7    1  0.5634483E-012  0.5930212E+02  0.7816164E-02  0.1266604E+00
        -11   -1    0    0    0    0  0.00000000000E+00  0.00000000000E+00  0.45593999997E+02  0.45594000000E+02  0.51100000000E-03 0.  1.
         11   -1    0    0    0    0 -0.00000000000E+00 -0.00000000000E+00 -0.45593999997E+02  0.45594000000E+02  0.51100000000E-03 0. -1.
    9900012    2    1    2    0    0 -0.12699851793E+02 -0.61414143676E+01  0.28595557647E+02  0.59302123453E+02  0.50000327228E+02 0.  0.
         12    1    1    2    0    0  0.12699851793E+02  0.61414143676E+01 -0.28595557647E+02  0.31885876547E+02  0.00000000000E+00 0. -1.
         11    1    3    3    0    0 -0.87394029878E+01 -0.99054752803E+01 -0.34488560110E+01  0.13652480110E+02  0.51100000000E-03 0. -1.
        -11    1    3    3    0    0  0.36322913913E+01 -0.25413379752E+01  0.35052628981E+02  0.35331837459E+02  0.51100000000E-03 0.  1.
         12    1    3    3    0    0 -0.75927401965E+01  0.63053988880E+01 -0.30082153231E+01  0.10317805884E+02  0.00000000000E+00 0. -1.
</event>
<event>
 7    1  0.5634483E-012  0.5930195E+02  0.7816164E-02  0.1266605E+00
        -11   -1    0    0    0    0  0.00000000000E+00  0.00000000000E+00  0.45593999997E+02  0.45594000000E+02  0.51100000000E-03 0. -1.
         11   -1    0    0    0    0 -0.00000000000E+00 -0.00000000000E+00 -0.45593999997E+02  0.45594000000E+02  0.51100000000E-03 0.  1.
    9900012    2    1    2    0    0  0.15196881589E+02  0.21801873478E+02 -0.17619689942E+02  0.59301947080E+02  0.50000005567E+02 0.  0.
         12    1    1    2    0    0 -0.15196881589E+02 -0.21801873478E+02  0.17619689942E+02  0.31886052920E+02  0.00000000000E+00 0. -1.
         11    1    3    3    0    0  0.76322494569E+00  0.30603383768E+02 -0.38737611099E+01  0.30857019231E+02  0.51100000000E-03 0. -1.
        -11    1    3    3    0    0  0.15460474749E+01  0.17708303989E+01  0.36565328752E+01  0.43469916063E+01  0.51100000000E-03 0.  1.
        -12    1    3    3    0    0  0.12887609168E+02 -0.10572340689E+02 -0.17402461707E+02  0.24097936243E+02  0.00000000000E+00 0.  1.
</event>
<event>
 7    1  0.5634483E-012  0.5930194E+02  0.7816164E-02  0.1266605E+00
        -11   -1    0    0    0    0  0.00000000000E+00  0.00000000000E+00  0.45593999997E+02  0.45594000000E+02  0.51100000000E-03 0.  1.
         11   -1    0    0    0    0 -0.00000000000E+00 -0.00000000000E+00 -0.45593999997E+02  0.45594000000E+02  0.51100000000E-03 0. -1.
    9900012    2    1    2    0    0 -0.16288790062E+02  0.99805030199E+00  0.27393427423E+02  0.59301942670E+02  0.49999997523E+02 0.  0.
         12    1    1    2    0    0  0.16288790062E+02 -0.99805030199E+00 -0.27393427423E+02  0.31886057330E+02  0.00000000000E+00 0. -1.
         11    1    3    3    0    0 -0.18511982401E+01 -0.18854492899E+01 -0.10882872614E+02  0.11199052216E+02  0.51100000000E-03 0. -1.
        -11    1    3    3    0    0 -0.65750505741E+01  0.45375758055E+01 -0.96556371347E+00  0.80469371682E+01  0.51100000000E-03 0.  1.
        -12    1    3    3    0    0 -0.78625412475E+01 -0.16540762135E+01  0.39241863751E+02  0.40055953285E+02  0.00000000000E+00 0.  1.
</event>
<event>
 7    1  0.5634483E-012  0.5930194E+02  0.7816164E-02  0.1266605E+00
        -11   -1    0    0    0    0  0.00000000000E+00  0.00000000000E+00  0.45593999997E+02  0.45594000000E+02  0.51100000000E-03 0.  1.
         11   -1    0    0    0    0 -0.00000000000E+00 -0.00000000000E+00 -0.45593999997E+02  0.45594000000E+02  0.51100000000E-03 0. -1.
    9900012    2    1    2    0    0 -0.42838297795E+01 -0.26842371891E+02  0.16669033774E+02  0.59301940142E+02  0.49999992913E+02 0.  0.
         12    1    1    2    0    0  0.42838297795E+01  0.26842371891E+02 -0.16669033774E+02  0.31886059858E+02  0.00000000000E+00 0. -1.
         11    1    3    3    0    0 -0.13372657141E+02  0.47031834599E+01  0.41114269802E+01  0.14759801006E+02  0.51100000000E-03 0. -1.
        -11    1    3    3    0    0 -0.80006793533E+01 -0.49098601992E+01 -0.21726296900E+01  0.96352435009E+01  0.51100000000E-03 0.  1.
        -12    1    3    3    0    0  0.17089506715E+02 -0.26635695152E+02  0.14730236484E+02  0.34906895635E+02  0.00000000000E+00 0.  1.
</event>
<event>
 7    1  0.5634483E-012  0.5930195E+02  0.7816164E-02  0.1266605E+00
        -11   -1    0    0    0    0  0.00000000000E+00  0.00000000000E+00  0.45593999997E+02  0.45594000000E+02  0.51100000000E-03 0. -1.
         11   -1    0    0    0    0 -0.00000000000E+00 -0.00000000000E+00 -0.45593999997E+02  0.45594000000E+02  0.51100000000E-03 0.  1.
    9900012    2    1    2    0    0 -0.31325759205E+02 -0.57804218602E+01 -0.14155789937E+01  0.59301947711E+02  0.50000006718E+02 0.  0.
         12    1    1    2    0    0  0.31325759205E+02  0.57804218602E+01  0.14155789937E+01  0.31886052289E+02  0.00000000000E+00 0. -1.
         11    1    3    3    0    0 -0.35917753348E+02  0.35619988063E+01  0.71808903343E+01  0.36801331869E+02  0.51100000000E-03 0. -1.
        -11    1    3    3    0    0  0.88489077865E+00 -0.93871083746E+01  0.33390984357E+01  0.10002520380E+02  0.51100000000E-03 0.  1.
        -12    1    3    3    0    0  0.37071033645E+01  0.44687708053E-01 -0.11935567764E+02  0.12498095462E+02  0.00000000000E+00 0.  1.
</event>
<event>
 7    1  0.5634483E-012  0.5930196E+02  0.7816164E-02  0.1266605E+00
        -11   -1    0    0    0    0  0.00000000000E+00  0.00000000000E+00  0.45593999997E+02  0.45594000000E+02  0.51100000000E-03 0.  1.
         11   -1    0    0    0    0 -0.00000000000E+00 -0.00000000000E+00 -0.45593999997E+02  0.45594000000E+02  0.51100000000E-03 0. -1.
    9900012    2    1    2    0    0 -0.22015765202E+02 -0.12524306570E+02  0.19369237497E+02  0.59301960206E+02  0.50000029506E+02 0.  0.
         12    1    1    2    0    0  0.22015765202E+02  0.12524306570E+02 -0.19369237497E+02  0.31886039794E+02  0.00000000000E+00 0. -1.
         11    1    3    3    0    0  0.82039290595E+00 -0.14304008276E+02 -0.10390433252E+02  0.17698553634E+02  0.51100000000E-03 0. -1.
        -11    1    3    3    0    0  0.30056742630E+01 -0.71075765950E+00  0.26792905199E+01  0.40887470180E+01  0.51100000000E-03 0.  1.
         12    1    3    3    0    0 -0.25841832371E+02  0.24904593655E+01  0.27080380229E+02  0.37514659555E+02  0.00000000000E+00 0. -1.
</event>
<event>
 7    1  0.5634483E-012  0.5930193E+02  0.7816164E-02  0.1266605E+00
        -11   -1    0    0    0    0  0.00000000000E+00  0.00000000000E+00  0.45593999997E+02  0.45594000000E+02  0.51100000000E-03 0.  1.
         11   -1    0    0    0    0 -0.00000000000E+00 -0.00000000000E+00 -0.45593999997E+02  0.45594000000E+02  0.51100000000E-03 0. -1.
    9900012    2    1    2    0    0  0.23476546704E+02  0.10098231977E+01  0.21553496617E+02  0.59301934008E+02  0.49999981726E+02 0.  0.
         12    1    1    2    0    0 -0.23476546704E+02 -0.10098231977E+01 -0.21553496617E+02  0.31886065992E+02  0.00000000000E+00 0. -1.
         11    1    3    3    0    0  0.61505719189E+01 -0.73745847209E+00  0.19828763529E+02  0.20773859614E+02  0.51100000000E-03 0. -1.
        -11    1    3    3    0    0  0.12324831394E+02  0.12478974840E+02  0.13268011755E+02  0.21992417288E+02  0.51100000000E-03 0.  1.
         12    1    3    3    0    0  0.50011433917E+01 -0.10731693171E+02 -0.11543278667E+02  0.16535657106E+02  0.00000000000E+00 0. -1.
</event>
<event>
 7    1  0.5634483E-012  0.5930194E+02  0.7816164E-02  0.1266605E+00
        -11   -1    0    0    0    0  0.00000000000E+00  0.00000000000E+00  0.45593999997E+02  0.45594000000E+02  0.51100000000E-03 0. -1.
         11   -1    0    0    0    0 -0.00000000000E+00 -0.00000000000E+00 -0.45593999997E+02  0.45594000000E+02  0.51100000000E-03 0.  1.
    9900012    2    1    2    0    0 -0.37437396161E+01 -0.19261439486E+02 -0.25133687764E+02  0.59301938813E+02  0.49999990489E+02 0.  0.
         12    1    1    2    0    0  0.37437396161E+01  0.19261439486E+02  0.25133687764E+02  0.31886061187E+02  0.00000000000E+00 0. -1.
         11    1    3    3    0    0  0.76355992924E+01 -0.91101267898E+01 -0.13350715544E+02  0.17875636841E+02  0.51100000000E-03 0. -1.
        -11    1    3    3    0    0 -0.11233226870E+02 -0.25786589832E+01 -0.24243933440E+02  0.26844052916E+02  0.51100000000E-03 0.  1.
         12    1    3    3    0    0 -0.14611203853E+00 -0.75726537135E+01  0.12460961220E+02  0.14582249056E+02  0.00000000000E+00 0. -1.
</event>
<event>
 7    1  0.5634483E-012  0.5930195E+02  0.7816164E-02  0.1266605E+00
        -11   -1    0    0    0    0  0.00000000000E+00  0.00000000000E+00  0.45593999997E+02  0.45594000000E+02  0.51100000000E-03 0.  1.
         11   -1    0    0    0    0 -0.00000000000E+00 -0.00000000000E+00 -0.45593999997E+02  0.45594000000E+02  0.51100000000E-03 0. -1.
    9900012    2    1    2    0    0  0.80186386639E+01 -0.28694852660E+02  0.11358999030E+02  0.59301952986E+02  0.50000016338E+02 0.  0.
         12    1    1    2    0    0 -0.80186386639E+01  0.28694852660E+02 -0.11358999030E+02  0.31886047014E+02  0.00000000000E+00 0. -1.
         11    1    3    3    0    0  0.52429448126E+01 -0.16458115945E+02  0.45136544564E+01  0.17853042530E+02  0.51100000000E-03 0. -1.
        -11    1    3    3    0    0  0.18149370864E+02 -0.16780253079E+02  0.25290398995E+01  0.24846983704E+02  0.51100000000E-03 0.  1.
         12    1    3    3    0    0 -0.15373677012E+02  0.45435163638E+01  0.43163046739E+01  0.16601926752E+02  0.00000000000E+00 0. -1.
</event>
<event>
 7    1  0.5634483E-012  0.5930200E+02  0.7816164E-02  0.1266605E+00
        -11   -1    0    0    0    0  0.00000000000E+00  0.00000000000E+00  0.45593999997E+02  0.45594000000E+02  0.51100000000E-03 0.  1.
         11   -1    0    0    0    0 -0.00000000000E+00 -0.00000000000E+00 -0.45593999997E+02  0.45594000000E+02  0.51100000000E-03 0. -1.
    9900012    2    1    2    0    0  0.10361095245E+02  0.17671864859E+01  0.30103848636E+02  0.59302000792E+02  0.50000103525E+02 0.  0.
         12    1    1    2    0    0 -0.10361095245E+02 -0.17671864859E+01 -0.30103848636E+02  0.31885999208E+02  0.00000000000E+00 0. -1.
         11    1    3    3    0    0  0.14669162466E+01 -0.10800016150E+02  0.39199267457E+01  0.11582660233E+02  0.51100000000E-03 0. -1.
        -11    1    3    3    0    0 -0.10175923703E+02  0.12575043395E+02  0.23399911606E+02  0.28447091293E+02  0.51100000000E-03 0.  1.
         12    1    3    3    0    0  0.19070102702E+02 -0.78407588351E-02  0.27840102845E+01  0.19272249267E+02  0.00000000000E+00 0. -1.
</event>
<event>
 7    1  0.5634483E-012  0.5930193E+02  0.7816164E-02  0.1266605E+00
        -11   -1    0    0    0    0  0.00000000000E+00  0.00000000000E+00  0.45593999997E+02  0.45594000000E+02  0.51100000000E-03 0.  1.
         11   -1    0    0    0    0 -0.00000000000E+00 -0.00000000000E+00 -0.45593999997E+02  0.45594000000E+02  0.51100000000E-03 0. -1.
    9900012    2    1    2    0    0  0.12076401442E+02 -0.53337232362E+01  0.29024700147E+02  0.59301932604E+02  0.49999979166E+02 0.  0.
         12    1    1    2    0    0 -0.12076401442E+02  0.53337232362E+01 -0.29024700147E+02  0.31886067396E+02  0.00000000000E+00 0. -1.
         11    1    3    3    0    0  0.19922526749E+01 -0.26377427900E+00 -0.37395274805E+01  0.42453166701E+01  0.51100000000E-03 0. -1.
        -11    1    3    3    0    0  0.21719583315E+02 -0.50026010637E+00  0.19611903917E+01  0.21813684410E+02  0.51100000000E-03 0.  1.
         12    1    3    3    0    0 -0.11635434548E+02 -0.45696888508E+01  0.30803037236E+02  0.33242931523E+02  0.00000000000E+00 0. -1.
</event>
<event>
 7    1  0.5634483E-012  0.5930193E+02  0.7816164E-02  0.1266605E+00
        -11   -1    0    0    0    0  0.00000000000E+00  0.00000000000E+00  0.45593999997E+02  0.45594000000E+02  0.51100000000E-03 0.  1.
         11   -1    0    0    0    0 -0.00000000000E+00 -0.00000000000E+00 -0.45593999997E+02  0.45594000000E+02  0.51100000000E-03 0. -1.
    9900012    2    1    2    0    0  0.49404738587E+01 -0.22554242843E+02  0.21991344636E+02  0.59301931082E+02  0.49999976389E+02 0.  0.
         12    1    1    2    0    0 -0.49404738587E+01  0.22554242843E+02 -0.21991344636E+02  0.31886068918E+02  0.00000000000E+00 0. -1.
         11    1    3    3    0    0  0.10549017471E+02 -0.62430542620E+01  0.11856002088E+02  0.17053512303E+02  0.51100000000E-03 0. -1.
        -11    1    3    3    0    0 -0.31977352230E+01 -0.28193237300E+02  0.39817296365E+01  0.28652021066E+02  0.51100000000E-03 0.  1.
         12    1    3    3    0    0 -0.24108083894E+01  0.11882048720E+02  0.61536129124E+01  0.13596397712E+02  0.00000000000E+00 0. -1.
</event>
<event>
 7    1  0.5634483E-012  0.5930197E+02  0.7816164E-02  0.1266605E+00
        -11   -1    0    0    0    0  0.00000000000E+00  0.00000000000E+00  0.45593999997E+02  0.45594000000E+02  0.51100000000E-03 0. -1.
         11   -1    0    0    0    0 -0.00000000000E+00 -0.00000000000E+00 -0.45593999997E+02  0.45594000000E+02  0.51100000000E-03 0.  1.
    9900012    2    1    2    0    0  0.69563730477E+01 -0.16630767176E+02 -0.26301051856E+02  0.59301970589E+02  0.50000048442E+02 0.  0.
         12    1    1    2    0    0 -0.69563730477E+01  0.16630767176E+02  0.26301051856E+02  0.31886029411E+02  0.00000000000E+00 0. -1.
         11    1    3    3    0    0  0.18691154410E+02  0.59925963108E+00 -0.15599942313E+02  0.24353163362E+02  0.51100000000E-03 0. -1.
        -11    1    3    3    0    0 -0.23640990751E+01  0.33565435477E+01 -0.11607038482E+02  0.12311729838E+02  0.51100000000E-03 0.  1.
         12    1    3    3    0    0 -0.93706822872E+01 -0.20586570355E+02  0.90592893853E+00  0.22637077390E+02  0.00000000000E+00 0. -1.
</event>
<event>
 7    1  0.5634483E-012  0.5930191E+02  0.7816164E-02  0.1266605E+00
        -11   -1    0    0    0    0  0.00000000000E+00  0.00000000000E+00  0.45593999997E+02  0.45594000000E+02  0.51100000000E-03 0.  1.
         11   -1    0    0    0    0 -0.00000000000E+00 -0.00000000000E+00 -0.45593999997E+02  0.45594000000E+02  0.51100000000E-03 0. -1.
    9900012    2    1    2    0    0  0.64160867791E+01  0.16432368255E+02  0.26561884327E+02  0.59301912202E+02  0.49999941958E+02 0.  0.
         12    1    1    2    0    0 -0.64160867791E+01 -0.16432368255E+02 -0.26561884327E+02  0.31886087798E+02  0.00000000000E+00 0. -1.
         11    1    3    3    0    0 -0.70186546767E+01  0.17028864312E+02  0.74983901720E+01  0.19886417190E+02  0.51100000000E-03 0. -1.
        -11    1    3    3    0    0 -0.17076519210E+01  0.86921864240E+01  0.19741881747E+02  0.21638208685E+02  0.51100000000E-03 0.  1.
         12    1    3    3    0    0  0.15142393377E+02 -0.92886824811E+01 -0.67838759233E+00  0.17777286327E+02  0.00000000000E+00 0. -1.
</event>
<event>
 7    1  0.5634483E-012  0.5930194E+02  0.7816164E-02  0.1266605E+00
        -11   -1    0    0    0    0  0.00000000000E+00  0.00000000000E+00  0.45593999997E+02  0.45594000000E+02  0.51100000000E-03 0.  1.
         11   -1    0    0    0    0 -0.00000000000E+00 -0.00000000000E+00 -0.45593999997E+02  0.45594000000E+02  0.51100000000E-03 0. -1.
    9900012    2    1    2    0    0 -0.26022595014E+02 -0.18267295055E+02  0.24189437121E+01  0.59301940215E+02  0.49999993047E+02 0.  0.
         12    1    1    2    0    0  0.26022595014E+02  0.18267295055E+02 -0.24189437121E+01  0.31886059785E+02  0.00000000000E+00 0. -1.
         11    1    3    3    0    0 -0.11195746424E+02 -0.10741309276E+02 -0.47269327718E+01  0.16219258820E+02  0.51100000000E-03 0. -1.
        -11    1    3    3    0    0 -0.16025593235E+02 -0.11503656286E+02 -0.12267170887E+02  0.23230093162E+02  0.51100000000E-03 0.  1.
        -12    1    3    3    0    0  0.11987446456E+01  0.39776705067E+01  0.19413047370E+02  0.19852588234E+02  0.00000000000E+00 0.  1.
</event>
<event>
 7    1  0.5634483E-012  0.5930190E+02  0.7816164E-02  0.1266605E+00
        -11   -1    0    0    0    0  0.00000000000E+00  0.00000000000E+00  0.45593999997E+02  0.45594000000E+02  0.51100000000E-03 0.  1.
         11   -1    0    0    0    0 -0.00000000000E+00 -0.00000000000E+00 -0.45593999997E+02  0.45594000000E+02  0.51100000000E-03 0. -1.
    9900012    2    1    2    0    0 -0.10663977329E+02  0.26754470617E+02  0.13682158634E+02  0.59301896831E+02  0.49999913924E+02 0.  0.
         12    1    1    2    0    0  0.10663977329E+02 -0.26754470617E+02 -0.13682158634E+02  0.31886103169E+02  0.00000000000E+00 0. -1.
         11    1    3    3    0    0 -0.20061794212E+02  0.78475732049E+01  0.23840384930E+02  0.32131354563E+02  0.51100000000E-03 0. -1.
        -11    1    3    3    0    0 -0.27763700559E+00  0.14095830489E+01  0.29370278430E+01  0.32695778764E+01  0.51100000000E-03 0.  1.
        -12    1    3    3    0    0  0.96754538882E+01  0.17497314363E+02 -0.13095254139E+02  0.23900964391E+02  0.00000000000E+00 0.  1.
</event>
<event>
 7    1  0.5634483E-012  0.5930193E+02  0.7816164E-02  0.1266605E+00
        -11   -1    0    0    0    0  0.00000000000E+00  0.00000000000E+00  0.45593999997E+02  0.45594000000E+02  0.51100000000E-03 0.  1.
         11   -1    0    0    0    0 -0.00000000000E+00 -0.00000000000E+00 -0.45593999997E+02  0.45594000000E+02  0.51100000000E-03 0. -1.
    9900012    2    1    2    0    0 -0.13233271854E+02  0.13596228679E+02  0.25627031921E+02  0.59301926498E+02  0.49999968030E+02 0.  0.
         12    1    1    2    0    0  0.13233271854E+02 -0.13596228679E+02 -0.25627031921E+02  0.31886073502E+02  0.00000000000E+00 0. -1.
         11    1    3    3    0    0 -0.50720616261E+01  0.29908203820E+01  0.64327123905E+01  0.87206997802E+01  0.51100000000E-03 0. -1.
        -11    1    3    3    0    0  0.21598241697E+01  0.21775884143E+02 -0.45815534506E+01  0.22357204721E+02  0.51100000000E-03 0.  1.
         12    1    3    3    0    0 -0.10321034398E+02 -0.11170475846E+02  0.23775872982E+02  0.28224021997E+02  0.00000000000E+00 0. -1.
</event>
<event>
 7    1  0.5634483E-012  0.5930190E+02  0.7816164E-02  0.1266605E+00
        -11   -1    0    0    0    0  0.00000000000E+00  0.00000000000E+00  0.45593999997E+02  0.45594000000E+02  0.51100000000E-03 0.  1.
         11   -1    0    0    0    0 -0.00000000000E+00 -0.00000000000E+00 -0.45593999997E+02  0.45594000000E+02  0.51100000000E-03 0. -1.
    9900012    2    1    2    0    0 -0.30567291868E+02  0.92781391844E+00  0.90279251515E+01  0.59301896391E+02  0.49999913122E+02 0.  0.
         12    1    1    2    0    0  0.30567291868E+02 -0.92781391844E+00 -0.90279251515E+01  0.31886103609E+02  0.00000000000E+00 0. -1.
         11    1    3    3    0    0 -0.56635605523E+00 -0.79312660014E+01 -0.83111609747E+01  0.11502223114E+02  0.51100000000E-03 0. -1.
        -11    1    3    3    0    0 -0.46243274662E+01  0.32116985007E+01 -0.91123114371E+01  0.10711378612E+02  0.51100000000E-03 0.  1.
        -12    1    3    3    0    0 -0.25376608347E+02  0.56473814191E+01  0.26451397563E+02  0.37088294665E+02  0.00000000000E+00 0.  1.
</event>
<event>
 7    1  0.5634483E-012  0.5930195E+02  0.7816164E-02  0.1266605E+00
        -11   -1    0    0    0    0  0.00000000000E+00  0.00000000000E+00  0.45593999997E+02  0.45594000000E+02  0.51100000000E-03 0.  1.
         11   -1    0    0    0    0 -0.00000000000E+00 -0.00000000000E+00 -0.45593999997E+02  0.45594000000E+02  0.51100000000E-03 0. -1.
    9900012    2    1    2    0    0  0.16612280455E+02 -0.22141176704E+02  0.15827841074E+02  0.59301951000E+02  0.50000012715E+02 0.  0.
         12    1    1    2    0    0 -0.16612280455E+02  0.22141176704E+02 -0.15827841074E+02  0.31886049000E+02  0.00000000000E+00 0. -1.
         11    1    3    3    0    0 -0.62246333447E+00  0.33024686789E+01  0.77817715935E+01  0.84764219676E+01  0.51100000000E-03 0.  1.
        -11    1    3    3    0    0  0.27813439635E+02 -0.82613340096E+01 -0.23298068720E+00  0.29015363934E+02  0.51100000000E-03 0. -1.
        -12    1    3    3    0    0 -0.10578695845E+02 -0.17182311373E+02  0.82790501680E+01  0.21810165098E+02  0.00000000000E+00 0.  1.
</event>
<event>
 7    1  0.5634483E-012  0.5930192E+02  0.7816164E-02  0.1266605E+00
        -11   -1    0    0    0    0  0.00000000000E+00  0.00000000000E+00  0.45593999997E+02  0.45594000000E+02  0.51100000000E-03 0.  1.
         11   -1    0    0    0    0 -0.00000000000E+00 -0.00000000000E+00 -0.45593999997E+02  0.45594000000E+02  0.51100000000E-03 0. -1.
    9900012    2    1    2    0    0 -0.13358869069E+02 -0.16957674778E+02  0.23466995395E+02  0.59301921697E+02  0.49999959274E+02 0.  0.
         12    1    1    2    0    0  0.13358869069E+02  0.16957674778E+02 -0.23466995395E+02  0.31886078303E+02  0.00000000000E+00 0. -1.
         11    1    3    3    0    0 -0.21239664443E+02  0.71226609054E+01  0.98396844946E+00  0.22423733815E+02  0.51100000000E-03 0. -1.
        -11    1    3    3    0    0  0.14777555276E+01  0.15034046499E+01 -0.16603481366E+00  0.21146051076E+01  0.51100000000E-03 0.  1.
        -12    1    3    3    0    0  0.64030398468E+01 -0.25583740334E+02  0.22649061759E+02  0.34763582775E+02  0.00000000000E+00 0.  1.
</event>
<event>
 7    1  0.5634483E-012  0.5930194E+02  0.7816164E-02  0.1266605E+00
        -11   -1    0    0    0    0  0.00000000000E+00  0.00000000000E+00  0.45593999997E+02  0.45594000000E+02  0.51100000000E-03 0.  1.
         11   -1    0    0    0    0 -0.00000000000E+00 -0.00000000000E+00 -0.45593999997E+02  0.45594000000E+02  0.51100000000E-03 0. -1.
    9900012    2    1    2    0    0  0.19626141646E+02 -0.76465832179E+01  0.23938784678E+02  0.59301935918E+02  0.49999985209E+02 0.  0.
         12    1    1    2    0    0 -0.19626141646E+02  0.76465832179E+01 -0.23938784678E+02  0.31886064082E+02  0.00000000000E+00 0. -1.
         11    1    3    3    0    0  0.74889507674E+01  0.10631177688E+02 -0.98854739999E+01  0.16334898809E+02  0.51100000000E-03 0. -1.
        -11    1    3    3    0    0 -0.23359450575E+01 -0.19303976359E+01  0.41869389138E+00  0.30591468059E+01  0.51100000000E-03 0.  1.
        -12    1    3    3    0    0  0.14473135936E+02 -0.16347363270E+02  0.33405564787E+02  0.39907890303E+02  0.00000000000E+00 0.  1.
</event>
<event>
 7    1  0.5634483E-012  0.5930193E+02  0.7816164E-02  0.1266605E+00
        -11   -1    0    0    0    0  0.00000000000E+00  0.00000000000E+00  0.45593999997E+02  0.45594000000E+02  0.51100000000E-03 0. -1.
         11   -1    0    0    0    0 -0.00000000000E+00 -0.00000000000E+00 -0.45593999997E+02  0.45594000000E+02  0.51100000000E-03 0.  1.
    9900012    2    1    2    0    0  0.19523441470E+02  0.14326774649E+02 -0.20743675895E+02  0.59301932066E+02  0.49999978184E+02 0.  0.
         12    1    1    2    0    0 -0.19523441470E+02 -0.14326774649E+02  0.20743675895E+02  0.31886067934E+02  0.00000000000E+00 0. -1.
         11    1    3    3    0    0  0.28418264956E+01  0.49273415953E+00 -0.16114764432E+02  0.16370839861E+02  0.51100000000E-03 0. -1.
        -11    1    3    3    0    0  0.26092876548E+02  0.10049296749E+02 -0.11963898249E+02  0.30413178611E+02  0.51100000000E-03 0.  1.
         12    1    3    3    0    0 -0.94112615729E+01  0.37847437402E+01  0.73349867864E+01  0.12517913593E+02  0.00000000000E+00 0. -1.
</event>
<event>
 7    1  0.5634483E-012  0.5930196E+02  0.7816164E-02  0.1266605E+00
        -11   -1    0    0    0    0  0.00000000000E+00  0.00000000000E+00  0.45593999997E+02  0.45594000000E+02  0.51100000000E-03 0. -1.
         11   -1    0    0    0    0 -0.00000000000E+00 -0.00000000000E+00 -0.45593999997E+02  0.45594000000E+02  0.51100000000E-03 0.  1.
    9900012    2    1    2    0    0 -0.24295513724E+01 -0.17268085554E+02 -0.26695128790E+02  0.59301962308E+02  0.50000033339E+02 0.  0.
         12    1    1    2    0    0  0.24295513724E+01  0.17268085554E+02  0.26695128790E+02  0.31886037692E+02  0.00000000000E+00 0. -1.
         11    1    3    3    0    0  0.16345267107E+02  0.48833088200E+01 -0.15962952443E+02  0.23363011638E+02  0.51100000000E-03 0. -1.
        -11    1    3    3    0    0 -0.30633329381E+01  0.11068909584E+01  0.32326808035E+01  0.45890567355E+01  0.51100000000E-03 0.  1.
        -12    1    3    3    0    0 -0.15711485541E+02 -0.23258285333E+02 -0.13964857150E+02  0.31349893935E+02  0.00000000000E+00 0.  1.
</event>
<event>
 7    1  0.5634483E-012  0.5930199E+02  0.7816164E-02  0.1266605E+00
        -11   -1    0    0    0    0  0.00000000000E+00  0.00000000000E+00  0.45593999997E+02  0.45594000000E+02  0.51100000000E-03 0. -1.
         11   -1    0    0    0    0 -0.00000000000E+00 -0.00000000000E+00 -0.45593999997E+02  0.45594000000E+02  0.51100000000E-03 0.  1.
    9900012    2    1    2    0    0  0.10843922562E+02 -0.93549207609E+01 -0.28488816492E+02  0.59301986388E+02  0.50000077254E+02 0.  0.
         12    1    1    2    0    0 -0.10843922562E+02  0.93549207609E+01  0.28488816492E+02  0.31886013612E+02  0.00000000000E+00 0. -1.
         11    1    3    3    0    0 -0.13567756188E+02 -0.39272297036E+01 -0.44902064373E+01  0.14821237979E+02  0.51100000000E-03 0. -1.
        -11    1    3    3    0    0  0.16024090870E+02 -0.10978253703E+02 -0.10820271631E+01  0.19454159597E+02  0.51100000000E-03 0.  1.
        -12    1    3    3    0    0  0.83875878798E+01  0.55505626459E+01 -0.22916582892E+02  0.25026588812E+02  0.00000000000E+00 0.  1.
</event>
<event>
 7    1  0.5634483E-012  0.5930195E+02  0.7816164E-02  0.1266605E+00
        -11   -1    0    0    0    0  0.00000000000E+00  0.00000000000E+00  0.45593999997E+02  0.45594000000E+02  0.51100000000E-03 0.  1.
         11   -1    0    0    0    0 -0.00000000000E+00 -0.00000000000E+00 -0.45593999997E+02  0.45594000000E+02  0.51100000000E-03 0. -1.
    9900012    2    1    2    0    0  0.56894567559E+01  0.17407939068E+02  0.26101993399E+02  0.59301947874E+02  0.50000007015E+02 0.  0.
         12    1    1    2    0    0 -0.56894567559E+01 -0.17407939068E+02 -0.26101993399E+02  0.31886052126E+02  0.00000000000E+00 0. -1.
         11    1    3    3    0    0  0.18670936601E+01 -0.65187186537E+01  0.18768101557E+02  0.19955484658E+02  0.51100000000E-03 0. -1.
        -11    1    3    3    0    0  0.16158566120E+02  0.90684762174E+01 -0.42510857745E+00  0.18534218018E+02  0.51100000000E-03 0.  1.
        -12    1    3    3    0    0 -0.12336203025E+02  0.14858181504E+02  0.77590004197E+01  0.20812245198E+02  0.00000000000E+00 0.  1.
</event>
<event>
 7    1  0.5634483E-012  0.5930200E+02  0.7816164E-02  0.1266605E+00
        -11   -1    0    0    0    0  0.00000000000E+00  0.00000000000E+00  0.45593999997E+02  0.45594000000E+02  0.51100000000E-03 0. -1.
         11   -1    0    0    0    0 -0.00000000000E+00 -0.00000000000E+00 -0.45593999997E+02  0.45594000000E+02  0.51100000000E-03 0.  1.
    9900012    2    1    2    0    0 -0.21033466803E+02  0.16487663697E+01 -0.23907982770E+02  0.59302003130E+02  0.50000107787E+02 0.  0.
         12    1    1    2    0    0  0.21033466803E+02 -0.16487663697E+01  0.23907982770E+02  0.31885996870E+02  0.00000000000E+00 0. -1.
         11    1    3    3    0    0  0.95407383773E+01 -0.10749755087E+02 -0.96302378364E+01  0.17300994314E+02  0.51100000000E-03 0. -1.
        -11    1    3    3    0    0  0.76334649966E+00 -0.34016447566E+01  0.11406041616E+01  0.36680871095E+01  0.51100000000E-03 0.  1.
        -12    1    3    3    0    0 -0.31337551680E+02  0.15800166214E+02 -0.15418349095E+02  0.38332921706E+02  0.00000000000E+00 0.  1.
</event>
<event>
 7    1  0.5634483E-012  0.5930198E+02  0.7816164E-02  0.1266605E+00
        -11   -1    0    0    0    0  0.00000000000E+00  0.00000000000E+00  0.45593999997E+02  0.45594000000E+02  0.51100000000E-03 0. -1.
         11   -1    0    0    0    0 -0.00000000000E+00 -0.00000000000E+00 -0.45593999997E+02  0.45594000000E+02  0.51100000000E-03 0.  1.
    9900012    2    1    2    0    0 -0.27502439938E+02 -0.88386597349E+01 -0.13498593071E+02  0.59301982322E+02  0.50000069839E+02 0.  0.
         12    1    1    2    0    0  0.27502439938E+02  0.88386597349E+01  0.13498593071E+02  0.31886017678E+02  0.00000000000E+00 0. -1.
         11    1    3    3    0    0  0.25472708008E+01  0.73837274951E-01  0.73835068610E+00  0.26531495383E+01  0.51100000000E-03 0. -1.
        -11    1    3    3    0    0 -0.49070514151E+01 -0.87409403842E+01 -0.26748161930E+02  0.28564792303E+02  0.51100000000E-03 0.  1.
         12    1    3    3    0    0 -0.25142659324E+02 -0.17155662566E+00  0.12511218173E+02  0.28084040481E+02  0.00000000000E+00 0. -1.
</event>
<event>
 7    1  0.5634483E-012  0.5930195E+02  0.7816164E-02  0.1266605E+00
        -11   -1    0    0    0    0  0.00000000000E+00  0.00000000000E+00  0.45593999997E+02  0.45594000000E+02  0.51100000000E-03 0.  1.
         11   -1    0    0    0    0 -0.00000000000E+00 -0.00000000000E+00 -0.45593999997E+02  0.45594000000E+02  0.51100000000E-03 0. -1.
    9900012    2    1    2    0    0  0.28846577189E+01 -0.95873773063E+01  0.30273439812E+02  0.59301949573E+02  0.50000010113E+02 0.  0.
         12    1    1    2    0    0 -0.28846577189E+01  0.95873773063E+01 -0.30273439812E+02  0.31886050427E+02  0.00000000000E+00 0. -1.
         11    1    3    3    0    0  0.13084966407E+02  0.11152312788E+02  0.16354194821E+02  0.23728677058E+02  0.51100000000E-03 0. -1.
        -11    1    3    3    0    0 -0.24549335674E+01  0.46319762993E+01  0.58287161078E+01  0.78393772064E+01  0.51100000000E-03 0.  1.
         12    1    3    3    0    0 -0.77453751212E+01 -0.25371666394E+02  0.80905288835E+01  0.27733895309E+02  0.00000000000E+00 0. -1.
</event>
<event>
 7    1  0.5634483E-012  0.5930192E+02  0.7816164E-02  0.1266605E+00
        -11   -1    0    0    0    0  0.00000000000E+00  0.00000000000E+00  0.45593999997E+02  0.45594000000E+02  0.51100000000E-03 0.  1.
         11   -1    0    0    0    0 -0.00000000000E+00 -0.00000000000E+00 -0.45593999997E+02  0.45594000000E+02  0.51100000000E-03 0. -1.
    9900012    2    1    2    0    0 -0.30667554245E+02 -0.81183600207E+01 -0.32117302661E+01  0.59301923664E+02  0.49999962861E+02 0.  0.
         12    1    1    2    0    0  0.30667554245E+02  0.81183600207E+01  0.32117302661E+01  0.31886076336E+02  0.00000000000E+00 0. -1.
         11    1    3    3    0    0 -0.13847765283E+02  0.62020816811E+01  0.16750986306E+01  0.15265398003E+02  0.51100000000E-03 0. -1.
        -11    1    3    3    0    0  0.99423418440E+00  0.89615690369E+01  0.79621707301E+01  0.12028897880E+02  0.51100000000E-03 0.  1.
         12    1    3    3    0    0 -0.17814023146E+02 -0.23282010739E+02 -0.12848999627E+02  0.32007627780E+02  0.00000000000E+00 0. -1.
</event>
<event>
 7    1  0.5634483E-012  0.5930195E+02  0.7816164E-02  0.1266605E+00
        -11   -1    0    0    0    0  0.00000000000E+00  0.00000000000E+00  0.45593999997E+02  0.45594000000E+02  0.51100000000E-03 0.  1.
         11   -1    0    0    0    0 -0.00000000000E+00 -0.00000000000E+00 -0.45593999997E+02  0.45594000000E+02  0.51100000000E-03 0. -1.
    9900012    2    1    2    0    0  0.30119354987E+02  0.10459487955E+02 -0.37918430815E+00  0.59301949542E+02  0.50000010056E+02 0.  0.
         12    1    1    2    0    0 -0.30119354987E+02 -0.10459487955E+02  0.37918430815E+00  0.31886050458E+02  0.00000000000E+00 0. -1.
         11    1    3    3    0    0 -0.13336559286E+02  0.27819739918E+01  0.38881140427E+01  0.14167590619E+02  0.51100000000E-03 0. -1.
        -11    1    3    3    0    0  0.23829684219E+01  0.19492852589E+01 -0.18538050154E+01  0.35937229744E+01  0.51100000000E-03 0.  1.
        -12    1    3    3    0    0  0.41072945850E+02  0.57282287042E+01 -0.24134933354E+01  0.41540635948E+02  0.00000000000E+00 0.  1.
</event>
<event>
 7    1  0.5634483E-012  0.5930192E+02  0.7816164E-02  0.1266605E+00
        -11   -1    0    0    0    0  0.00000000000E+00  0.00000000000E+00  0.45593999997E+02  0.45594000000E+02  0.51100000000E-03 0.  1.
         11   -1    0    0    0    0 -0.00000000000E+00 -0.00000000000E+00 -0.45593999997E+02  0.45594000000E+02  0.51100000000E-03 0. -1.
    9900012    2    1    2    0    0 -0.28528787974E+02  0.13833237301E+02 -0.33870096070E+01  0.59301921038E+02  0.49999958073E+02 0.  0.
         12    1    1    2    0    0  0.28528787974E+02 -0.13833237301E+02  0.33870096070E+01  0.31886078962E+02  0.00000000000E+00 0. -1.
         11    1    3    3    0    0 -0.32225574662E+01 -0.47084881564E+01  0.68485289406E+01  0.89138704418E+01  0.51100000000E-03 0. -1.
        -11    1    3    3    0    0 -0.33204623387E+02  0.22787181101E+02 -0.95903220126E+01  0.41397788750E+02  0.51100000000E-03 0.  1.
         12    1    3    3    0    0  0.78983928796E+01 -0.42454556436E+01 -0.64521653493E+00  0.89902618471E+01  0.00000000000E+00 0. -1.
</event>
<event>
 7    1  0.5634483E-012  0.5930195E+02  0.7816164E-02  0.1266605E+00
        -11   -1    0    0    0    0  0.00000000000E+00  0.00000000000E+00  0.45593999997E+02  0.45594000000E+02  0.51100000000E-03 0.  1.
         11   -1    0    0    0    0 -0.00000000000E+00 -0.00000000000E+00 -0.45593999997E+02  0.45594000000E+02  0.51100000000E-03 0. -1.
    9900012    2    1    2    0    0 -0.37024996959E+01 -0.93412105235E+01  0.30261413815E+02  0.59301954712E+02  0.50000019485E+02 0.  0.
         12    1    1    2    0    0  0.37024996959E+01  0.93412105235E+01 -0.30261413815E+02  0.31886045288E+02  0.00000000000E+00 0. -1.
         11    1    3    3    0    0  0.15587087939E+01 -0.75984593185E+00  0.29516233211E+00  0.17589940329E+01  0.51100000000E-03 0. -1.
        -11    1    3    3    0    0  0.15308205340E+02 -0.13450427966E+02  0.30166342316E+02  0.36404166962E+02  0.51100000000E-03 0.  1.
         12    1    3    3    0    0 -0.20569413830E+02  0.48690633746E+01 -0.20009083324E+00  0.21138793717E+02  0.00000000000E+00 0. -1.
</event>
<event>
 7    1  0.5634483E-012  0.5930195E+02  0.7816164E-02  0.1266605E+00
        -11   -1    0    0    0    0  0.00000000000E+00  0.00000000000E+00  0.45593999997E+02  0.45594000000E+02  0.51100000000E-03 0.  1.
         11   -1    0    0    0    0 -0.00000000000E+00 -0.00000000000E+00 -0.45593999997E+02  0.45594000000E+02  0.51100000000E-03 0. -1.
    9900012    2    1    2    0    0  0.19236126364E+02 -0.25390929625E+02 -0.14114986247E+01  0.59301949867E+02  0.50000010649E+02 0.  0.
         12    1    1    2    0    0 -0.19236126364E+02  0.25390929625E+02  0.14114986247E+01  0.31886050133E+02  0.00000000000E+00 0. -1.
         11    1    3    3    0    0 -0.57397486584E+01  0.47478376960E+01 -0.36860384678E+00  0.74580524607E+01  0.51100000000E-03 0. -1.
        -11    1    3    3    0    0 -0.70758011587E+00 -0.24617315938E+02 -0.54058487725E+01  0.25213808019E+02  0.51100000000E-03 0.  1.
        -12    1    3    3    0    0  0.25683455139E+02 -0.55214513833E+01  0.43629539946E+01  0.26630089388E+02  0.00000000000E+00 0.  1.
</event>
<event>
 7    1  0.5634483E-012  0.5930192E+02  0.7816164E-02  0.1266605E+00
        -11   -1    0    0    0    0  0.00000000000E+00  0.00000000000E+00  0.45593999997E+02  0.45594000000E+02  0.51100000000E-03 0. -1.
         11   -1    0    0    0    0 -0.00000000000E+00 -0.00000000000E+00 -0.45593999997E+02  0.45594000000E+02  0.51100000000E-03 0.  1.
    9900012    2    1    2    0    0  0.22977721272E+02 -0.16485703091E+02 -0.14729833405E+02  0.59301920382E+02  0.49999956876E+02 0.  0.
         12    1    1    2    0    0 -0.22977721272E+02  0.16485703091E+02  0.14729833405E+02  0.31886079618E+02  0.00000000000E+00 0. -1.
         11    1    3    3    0    0  0.94608171099E+01 -0.42572871720E+01  0.56938582680E+01  0.11834338878E+02  0.51100000000E-03 0. -1.
        -11    1    3    3    0    0  0.46461019082E+01 -0.43140295185E+01  0.11648961305E+02  0.13262556819E+02  0.51100000000E-03 0.  1.
        -12    1    3    3    0    0  0.88708022541E+01 -0.79143864006E+01 -0.32072652977E+02  0.34205024685E+02  0.00000000000E+00 0.  1.
</event>
<event>
 7    1  0.5634483E-012  0.5930196E+02  0.7816164E-02  0.1266605E+00
        -11   -1    0    0    0    0  0.00000000000E+00  0.00000000000E+00  0.45593999997E+02  0.45594000000E+02  0.51100000000E-03 0. -1.
         11   -1    0    0    0    0 -0.00000000000E+00 -0.00000000000E+00 -0.45593999997E+02  0.45594000000E+02  0.51100000000E-03 0.  1.
    9900012    2    1    2    0    0 -0.49579165772E+01 -0.83490840643E+01 -0.30371559966E+02  0.59301956089E+02  0.50000021997E+02 0.  0.
         12    1    1    2    0    0  0.49579165772E+01  0.83490840643E+01  0.30371559966E+02  0.31886043911E+02  0.00000000000E+00 0. -1.
         11    1    3    3    0    0  0.22410533102E+01  0.12353976392E+01  0.80402692923E+01  0.84376808319E+01  0.51100000000E-03 0. -1.
        -11    1    3    3    0    0 -0.19066787581E+02 -0.19957013910E+01 -0.20337531134E+02  0.27948888808E+02  0.51100000000E-03 0.  1.
         12    1    3    3    0    0  0.11867817694E+02 -0.75887803125E+01 -0.18074298124E+02  0.22915386449E+02  0.00000000000E+00 0. -1.
</event>
<event>
 7    1  0.5634483E-012  0.5930196E+02  0.7816164E-02  0.1266605E+00
        -11   -1    0    0    0    0  0.00000000000E+00  0.00000000000E+00  0.45593999997E+02  0.45594000000E+02  0.51100000000E-03 0.  1.
         11   -1    0    0    0    0 -0.00000000000E+00 -0.00000000000E+00 -0.45593999997E+02  0.45594000000E+02  0.51100000000E-03 0. -1.
    9900012    2    1    2    0    0 -0.16826184572E+02 -0.26935496539E+02  0.28421696246E+01  0.59301962472E+02  0.50000033638E+02 0.  0.
         12    1    1    2    0    0  0.16826184572E+02  0.26935496539E+02 -0.28421696246E+01  0.31886037528E+02  0.00000000000E+00 0. -1.
         11    1    3    3    0    0 -0.91727947390E+01  0.80955577951E+01 -0.44635580808E+01  0.13023116767E+02  0.51100000000E-03 0. -1.
        -11    1    3    3    0    0  0.41608714893E+01 -0.30072830418E+01  0.10808750219E+02  0.11966022080E+02  0.51100000000E-03 0.  1.
        -12    1    3    3    0    0 -0.11814261322E+02 -0.32023771292E+02 -0.35030225140E+01  0.34312823625E+02  0.00000000000E+00 0.  1.
</event>
<event>
 7    1  0.5634483E-012  0.5930193E+02  0.7816164E-02  0.1266605E+00
        -11   -1    0    0    0    0  0.00000000000E+00  0.00000000000E+00  0.45593999997E+02  0.45594000000E+02  0.51100000000E-03 0.  1.
         11   -1    0    0    0    0 -0.00000000000E+00 -0.00000000000E+00 -0.45593999997E+02  0.45594000000E+02  0.51100000000E-03 0. -1.
    9900012    2    1    2    0    0  0.67301577585E+01 -0.27010604164E+02 -0.15551653899E+02  0.59301926241E+02  0.49999967562E+02 0.  0.
         12    1    1    2    0    0 -0.67301577585E+01  0.27010604164E+02  0.15551653899E+02  0.31886073759E+02  0.00000000000E+00 0. -1.
         11    1    3    3    0    0  0.25789313978E+01 -0.26599810333E+02 -0.16571696734E+02  0.31445539109E+02  0.51100000000E-03 0. -1.
        -11    1    3    3    0    0  0.55334165903E+01 -0.13497195909E+02 -0.58821767869E+00  0.14599280696E+02  0.51100000000E-03 0.  1.
        -12    1    3    3    0    0 -0.13821902295E+01  0.13086402078E+02  0.16082605133E+01  0.13257106436E+02  0.00000000000E+00 0.  1.
</event>
<event>
 7    1  0.5634483E-012  0.5930198E+02  0.7816164E-02  0.1266605E+00
        -11   -1    0    0    0    0  0.00000000000E+00  0.00000000000E+00  0.45593999997E+02  0.45594000000E+02  0.51100000000E-03 0. -1.
         11   -1    0    0    0    0 -0.00000000000E+00 -0.00000000000E+00 -0.45593999997E+02  0.45594000000E+02  0.51100000000E-03 0.  1.
    9900012    2    1    2    0    0  0.17360204584E+02 -0.24505779755E+01 -0.26633372121E+02  0.59301975692E+02  0.50000057749E+02 0.  0.
         12    1    1    2    0    0 -0.17360204584E+02  0.24505779755E+01  0.26633372121E+02  0.31886024308E+02  0.00000000000E+00 0. -1.
         11    1    3    3    0    0 -0.16583727707E+01  0.73891506235E+01 -0.94508639531E+01  0.12110680282E+02  0.51100000000E-03 0. -1.
        -11    1    3    3    0    0  0.21539171631E+02 -0.14405051686E+02 -0.26152407009E+02  0.36815619257E+02  0.51100000000E-03 0.  1.
         12    1    3    3    0    0 -0.25205942762E+01  0.45653230873E+01  0.89698988417E+01  0.10375676153E+02  0.00000000000E+00 0. -1.
</event>
<event>
 7    1  0.5634483E-012  0.5930195E+02  0.7816164E-02  0.1266605E+00
        -11   -1    0    0    0    0  0.00000000000E+00  0.00000000000E+00  0.45593999997E+02  0.45594000000E+02  0.51100000000E-03 0. -1.
         11   -1    0    0    0    0 -0.00000000000E+00 -0.00000000000E+00 -0.45593999997E+02  0.45594000000E+02  0.51100000000E-03 0.  1.
    9900012    2    1    2    0    0 -0.25270014495E+02  0.55268575747E+01 -0.18644038364E+02  0.59301953620E+02  0.50000017494E+02 0.  0.
         12    1    1    2    0    0  0.25270014495E+02 -0.55268575747E+01  0.18644038364E+02  0.31886046380E+02  0.00000000000E+00 0. -1.
         11    1    3    3    0    0 -0.22820789854E+02 -0.99552376878E+01  0.29934796721E+01  0.25077003963E+02  0.51100000000E-03 0. -1.
        -11    1    3    3    0    0 -0.71794755812E+01  0.11622495722E+02 -0.21823440254E+01  0.13834373933E+02  0.51100000000E-03 0.  1.
         12    1    3    3    0    0  0.47302509398E+01  0.38595995407E+01 -0.19455174010E+02  0.20390575724E+02  0.00000000000E+00 0. -1.
</event>
<event>
 7    1  0.5634483E-012  0.5930196E+02  0.7816164E-02  0.1266605E+00
        -11   -1    0    0    0    0  0.00000000000E+00  0.00000000000E+00  0.45593999997E+02  0.45594000000E+02  0.51100000000E-03 0. -1.
         11   -1    0    0    0    0 -0.00000000000E+00 -0.00000000000E+00 -0.45593999997E+02  0.45594000000E+02  0.51100000000E-03 0.  1.
    9900012    2    1    2    0    0  0.10195817952E+01  0.14332409809E+02 -0.28465098566E+02  0.59301963019E+02  0.50000034635E+02 0.  0.
         12    1    1    2    0    0 -0.10195817952E+01 -0.14332409809E+02  0.28465098566E+02  0.31886036981E+02  0.00000000000E+00 0. -1.
         11    1    3    3    0    0  0.11716846413E+02  0.42112212968E+01 -0.10510890900E+02  0.16294100235E+02  0.51100000000E-03 0. -1.
        -11    1    3    3    0    0 -0.96511940600E+01  0.91694322582E+01 -0.28980153465E+02  0.31891587133E+02  0.51100000000E-03 0.  1.
        -12    1    3    3    0    0 -0.10460705576E+01  0.95175625442E+00  0.11025945800E+02  0.11116275651E+02  0.00000000000E+00 0.  1.
</event>
<event>
 7    1  0.5634483E-012  0.5930195E+02  0.7816164E-02  0.1266605E+00
        -11   -1    0    0    0    0  0.00000000000E+00  0.00000000000E+00  0.45593999997E+02  0.45594000000E+02  0.51100000000E-03 0.  1.
         11   -1    0    0    0    0 -0.00000000000E+00 -0.00000000000E+00 -0.45593999997E+02  0.45594000000E+02  0.51100000000E-03 0. -1.
    9900012    2    1    2    0    0  0.11886385621E+02  0.29091519167E+02  0.53960851637E+01  0.59301946847E+02  0.50000005142E+02 0.  0.
         12    1    1    2    0    0 -0.11886385621E+02 -0.29091519167E+02 -0.53960851637E+01  0.31886053153E+02  0.00000000000E+00 0. -1.
         11    1    3    3    0    0 -0.13134116727E+02  0.86291570719E+01  0.84999778607E+01  0.17866644841E+02  0.51100000000E-03 0. -1.
        -11    1    3    3    0    0  0.12307253140E+02 -0.39528874869E+01  0.29310253399E+01  0.13254610863E+02  0.51100000000E-03 0.  1.
        -12    1    3    3    0    0  0.12713249208E+02  0.24415249582E+02 -0.60349180369E+01  0.28180691143E+02  0.00000000000E+00 0.  1.
</event>
<event>
 7    1  0.5634483E-012  0.5930193E+02  0.7816164E-02  0.1266605E+00
        -11   -1    0    0    0    0  0.00000000000E+00  0.00000000000E+00  0.45593999997E+02  0.45594000000E+02  0.51100000000E-03 0.  1.
         11   -1    0    0    0    0 -0.00000000000E+00 -0.00000000000E+00 -0.45593999997E+02  0.45594000000E+02  0.51100000000E-03 0. -1.
    9900012    2    1    2    0    0 -0.15756137066E+02  0.73763715392E+01  0.26721798964E+02  0.59301933259E+02  0.49999980361E+02 0.  0.
         12    1    1    2    0    0  0.15756137066E+02 -0.73763715392E+01 -0.26721798964E+02  0.31886066741E+02  0.00000000000E+00 0. -1.
         11    1    3    3    0    0  0.41135504744E+01 -0.10466426460E+02  0.73321731081E+01  0.13424907564E+02  0.51100000000E-03 0. -1.
        -11    1    3    3    0    0  0.37182628966E+01  0.13134721252E+02  0.16856578424E+02  0.21690795692E+02  0.51100000000E-03 0.  1.
         12    1    3    3    0    0 -0.23587950437E+02  0.47080767476E+01  0.25330474314E+01  0.24186230003E+02  0.00000000000E+00 0. -1.
</event>
<event>
 7    1  0.5634483E-012  0.5930193E+02  0.7816164E-02  0.1266605E+00
        -11   -1    0    0    0    0  0.00000000000E+00  0.00000000000E+00  0.45593999997E+02  0.45594000000E+02  0.51100000000E-03 0.  1.
         11   -1    0    0    0    0 -0.00000000000E+00 -0.00000000000E+00 -0.45593999997E+02  0.45594000000E+02  0.51100000000E-03 0. -1.
    9900012    2    1    2    0    0  0.68100041307E+01 -0.30664495020E+02  0.54803189239E+01  0.59301932406E+02  0.49999978806E+02 0.  0.
         12    1    1    2    0    0 -0.68100041307E+01  0.30664495020E+02 -0.54803189239E+01  0.31886067594E+02  0.00000000000E+00 0. -1.
         11    1    3    3    0    0 -0.17016962185E+02 -0.16420267385E+02  0.20199565426E+01  0.23733571322E+02  0.51100000000E-03 0. -1.
        -11    1    3    3    0    0  0.69559900357E+01 -0.99789975221E+01  0.11188966472E+02  0.16527527338E+02  0.51100000000E-03 0.  1.
        -12    1    3    3    0    0  0.16870976280E+02 -0.42652301123E+01 -0.77286040911E+01  0.19040833746E+02  0.00000000000E+00 0.  1.
</event>
<event>
 7    1  0.5634483E-012  0.5930194E+02  0.7816164E-02  0.1266605E+00
        -11   -1    0    0    0    0  0.00000000000E+00  0.00000000000E+00  0.45593999997E+02  0.45594000000E+02  0.51100000000E-03 0.  1.
         11   -1    0    0    0    0 -0.00000000000E+00 -0.00000000000E+00 -0.45593999997E+02  0.45594000000E+02  0.51100000000E-03 0. -1.
    9900012    2    1    2    0    0  0.21667049426E+02  0.12828869892E+02  0.19562198004E+02  0.59301944674E+02  0.50000001178E+02 0.  0.
         12    1    1    2    0    0 -0.21667049426E+02 -0.12828869892E+02 -0.19562198004E+02  0.31886055326E+02  0.00000000000E+00 0. -1.
         11    1    3    3    0    0  0.86714178263E+01 -0.26576880620E+00 -0.50473118430E+01  0.10036905762E+02  0.51100000000E-03 0. -1.
        -11    1    3    3    0    0  0.23665694975E+02  0.17753293346E+02  0.11523911614E+02  0.31749725706E+02  0.51100000000E-03 0.  1.
        -12    1    3    3    0    0 -0.10670063375E+02 -0.46586546480E+01  0.13085598233E+02  0.17515313205E+02  0.00000000000E+00 0.  1.
</event>
<event>
 7    1  0.5634483E-012  0.5930196E+02  0.7816164E-02  0.1266605E+00
        -11   -1    0    0    0    0  0.00000000000E+00  0.00000000000E+00  0.45593999997E+02  0.45594000000E+02  0.51100000000E-03 0.  1.
         11   -1    0    0    0    0 -0.00000000000E+00 -0.00000000000E+00 -0.45593999997E+02  0.45594000000E+02  0.51100000000E-03 0. -1.
    9900012    2    1    2    0    0 -0.19756527802E+02  0.10050447970E+02 -0.22921341051E+02  0.59301956490E+02  0.50000022727E+02 0.  0.
         12    1    1    2    0    0  0.19756527802E+02 -0.10050447970E+02  0.22921341051E+02  0.31886043510E+02  0.00000000000E+00 0. -1.
         11    1    3    3    0    0 -0.13662245970E+02  0.14181974296E+02 -0.63142440566E-04  0.19692266506E+02  0.51100000000E-03 0. -1.
        -11    1    3    3    0    0 -0.18940277315E+02 -0.26256793204E+01 -0.11232281224E+02  0.22176393720E+02  0.51100000000E-03 0.  1.
        -12    1    3    3    0    0  0.12845995483E+02 -0.15058470050E+01 -0.11688996684E+02  0.17433296264E+02  0.00000000000E+00 0.  1.
</event>
<event>
 7    1  0.5634483E-012  0.5930196E+02  0.7816164E-02  0.1266605E+00
        -11   -1    0    0    0    0  0.00000000000E+00  0.00000000000E+00  0.45593999997E+02  0.45594000000E+02  0.51100000000E-03 0.  1.
         11   -1    0    0    0    0 -0.00000000000E+00 -0.00000000000E+00 -0.45593999997E+02  0.45594000000E+02  0.51100000000E-03 0. -1.
    9900012    2    1    2    0    0 -0.23165765561E+02 -0.19486353369E+02  0.10017417416E+02  0.59301963663E+02  0.50000035809E+02 0.  0.
         12    1    1    2    0    0  0.23165765561E+02  0.19486353369E+02 -0.10017417416E+02  0.31886036337E+02  0.00000000000E+00 0. -1.
         11    1    3    3    0    0 -0.22924659592E+02 -0.87502301610E+01  0.14680243646E+01  0.24581733891E+02  0.51100000000E-03 0. -1.
        -11    1    3    3    0    0 -0.72901529596E+01 -0.66662681250E+00  0.17858899253E+02  0.19301062257E+02  0.51100000000E-03 0.  1.
        -12    1    3    3    0    0  0.70490469910E+01 -0.10069496395E+02 -0.93095062010E+01  0.15419167514E+02  0.00000000000E+00 0.  1.
</event>
<event>
 7    1  0.5634483E-012  0.5930185E+02  0.7816164E-02  0.1266605E+00
        -11   -1    0    0    0    0  0.00000000000E+00  0.00000000000E+00  0.45593999997E+02  0.45594000000E+02  0.51100000000E-03 0. -1.
         11   -1    0    0    0    0 -0.00000000000E+00 -0.00000000000E+00 -0.45593999997E+02  0.45594000000E+02  0.51100000000E-03 0.  1.
    9900012    2    1    2    0    0  0.16017719896E+02 -0.26338996542E+02 -0.81496405838E+01  0.59301847345E+02  0.49999823673E+02 0.  0.
         12    1    1    2    0    0 -0.16017719896E+02  0.26338996542E+02  0.81496405838E+01  0.31886152655E+02  0.00000000000E+00 0. -1.
         11    1    3    3    0    0 -0.89807358457E+00 -0.14156880726E+02  0.42469345330E+01  0.14807439389E+02  0.51100000000E-03 0. -1.
        -11    1    3    3    0    0 -0.26574083710E+01 -0.14927405212E+02 -0.18396053478E+02  0.23839128118E+02  0.51100000000E-03 0.  1.
        -12    1    3    3    0    0  0.19573201852E+02  0.27452893962E+01  0.59994783608E+01  0.20655279838E+02  0.00000000000E+00 0.  1.
</event>
<event>
 7    1  0.5634483E-012  0.5930195E+02  0.7816164E-02  0.1266605E+00
        -11   -1    0    0    0    0  0.00000000000E+00  0.00000000000E+00  0.45593999997E+02  0.45594000000E+02  0.51100000000E-03 0. -1.
         11   -1    0    0    0    0 -0.00000000000E+00 -0.00000000000E+00 -0.45593999997E+02  0.45594000000E+02  0.51100000000E-03 0.  1.
    9900012    2    1    2    0    0 -0.27817987218E+02  0.15573552841E+02  0.58682297475E+00  0.59301947843E+02  0.50000006958E+02 0.  0.
         12    1    1    2    0    0  0.27817987218E+02 -0.15573552841E+02 -0.58682297475E+00  0.31886052157E+02  0.00000000000E+00 0. -1.
         11    1    3    3    0    0  0.50240722791E+00 -0.15521607919E+01 -0.18086759226E+02  0.18160189308E+02  0.51100000000E-03 0. -1.
        -11    1    3    3    0    0  0.61176905026E+00  0.37671125892E+01 -0.65302656191E+00  0.38719300849E+01  0.51100000000E-03 0.  1.
        -12    1    3    3    0    0 -0.28932163496E+02  0.13358601044E+02  0.19326608763E+02  0.37269828450E+02  0.00000000000E+00 0.  1.
</event>
<event>
 7    1  0.5634483E-012  0.5930189E+02  0.7816164E-02  0.1266605E+00
        -11   -1    0    0    0    0  0.00000000000E+00  0.00000000000E+00  0.45593999997E+02  0.45594000000E+02  0.51100000000E-03 0. -1.
         11   -1    0    0    0    0 -0.00000000000E+00 -0.00000000000E+00 -0.45593999997E+02  0.45594000000E+02  0.51100000000E-03 0.  1.
    9900012    2    1    2    0    0  0.16773477846E+02 -0.14997457815E+02 -0.22593149909E+02  0.59301894518E+02  0.49999909706E+02 0.  0.
         12    1    1    2    0    0 -0.16773477846E+02  0.14997457815E+02  0.22593149909E+02  0.31886105482E+02  0.00000000000E+00 0. -1.
         11    1    3    3    0    0  0.59009326286E+01  0.78494113672E+01  0.30946068902E+01  0.10296157379E+02  0.51100000000E-03 0. -1.
        -11    1    3    3    0    0  0.11731054624E+02 -0.65751003035E+01  0.49290930619E+01  0.14322902822E+02  0.51100000000E-03 0.  1.
        -12    1    3    3    0    0 -0.85850940580E+00 -0.16271768879E+02 -0.30616849861E+02  0.34682834317E+02  0.00000000000E+00 0.  1.
</event>
<event>
 7    1  0.5634483E-012  0.5930195E+02  0.7816164E-02  0.1266605E+00
        -11   -1    0    0    0    0  0.00000000000E+00  0.00000000000E+00  0.45593999997E+02  0.45594000000E+02  0.51100000000E-03 0.  1.
         11   -1    0    0    0    0 -0.00000000000E+00 -0.00000000000E+00 -0.45593999997E+02  0.45594000000E+02  0.51100000000E-03 0. -1.
    9900012    2    1    2    0    0  0.21878580251E+02 -0.18687592097E+01 -0.23120464118E+02  0.59301946688E+02  0.50000004851E+02 0.  0.
         12    1    1    2    0    0 -0.21878580251E+02  0.18687592097E+01  0.23120464118E+02  0.31886053312E+02  0.00000000000E+00 0. -1.
         11    1    3    3    0    0  0.12303917158E+02 -0.56825312476E+01 -0.20517950539E+02  0.24589913245E+02  0.51100000000E-03 0. -1.
        -11    1    3    3    0    0 -0.10510698101E+02 -0.26420754603E+01 -0.73399170158E+01  0.13089297895E+02  0.51100000000E-03 0.  1.
        -12    1    3    3    0    0  0.20085361195E+02  0.64558474982E+01  0.47374034368E+01  0.21622735548E+02  0.00000000000E+00 0.  1.
</event>
<event>
 7    1  0.5634483E-012  0.5930194E+02  0.7816164E-02  0.1266605E+00
        -11   -1    0    0    0    0  0.00000000000E+00  0.00000000000E+00  0.45593999997E+02  0.45594000000E+02  0.51100000000E-03 0.  1.
         11   -1    0    0    0    0 -0.00000000000E+00 -0.00000000000E+00 -0.45593999997E+02  0.45594000000E+02  0.51100000000E-03 0. -1.
    9900012    2    1    2    0    0  0.23680763959E+02 -0.14867264298E+02 -0.15326670541E+02  0.59301937853E+02  0.49999988739E+02 0.  0.
         12    1    1    2    0    0 -0.23680763959E+02  0.14867264298E+02  0.15326670541E+02  0.31886062147E+02  0.00000000000E+00 0. -1.
         11    1    3    3    0    0  0.47608614242E+01  0.10860572823E+01 -0.12162982771E+02  0.13106619399E+02  0.51100000000E-03 0. -1.
        -11    1    3    3    0    0  0.12453320633E+02 -0.28825470473E+02 -0.45295596122E+01  0.31725539449E+02  0.51100000000E-03 0.  1.
         12    1    3    3    0    0  0.64665819012E+01  0.12872148892E+02  0.13658718421E+01  0.14469779006E+02  0.00000000000E+00 0. -1.
</event>
<event>
 7    1  0.5634483E-012  0.5930193E+02  0.7816164E-02  0.1266605E+00
        -11   -1    0    0    0    0  0.00000000000E+00  0.00000000000E+00  0.45593999997E+02  0.45594000000E+02  0.51100000000E-03 0.  1.
         11   -1    0    0    0    0 -0.00000000000E+00 -0.00000000000E+00 -0.45593999997E+02  0.45594000000E+02  0.51100000000E-03 0. -1.
    9900012    2    1    2    0    0  0.19961380357E+02 -0.23619737473E+02  0.77699951868E+01  0.59301928915E+02  0.49999972438E+02 0.  0.
         12    1    1    2    0    0 -0.19961380357E+02  0.23619737473E+02 -0.77699951868E+01  0.31886071085E+02  0.00000000000E+00 0. -1.
         11    1    3    3    0    0  0.81275205395E+01 -0.10099903202E+02  0.12985278664E+02  0.18348899069E+02  0.51100000000E-03 0.  1.
        -11    1    3    3    0    0  0.97703162089E+01  0.10584999344E+02  0.41809836211E+01  0.14999397129E+02  0.51100000000E-03 0. -1.
        -12    1    3    3    0    0  0.20635436088E+01 -0.24104833614E+02 -0.93962670986E+01  0.25953632717E+02  0.00000000000E+00 0.  1.
</event>
<event>
 7    1  0.5634483E-012  0.5930194E+02  0.7816164E-02  0.1266605E+00
        -11   -1    0    0    0    0  0.00000000000E+00  0.00000000000E+00  0.45593999997E+02  0.45594000000E+02  0.51100000000E-03 0. -1.
         11   -1    0    0    0    0 -0.00000000000E+00 -0.00000000000E+00 -0.45593999997E+02  0.45594000000E+02  0.51100000000E-03 0.  1.
    9900012    2    1    2    0    0  0.20250545399E+02  0.23070638984E+01 -0.24521698020E+02  0.59301940247E+02  0.49999993105E+02 0.  0.
         12    1    1    2    0    0 -0.20250545399E+02 -0.23070638984E+01  0.24521698020E+02  0.31886059753E+02  0.00000000000E+00 0. -1.
         11    1    3    3    0    0 -0.95437264542E+01 -0.31731165725E+01 -0.46618793551E+01  0.11085328267E+02  0.51100000000E-03 0. -1.
        -11    1    3    3    0    0  0.11366943081E+02  0.79433688837E+00 -0.25875982770E+02  0.28273748436E+02  0.51100000000E-03 0.  1.
        -12    1    3    3    0    0  0.18427328772E+02  0.46858435826E+01  0.60161641044E+01  0.19942863543E+02  0.00000000000E+00 0.  1.
</event>
<event>
 7    1  0.5634483E-012  0.5930196E+02  0.7816164E-02  0.1266605E+00
        -11   -1    0    0    0    0  0.00000000000E+00  0.00000000000E+00  0.45593999997E+02  0.45594000000E+02  0.51100000000E-03 0.  1.
         11   -1    0    0    0    0 -0.00000000000E+00 -0.00000000000E+00 -0.45593999997E+02  0.45594000000E+02  0.51100000000E-03 0. -1.
    9900012    2    1    2    0    0 -0.24862898374E+02 -0.13798375303E+02  0.14427779932E+02  0.59301957437E+02  0.50000024455E+02 0.  0.
         12    1    1    2    0    0  0.24862898374E+02  0.13798375303E+02 -0.14427779932E+02  0.31886042563E+02  0.00000000000E+00 0. -1.
         11    1    3    3    0    0  0.10691134328E+01 -0.58548057272E+01 -0.53654950676E+01  0.80131324222E+01  0.51100000000E-03 0. -1.
        -11    1    3    3    0    0 -0.32794928577E+01  0.33082018354E+01 -0.10700533038E+02  0.11670504717E+02  0.51100000000E-03 0.  1.
        -12    1    3    3    0    0 -0.22652518949E+02 -0.11251771411E+02  0.30493808037E+02  0.39618320298E+02  0.00000000000E+00 0.  1.
</event>
<event>
 7    1  0.5634483E-012  0.5930190E+02  0.7816164E-02  0.1266605E+00
        -11   -1    0    0    0    0  0.00000000000E+00  0.00000000000E+00  0.45593999997E+02  0.45594000000E+02  0.51100000000E-03 0.  1.
         11   -1    0    0    0    0 -0.00000000000E+00 -0.00000000000E+00 -0.45593999997E+02  0.45594000000E+02  0.51100000000E-03 0. -1.
    9900012    2    1    2    0    0 -0.30586235354E+01  0.18538196537E+02  0.25762441514E+02  0.59301901123E+02  0.49999921753E+02 0.  0.
         12    1    1    2    0    0  0.30586235354E+01 -0.18538196537E+02 -0.25762441514E+02  0.31886098877E+02  0.00000000000E+00 0. -1.
         11    1    3    3    0    0  0.44478424443E+01 -0.51529543066E+01 -0.16588420463E+01  0.70062827299E+01  0.51100000000E-03 0. -1.
        -11    1    3    3    0    0 -0.14770683688E+02 -0.43632040024E+01  0.11576731531E+02  0.19267365128E+02  0.51100000000E-03 0.  1.
         12    1    3    3    0    0  0.72642177081E+01  0.28054354846E+02  0.15844552030E+02  0.33028253266E+02  0.00000000000E+00 0. -1.
</event>
<event>
 7    1  0.5634483E-012  0.5930193E+02  0.7816164E-02  0.1266605E+00
        -11   -1    0    0    0    0  0.00000000000E+00  0.00000000000E+00  0.45593999997E+02  0.45594000000E+02  0.51100000000E-03 0. -1.
         11   -1    0    0    0    0 -0.00000000000E+00 -0.00000000000E+00 -0.45593999997E+02  0.45594000000E+02  0.51100000000E-03 0.  1.
    9900012    2    1    2    0    0  0.90276702567E+01 -0.58531419433E+01 -0.30016055961E+02  0.59301925981E+02  0.49999967087E+02 0.  0.
         12    1    1    2    0    0 -0.90276702567E+01  0.58531419433E+01  0.30016055961E+02  0.31886074019E+02  0.00000000000E+00 0. -1.
         11    1    3    3    0    0  0.32751649189E+01  0.12743124364E+01 -0.11309759653E+02  0.11843193872E+02  0.51100000000E-03 0. -1.
        -11    1    3    3    0    0  0.19131386784E+02  0.37897250851E+01 -0.22502930209E+02  0.29778412395E+02  0.51100000000E-03 0.  1.
         12    1    3    3    0    0 -0.13378881446E+02 -0.10917179465E+02  0.37966339004E+01  0.17680319714E+02  0.00000000000E+00 0. -1.
</event>
<event>
 7    1  0.5634483E-012  0.5930194E+02  0.7816164E-02  0.1266605E+00
        -11   -1    0    0    0    0  0.00000000000E+00  0.00000000000E+00  0.45593999997E+02  0.45594000000E+02  0.51100000000E-03 0. -1.
         11   -1    0    0    0    0 -0.00000000000E+00 -0.00000000000E+00 -0.45593999997E+02  0.45594000000E+02  0.51100000000E-03 0.  1.
    9900012    2    1    2    0    0 -0.12114190578E+02 -0.25539406361E+02 -0.14754859823E+02  0.59301940679E+02  0.49999993892E+02 0.  0.
         12    1    1    2    0    0  0.12114190578E+02  0.25539406361E+02  0.14754859823E+02  0.31886059321E+02  0.00000000000E+00 0. -1.
         11    1    3    3    0    0  0.36154781271E+01  0.78009161708E+01  0.48126908019E+01  0.98533226989E+01  0.51100000000E-03 0. -1.
        -11    1    3    3    0    0  0.64226333606E+01 -0.20787563986E+01 -0.84218691475E+00  0.68029939372E+01  0.51100000000E-03 0.  1.
        -12    1    3    3    0    0 -0.22152302066E+02 -0.31261566133E+02 -0.18725363710E+02  0.42645624043E+02  0.00000000000E+00 0.  1.
</event>
<event>
 7    1  0.5634483E-012  0.5930198E+02  0.7816164E-02  0.1266605E+00
        -11   -1    0    0    0    0  0.00000000000E+00  0.00000000000E+00  0.45593999997E+02  0.45594000000E+02  0.51100000000E-03 0. -1.
         11   -1    0    0    0    0 -0.00000000000E+00 -0.00000000000E+00 -0.45593999997E+02  0.45594000000E+02  0.51100000000E-03 0.  1.
    9900012    2    1    2    0    0  0.21435007845E+02 -0.23493921352E+02 -0.23009579566E+01  0.59301979406E+02  0.50000064521E+02 0.  0.
         12    1    1    2    0    0 -0.21435007845E+02  0.23493921352E+02  0.23009579566E+01  0.31886020594E+02  0.00000000000E+00 0. -1.
         11    1    3    3    0    0 -0.72475328958E+01 -0.92719236787E+01  0.15615903205E+00  0.11769438716E+02  0.51100000000E-03 0. -1.
        -11    1    3    3    0    0 -0.12990582281E+01 -0.49332445178E+01 -0.13363525620E+02  0.14304134752E+02  0.51100000000E-03 0.  1.
         12    1    3    3    0    0  0.29981598969E+02 -0.92887531552E+01  0.10906408632E+02  0.33228405938E+02  0.00000000000E+00 0. -1.
</event>
<event>
 7    1  0.5634483E-012  0.5930195E+02  0.7816164E-02  0.1266605E+00
        -11   -1    0    0    0    0  0.00000000000E+00  0.00000000000E+00  0.45593999997E+02  0.45594000000E+02  0.51100000000E-03 0.  1.
         11   -1    0    0    0    0 -0.00000000000E+00 -0.00000000000E+00 -0.45593999997E+02  0.45594000000E+02  0.51100000000E-03 0. -1.
    9900012    2    1    2    0    0  0.22221835811E+02  0.12717520462E+02  0.19004596925E+02  0.59301952616E+02  0.50000015663E+02 0.  0.
         12    1    1    2    0    0 -0.22221835811E+02 -0.12717520462E+02 -0.19004596925E+02  0.31886047384E+02  0.00000000000E+00 0. -1.
         11    1    3    3    0    0  0.12547176475E+02  0.19866955691E+02  0.23803719623E+02  0.33447640187E+02  0.51100000000E-03 0. -1.
        -11    1    3    3    0    0  0.55511216981E+01  0.45275848576E+01  0.60607602933E+01  0.93833252285E+01  0.51100000000E-03 0.  1.
         12    1    3    3    0    0  0.41235376377E+01 -0.11677020087E+02 -0.10859882992E+02  0.16470987200E+02  0.00000000000E+00 0. -1.
</event>
<event>
 7    1  0.5634483E-012  0.5930194E+02  0.7816164E-02  0.1266605E+00
        -11   -1    0    0    0    0  0.00000000000E+00  0.00000000000E+00  0.45593999997E+02  0.45594000000E+02  0.51100000000E-03 0.  1.
         11   -1    0    0    0    0 -0.00000000000E+00 -0.00000000000E+00 -0.45593999997E+02  0.45594000000E+02  0.51100000000E-03 0. -1.
    9900012    2    1    2    0    0 -0.30903826632E+02  0.71623180679E+01  0.32210734263E+01  0.59301943257E+02  0.49999998595E+02 0.  0.
         12    1    1    2    0    0  0.30903826632E+02 -0.71623180679E+01 -0.32210734263E+01  0.31886056743E+02  0.00000000000E+00 0. -1.
         11    1    3    3    0    0 -0.12910596588E+02 -0.73848350615E+01  0.79267273094E+01  0.16853851169E+02  0.51100000000E-03 0. -1.
        -11    1    3    3    0    0 -0.28480635310E+02  0.72065021118E+01 -0.36334286278E+01  0.29602061823E+02  0.51100000000E-03 0.  1.
         12    1    3    3    0    0  0.10487405266E+02  0.73406510176E+01 -0.10722252554E+01  0.12846030265E+02  0.00000000000E+00 0. -1.
</event>
<event>
 7    1  0.5634483E-012  0.5930192E+02  0.7816164E-02  0.1266605E+00
        -11   -1    0    0    0    0  0.00000000000E+00  0.00000000000E+00  0.45593999997E+02  0.45594000000E+02  0.51100000000E-03 0. -1.
         11   -1    0    0    0    0 -0.00000000000E+00 -0.00000000000E+00 -0.45593999997E+02  0.45594000000E+02  0.51100000000E-03 0.  1.
    9900012    2    1    2    0    0  0.28443111484E+02 -0.11720072295E+02 -0.83875700986E+01  0.59301921256E+02  0.49999958470E+02 0.  0.
         12    1    1    2    0    0 -0.28443111484E+02  0.11720072295E+02  0.83875700986E+01  0.31886078744E+02  0.00000000000E+00 0. -1.
         11    1    3    3    0    0  0.17043289245E+02  0.13658303381E+01 -0.20433545263E+02  0.26643366400E+02  0.51100000000E-03 0.  1.
        -11    1    3    3    0    0 -0.51845935364E+01 -0.12616748775E+02  0.39707200123E+01  0.14206652578E+02  0.51100000000E-03 0. -1.
        -12    1    3    3    0    0  0.16584415775E+02 -0.46915385778E+00  0.80752551523E+01  0.18451902279E+02  0.00000000000E+00 0.  1.
</event>
<event>
 7    1  0.5634483E-012  0.5930194E+02  0.7816164E-02  0.1266605E+00
        -11   -1    0    0    0    0  0.00000000000E+00  0.00000000000E+00  0.45593999997E+02  0.45594000000E+02  0.51100000000E-03 0.  1.
         11   -1    0    0    0    0 -0.00000000000E+00 -0.00000000000E+00 -0.45593999997E+02  0.45594000000E+02  0.51100000000E-03 0. -1.
    9900012    2    1    2    0    0  0.20326199159E+02  0.13870565445E+02  0.20277414878E+02  0.59301944864E+02  0.50000001525E+02 0.  0.
         12    1    1    2    0    0 -0.20326199159E+02 -0.13870565445E+02 -0.20277414878E+02  0.31886055136E+02  0.00000000000E+00 0. -1.
         11    1    3    3    0    0  0.49411150494E+01  0.62579963541E+00 -0.73894023630E+01  0.89112014150E+01  0.51100000000E-03 0.  1.
        -11    1    3    3    0    0 -0.66250191378E+01  0.42011094658E+01 -0.54928233878E+01  0.95766021297E+01  0.51100000000E-03 0. -1.
        -12    1    3    3    0    0  0.22010103247E+02  0.90436563436E+01  0.33159640629E+02  0.40814141319E+02  0.00000000000E+00 0.  1.
</event>
<event>
 7    1  0.5634483E-012  0.5930193E+02  0.7816164E-02  0.1266605E+00
        -11   -1    0    0    0    0  0.00000000000E+00  0.00000000000E+00  0.45593999997E+02  0.45594000000E+02  0.51100000000E-03 0.  1.
         11   -1    0    0    0    0 -0.00000000000E+00 -0.00000000000E+00 -0.45593999997E+02  0.45594000000E+02  0.51100000000E-03 0. -1.
    9900012    2    1    2    0    0  0.20730650078E+02  0.59538071050E+01  0.23484333242E+02  0.59301928126E+02  0.49999971000E+02 0.  0.
         12    1    1    2    0    0 -0.20730650078E+02 -0.59538071050E+01 -0.23484333242E+02  0.31886071874E+02  0.00000000000E+00 0. -1.
         11    1    3    3    0    0 -0.59993467846E+01  0.13722273829E+02  0.25359188944E+01  0.15189596630E+02  0.51100000000E-03 0. -1.
        -11    1    3    3    0    0 -0.44806682962E+01  0.18144664046E+01  0.72330920426E+01  0.86997872084E+01  0.51100000000E-03 0.  1.
         12    1    3    3    0    0  0.31210665159E+02 -0.95829331288E+01  0.13715322305E+02  0.35412544288E+02  0.00000000000E+00 0. -1.
</event>
<event>
 7    1  0.5634483E-012  0.5930195E+02  0.7816164E-02  0.1266605E+00
        -11   -1    0    0    0    0  0.00000000000E+00  0.00000000000E+00  0.45593999997E+02  0.45594000000E+02  0.51100000000E-03 0. -1.
         11   -1    0    0    0    0 -0.00000000000E+00 -0.00000000000E+00 -0.45593999997E+02  0.45594000000E+02  0.51100000000E-03 0.  1.
    9900012    2    1    2    0    0 -0.69249822621E+01 -0.17424428319E+02 -0.25790580462E+02  0.59301950979E+02  0.50000012678E+02 0.  0.
         12    1    1    2    0    0  0.69249822621E+01  0.17424428319E+02  0.25790580462E+02  0.31886049021E+02  0.00000000000E+00 0. -1.
         11    1    3    3    0    0 -0.10039314809E+01 -0.10326472813E+02  0.39082011257E+01  0.11086837037E+02  0.51100000000E-03 0. -1.
        -11    1    3    3    0    0  0.15410345176E+02 -0.46866624397E+01 -0.92871473732E+01  0.18592865564E+02  0.51100000000E-03 0.  1.
         12    1    3    3    0    0 -0.21331395957E+02 -0.24112930665E+01 -0.20411634214E+02  0.29622248379E+02  0.00000000000E+00 0. -1.
</event>
<event>
 7    1  0.5634483E-012  0.5930194E+02  0.7816164E-02  0.1266605E+00
        -11   -1    0    0    0    0  0.00000000000E+00  0.00000000000E+00  0.45593999997E+02  0.45594000000E+02  0.51100000000E-03 0.  1.
         11   -1    0    0    0    0 -0.00000000000E+00 -0.00000000000E+00 -0.45593999997E+02  0.45594000000E+02  0.51100000000E-03 0. -1.
    9900012    2    1    2    0    0  0.24300100183E+02  0.69896070804E+01  0.19426043840E+02  0.59301942619E+02  0.49999997431E+02 0.  0.
         12    1    1    2    0    0 -0.24300100183E+02 -0.69896070804E+01 -0.19426043840E+02  0.31886057381E+02  0.00000000000E+00 0. -1.
         11    1    3    3    0    0  0.40867472066E+00  0.78710778538E+01  0.51241002465E+01  0.94009193808E+01  0.51100000000E-03 0. -1.
        -11    1    3    3    0    0 -0.10004396121E+02  0.46027429934E+01  0.10736076372E+02  0.15379743852E+02  0.51100000000E-03 0.  1.
        -12    1    3    3    0    0  0.33895821583E+02 -0.54842137667E+01  0.35658672206E+01  0.34521279387E+02  0.00000000000E+00 0.  1.
</event>
<event>
 7    1  0.5634483E-012  0.5930195E+02  0.7816164E-02  0.1266605E+00
        -11   -1    0    0    0    0  0.00000000000E+00  0.00000000000E+00  0.45593999997E+02  0.45594000000E+02  0.51100000000E-03 0. -1.
         11   -1    0    0    0    0 -0.00000000000E+00 -0.00000000000E+00 -0.45593999997E+02  0.45594000000E+02  0.51100000000E-03 0.  1.
    9900012    2    1    2    0    0  0.12180523987E+02 -0.28817934278E+02 -0.61548273877E+01  0.59301946610E+02  0.50000004709E+02 0.  0.
         12    1    1    2    0    0 -0.12180523987E+02  0.28817934278E+02  0.61548273877E+01  0.31886053390E+02  0.00000000000E+00 0. -1.
         11    1    3    3    0    0  0.43175419185E+01  0.94135907141E+01  0.28128648218E+01  0.10731685195E+02  0.51100000000E-03 0. -1.
        -11    1    3    3    0    0 -0.60206072261E+01 -0.32169244953E+01 -0.84987555614E+01  0.10900695433E+02  0.51100000000E-03 0.  1.
         12    1    3    3    0    0  0.13883589295E+02 -0.35014600497E+02 -0.46893664807E+00  0.37669565981E+02  0.00000000000E+00 0. -1.
</event>
<event>
 7    1  0.5634483E-012  0.5930197E+02  0.7816164E-02  0.1266605E+00
        -11   -1    0    0    0    0  0.00000000000E+00  0.00000000000E+00  0.45593999997E+02  0.45594000000E+02  0.51100000000E-03 0.  1.
         11   -1    0    0    0    0 -0.00000000000E+00 -0.00000000000E+00 -0.45593999997E+02  0.45594000000E+02  0.51100000000E-03 0. -1.
    9900012    2    1    2    0    0  0.34970359298E+01 -0.31638230514E+02 -0.18740913681E+01  0.59301966870E+02  0.50000041658E+02 0.  0.
         12    1    1    2    0    0 -0.34970359298E+01  0.31638230514E+02  0.18740913681E+01  0.31886033130E+02  0.00000000000E+00 0. -1.
         11    1    3    3    0    0  0.48422551863E+01  0.10546300171E+02 -0.10832255123E+01  0.11655267494E+02  0.51100000000E-03 0. -1.
        -11    1    3    3    0    0  0.63633587452E+01 -0.21223886917E+01  0.11393235302E+01  0.68040375254E+01  0.51100000000E-03 0.  1.
        -12    1    3    3    0    0 -0.77085780017E+01 -0.40062141993E+02 -0.19301893861E+01  0.40842661850E+02  0.00000000000E+00 0.  1.
</event>
<event>
 7    1  0.5634483E-012  0.5930195E+02  0.7816164E-02  0.1266605E+00
        -11   -1    0    0    0    0  0.00000000000E+00  0.00000000000E+00  0.45593999997E+02  0.45594000000E+02  0.51100000000E-03 0.  1.
         11   -1    0    0    0    0 -0.00000000000E+00 -0.00000000000E+00 -0.45593999997E+02  0.45594000000E+02  0.51100000000E-03 0. -1.
    9900012    2    1    2    0    0 -0.12570573408E+02 -0.10940840150E+02  0.27184534966E+02  0.59301949126E+02  0.50000009299E+02 0.  0.
         12    1    1    2    0    0  0.12570573408E+02  0.10940840150E+02 -0.27184534966E+02  0.31886050874E+02  0.00000000000E+00 0. -1.
         11    1    3    3    0    0  0.12447791998E+02  0.24774817920E+01  0.72878302868E+01  0.14635501775E+02  0.51100000000E-03 0. -1.
        -11    1    3    3    0    0 -0.24503678729E+02 -0.61922295825E+01  0.25198317327E+02  0.35689342595E+02  0.51100000000E-03 0.  1.
         12    1    3    3    0    0 -0.51468667678E+00 -0.72260923590E+01 -0.53016126477E+01  0.89771047572E+01  0.00000000000E+00 0. -1.
</event>
<event>
 7    1  0.5634483E-012  0.5930195E+02  0.7816164E-02  0.1266605E+00
        -11   -1    0    0    0    0  0.00000000000E+00  0.00000000000E+00  0.45593999997E+02  0.45594000000E+02  0.51100000000E-03 0.  1.
         11   -1    0    0    0    0 -0.00000000000E+00 -0.00000000000E+00 -0.45593999997E+02  0.45594000000E+02  0.51100000000E-03 0. -1.
    9900012    2    1    2    0    0 -0.31457066427E+02 -0.11637153326E+01  0.50812126929E+01  0.59301953145E+02  0.50000016628E+02 0.  0.
         12    1    1    2    0    0  0.31457066427E+02  0.11637153326E+01 -0.50812126929E+01  0.31886046855E+02  0.00000000000E+00 0. -1.
         11    1    3    3    0    0 -0.24980574593E+02 -0.11724887418E+02  0.25587456283E+01  0.27713701871E+02  0.51100000000E-03 0. -1.
        -11    1    3    3    0    0  0.82453906760E+01 -0.41128571263E+01 -0.36411714838E+01  0.99075825093E+01  0.51100000000E-03 0.  1.
         12    1    3    3    0    0 -0.14721882511E+02  0.14674029211E+02  0.61636385485E+01  0.21680668765E+02  0.00000000000E+00 0. -1.
</event>
<event>
 7    1  0.5634483E-012  0.5930194E+02  0.7816164E-02  0.1266605E+00
        -11   -1    0    0    0    0  0.00000000000E+00  0.00000000000E+00  0.45593999997E+02  0.45594000000E+02  0.51100000000E-03 0.  1.
         11   -1    0    0    0    0 -0.00000000000E+00 -0.00000000000E+00 -0.45593999997E+02  0.45594000000E+02  0.51100000000E-03 0. -1.
    9900012    2    1    2    0    0  0.42698876074E+01 -0.23473576924E+02  0.21153721447E+02  0.59301942156E+02  0.49999996586E+02 0.  0.
         12    1    1    2    0    0 -0.42698876074E+01  0.23473576924E+02 -0.21153721447E+02  0.31886057844E+02  0.00000000000E+00 0. -1.
         11    1    3    3    0    0 -0.14544415404E+02 -0.11209188139E+02  0.52647377119E+01  0.19102444388E+02  0.51100000000E-03 0. -1.
        -11    1    3    3    0    0  0.50272518353E-01  0.71739845895E+01 -0.24102398943E+01  0.75682123930E+01  0.51100000000E-03 0.  1.
        -12    1    3    3    0    0  0.18764030493E+02 -0.19438373374E+02  0.18299223629E+02  0.32631285375E+02  0.00000000000E+00 0.  1.
</event>
<event>
 7    1  0.5634483E-012  0.5930197E+02  0.7816164E-02  0.1266605E+00
        -11   -1    0    0    0    0  0.00000000000E+00  0.00000000000E+00  0.45593999997E+02  0.45594000000E+02  0.51100000000E-03 0.  1.
         11   -1    0    0    0    0 -0.00000000000E+00 -0.00000000000E+00 -0.45593999997E+02  0.45594000000E+02  0.51100000000E-03 0. -1.
    9900012    2    1    2    0    0  0.14070748553E+02  0.14954146839E+02  0.24394805154E+02  0.59301968716E+02  0.50000045026E+02 0.  0.
         12    1    1    2    0    0 -0.14070748553E+02 -0.14954146839E+02 -0.24394805154E+02  0.31886031284E+02  0.00000000000E+00 0. -1.
         11    1    3    3    0    0  0.67551544922E+01  0.80901332429E+01 -0.15035696287E+01  0.10646271178E+02  0.51100000000E-03 0. -1.
        -11    1    3    3    0    0  0.62158098669E+01  0.11744406249E+02  0.35458062940E+02  0.37866100911E+02  0.51100000000E-03 0.  1.
         12    1    3    3    0    0  0.10997841943E+01 -0.48803926536E+01 -0.95596881572E+01  0.10789596628E+02  0.00000000000E+00 0. -1.
</event>
<event>
 7    1  0.5634483E-012  0.5930199E+02  0.7816164E-02  0.1266605E+00
        -11   -1    0    0    0    0  0.00000000000E+00  0.00000000000E+00  0.45593999997E+02  0.45594000000E+02  0.51100000000E-03 0. -1.
         11   -1    0    0    0    0 -0.00000000000E+00 -0.00000000000E+00 -0.45593999997E+02  0.45594000000E+02  0.51100000000E-03 0.  1.
    9900012    2    1    2    0    0 -0.26822459923E+02  0.12549855772E+01 -0.17195877001E+02  0.59301991612E+02  0.50000086782E+02 0.  0.
         12    1    1    2    0    0  0.26822459923E+02 -0.12549855772E+01  0.17195877001E+02  0.31886008388E+02  0.00000000000E+00 0. -1.
         11    1    3    3    0    0  0.51540146141E+01 -0.13245011238E+02  0.10454022404E+01  0.14250861569E+02  0.51100000000E-03 0. -1.
        -11    1    3    3    0    0 -0.89894293569E+01 -0.35942985982E+01 -0.11495684639E+02  0.15029291006E+02  0.51100000000E-03 0.  1.
        -12    1    3    3    0    0 -0.22987045180E+02  0.18094295414E+02 -0.67455946025E+01  0.30021839037E+02  0.00000000000E+00 0.  1.
</event>
<event>
 7    1  0.5634483E-012  0.5930195E+02  0.7816164E-02  0.1266605E+00
        -11   -1    0    0    0    0  0.00000000000E+00  0.00000000000E+00  0.45593999997E+02  0.45594000000E+02  0.51100000000E-03 0. -1.
         11   -1    0    0    0    0 -0.00000000000E+00 -0.00000000000E+00 -0.45593999997E+02  0.45594000000E+02  0.51100000000E-03 0.  1.
    9900012    2    1    2    0    0  0.26884352988E+01  0.10887927301E+02 -0.29848709244E+02  0.59301951502E+02  0.50000013631E+02 0.  0.
         12    1    1    2    0    0 -0.26884352988E+01 -0.10887927301E+02  0.29848709244E+02  0.31886048498E+02  0.00000000000E+00 0. -1.
         11    1    3    3    0    0  0.44883156307E+01 -0.12780250195E+02  0.11099590086E+01  0.13590871256E+02  0.51100000000E-03 0. -1.
        -11    1    3    3    0    0 -0.10045913795E+02  0.59029632754E+01 -0.38581072791E+01  0.12273970484E+02  0.51100000000E-03 0.  1.
         12    1    3    3    0    0  0.82460334628E+01  0.17765214220E+02 -0.27100560974E+02  0.33437109762E+02  0.00000000000E+00 0. -1.
</event>
<event>
 7    1  0.5634483E-012  0.5930193E+02  0.7816164E-02  0.1266605E+00
        -11   -1    0    0    0    0  0.00000000000E+00  0.00000000000E+00  0.45593999997E+02  0.45594000000E+02  0.51100000000E-03 0. -1.
         11   -1    0    0    0    0 -0.00000000000E+00 -0.00000000000E+00 -0.45593999997E+02  0.45594000000E+02  0.51100000000E-03 0.  1.
    9900012    2    1    2    0    0  0.23947572303E+02  0.19325759343E+02 -0.83516538277E+01  0.59301932273E+02  0.49999978563E+02 0.  0.
         12    1    1    2    0    0 -0.23947572303E+02 -0.19325759343E+02  0.83516538277E+01  0.31886067727E+02  0.00000000000E+00 0. -1.
         11    1    3    3    0    0  0.18453791172E+02  0.11652151195E+02  0.18011953594E+02  0.28297447033E+02  0.51100000000E-03 0. -1.
        -11    1    3    3    0    0  0.97406164387E+00  0.70322874972E+01 -0.39370182339E+01  0.81180032252E+01  0.51100000000E-03 0.  1.
        -12    1    3    3    0    0  0.45197194879E+01  0.64132065133E+00 -0.22426589188E+02  0.22886482015E+02  0.00000000000E+00 0.  1.
</event>
<event>
 7    1  0.5634483E-012  0.5930195E+02  0.7816164E-02  0.1266605E+00
        -11   -1    0    0    0    0  0.00000000000E+00  0.00000000000E+00  0.45593999997E+02  0.45594000000E+02  0.51100000000E-03 0.  1.
         11   -1    0    0    0    0 -0.00000000000E+00 -0.00000000000E+00 -0.45593999997E+02  0.45594000000E+02  0.51100000000E-03 0. -1.
    9900012    2    1    2    0    0  0.12850174426E+02  0.28039825084E+02  0.80846506239E+01  0.59301947419E+02  0.50000006185E+02 0.  0.
         12    1    1    2    0    0 -0.12850174426E+02 -0.28039825084E+02 -0.80846506239E+01  0.31886052581E+02  0.00000000000E+00 0. -1.
         11    1    3    3    0    0 -0.64305680315E+01  0.63170013831E+01  0.22744394863E+01  0.92967621740E+01  0.51100000000E-03 0. -1.
        -11    1    3    3    0    0  0.12629108244E+02  0.23665091026E+02  0.20501601896E+02  0.33761614133E+02  0.51100000000E-03 0.  1.
        -12    1    3    3    0    0  0.66516342134E+01 -0.19422673252E+01 -0.14691390758E+02  0.16243571112E+02  0.00000000000E+00 0.  1.
</event>
<event>
 7    1  0.5634483E-012  0.5930195E+02  0.7816164E-02  0.1266605E+00
        -11   -1    0    0    0    0  0.00000000000E+00  0.00000000000E+00  0.45593999997E+02  0.45594000000E+02  0.51100000000E-03 0. -1.
         11   -1    0    0    0    0 -0.00000000000E+00 -0.00000000000E+00 -0.45593999997E+02  0.45594000000E+02  0.51100000000E-03 0.  1.
    9900012    2    1    2    0    0  0.85961357460E+00 -0.70975175175E+01 -0.31074204733E+02  0.59301954617E+02  0.50000019312E+02 0.  0.
         12    1    1    2    0    0 -0.85961357460E+00  0.70975175175E+01  0.31074204733E+02  0.31886045383E+02  0.00000000000E+00 0. -1.
         11    1    3    3    0    0 -0.65654622141E+01 -0.14255515997E+01  0.39320010673E+01  0.77844796938E+01  0.51100000000E-03 0. -1.
        -11    1    3    3    0    0  0.55381649957E+01  0.15357839138E+02 -0.11803779598E+02  0.20146059356E+02  0.51100000000E-03 0.  1.
        -12    1    3    3    0    0  0.18869107931E+01 -0.21029805056E+02 -0.23202426202E+02  0.31371415567E+02  0.00000000000E+00 0.  1.
</event>
<event>
 7    1  0.5634483E-012  0.5930194E+02  0.7816164E-02  0.1266605E+00
        -11   -1    0    0    0    0  0.00000000000E+00  0.00000000000E+00  0.45593999997E+02  0.45594000000E+02  0.51100000000E-03 0.  1.
         11   -1    0    0    0    0 -0.00000000000E+00 -0.00000000000E+00 -0.45593999997E+02  0.45594000000E+02  0.51100000000E-03 0. -1.
    9900012    2    1    2    0    0 -0.13703920131E+02 -0.17931157431E+02  0.22525475100E+02  0.59301939374E+02  0.49999991513E+02 0.  0.
         12    1    1    2    0    0  0.13703920131E+02  0.17931157431E+02 -0.22525475100E+02  0.31886060626E+02  0.00000000000E+00 0. -1.
         11    1    3    3    0    0 -0.26120357125E+01 -0.19775772860E+02 -0.31559836857E+01  0.20195646958E+02  0.51100000000E-03 0.  1.
        -11    1    3    3    0    0 -0.94674222086E+01 -0.51355395220E+01  0.29199553707E+02  0.31122657124E+02  0.51100000000E-03 0. -1.
         12    1    3    3    0    0 -0.16244622097E+01  0.69801549509E+01 -0.35180949217E+01  0.79836352927E+01  0.00000000000E+00 0. -1.
</event>
<event>
 7    1  0.5634483E-012  0.5930194E+02  0.7816164E-02  0.1266605E+00
        -11   -1    0    0    0    0  0.00000000000E+00  0.00000000000E+00  0.45593999997E+02  0.45594000000E+02  0.51100000000E-03 0.  1.
         11   -1    0    0    0    0 -0.00000000000E+00 -0.00000000000E+00 -0.45593999997E+02  0.45594000000E+02  0.51100000000E-03 0. -1.
    9900012    2    1    2    0    0  0.18152558844E+01 -0.22300920600E+02  0.22717721901E+02  0.59301935616E+02  0.49999984659E+02 0.  0.
         12    1    1    2    0    0 -0.18152558844E+01  0.22300920600E+02 -0.22717721901E+02  0.31886064384E+02  0.00000000000E+00 0. -1.
         11    1    3    3    0    0  0.93532569039E+01 -0.81020661671E+00 -0.39340965130E+01  0.10179241873E+02  0.51100000000E-03 0. -1.
        -11    1    3    3    0    0 -0.11941764767E+02 -0.12090483193E+02 -0.33982859241E+01  0.17330143597E+02  0.51100000000E-03 0.  1.
        -12    1    3    3    0    0  0.44037637478E+01 -0.94002307905E+01  0.30050104338E+02  0.31792550146E+02  0.00000000000E+00 0.  1.
</event>
<event>
 7    1  0.5634483E-012  0.5930199E+02  0.7816164E-02  0.1266605E+00
        -11   -1    0    0    0    0  0.00000000000E+00  0.00000000000E+00  0.45593999997E+02  0.45594000000E+02  0.51100000000E-03 0.  1.
         11   -1    0    0    0    0 -0.00000000000E+00 -0.00000000000E+00 -0.45593999997E+02  0.45594000000E+02  0.51100000000E-03 0. -1.
    9900012    2    1    2    0    0 -0.24894757707E+01  0.29862515679E+02  0.10897274946E+02  0.59301985298E+02  0.50000075268E+02 0.  0.
         12    1    1    2    0    0  0.24894757707E+01 -0.29862515679E+02 -0.10897274946E+02  0.31886014702E+02  0.00000000000E+00 0. -1.
         11    1    3    3    0    0 -0.17725205557E+02  0.59302064978E-01  0.99288467310E+00  0.17753091252E+02  0.51100000000E-03 0. -1.
        -11    1    3    3    0    0 -0.41311966437E+01  0.93589562436E+01 -0.28711261142E+01  0.10625451195E+02  0.51100000000E-03 0.  1.
        -12    1    3    3    0    0  0.19366926430E+02  0.20444257370E+02  0.12775516387E+02  0.30923442851E+02  0.00000000000E+00 0.  1.
</event>
<event>
 7    1  0.5634483E-012  0.5930188E+02  0.7816164E-02  0.1266605E+00
        -11   -1    0    0    0    0  0.00000000000E+00  0.00000000000E+00  0.45593999997E+02  0.45594000000E+02  0.51100000000E-03 0.  1.
         11   -1    0    0    0    0 -0.00000000000E+00 -0.00000000000E+00 -0.45593999997E+02  0.45594000000E+02  0.51100000000E-03 0. -1.
    9900012    2    1    2    0    0 -0.16648085376E+02 -0.66310372447E+01  0.26374140510E+02  0.59301879363E+02  0.49999882067E+02 0.  0.
         12    1    1    2    0    0  0.16648085376E+02  0.66310372447E+01 -0.26374140510E+02  0.31886120637E+02  0.00000000000E+00 0. -1.
         11    1    3    3    0    0 -0.41667490881E+01 -0.10422146349E+02 -0.23690868948E+01  0.11471508422E+02  0.51100000000E-03 0. -1.
        -11    1    3    3    0    0 -0.32366092581E+01 -0.13292824834E+02  0.24326437763E+02  0.27909683016E+02  0.51100000000E-03 0.  1.
        -12    1    3    3    0    0 -0.92447270303E+01  0.17083933938E+02  0.44167896411E+01  0.19920687925E+02  0.00000000000E+00 0.  1.
</event>
<event>
 7    1  0.5634483E-012  0.5930197E+02  0.7816164E-02  0.1266605E+00
        -11   -1    0    0    0    0  0.00000000000E+00  0.00000000000E+00  0.45593999997E+02  0.45594000000E+02  0.51100000000E-03 0.  1.
         11   -1    0    0    0    0 -0.00000000000E+00 -0.00000000000E+00 -0.45593999997E+02  0.45594000000E+02  0.51100000000E-03 0. -1.
    9900012    2    1    2    0    0 -0.17163261289E+02 -0.14219071437E+02  0.22802620593E+02  0.59301968003E+02  0.50000043725E+02 0.  0.
         12    1    1    2    0    0  0.17163261289E+02  0.14219071437E+02 -0.22802620593E+02  0.31886031997E+02  0.00000000000E+00 0. -1.
         11    1    3    3    0    0  0.24210223684E+01  0.55176381245E+01  0.12903090528E+02  0.14240625871E+02  0.51100000000E-03 0. -1.
        -11    1    3    3    0    0 -0.25273306523E+02 -0.16977380470E+02  0.17545273809E+02  0.35139836419E+02  0.51100000000E-03 0.  1.
         12    1    3    3    0    0  0.56890228659E+01 -0.27593290910E+01 -0.76457437443E+01  0.99215057125E+01  0.00000000000E+00 0. -1.
</event>
<event>
 7    1  0.5634483E-012  0.5930195E+02  0.7816164E-02  0.1266605E+00
        -11   -1    0    0    0    0  0.00000000000E+00  0.00000000000E+00  0.45593999997E+02  0.45594000000E+02  0.51100000000E-03 0.  1.
         11   -1    0    0    0    0 -0.00000000000E+00 -0.00000000000E+00 -0.45593999997E+02  0.45594000000E+02  0.51100000000E-03 0. -1.
    9900012    2    1    2    0    0 -0.97391793185E+01 -0.14170734815E+00  0.30361958618E+02  0.59301949353E+02  0.50000009712E+02 0.  0.
         12    1    1    2    0    0  0.97391793185E+01  0.14170734815E+00 -0.30361958618E+02  0.31886050647E+02  0.00000000000E+00 0. -1.
         11    1    3    3    0    0  0.11032760929E+02  0.60259244148E+00  0.20535247767E+02  0.23319119462E+02  0.51100000000E-03 0. -1.
        -11    1    3    3    0    0 -0.21780706396E+01  0.17906903726E+01 -0.89816274774E+01  0.94138300455E+01  0.51100000000E-03 0.  1.
        -12    1    3    3    0    0 -0.18593869608E+02 -0.25349901622E+01  0.18808338328E+02  0.26568999846E+02  0.00000000000E+00 0.  1.
</event>
<event>
 7    1  0.5634483E-012  0.5930192E+02  0.7816164E-02  0.1266605E+00
        -11   -1    0    0    0    0  0.00000000000E+00  0.00000000000E+00  0.45593999997E+02  0.45594000000E+02  0.51100000000E-03 0.  1.
         11   -1    0    0    0    0 -0.00000000000E+00 -0.00000000000E+00 -0.45593999997E+02  0.45594000000E+02  0.51100000000E-03 0. -1.
    9900012    2    1    2    0    0 -0.12334742776E+02 -0.30152466410E+01  0.29248668670E+02  0.59301918231E+02  0.49999952952E+02 0.  0.
         12    1    1    2    0    0  0.12334742776E+02  0.30152466410E+01 -0.29248668670E+02  0.31886081769E+02  0.00000000000E+00 0. -1.
         11    1    3    3    0    0 -0.13198849527E+02 -0.35964467540E+00 -0.17692223988E+01  0.13321753687E+02  0.51100000000E-03 0. -1.
        -11    1    3    3    0    0 -0.11971117907E+02  0.89502220677E+01  0.73372358911E+01  0.16650800875E+02  0.51100000000E-03 0.  1.
        -12    1    3    3    0    0  0.12835224659E+02 -0.11605824033E+02  0.23680655178E+02  0.29329363668E+02  0.00000000000E+00 0.  1.
</event>
<event>
 7    1  0.5634483E-012  0.5930195E+02  0.7816164E-02  0.1266605E+00
        -11   -1    0    0    0    0  0.00000000000E+00  0.00000000000E+00  0.45593999997E+02  0.45594000000E+02  0.51100000000E-03 0.  1.
         11   -1    0    0    0    0 -0.00000000000E+00 -0.00000000000E+00 -0.45593999997E+02  0.45594000000E+02  0.51100000000E-03 0. -1.
    9900012    2    1    2    0    0  0.27967247354E+02 -0.70609355443E+01  0.13590316939E+02  0.59301945842E+02  0.50000003308E+02 0.  0.
         12    1    1    2    0    0 -0.27967247354E+02  0.70609355443E+01 -0.13590316939E+02  0.31886054158E+02  0.00000000000E+00 0. -1.
         11    1    3    3    0    0  0.15772153217E+02 -0.91192309935E+01 -0.61333041737E+01  0.19223387094E+02  0.51100000000E-03 0. -1.
        -11    1    3    3    0    0  0.21096091808E+02  0.26824153242E+01  0.22276743552E+02  0.30797625640E+02  0.51100000000E-03 0.  1.
         12    1    3    3    0    0 -0.89009976710E+01 -0.62411987495E+00 -0.25531224396E+01  0.92809331076E+01  0.00000000000E+00 0. -1.
</event>
<event>
 7    1  0.5634483E-012  0.5930194E+02  0.7816164E-02  0.1266605E+00
        -11   -1    0    0    0    0  0.00000000000E+00  0.00000000000E+00  0.45593999997E+02  0.45594000000E+02  0.51100000000E-03 0.  1.
         11   -1    0    0    0    0 -0.00000000000E+00 -0.00000000000E+00 -0.45593999997E+02  0.45594000000E+02  0.51100000000E-03 0. -1.
    9900012    2    1    2    0    0  0.42137363754E+01 -0.28621142029E+02  0.13408794273E+02  0.59301935503E+02  0.49999984452E+02 0.  0.
         12    1    1    2    0    0 -0.42137363754E+01  0.28621142029E+02 -0.13408794273E+02  0.31886064497E+02  0.00000000000E+00 0. -1.
         11    1    3    3    0    0  0.60605626324E+01  0.25705381486E+01  0.84960570098E+00  0.66377643753E+01  0.51100000000E-03 0. -1.
        -11    1    3    3    0    0 -0.92807498813E+01 -0.29581018947E+02  0.23804879143E+02  0.39087610205E+02  0.51100000000E-03 0.  1.
         12    1    3    3    0    0  0.74339236243E+01 -0.16106612303E+01 -0.11245690571E+02  0.13576560922E+02  0.00000000000E+00 0. -1.
</event>
<event>
 7    1  0.5634483E-012  0.5930192E+02  0.7816164E-02  0.1266605E+00
        -11   -1    0    0    0    0  0.00000000000E+00  0.00000000000E+00  0.45593999997E+02  0.45594000000E+02  0.51100000000E-03 0.  1.
         11   -1    0    0    0    0 -0.00000000000E+00 -0.00000000000E+00 -0.45593999997E+02  0.45594000000E+02  0.51100000000E-03 0. -1.
    9900012    2    1    2    0    0 -0.29826147045E+02  0.94965393069E+01 -0.60777142617E+01  0.59301922835E+02  0.49999961349E+02 0.  0.
         12    1    1    2    0    0  0.29826147045E+02 -0.94965393069E+01  0.60777142617E+01  0.31886077165E+02  0.00000000000E+00 0. -1.
         11    1    3    3    0    0 -0.11108802826E+02 -0.12848663857E+02  0.10547505773E+02  0.19993587507E+02  0.51100000000E-03 0. -1.
        -11    1    3    3    0    0 -0.13379185094E+02  0.89540844177E+00 -0.48181092600E+01  0.14248457010E+02  0.51100000000E-03 0.  1.
         12    1    3    3    0    0 -0.53381591247E+01  0.21449794722E+02 -0.11807110775E+02  0.25059878318E+02  0.00000000000E+00 0. -1.
</event>
<event>
 7    1  0.5634483E-012  0.5930195E+02  0.7816164E-02  0.1266605E+00
        -11   -1    0    0    0    0  0.00000000000E+00  0.00000000000E+00  0.45593999997E+02  0.45594000000E+02  0.51100000000E-03 0. -1.
         11   -1    0    0    0    0 -0.00000000000E+00 -0.00000000000E+00 -0.45593999997E+02  0.45594000000E+02  0.51100000000E-03 0.  1.
    9900012    2    1    2    0    0  0.10638170788E+02 -0.11571993371E+02 -0.27742356487E+02  0.59301952083E+02  0.50000014691E+02 0.  0.
         12    1    1    2    0    0 -0.10638170788E+02  0.11571993371E+02  0.27742356487E+02  0.31886047917E+02  0.00000000000E+00 0. -1.
         11    1    3    3    0    0 -0.64950288281E+01  0.17691078891E+01 -0.37626481825E+00  0.67421597190E+01  0.51100000000E-03 0. -1.
        -11    1    3    3    0    0  0.30086150346E+01 -0.52781050010E+01  0.10060228125E+02  0.11752376229E+02  0.51100000000E-03 0.  1.
        -12    1    3    3    0    0  0.14124584581E+02 -0.80629962588E+01 -0.37426319795E+02  0.40807416135E+02  0.00000000000E+00 0.  1.
</event>
<event>
 7    1  0.5634483E-012  0.5930201E+02  0.7816164E-02  0.1266605E+00
        -11   -1    0    0    0    0  0.00000000000E+00  0.00000000000E+00  0.45593999997E+02  0.45594000000E+02  0.51100000000E-03 0.  1.
         11   -1    0    0    0    0 -0.00000000000E+00 -0.00000000000E+00 -0.45593999997E+02  0.45594000000E+02  0.51100000000E-03 0. -1.
    9900012    2    1    2    0    0  0.28464196079E+02 -0.27578020305E+01  0.14103214145E+02  0.59302006529E+02  0.50000113986E+02 0.  0.
         12    1    1    2    0    0 -0.28464196079E+02  0.27578020305E+01 -0.14103214145E+02  0.31885993471E+02  0.00000000000E+00 0. -1.
         11    1    3    3    0    0  0.31323415882E+02 -0.13767065079E+02 -0.24937532564E+01  0.34306082099E+02  0.51100000000E-03 0. -1.
        -11    1    3    3    0    0  0.53848005559E+01  0.14679788636E+01  0.26014331982E+01  0.61577994379E+01  0.51100000000E-03 0.  1.
        -12    1    3    3    0    0 -0.82440203594E+01  0.95412841847E+01  0.13995534203E+02  0.18838124992E+02  0.00000000000E+00 0.  1.
</event>
<event>
 7    1  0.5634483E-012  0.5930195E+02  0.7816164E-02  0.1266605E+00
        -11   -1    0    0    0    0  0.00000000000E+00  0.00000000000E+00  0.45593999997E+02  0.45594000000E+02  0.51100000000E-03 0.  1.
         11   -1    0    0    0    0 -0.00000000000E+00 -0.00000000000E+00 -0.45593999997E+02  0.45594000000E+02  0.51100000000E-03 0. -1.
    9900012    2    1    2    0    0  0.10758689893E+02 -0.11548364632E+02 -0.27705709812E+02  0.59301945210E+02  0.50000002156E+02 0.  0.
         12    1    1    2    0    0 -0.10758689893E+02  0.11548364632E+02  0.27705709812E+02  0.31886054790E+02  0.00000000000E+00 0. -1.
         11    1    3    3    0    0  0.11618127293E+02  0.50011194470E+01 -0.17081023492E+02  0.21254492263E+02  0.51100000000E-03 0. -1.
        -11    1    3    3    0    0 -0.47070764972E+01 -0.13276746331E+01 -0.19437012678E+02  0.20042872828E+02  0.51100000000E-03 0.  1.
        -12    1    3    3    0    0  0.38476390968E+01 -0.15221809446E+02  0.88123263582E+01  0.18004580119E+02  0.00000000000E+00 0.  1.
</event>
<event>
 7    1  0.5634483E-012  0.5930194E+02  0.7816164E-02  0.1266605E+00
        -11   -1    0    0    0    0  0.00000000000E+00  0.00000000000E+00  0.45593999997E+02  0.45594000000E+02  0.51100000000E-03 0.  1.
         11   -1    0    0    0    0 -0.00000000000E+00 -0.00000000000E+00 -0.45593999997E+02  0.45594000000E+02  0.51100000000E-03 0. -1.
    9900012    2    1    2    0    0  0.15903343785E+01 -0.27124543612E+02  0.16686835973E+02  0.59301944672E+02  0.50000001175E+02 0.  0.
         12    1    1    2    0    0 -0.15903343785E+01  0.27124543612E+02 -0.16686835973E+02  0.31886055328E+02  0.00000000000E+00 0. -1.
         11    1    3    3    0    0 -0.70745929117E+01 -0.12085844924E+02 -0.93924265977E+01  0.16862241549E+02  0.51100000000E-03 0. -1.
        -11    1    3    3    0    0  0.51652398902E+01 -0.13792177391E+02 -0.13228087833E+01  0.14786943013E+02  0.51100000000E-03 0.  1.
         12    1    3    3    0    0  0.34996873999E+01 -0.12465212967E+01  0.27402071354E+02  0.27652760111E+02  0.00000000000E+00 0. -1.
</event>
<event>
 7    1  0.5634483E-012  0.5930195E+02  0.7816164E-02  0.1266605E+00
        -11   -1    0    0    0    0  0.00000000000E+00  0.00000000000E+00  0.45593999997E+02  0.45594000000E+02  0.51100000000E-03 0.  1.
         11   -1    0    0    0    0 -0.00000000000E+00 -0.00000000000E+00 -0.45593999997E+02  0.45594000000E+02  0.51100000000E-03 0. -1.
    9900012    2    1    2    0    0  0.36857393620E+01 -0.31091420279E+02 -0.60381270679E+01  0.59301951827E+02  0.50000014224E+02 0.  0.
         12    1    1    2    0    0 -0.36857393620E+01  0.31091420279E+02  0.60381270679E+01  0.31886048173E+02  0.00000000000E+00 0. -1.
         11    1    3    3    0    0 -0.10461599878E+02 -0.21494587797E+01  0.55446584895E+01  0.12033639644E+02  0.51100000000E-03 0.  1.
        -11    1    3    3    0    0 -0.24131464163E+01 -0.13897023307E+02  0.91108910483E+01  0.16791630903E+02  0.51100000000E-03 0. -1.
         12    1    3    3    0    0  0.16560485657E+02 -0.15044938192E+02 -0.20693676606E+02  0.30476681280E+02  0.00000000000E+00 0. -1.
</event>
<event>
 7    1  0.5634483E-012  0.5930197E+02  0.7816164E-02  0.1266605E+00
        -11   -1    0    0    0    0  0.00000000000E+00  0.00000000000E+00  0.45593999997E+02  0.45594000000E+02  0.51100000000E-03 0. -1.
         11   -1    0    0    0    0 -0.00000000000E+00 -0.00000000000E+00 -0.45593999997E+02  0.45594000000E+02  0.51100000000E-03 0.  1.
    9900012    2    1    2    0    0 -0.14541412200E+02  0.21435805175E+02 -0.18594958058E+02  0.59301970497E+02  0.50000048273E+02 0.  0.
         12    1    1    2    0    0  0.14541412200E+02 -0.21435805175E+02  0.18594958058E+02  0.31886029503E+02  0.00000000000E+00 0. -1.
         11    1    3    3    0    0 -0.28184888020E+02  0.91908482343E+01 -0.20133443285E+01  0.29713854674E+02  0.51100000000E-03 0. -1.
        -11    1    3    3    0    0 -0.26078210790E+01  0.32439212184E+01 -0.82239314638E+01  0.92172015619E+01  0.51100000000E-03 0.  1.
        -12    1    3    3    0    0  0.16251296898E+02  0.90010357222E+01 -0.83576822662E+01  0.20370914261E+02  0.00000000000E+00 0.  1.
</event>
<event>
 7    1  0.5634483E-012  0.5930199E+02  0.7816164E-02  0.1266605E+00
        -11   -1    0    0    0    0  0.00000000000E+00  0.00000000000E+00  0.45593999997E+02  0.45594000000E+02  0.51100000000E-03 0.  1.
         11   -1    0    0    0    0 -0.00000000000E+00 -0.00000000000E+00 -0.45593999997E+02  0.45594000000E+02  0.51100000000E-03 0. -1.
    9900012    2    1    2    0    0  0.38786842596E+01  0.11490336937E+02  0.29489751208E+02  0.59301992711E+02  0.50000088786E+02 0.  0.
         12    1    1    2    0    0 -0.38786842596E+01 -0.11490336937E+02 -0.29489751208E+02  0.31886007289E+02  0.00000000000E+00 0. -1.
         11    1    3    3    0    0  0.17095920024E+01  0.78510851058E+01 -0.35806051843E+01  0.87967593977E+01  0.51100000000E-03 0. -1.
        -11    1    3    3    0    0 -0.10941533060E+02  0.16416460056E+02  0.19283300782E+02  0.27587370223E+02  0.51100000000E-03 0.  1.
        -12    1    3    3    0    0  0.13110625317E+02 -0.12777208225E+02  0.13787055611E+02  0.22917863091E+02  0.00000000000E+00 0.  1.
</event>
<event>
 7    1  0.5634483E-012  0.5930195E+02  0.7816164E-02  0.1266605E+00
        -11   -1    0    0    0    0  0.00000000000E+00  0.00000000000E+00  0.45593999997E+02  0.45594000000E+02  0.51100000000E-03 0.  1.
         11   -1    0    0    0    0 -0.00000000000E+00 -0.00000000000E+00 -0.45593999997E+02  0.45594000000E+02  0.51100000000E-03 0. -1.
    9900012    2    1    2    0    0  0.29941922441E+02  0.96140694243E+01 -0.52698608436E+01  0.59301945311E+02  0.50000002340E+02 0.  0.
         12    1    1    2    0    0 -0.29941922441E+02 -0.96140694243E+01  0.52698608436E+01  0.31886054689E+02  0.00000000000E+00 0. -1.
         11    1    3    3    0    0 -0.79581625503E+01 -0.65980822124E+01 -0.37319572042E+01  0.10990657164E+02  0.51100000000E-03 0. -1.
        -11    1    3    3    0    0 -0.15474900874E+01  0.50173934093E+01 -0.48823719019E+01  0.71698338784E+01  0.51100000000E-03 0.  1.
        -12    1    3    3    0    0  0.39447575079E+02  0.11194758227E+02  0.33444682625E+01  0.41141454268E+02  0.00000000000E+00 0.  1.
</event>
<event>
 7    1  0.5634483E-012  0.5930197E+02  0.7816164E-02  0.1266605E+00
        -11   -1    0    0    0    0  0.00000000000E+00  0.00000000000E+00  0.45593999997E+02  0.45594000000E+02  0.51100000000E-03 0.  1.
         11   -1    0    0    0    0 -0.00000000000E+00 -0.00000000000E+00 -0.45593999997E+02  0.45594000000E+02  0.51100000000E-03 0. -1.
    9900012    2    1    2    0    0  0.22139963965E+00  0.23141356779E+02  0.21935076741E+02  0.59301968528E+02  0.50000044683E+02 0.  0.
         12    1    1    2    0    0 -0.22139963965E+00 -0.23141356779E+02 -0.21935076741E+02  0.31886031472E+02  0.00000000000E+00 0. -1.
         11    1    3    3    0    0  0.27570036881E+01  0.25289593246E+01  0.62266914597E+01  0.72641855288E+01  0.51100000000E-03 0. -1.
        -11    1    3    3    0    0  0.64230148153E+01  0.33159702967E+02  0.13863591917E+02  0.36510549178E+02  0.51100000000E-03 0.  1.
         12    1    3    3    0    0 -0.89586188637E+01 -0.12547305513E+02  0.18447933641E+01  0.15527233821E+02  0.00000000000E+00 0. -1.
</event>
<event>
 7    1  0.5634483E-012  0.5930193E+02  0.7816164E-02  0.1266605E+00
        -11   -1    0    0    0    0  0.00000000000E+00  0.00000000000E+00  0.45593999997E+02  0.45594000000E+02  0.51100000000E-03 0.  1.
         11   -1    0    0    0    0 -0.00000000000E+00 -0.00000000000E+00 -0.45593999997E+02  0.45594000000E+02  0.51100000000E-03 0. -1.
    9900012    2    1    2    0    0 -0.22473928296E+02 -0.22363003581E+02  0.33970591835E+01  0.59301931046E+02  0.49999976324E+02 0.  0.
         12    1    1    2    0    0  0.22473928296E+02  0.22363003581E+02 -0.33970591835E+01  0.31886068954E+02  0.00000000000E+00 0. -1.
         11    1    3    3    0    0 -0.93670217503E+01 -0.48823193787E+01 -0.12117549613E+02  0.16075233991E+02  0.51100000000E-03 0. -1.
        -11    1    3    3    0    0 -0.10762401434E+02  0.87915106662E+01  0.41247265496E+01  0.14495975779E+02  0.51100000000E-03 0.  1.
        -12    1    3    3    0    0 -0.23445051124E+01 -0.26272194869E+02  0.11389882247E+02  0.28730721276E+02  0.00000000000E+00 0.  1.
</event>
<event>
 7    1  0.5634483E-012  0.5930194E+02  0.7816164E-02  0.1266605E+00
        -11   -1    0    0    0    0  0.00000000000E+00  0.00000000000E+00  0.45593999997E+02  0.45594000000E+02  0.51100000000E-03 0.  1.
         11   -1    0    0    0    0 -0.00000000000E+00 -0.00000000000E+00 -0.45593999997E+02  0.45594000000E+02  0.51100000000E-03 0. -1.
    9900012    2    1    2    0    0 -0.30198658552E+02  0.22699095465E+01  0.99804370796E+01  0.59301943612E+02  0.49999999242E+02 0.  0.
         12    1    1    2    0    0  0.30198658552E+02 -0.22699095465E+01 -0.99804370796E+01  0.31886056388E+02  0.00000000000E+00 0. -1.
         11    1    3    3    0    0 -0.10037208738E+00  0.60323564007E+01  0.10895452129E+02  0.12454327587E+02  0.51100000000E-03 0. -1.
        -11    1    3    3    0    0 -0.29968702811E+02  0.10652730014E+02 -0.41443035876E+01  0.32074585850E+02  0.51100000000E-03 0.  1.
         12    1    3    3    0    0 -0.12958365321E+00 -0.14415176869E+02  0.32292885383E+01  0.14773030175E+02  0.00000000000E+00 0. -1.
</event>
<event>
 7    1  0.5634483E-012  0.5930197E+02  0.7816164E-02  0.1266605E+00
        -11   -1    0    0    0    0  0.00000000000E+00  0.00000000000E+00  0.45593999997E+02  0.45594000000E+02  0.51100000000E-03 0. -1.
         11   -1    0    0    0    0 -0.00000000000E+00 -0.00000000000E+00 -0.45593999997E+02  0.45594000000E+02  0.51100000000E-03 0.  1.
    9900012    2    1    2    0    0 -0.15843543960E+02  0.12517449596E+02 -0.24678222822E+02  0.59301966831E+02  0.50000041587E+02 0.  0.
         12    1    1    2    0    0  0.15843543960E+02 -0.12517449596E+02  0.24678222822E+02  0.31886033169E+02  0.00000000000E+00 0. -1.
         11    1    3    3    0    0 -0.20816604176E+02  0.15684038954E+02 -0.22280464937E+02  0.34289053726E+02  0.51100000000E-03 0. -1.
        -11    1    3    3    0    0 -0.76909106761E+01  0.55842632365E+01 -0.91334879483E+00  0.95482097382E+01  0.51100000000E-03 0.  1.
         12    1    3    3    0    0  0.12663970891E+02 -0.87508525950E+01 -0.14844090907E+01  0.15464703367E+02  0.00000000000E+00 0. -1.
</event>
<event>
 7    1  0.5634483E-012  0.5930200E+02  0.7816164E-02  0.1266605E+00
        -11   -1    0    0    0    0  0.00000000000E+00  0.00000000000E+00  0.45593999997E+02  0.45594000000E+02  0.51100000000E-03 0.  1.
         11   -1    0    0    0    0 -0.00000000000E+00 -0.00000000000E+00 -0.45593999997E+02  0.45594000000E+02  0.51100000000E-03 0. -1.
    9900012    2    1    2    0    0 -0.25138505002E+02  0.85324991439E+01  0.17662643721E+02  0.59302000587E+02  0.50000103150E+02 0.  0.
         12    1    1    2    0    0  0.25138505002E+02 -0.85324991439E+01 -0.17662643721E+02  0.31885999413E+02  0.00000000000E+00 0. -1.
         11    1    3    3    0    0 -0.10959124756E+02 -0.72457395810E+01 -0.86963247228E+01  0.15755291855E+02  0.51100000000E-03 0. -1.
        -11    1    3    3    0    0 -0.11887677890E+02 -0.55325928874E+01  0.82896020818E+01  0.15512703588E+02  0.51100000000E-03 0.  1.
        -12    1    3    3    0    0 -0.22917023570E+01  0.21310831612E+02  0.18069366362E+02  0.28034005144E+02  0.00000000000E+00 0.  1.
</event>
<event>
 7    1  0.5634483E-012  0.5930195E+02  0.7816164E-02  0.1266605E+00
        -11   -1    0    0    0    0  0.00000000000E+00  0.00000000000E+00  0.45593999997E+02  0.45594000000E+02  0.51100000000E-03 0. -1.
         11   -1    0    0    0    0 -0.00000000000E+00 -0.00000000000E+00 -0.45593999997E+02  0.45594000000E+02  0.51100000000E-03 0.  1.
    9900012    2    1    2    0    0  0.80043211394E+01  0.14499935305E+02 -0.27247069308E+02  0.59301951850E+02  0.50000014265E+02 0.  0.
         12    1    1    2    0    0 -0.80043211394E+01 -0.14499935305E+02  0.27247069308E+02  0.31886048150E+02  0.00000000000E+00 0. -1.
         11    1    3    3    0    0 -0.11185469921E+02  0.77005472351E+00  0.36913613534E+01  0.11803976895E+02  0.51100000000E-03 0. -1.
        -11    1    3    3    0    0  0.20711368720E+02  0.31993277503E+00 -0.25730182810E+02  0.33031885489E+02  0.51100000000E-03 0.  1.
         12    1    3    3    0    0 -0.15215776600E+01  0.13409947807E+02 -0.52082478517E+01  0.14466089466E+02  0.00000000000E+00 0. -1.
</event>
<event>
 7    1  0.5634483E-012  0.5930191E+02  0.7816164E-02  0.1266605E+00
        -11   -1    0    0    0    0  0.00000000000E+00  0.00000000000E+00  0.45593999997E+02  0.45594000000E+02  0.51100000000E-03 0. -1.
         11   -1    0    0    0    0 -0.00000000000E+00 -0.00000000000E+00 -0.45593999997E+02  0.45594000000E+02  0.51100000000E-03 0.  1.
    9900012    2    1    2    0    0 -0.77443245237E+01 -0.23769590835E+02 -0.19792797432E+02  0.59301908346E+02  0.49999934925E+02 0.  0.
         12    1    1    2    0    0  0.77443245237E+01  0.23769590835E+02  0.19792797432E+02  0.31886091654E+02  0.00000000000E+00 0. -1.
         11    1    3    3    0    0  0.16327421296E+01  0.16560285335E+01  0.80468855703E+01  0.83761951391E+01  0.51100000000E-03 0. -1.
        -11    1    3    3    0    0  0.33642006370E+01 -0.12434490399E+02  0.46436464636E+01  0.13692985436E+02  0.51100000000E-03 0.  1.
        -12    1    3    3    0    0 -0.12741267290E+02 -0.12991128969E+02 -0.32483329466E+02  0.37232727771E+02  0.00000000000E+00 0.  1.
</event>
<event>
 7    1  0.5634483E-012  0.5930195E+02  0.7816164E-02  0.1266605E+00
        -11   -1    0    0    0    0  0.00000000000E+00  0.00000000000E+00  0.45593999997E+02  0.45594000000E+02  0.51100000000E-03 0.  1.
         11   -1    0    0    0    0 -0.00000000000E+00 -0.00000000000E+00 -0.45593999997E+02  0.45594000000E+02  0.51100000000E-03 0. -1.
    9900012    2    1    2    0    0 -0.79074560910E+01  0.25273292963E+02  0.17760996481E+02  0.59301949836E+02  0.50000010593E+02 0.  0.
         12    1    1    2    0    0  0.79074560910E+01 -0.25273292963E+02 -0.17760996481E+02  0.31886050164E+02  0.00000000000E+00 0. -1.
         11    1    3    3    0    0 -0.21159648906E+02  0.66467187295E+01  0.28391635128E+01  0.22360019262E+02  0.51100000000E-03 0. -1.
        -11    1    3    3    0    0  0.97001572507E-01  0.19805321313E+02  0.50124887225E+01  0.20430007467E+02  0.51100000000E-03 0.  1.
        -12    1    3    3    0    0  0.13155191243E+02 -0.11787470795E+01  0.99093442461E+01  0.16511923107E+02  0.00000000000E+00 0.  1.
</event>
<event>
 7    1  0.5634483E-012  0.5930196E+02  0.7816164E-02  0.1266605E+00
        -11   -1    0    0    0    0  0.00000000000E+00  0.00000000000E+00  0.45593999997E+02  0.45594000000E+02  0.51100000000E-03 0.  1.
         11   -1    0    0    0    0 -0.00000000000E+00 -0.00000000000E+00 -0.45593999997E+02  0.45594000000E+02  0.51100000000E-03 0. -1.
    9900012    2    1    2    0    0  0.50636057622E+00 -0.96401166225E+01  0.30389657568E+02  0.59301960161E+02  0.50000029423E+02 0.  0.
         12    1    1    2    0    0 -0.50636057622E+00  0.96401166225E+01 -0.30389657568E+02  0.31886039839E+02  0.00000000000E+00 0. -1.
         11    1    3    3    0    0 -0.14257209456E+02  0.26062322898E+01  0.85033179417E+01  0.16803775900E+02  0.51100000000E-03 0. -1.
        -11    1    3    3    0    0  0.50319784905E+01 -0.39183250729E+01 -0.78537738118E+01  0.10117106417E+02  0.51100000000E-03 0.  1.
        -12    1    3    3    0    0  0.97315915414E+01 -0.83280238395E+01  0.29740113438E+02  0.32381077844E+02  0.00000000000E+00 0.  1.
</event>
<event>
 7    1  0.5634483E-012  0.5930220E+02  0.7816164E-02  0.1266604E+00
        -11   -1    0    0    0    0  0.00000000000E+00  0.00000000000E+00  0.45593999997E+02  0.45594000000E+02  0.51100000000E-03 0. -1.
         11   -1    0    0    0    0 -0.00000000000E+00 -0.00000000000E+00 -0.45593999997E+02  0.45594000000E+02  0.51100000000E-03 0.  1.
    9900012    2    1    2    0    0 -0.98774483530E+01  0.27100308914E+02 -0.13590936599E+02  0.59302199291E+02  0.50000465537E+02 0.  0.
         12    1    1    2    0    0  0.98774483530E+01 -0.27100308914E+02  0.13590936599E+02  0.31885800709E+02  0.00000000000E+00 0. -1.
         11    1    3    3    0    0  0.62587201200E+01  0.95326602122E+00 -0.12238008378E-01  0.63309117573E+01  0.51100000000E-03 0. -1.
        -11    1    3    3    0    0 -0.23028591335E+00  0.20171179396E+02  0.11087832519E+02  0.23018895283E+02  0.51100000000E-03 0.  1.
        -12    1    3    3    0    0 -0.15905882560E+02  0.59758634970E+01 -0.24666531110E+02  0.29952392251E+02  0.00000000000E+00 0.  1.
</event>
<event>
 7    1  0.5634483E-012  0.5930200E+02  0.7816164E-02  0.1266605E+00
        -11   -1    0    0    0    0  0.00000000000E+00  0.00000000000E+00  0.45593999997E+02  0.45594000000E+02  0.51100000000E-03 0. -1.
         11   -1    0    0    0    0 -0.00000000000E+00 -0.00000000000E+00 -0.45593999997E+02  0.45594000000E+02  0.51100000000E-03 0.  1.
    9900012    2    1    2    0    0  0.30276183037E+02 -0.38689192271E+01 -0.92250152884E+01  0.59302004605E+02  0.50000110478E+02 0.  0.
         12    1    1    2    0    0 -0.30276183037E+02  0.38689192271E+01  0.92250152884E+01  0.31885995395E+02  0.00000000000E+00 0. -1.
         11    1    3    3    0    0  0.40680635696E+01  0.10628477482E+02 -0.81322078503E+01  0.13987368572E+02  0.51100000000E-03 0. -1.
        -11    1    3    3    0    0  0.32848844091E+01 -0.54712151798E+01 -0.15508846916E+02  0.16770479840E+02  0.51100000000E-03 0.  1.
         12    1    3    3    0    0  0.22923235058E+02 -0.90261815292E+01  0.14416039478E+02  0.28544156193E+02  0.00000000000E+00 0. -1.
</event>
<event>
 7    1  0.5634483E-012  0.5930194E+02  0.7816164E-02  0.1266605E+00
        -11   -1    0    0    0    0  0.00000000000E+00  0.00000000000E+00  0.45593999997E+02  0.45594000000E+02  0.51100000000E-03 0.  1.
         11   -1    0    0    0    0 -0.00000000000E+00 -0.00000000000E+00 -0.45593999997E+02  0.45594000000E+02  0.51100000000E-03 0. -1.
    9900012    2    1    2    0    0 -0.18846798538E+01 -0.25761183478E+02 -0.18695724173E+02  0.59301942001E+02  0.49999996304E+02 0.  0.
         12    1    1    2    0    0  0.18846798538E+01  0.25761183478E+02  0.18695724173E+02  0.31886057999E+02  0.00000000000E+00 0. -1.
         11    1    3    3    0    0 -0.44899968754E+01  0.98160373522E+01 -0.62642252121E+01  0.12480191465E+02  0.51100000000E-03 0. -1.
        -11    1    3    3    0    0  0.70615886770E+01  0.18135205717E+01 -0.44363304809E+00  0.73042249452E+01  0.51100000000E-03 0.  1.
        -12    1    3    3    0    0 -0.44562716554E+01 -0.37390741402E+02 -0.11987865913E+02  0.39517525591E+02  0.00000000000E+00 0.  1.
</event>
<event>
 7    1  0.5634483E-012  0.5930196E+02  0.7816164E-02  0.1266605E+00
        -11   -1    0    0    0    0  0.00000000000E+00  0.00000000000E+00  0.45593999997E+02  0.45594000000E+02  0.51100000000E-03 0. -1.
         11   -1    0    0    0    0 -0.00000000000E+00 -0.00000000000E+00 -0.45593999997E+02  0.45594000000E+02  0.51100000000E-03 0.  1.
    9900012    2    1    2    0    0  0.11353719479E+01 -0.15315963416E+02 -0.27943720532E+02  0.59301963527E+02  0.50000035561E+02 0.  0.
         12    1    1    2    0    0 -0.11353719479E+01  0.15315963416E+02  0.27943720532E+02  0.31886036473E+02  0.00000000000E+00 0. -1.
         11    1    3    3    0    0 -0.12125532809E+02 -0.78528314671E+00  0.37924662807E+01  0.12729022597E+02  0.51100000000E-03 0. -1.
        -11    1    3    3    0    0 -0.66376958671E+01 -0.11177149966E+02 -0.17831756715E+02  0.22067152866E+02  0.51100000000E-03 0.  1.
        -12    1    3    3    0    0  0.19898600624E+02 -0.33535303031E+01 -0.13904430098E+02  0.24505788064E+02  0.00000000000E+00 0.  1.
</event>
<event>
 7    1  0.5634483E-012  0.5930200E+02  0.7816164E-02  0.1266605E+00
        -11   -1    0    0    0    0  0.00000000000E+00  0.00000000000E+00  0.45593999997E+02  0.45594000000E+02  0.51100000000E-03 0.  1.
         11   -1    0    0    0    0 -0.00000000000E+00 -0.00000000000E+00 -0.45593999997E+02  0.45594000000E+02  0.51100000000E-03 0. -1.
    9900012    2    1    2    0    0  0.10078298969E+02 -0.73712720519E+01  0.29339555645E+02  0.59301995433E+02  0.50000093751E+02 0.  0.
         12    1    1    2    0    0 -0.10078298969E+02  0.73712720519E+01 -0.29339555645E+02  0.31886004567E+02  0.00000000000E+00 0. -1.
         11    1    3    3    0    0  0.11812488214E+02 -0.72544149670E+01  0.16336206875E+01  0.13958156438E+02  0.51100000000E-03 0. -1.
        -11    1    3    3    0    0 -0.22018516362E+01  0.28679351392E+01 -0.83825597711E+01  0.91291024294E+01  0.51100000000E-03 0.  1.
        -12    1    3    3    0    0  0.46766239126E+00 -0.29847922241E+01  0.36088494729E+02  0.36214736566E+02  0.00000000000E+00 0.  1.
</event>
<event>
 7    1  0.5634483E-012  0.5930192E+02  0.7816164E-02  0.1266605E+00
        -11   -1    0    0    0    0  0.00000000000E+00  0.00000000000E+00  0.45593999997E+02  0.45594000000E+02  0.51100000000E-03 0.  1.
         11   -1    0    0    0    0 -0.00000000000E+00 -0.00000000000E+00 -0.45593999997E+02  0.45594000000E+02  0.51100000000E-03 0. -1.
    9900012    2    1    2    0    0  0.13728790636E+02 -0.31356619841E+01  0.28607867406E+02  0.59301919245E+02  0.49999954803E+02 0.  0.
         12    1    1    2    0    0 -0.13728790636E+02  0.31356619841E+01 -0.28607867406E+02  0.31886080755E+02  0.00000000000E+00 0. -1.
         11    1    3    3    0    0 -0.75903850216E+01 -0.13084488285E+02  0.74869113567E+01  0.16878140312E+02  0.51100000000E-03 0. -1.
        -11    1    3    3    0    0  0.20423437974E+01 -0.19294427825E+01  0.19523740553E+02  0.19724866618E+02  0.51100000000E-03 0.  1.
         12    1    3    3    0    0  0.19276831860E+02  0.11878269084E+02  0.15972154959E+01  0.22698912316E+02  0.00000000000E+00 0. -1.
</event>
<event>
 7    1  0.5634483E-012  0.5930193E+02  0.7816164E-02  0.1266605E+00
        -11   -1    0    0    0    0  0.00000000000E+00  0.00000000000E+00  0.45593999997E+02  0.45594000000E+02  0.51100000000E-03 0. -1.
         11   -1    0    0    0    0 -0.00000000000E+00 -0.00000000000E+00 -0.45593999997E+02  0.45594000000E+02  0.51100000000E-03 0.  1.
    9900012    2    1    2    0    0  0.19946983085E+02 -0.13922520526E+02 -0.20615588847E+02  0.59301933835E+02  0.49999981410E+02 0.  0.
         12    1    1    2    0    0 -0.19946983085E+02  0.13922520526E+02  0.20615588847E+02  0.31886066165E+02  0.00000000000E+00 0. -1.
         11    1    3    3    0    0  0.19329722075E+02  0.39636877286E+01 -0.12944397799E+02  0.23598864603E+02  0.51100000000E-03 0. -1.
        -11    1    3    3    0    0 -0.20266462353E+01  0.74586838373E-01 -0.15715847919E+02  0.15846158343E+02  0.51100000000E-03 0.  1.
        -12    1    3    3    0    0  0.26439072456E+01 -0.17960795093E+02  0.80446568707E+01  0.19856910889E+02  0.00000000000E+00 0.  1.
</event>
<event>
 7    1  0.5634483E-012  0.5930195E+02  0.7816164E-02  0.1266605E+00
        -11   -1    0    0    0    0  0.00000000000E+00  0.00000000000E+00  0.45593999997E+02  0.45594000000E+02  0.51100000000E-03 0. -1.
         11   -1    0    0    0    0 -0.00000000000E+00 -0.00000000000E+00 -0.45593999997E+02  0.45594000000E+02  0.51100000000E-03 0.  1.
    9900012    2    1    2    0    0 -0.28116461882E+02  0.13999371378E+02  0.54956748888E+01  0.59301948657E+02  0.50000008444E+02 0.  0.
         12    1    1    2    0    0  0.28116461882E+02 -0.13999371378E+02 -0.54956748888E+01  0.31886051343E+02  0.00000000000E+00 0. -1.
         11    1    3    3    0    0 -0.12726603391E+01  0.47193248468E+01  0.17270133370E+02  0.17948515209E+02  0.51100000000E-03 0. -1.
        -11    1    3    3    0    0 -0.16995673640E+02 -0.87043065580E+01 -0.66355876538E+01  0.20215066137E+02  0.51100000000E-03 0.  1.
        -12    1    3    3    0    0 -0.98481279026E+01  0.17984353089E+02 -0.51388708270E+01  0.21138367311E+02  0.00000000000E+00 0.  1.
</event>
<event>
 7    1  0.5634483E-012  0.5930196E+02  0.7816164E-02  0.1266605E+00
        -11   -1    0    0    0    0  0.00000000000E+00  0.00000000000E+00  0.45593999997E+02  0.45594000000E+02  0.51100000000E-03 0.  1.
         11   -1    0    0    0    0 -0.00000000000E+00 -0.00000000000E+00 -0.45593999997E+02  0.45594000000E+02  0.51100000000E-03 0. -1.
    9900012    2    1    2    0    0 -0.17737275155E+02 -0.24031486302E+02 -0.11162274886E+02  0.59301958470E+02  0.50000026339E+02 0.  0.
         12    1    1    2    0    0  0.17737275155E+02  0.24031486302E+02  0.11162274886E+02  0.31886041530E+02  0.00000000000E+00 0. -1.
         11    1    3    3    0    0 -0.12179583402E+02 -0.24322641599E+01  0.78846232754E+01  0.14711405278E+02  0.51100000000E-03 0. -1.
        -11    1    3    3    0    0 -0.14310396815E+02 -0.26005475930E+02 -0.10194017405E+02  0.31384553948E+02  0.51100000000E-03 0.  1.
         12    1    3    3    0    0  0.87527050624E+01  0.44062537881E+01 -0.88528807565E+01  0.13205999244E+02  0.00000000000E+00 0. -1.
</event>
<event>
 7    1  0.5634483E-012  0.5930194E+02  0.7816164E-02  0.1266605E+00
        -11   -1    0    0    0    0  0.00000000000E+00  0.00000000000E+00  0.45593999997E+02  0.45594000000E+02  0.51100000000E-03 0. -1.
         11   -1    0    0    0    0 -0.00000000000E+00 -0.00000000000E+00 -0.45593999997E+02  0.45594000000E+02  0.51100000000E-03 0.  1.
    9900012    2    1    2    0    0 -0.27564098708E+02 -0.14245822425E+02 -0.73483246198E+01  0.59301939270E+02  0.49999991324E+02 0.  0.
         12    1    1    2    0    0  0.27564098708E+02  0.14245822425E+02  0.73483246198E+01  0.31886060730E+02  0.00000000000E+00 0. -1.
         11    1    3    3    0    0 -0.90264226472E+01  0.54853648905E+01  0.23979619634E+01  0.10831239801E+02  0.51100000000E-03 0. -1.
        -11    1    3    3    0    0 -0.10320827796E+02  0.68162412200E+01 -0.15763570864E+02  0.20036736197E+02  0.51100000000E-03 0.  1.
         12    1    3    3    0    0 -0.82168482641E+01 -0.26547428536E+02  0.60172842812E+01  0.28433963272E+02  0.00000000000E+00 0. -1.
</event>
<event>
 7    1  0.8348236E-012  0.5930195E+02  0.7816164E-02  0.1266605E+00
        -11   -1    0    0    0    0  0.00000000000E+00  0.00000000000E+00  0.45593999997E+02  0.45594000000E+02  0.51100000000E-03 0. -1.
         11   -1    0    0    0    0 -0.00000000000E+00 -0.00000000000E+00 -0.45593999997E+02  0.45594000000E+02  0.51100000000E-03 0.  1.
    9900012    2    1    2    0    0  0.12198227380E+02  0.18012179159E+02 -0.23312761129E+02  0.59301950061E+02  0.50000011004E+02 0.  0.
         12    1    1    2    0    0 -0.12198227380E+02 -0.18012179159E+02  0.23312761129E+02  0.31886049939E+02  0.00000000000E+00 0. -1.
         11    1    3    3    0    0 -0.35385582504E+01  0.12371793855E+02 -0.85705320926E+01  0.15460811696E+02  0.51100000000E-03 0. -1.
        -11    1    3    3    0    0  0.20297333739E+02  0.16964339506E+02 -0.16974464183E+02  0.31430924363E+02  0.51100000000E-03 0.  1.
         12    1    3    3    0    0 -0.45605481089E+01 -0.11323954202E+02  0.22322351469E+01  0.12410214002E+02  0.00000000000E+00 0. -1.
</event>
<event>
 7    1  0.5634483E-012  0.5930196E+02  0.7816164E-02  0.1266605E+00
        -11   -1    0    0    0    0  0.00000000000E+00  0.00000000000E+00  0.45593999997E+02  0.45594000000E+02  0.51100000000E-03 0.  1.
         11   -1    0    0    0    0 -0.00000000000E+00 -0.00000000000E+00 -0.45593999997E+02  0.45594000000E+02  0.51100000000E-03 0. -1.
    9900012    2    1    2    0    0 -0.31632549922E+01 -0.20186732853E+02  0.24478753107E+02  0.59301957300E+02  0.50000024205E+02 0.  0.
         12    1    1    2    0    0  0.31632549922E+01  0.20186732853E+02 -0.24478753107E+02  0.31886042700E+02  0.00000000000E+00 0. -1.
         11    1    3    3    0    0 -0.14987123651E+02 -0.11416204873E+02  0.43123305349E+01  0.19327177858E+02  0.51100000000E-03 0. -1.
        -11    1    3    3    0    0 -0.49338984949E+01  0.83108546188E+01  0.10204169584E+02  0.14054847420E+02  0.51100000000E-03 0.  1.
         12    1    3    3    0    0  0.16757767153E+02 -0.17081382598E+02  0.99622529880E+01  0.25919932022E+02  0.00000000000E+00 0. -1.
</event>
<event>
 7    1  0.5634483E-012  0.5930193E+02  0.7816164E-02  0.1266605E+00
        -11   -1    0    0    0    0  0.00000000000E+00  0.00000000000E+00  0.45593999997E+02  0.45594000000E+02  0.51100000000E-03 0. -1.
         11   -1    0    0    0    0 -0.00000000000E+00 -0.00000000000E+00 -0.45593999997E+02  0.45594000000E+02  0.51100000000E-03 0.  1.
    9900012    2    1    2    0    0  0.14640927300E+02  0.14840844045E+02 -0.24127035917E+02  0.59301933038E+02  0.49999979957E+02 0.  0.
         12    1    1    2    0    0 -0.14640927300E+02 -0.14840844045E+02  0.24127035917E+02  0.31886066962E+02  0.00000000000E+00 0. -1.
         11    1    3    3    0    0  0.24153059718E+01 -0.17765362925E-01  0.81781806966E+01  0.85274063063E+01  0.51100000000E-03 0. -1.
        -11    1    3    3    0    0  0.14804069988E+02 -0.13754610359E+01 -0.38759334565E+00  0.14872881703E+02  0.51100000000E-03 0.  1.
         12    1    3    3    0    0 -0.25784486607E+01  0.16234070444E+02 -0.31917623268E+02  0.35901645029E+02  0.00000000000E+00 0. -1.
</event>
<event>
 7    1  0.5634483E-012  0.5930193E+02  0.7816164E-02  0.1266605E+00
        -11   -1    0    0    0    0  0.00000000000E+00  0.00000000000E+00  0.45593999997E+02  0.45594000000E+02  0.51100000000E-03 0. -1.
         11   -1    0    0    0    0 -0.00000000000E+00 -0.00000000000E+00 -0.45593999997E+02  0.45594000000E+02  0.51100000000E-03 0.  1.
    9900012    2    1    2    0    0  0.18340444747E+02  0.12715554963E+02 -0.22774202236E+02  0.59301928761E+02  0.49999972158E+02 0.  0.
         12    1    1    2    0    0 -0.18340444747E+02 -0.12715554963E+02  0.22774202236E+02  0.31886071239E+02  0.00000000000E+00 0. -1.
         11    1    3    3    0    0 -0.64247638905E+01  0.13512897460E+02 -0.60496933481E+01  0.16139231043E+02  0.51100000000E-03 0. -1.
        -11    1    3    3    0    0 -0.38685542511E+01 -0.90556978683E+01 -0.57629015511E+01  0.11409750673E+02  0.51100000000E-03 0.  1.
         12    1    3    3    0    0  0.28633762888E+02  0.82583553719E+01 -0.10961607337E+02  0.31752947045E+02  0.00000000000E+00 0. -1.
</event>
<event>
 7    1  0.5634483E-012  0.5930176E+02  0.7816164E-02  0.1266605E+00
        -11   -1    0    0    0    0  0.00000000000E+00  0.00000000000E+00  0.45593999997E+02  0.45594000000E+02  0.51100000000E-03 0.  1.
         11   -1    0    0    0    0 -0.00000000000E+00 -0.00000000000E+00 -0.45593999997E+02  0.45594000000E+02  0.51100000000E-03 0. -1.
    9900012    2    1    2    0    0  0.23471634628E+02 -0.16721391038E+02  0.13645864025E+02  0.59301762289E+02  0.49999668552E+02 0.  0.
         12    1    1    2    0    0 -0.23471634628E+02  0.16721391038E+02 -0.13645864025E+02  0.31886237711E+02  0.00000000000E+00 0. -1.
         11    1    3    3    0    0  0.59929594284E+01  0.15752097048E+02  0.12192356849E+01  0.16897652500E+02  0.51100000000E-03 0. -1.
        -11    1    3    3    0    0  0.20580479058E+01 -0.74443445874E+01  0.10375243902E+02  0.12934431329E+02  0.51100000000E-03 0.  1.
        -12    1    3    3    0    0  0.15420627294E+02 -0.25029143498E+02  0.20513844381E+01  0.29469678459E+02  0.00000000000E+00 0.  1.
</event>
<event>
 7    1  0.5634483E-012  0.5930195E+02  0.7816164E-02  0.1266605E+00
        -11   -1    0    0    0    0  0.00000000000E+00  0.00000000000E+00  0.45593999997E+02  0.45594000000E+02  0.51100000000E-03 0. -1.
         11   -1    0    0    0    0 -0.00000000000E+00 -0.00000000000E+00 -0.45593999997E+02  0.45594000000E+02  0.51100000000E-03 0.  1.
    9900012    2    1    2    0    0  0.31292996332E+02 -0.61211028730E+01 -0.31197560884E-01  0.59301945162E+02  0.50000002069E+02 0.  0.
         12    1    1    2    0    0 -0.31292996332E+02  0.61211028730E+01  0.31197560884E-01  0.31886054838E+02  0.00000000000E+00 0. -1.
         11    1    3    3    0    0  0.10483960308E+02 -0.13087633295E+02 -0.13460174623E+02  0.21502927014E+02  0.51100000000E-03 0.  1.
        -11    1    3    3    0    0  0.24347955785E+02  0.10136017185E+01  0.20199898084E+01  0.24452621505E+02  0.51100000000E-03 0. -1.
         12    1    3    3    0    0 -0.35389197614E+01  0.59529287036E+01  0.11408987254E+02  0.13346396644E+02  0.00000000000E+00 0. -1.
</event>
<event>
 7    1  0.5634483E-012  0.5930208E+02  0.7816164E-02  0.1266604E+00
        -11   -1    0    0    0    0  0.00000000000E+00  0.00000000000E+00  0.45593999997E+02  0.45594000000E+02  0.51100000000E-03 0. -1.
         11   -1    0    0    0    0 -0.00000000000E+00 -0.00000000000E+00 -0.45593999997E+02  0.45594000000E+02  0.51100000000E-03 0.  1.
    9900012    2    1    2    0    0  0.18908303193E+02  0.23882864935E+02  0.94231866623E+01  0.59302084395E+02  0.50000255995E+02 0.  0.
         12    1    1    2    0    0 -0.18908303193E+02 -0.23882864935E+02 -0.94231866623E+01  0.31885915605E+02  0.00000000000E+00 0. -1.
         11    1    3    3    0    0  0.81127650274E+01  0.90744480488E+01  0.22322804284E+02  0.25425777376E+02  0.51100000000E-03 0. -1.
        -11    1    3    3    0    0  0.55167999984E+01  0.18703190014E+02 -0.10745259486E+00  0.19500152441E+02  0.51100000000E-03 0.  1.
         12    1    3    3    0    0  0.52787381668E+01 -0.38947731282E+01 -0.12792165027E+02  0.14376154578E+02  0.00000000000E+00 0. -1.
</event>
<event>
 7    1  0.5634483E-012  0.5930194E+02  0.7816164E-02  0.1266605E+00
        -11   -1    0    0    0    0  0.00000000000E+00  0.00000000000E+00  0.45593999997E+02  0.45594000000E+02  0.51100000000E-03 0. -1.
         11   -1    0    0    0    0 -0.00000000000E+00 -0.00000000000E+00 -0.45593999997E+02  0.45594000000E+02  0.51100000000E-03 0.  1.
    9900012    2    1    2    0    0  0.17386207007E+02 -0.26725800297E+02 -0.41489850462E+00  0.59301941347E+02  0.49999995112E+02 0.  0.
         12    1    1    2    0    0 -0.17386207007E+02  0.26725800297E+02  0.41489850462E+00  0.31886058653E+02  0.00000000000E+00 0. -1.
         11    1    3    3    0    0  0.93365489018E+01  0.12366008778E+02  0.56619052914E+00  0.15505156899E+02  0.51100000000E-03 0. -1.
        -11    1    3    3    0    0  0.76501211050E+01 -0.13871615413E+02 -0.78149255546E+01  0.17664063201E+02  0.51100000000E-03 0.  1.
        -12    1    3    3    0    0  0.39953700028E+00 -0.25220193663E+02  0.68338365209E+01  0.26132721247E+02  0.00000000000E+00 0.  1.
</event>
<event>
 7    1  0.5634483E-012  0.5930195E+02  0.7816164E-02  0.1266605E+00
        -11   -1    0    0    0    0  0.00000000000E+00  0.00000000000E+00  0.45593999997E+02  0.45594000000E+02  0.51100000000E-03 0. -1.
         11   -1    0    0    0    0 -0.00000000000E+00 -0.00000000000E+00 -0.45593999997E+02  0.45594000000E+02  0.51100000000E-03 0.  1.
    9900012    2    1    2    0    0  0.30980358903E+02 -0.39580772541E+01  0.64242433885E+01  0.59301954205E+02  0.50000018562E+02 0.  0.
         12    1    1    2    0    0 -0.30980358903E+02  0.39580772541E+01 -0.64242433885E+01  0.31886045795E+02  0.00000000000E+00 0. -1.
         11    1    3    3    0    0  0.17704096389E+02 -0.11447099073E+02  0.43686506088E+01  0.21530355653E+02  0.51100000000E-03 0. -1.
        -11    1    3    3    0    0  0.54384165679E+01 -0.10484505078E+02  0.11072516274E+02  0.16189559549E+02  0.51100000000E-03 0.  1.
         12    1    3    3    0    0  0.78378459457E+01  0.17973526898E+02 -0.90169234942E+01  0.21582039003E+02  0.00000000000E+00 0. -1.
</event>
<event>
 7    1  0.5634483E-012  0.5930179E+02  0.7816164E-02  0.1266605E+00
        -11   -1    0    0    0    0  0.00000000000E+00  0.00000000000E+00  0.45593999997E+02  0.45594000000E+02  0.51100000000E-03 0.  1.
         11   -1    0    0    0    0 -0.00000000000E+00 -0.00000000000E+00 -0.45593999997E+02  0.45594000000E+02  0.51100000000E-03 0. -1.
    9900012    2    1    2    0    0  0.49470183931E+01 -0.30341563881E+02  0.84644573183E+01  0.59301787817E+02  0.49999715108E+02 0.  0.
         12    1    1    2    0    0 -0.49470183931E+01  0.30341563881E+02 -0.84644573183E+01  0.31886212183E+02  0.00000000000E+00 0. -1.
         11    1    3    3    0    0  0.36883956905E+01  0.57025114263E+01 -0.25635667123E+01  0.72591166051E+01  0.51100000000E-03 0. -1.
        -11    1    3    3    0    0  0.21263692909E+01  0.72423226975E+01  0.11516852213E+01  0.76353823432E+01  0.51100000000E-03 0.  1.
        -12    1    3    3    0    0 -0.86774658830E+00 -0.43286398005E+02  0.98763388093E+01  0.44407288868E+02  0.00000000000E+00 0.  1.
</event>
<event>
 7    1  0.5634483E-012  0.5930194E+02  0.7816164E-02  0.1266605E+00
        -11   -1    0    0    0    0  0.00000000000E+00  0.00000000000E+00  0.45593999997E+02  0.45594000000E+02  0.51100000000E-03 0. -1.
         11   -1    0    0    0    0 -0.00000000000E+00 -0.00000000000E+00 -0.45593999997E+02  0.45594000000E+02  0.51100000000E-03 0.  1.
    9900012    2    1    2    0    0 -0.13332611931E+00  0.27522187396E+01 -0.31766785131E+02  0.59301935311E+02  0.49999984102E+02 0.  0.
         12    1    1    2    0    0  0.13332611931E+00 -0.27522187396E+01  0.31766785131E+02  0.31886064689E+02  0.00000000000E+00 0. -1.
         11    1    3    3    0    0  0.12122152027E+02 -0.29083525823E+01 -0.54606444104E+01  0.13609692214E+02  0.51100000000E-03 0. -1.
        -11    1    3    3    0    0  0.11494929015E+02  0.37763842511E+01 -0.32281569975E+01  0.12522598330E+02  0.51100000000E-03 0.  1.
         12    1    3    3    0    0 -0.23750407162E+02  0.18841870708E+01 -0.23077983723E+02  0.33169644767E+02  0.00000000000E+00 0. -1.
</event>
<event>
 7    1  0.5634483E-012  0.5930194E+02  0.7816164E-02  0.1266605E+00
        -11   -1    0    0    0    0  0.00000000000E+00  0.00000000000E+00  0.45593999997E+02  0.45594000000E+02  0.51100000000E-03 0.  1.
         11   -1    0    0    0    0 -0.00000000000E+00 -0.00000000000E+00 -0.45593999997E+02  0.45594000000E+02  0.51100000000E-03 0. -1.
    9900012    2    1    2    0    0  0.26407454635E+02  0.16046916884E+02  0.78653241276E+01  0.59301944656E+02  0.50000001146E+02 0.  0.
         12    1    1    2    0    0 -0.26407454635E+02 -0.16046916884E+02 -0.78653241276E+01  0.31886055344E+02  0.00000000000E+00 0. -1.
         11    1    3    3    0    0  0.12651580449E+00 -0.26084505879E+01  0.65600996404E+01  0.70608022400E+01  0.51100000000E-03 0.  1.
        -11    1    3    3    0    0  0.39820441737E+01  0.26712905053E+02  0.69092934120E+01  0.27877846184E+02  0.51100000000E-03 0. -1.
         12    1    3    3    0    0  0.22298894656E+02 -0.80575375809E+01 -0.56040689248E+01  0.24363296232E+02  0.00000000000E+00 0. -1.
</event>
<event>
 7    1  0.5634483E-012  0.5930195E+02  0.7816164E-02  0.1266605E+00
        -11   -1    0    0    0    0  0.00000000000E+00  0.00000000000E+00  0.45593999997E+02  0.45594000000E+02  0.51100000000E-03 0. -1.
         11   -1    0    0    0    0 -0.00000000000E+00 -0.00000000000E+00 -0.45593999997E+02  0.45594000000E+02  0.51100000000E-03 0.  1.
    9900012    2    1    2    0    0 -0.13399523626E+01  0.27446281365E+02 -0.16174865364E+02  0.59301951285E+02  0.50000013235E+02 0.  0.
         12    1    1    2    0    0  0.13399523626E+01 -0.27446281365E+02  0.16174865364E+02  0.31886048715E+02  0.00000000000E+00 0. -1.
         11    1    3    3    0    0 -0.17270161555E+02  0.25703124358E+00 -0.97048872307E+01  0.19811849525E+02  0.51100000000E-03 0.  1.
        -11    1    3    3    0    0  0.53211472804E+01  0.16186900952E+02  0.76540273215E+01  0.18679253339E+02  0.51100000000E-03 0. -1.
        -12    1    3    3    0    0  0.10609061911E+02  0.11002349170E+02 -0.14124005455E+02  0.20810848421E+02  0.00000000000E+00 0.  1.
</event>
<event>
 7    1  0.5634483E-012  0.5930194E+02  0.7816164E-02  0.1266605E+00
        -11   -1    0    0    0    0  0.00000000000E+00  0.00000000000E+00  0.45593999997E+02  0.45594000000E+02  0.51100000000E-03 0. -1.
         11   -1    0    0    0    0 -0.00000000000E+00 -0.00000000000E+00 -0.45593999997E+02  0.45594000000E+02  0.51100000000E-03 0.  1.
    9900012    2    1    2    0    0 -0.65543364305E+00  0.16443062118E+02 -0.27311476617E+02  0.59301942858E+02  0.49999997867E+02 0.  0.
         12    1    1    2    0    0  0.65543364305E+00 -0.16443062118E+02  0.27311476617E+02  0.31886057142E+02  0.00000000000E+00 0. -1.
         11    1    3    3    0    0  0.88455236683E+01  0.15573174992E+02 -0.24666526804E+02  0.30482857693E+02  0.51100000000E-03 0. -1.
        -11    1    3    3    0    0 -0.12942648459E+02  0.11179156899E+02 -0.47476357944E+01  0.17748964590E+02  0.51100000000E-03 0.  1.
         12    1    3    3    0    0  0.34416911479E+01 -0.10309269773E+02  0.21026859823E+01  0.11070120575E+02  0.00000000000E+00 0. -1.
</event>
<event>
 7    1  0.5634483E-012  0.5930196E+02  0.7816164E-02  0.1266605E+00
        -11   -1    0    0    0    0  0.00000000000E+00  0.00000000000E+00  0.45593999997E+02  0.45594000000E+02  0.51100000000E-03 0.  1.
         11   -1    0    0    0    0 -0.00000000000E+00 -0.00000000000E+00 -0.45593999997E+02  0.45594000000E+02  0.51100000000E-03 0. -1.
    9900012    2    1    2    0    0 -0.11398861188E+02  0.43038262774E+01  0.29466300826E+02  0.59301955382E+02  0.50000020708E+02 0.  0.
         12    1    1    2    0    0  0.11398861188E+02 -0.43038262774E+01 -0.29466300826E+02  0.31886044618E+02  0.00000000000E+00 0. -1.
         11    1    3    3    0    0 -0.81871691835E+01  0.73816450374E+01  0.17147488466E+02  0.20385160869E+02  0.51100000000E-03 0.  1.
        -11    1    3    3    0    0  0.57870217961E+00  0.15049295136E+02  0.13682284206E+02  0.20347507996E+02  0.51100000000E-03 0. -1.
         12    1    3    3    0    0 -0.37903941846E+01 -0.18127113896E+02 -0.13634718453E+01  0.18569286517E+02  0.00000000000E+00 0. -1.
</event>
<event>
 7    1  0.5634483E-012  0.5930195E+02  0.7816164E-02  0.1266605E+00
        -11   -1    0    0    0    0  0.00000000000E+00  0.00000000000E+00  0.45593999997E+02  0.45594000000E+02  0.51100000000E-03 0.  1.
         11   -1    0    0    0    0 -0.00000000000E+00 -0.00000000000E+00 -0.45593999997E+02  0.45594000000E+02  0.51100000000E-03 0. -1.
    9900012    2    1    2    0    0 -0.28569701247E+02  0.12851260086E+01 -0.14101096528E+02  0.59301948167E+02  0.50000007549E+02 0.  0.
         12    1    1    2    0    0  0.28569701247E+02 -0.12851260086E+01  0.14101096528E+02  0.31886051833E+02  0.00000000000E+00 0. -1.
         11    1    3    3    0    0  0.42190376266E+01 -0.17100423494E+02 -0.17067914556E+00  0.17614025486E+02  0.51100000000E-03 0. -1.
        -11    1    3    3    0    0 -0.11252160395E+02  0.61021489786E+00 -0.26861083692E+01  0.11584414280E+02  0.51100000000E-03 0.  1.
        -12    1    3    3    0    0 -0.21536578479E+02  0.17775334605E+02 -0.11244309013E+02  0.30103508402E+02  0.00000000000E+00 0.  1.
</event>
<event>
 7    1  0.5634483E-012  0.5930191E+02  0.7816164E-02  0.1266605E+00
        -11   -1    0    0    0    0  0.00000000000E+00  0.00000000000E+00  0.45593999997E+02  0.45594000000E+02  0.51100000000E-03 0. -1.
         11   -1    0    0    0    0 -0.00000000000E+00 -0.00000000000E+00 -0.45593999997E+02  0.45594000000E+02  0.51100000000E-03 0.  1.
    9900012    2    1    2    0    0  0.18931931332E+02  0.16430478835E+02  0.19706444680E+02  0.59301911801E+02  0.49999941226E+02 0.  0.
         12    1    1    2    0    0 -0.18931931332E+02 -0.16430478835E+02 -0.19706444680E+02  0.31886088199E+02  0.00000000000E+00 0. -1.
         11    1    3    3    0    0  0.38298962637E+01  0.11991242187E+02  0.21673126189E+01  0.12773223510E+02  0.51100000000E-03 0. -1.
        -11    1    3    3    0    0  0.69115758298E+01  0.11559780621E+02 -0.10100256133E+02  0.16834891822E+02  0.51100000000E-03 0.  1.
         12    1    3    3    0    0  0.81904592388E+01 -0.71205439727E+01  0.27639388194E+02  0.29693796469E+02  0.00000000000E+00 0. -1.
</event>
<event>
 7    1  0.5634483E-012  0.5930187E+02  0.7816164E-02  0.1266605E+00
        -11   -1    0    0    0    0  0.00000000000E+00  0.00000000000E+00  0.45593999997E+02  0.45594000000E+02  0.51100000000E-03 0.  1.
         11   -1    0    0    0    0 -0.00000000000E+00 -0.00000000000E+00 -0.45593999997E+02  0.45594000000E+02  0.51100000000E-03 0. -1.
    9900012    2    1    2    0    0  0.15487137726E+02 -0.27837893063E+02 -0.13876728124E+01  0.59301868831E+02  0.49999862859E+02 0.  0.
         12    1    1    2    0    0 -0.15487137726E+02  0.27837893063E+02  0.13876728124E+01  0.31886131169E+02  0.00000000000E+00 0. -1.
         11    1    3    3    0    0  0.77688849095E+01 -0.12002615845E+02  0.31309716578E+01  0.14636302253E+02  0.51100000000E-03 0. -1.
        -11    1    3    3    0    0  0.71186018043E+01 -0.61257681026E+01  0.17907315494E+02  0.20220570589E+02  0.51100000000E-03 0.  1.
         12    1    3    3    0    0  0.59965101175E+00 -0.97095091154E+01 -0.22425959964E+02  0.24444995989E+02  0.00000000000E+00 0. -1.
</event>
<event>
 7    1  0.5634483E-012  0.5930203E+02  0.7816164E-02  0.1266604E+00
        -11   -1    0    0    0    0  0.00000000000E+00  0.00000000000E+00  0.45593999997E+02  0.45594000000E+02  0.51100000000E-03 0.  1.
         11   -1    0    0    0    0 -0.00000000000E+00 -0.00000000000E+00 -0.45593999997E+02  0.45594000000E+02  0.51100000000E-03 0. -1.
    9900012    2    1    2    0    0  0.19019783682E+02 -0.24155273339E+02  0.84549348869E+01  0.59302026198E+02  0.50000149858E+02 0.  0.
         12    1    1    2    0    0 -0.19019783682E+02  0.24155273339E+02 -0.84549348869E+01  0.31885973802E+02  0.00000000000E+00 0. -1.
         11    1    3    3    0    0 -0.59434046590E-01  0.63223055780E+01  0.52631389682E+01  0.82265249218E+01  0.51100000000E-03 0. -1.
        -11    1    3    3    0    0  0.71051981400E+01 -0.68389888212E+01  0.18143122857E+02  0.20650145665E+02  0.51100000000E-03 0.  1.
         12    1    3    3    0    0  0.11974019589E+02 -0.23638590096E+02 -0.14951326939E+02  0.30425355611E+02  0.00000000000E+00 0. -1.
</event>
<event>
 7    1  0.5634483E-012  0.5930196E+02  0.7816164E-02  0.1266605E+00
        -11   -1    0    0    0    0  0.00000000000E+00  0.00000000000E+00  0.45593999997E+02  0.45594000000E+02  0.51100000000E-03 0.  1.
         11   -1    0    0    0    0 -0.00000000000E+00 -0.00000000000E+00 -0.45593999997E+02  0.45594000000E+02  0.51100000000E-03 0. -1.
    9900012    2    1    2    0    0  0.25809700548E+02  0.11200496430E+02  0.15004254592E+02  0.59301962013E+02  0.50000032801E+02 0.  0.
         12    1    1    2    0    0 -0.25809700548E+02 -0.11200496430E+02 -0.15004254592E+02  0.31886037987E+02  0.00000000000E+00 0. -1.
         11    1    3    3    0    0 -0.46959297124E+00  0.92942664544E+01  0.11713373396E+02  0.14960181251E+02  0.51100000000E-03 0.  1.
        -11    1    3    3    0    0  0.11915367998E+00 -0.11904413840E+02  0.80615707266E+01  0.14377697636E+02  0.51100000000E-03 0. -1.
         12    1    3    3    0    0  0.26160139839E+02  0.13810643815E+02 -0.47706895310E+01  0.29964083126E+02  0.00000000000E+00 0. -1.
</event>
<event>
 7    1  0.5634483E-012  0.5930194E+02  0.7816164E-02  0.1266605E+00
        -11   -1    0    0    0    0  0.00000000000E+00  0.00000000000E+00  0.45593999997E+02  0.45594000000E+02  0.51100000000E-03 0.  1.
         11   -1    0    0    0    0 -0.00000000000E+00 -0.00000000000E+00 -0.45593999997E+02  0.45594000000E+02  0.51100000000E-03 0. -1.
    9900012    2    1    2    0    0  0.95783336814E+01 -0.28792508188E+02 -0.97963315528E+01  0.59301935399E+02  0.49999984263E+02 0.  0.
         12    1    1    2    0    0 -0.95783336814E+01  0.28792508188E+02  0.97963315528E+01  0.31886064601E+02  0.00000000000E+00 0. -1.
         11    1    3    3    0    0  0.14012406658E+02 -0.57760561157E+01 -0.20694335689E+02  0.25650845882E+02  0.51100000000E-03 0. -1.
        -11    1    3    3    0    0  0.64786786036E+01 -0.25997409989E+01  0.75115809808E+01  0.10254549176E+02  0.51100000000E-03 0.  1.
         12    1    3    3    0    0 -0.10912751580E+02 -0.20416711073E+02  0.33864231557E+01  0.23396540340E+02  0.00000000000E+00 0. -1.
</event>
<event>
 7    1  0.5634483E-012  0.5930194E+02  0.7816164E-02  0.1266605E+00
        -11   -1    0    0    0    0  0.00000000000E+00  0.00000000000E+00  0.45593999997E+02  0.45594000000E+02  0.51100000000E-03 0. -1.
         11   -1    0    0    0    0 -0.00000000000E+00 -0.00000000000E+00 -0.45593999997E+02  0.45594000000E+02  0.51100000000E-03 0.  1.
    9900012    2    1    2    0    0  0.15904135677E+02  0.24531493650E+02 -0.12727326355E+02  0.59301944294E+02  0.50000000486E+02 0.  0.
         12    1    1    2    0    0 -0.15904135677E+02 -0.24531493650E+02  0.12727326355E+02  0.31886055706E+02  0.00000000000E+00 0. -1.
         11    1    3    3    0    0  0.17018492619E+02 -0.14650372046E+01 -0.11455947696E+00  0.17081819258E+02  0.51100000000E-03 0. -1.
        -11    1    3    3    0    0  0.53068796876E+01 -0.42325549555E+01 -0.87526965659E+01  0.11076425006E+02  0.51100000000E-03 0.  1.
        -12    1    3    3    0    0 -0.64212366291E+01  0.30229085810E+02 -0.38600703116E+01  0.31143700030E+02  0.00000000000E+00 0.  1.
</event>
<event>
 7    1  0.5634483E-012  0.5930193E+02  0.7816164E-02  0.1266605E+00
        -11   -1    0    0    0    0  0.00000000000E+00  0.00000000000E+00  0.45593999997E+02  0.45594000000E+02  0.51100000000E-03 0.  1.
         11   -1    0    0    0    0 -0.00000000000E+00 -0.00000000000E+00 -0.45593999997E+02  0.45594000000E+02  0.51100000000E-03 0. -1.
    9900012    2    1    2    0    0  0.28989518087E+02  0.12046436258E+02 -0.55868091078E+01  0.59301933742E+02  0.49999981241E+02 0.  0.
         12    1    1    2    0    0 -0.28989518087E+02 -0.12046436258E+02  0.55868091078E+01  0.31886066258E+02  0.00000000000E+00 0. -1.
         11    1    3    3    0    0 -0.54873306334E+01  0.93830239166E+01 -0.11253137828E+02  0.15645607900E+02  0.51100000000E-03 0. -1.
        -11    1    3    3    0    0  0.62661889278E+01  0.79785991669E+01 -0.69519594751E+01  0.12298492149E+02  0.51100000000E-03 0.  1.
        -12    1    3    3    0    0  0.28210659792E+02 -0.53151868254E+01  0.12618288196E+02  0.31357833693E+02  0.00000000000E+00 0.  1.
</event>
<event>
 7    1  0.5634483E-012  0.5930194E+02  0.7816164E-02  0.1266605E+00
        -11   -1    0    0    0    0  0.00000000000E+00  0.00000000000E+00  0.45593999997E+02  0.45594000000E+02  0.51100000000E-03 0.  1.
         11   -1    0    0    0    0 -0.00000000000E+00 -0.00000000000E+00 -0.45593999997E+02  0.45594000000E+02  0.51100000000E-03 0. -1.
    9900012    2    1    2    0    0  0.31009118098E+02  0.71030348474E+01  0.21684729390E+01  0.59301940598E+02  0.49999993746E+02 0.  0.
         12    1    1    2    0    0 -0.31009118098E+02 -0.71030348474E+01 -0.21684729390E+01  0.31886059402E+02  0.00000000000E+00 0. -1.
         11    1    3    3    0    0  0.14611719069E+00  0.60004283137E+01  0.28155466797E+01  0.66297657234E+01  0.51100000000E-03 0. -1.
        -11    1    3    3    0    0  0.22531955820E+02  0.16615877945E+02  0.12536775059E+02  0.30674862055E+02  0.51100000000E-03 0.  1.
         12    1    3    3    0    0  0.83310450876E+01 -0.15513271411E+02 -0.13183848800E+02  0.21997312820E+02  0.00000000000E+00 0. -1.
</event>
<event>
 7    1  0.5634483E-012  0.5930193E+02  0.7816164E-02  0.1266605E+00
        -11   -1    0    0    0    0  0.00000000000E+00  0.00000000000E+00  0.45593999997E+02  0.45594000000E+02  0.51100000000E-03 0.  1.
         11   -1    0    0    0    0 -0.00000000000E+00 -0.00000000000E+00 -0.45593999997E+02  0.45594000000E+02  0.51100000000E-03 0. -1.
    9900012    2    1    2    0    0  0.64116561850E+01 -0.70217651580E+01  0.30435291228E+02  0.59301929796E+02  0.49999974044E+02 0.  0.
         12    1    1    2    0    0 -0.64116561850E+01  0.70217651580E+01 -0.30435291228E+02  0.31886070204E+02  0.00000000000E+00 0. -1.
         11    1    3    3    0    0 -0.66745854369E+01 -0.73889266977E+01 -0.35774931999E+01  0.10580396323E+02  0.51100000000E-03 0. -1.
        -11    1    3    3    0    0 -0.10588394519E+02  0.28481491454E+01  0.89275348151E+01  0.14139551979E+02  0.51100000000E-03 0.  1.
         12    1    3    3    0    0  0.23674636140E+02 -0.24809876056E+01  0.25085249612E+02  0.34581981493E+02  0.00000000000E+00 0. -1.
</event>
<event>
 7    1  0.5634483E-012  0.5930192E+02  0.7816164E-02  0.1266605E+00
        -11   -1    0    0    0    0  0.00000000000E+00  0.00000000000E+00  0.45593999997E+02  0.45594000000E+02  0.51100000000E-03 0.  1.
         11   -1    0    0    0    0 -0.00000000000E+00 -0.00000000000E+00 -0.45593999997E+02  0.45594000000E+02  0.51100000000E-03 0. -1.
    9900012    2    1    2    0    0  0.15537602389E+02  0.23692680224E+02 -0.14627437066E+02  0.59301919976E+02  0.49999956136E+02 0.  0.
         12    1    1    2    0    0 -0.15537602389E+02 -0.23692680224E+02  0.14627437066E+02  0.31886080024E+02  0.00000000000E+00 0. -1.
         11    1    3    3    0    0  0.15504249181E+02  0.45704785909E+01 -0.39788391243E-01  0.16163928997E+02  0.51100000000E-03 0. -1.
        -11    1    3    3    0    0 -0.62636992344E+01  0.26117548129E+02 -0.18842800956E+02  0.32808709156E+02  0.51100000000E-03 0.  1.
         12    1    3    3    0    0  0.62970524415E+01 -0.69953464959E+01  0.42551522819E+01  0.10329281824E+02  0.00000000000E+00 0. -1.
</event>
<event>
 7    1  0.5634483E-012  0.5930191E+02  0.7816164E-02  0.1266605E+00
        -11   -1    0    0    0    0  0.00000000000E+00  0.00000000000E+00  0.45593999997E+02  0.45594000000E+02  0.51100000000E-03 0.  1.
         11   -1    0    0    0    0 -0.00000000000E+00 -0.00000000000E+00 -0.45593999997E+02  0.45594000000E+02  0.51100000000E-03 0. -1.
    9900012    2    1    2    0    0 -0.18989902855E+02 -0.13935729871E+02  0.21491894600E+02  0.59301913521E+02  0.49999944362E+02 0.  0.
         12    1    1    2    0    0  0.18989902855E+02  0.13935729871E+02 -0.21491894600E+02  0.31886086479E+02  0.00000000000E+00 0. -1.
         11    1    3    3    0    0  0.39508942534E+01 -0.16461288926E+02  0.10064864210E+02  0.19694798560E+02  0.51100000000E-03 0. -1.
        -11    1    3    3    0    0 -0.61099996739E+01 -0.28343766982E+01  0.19171539298E+02  0.20320278212E+02  0.51100000000E-03 0.  1.
        -12    1    3    3    0    0 -0.16830797434E+02  0.53599357533E+01 -0.77445089074E+01  0.19286836749E+02  0.00000000000E+00 0.  1.
</event>
<event>
 7    1  0.5634483E-012  0.5930193E+02  0.7816164E-02  0.1266605E+00
        -11   -1    0    0    0    0  0.00000000000E+00  0.00000000000E+00  0.45593999997E+02  0.45594000000E+02  0.51100000000E-03 0. -1.
         11   -1    0    0    0    0 -0.00000000000E+00 -0.00000000000E+00 -0.45593999997E+02  0.45594000000E+02  0.51100000000E-03 0.  1.
    9900012    2    1    2    0    0  0.13151795669E+02 -0.28129183133E+02 -0.72457641747E+01  0.59301925116E+02  0.49999965509E+02 0.  0.
         12    1    1    2    0    0 -0.13151795669E+02  0.28129183133E+02  0.72457641747E+01  0.31886074884E+02  0.00000000000E+00 0. -1.
         11    1    3    3    0    0 -0.43119345320E+01  0.31150091769E+01 -0.17129655777E+01  0.55884087997E+01  0.51100000000E-03 0. -1.
        -11    1    3    3    0    0  0.16696783495E+02  0.47647404007E+01 -0.74187521653E+00  0.17379174585E+02  0.51100000000E-03 0.  1.
         12    1    3    3    0    0  0.76694670635E+00 -0.36008932710E+02 -0.47909233804E+01  0.36334341731E+02  0.00000000000E+00 0. -1.
</event>
<event>
 7    1  0.5634483E-012  0.5930191E+02  0.7816164E-02  0.1266605E+00
        -11   -1    0    0    0    0  0.00000000000E+00  0.00000000000E+00  0.45593999997E+02  0.45594000000E+02  0.51100000000E-03 0.  1.
         11   -1    0    0    0    0 -0.00000000000E+00 -0.00000000000E+00 -0.45593999997E+02  0.45594000000E+02  0.51100000000E-03 0. -1.
    9900012    2    1    2    0    0 -0.48054791756E-01  0.73317838114E+01  0.31031686904E+02  0.59301906554E+02  0.49999931657E+02 0.  0.
         12    1    1    2    0    0  0.48054791756E-01 -0.73317838114E+01 -0.31031686904E+02  0.31886093446E+02  0.00000000000E+00 0. -1.
         11    1    3    3    0    0 -0.16571202955E+02 -0.52163789717E+01  0.41197627037E+01  0.17854630267E+02  0.51100000000E-03 0. -1.
        -11    1    3    3    0    0  0.93361082070E+01 -0.51950333546E+01  0.16495517966E+02  0.19653330538E+02  0.51100000000E-03 0.  1.
         12    1    3    3    0    0  0.71870399564E+01  0.17743196138E+02  0.10416406235E+02  0.21793945750E+02  0.00000000000E+00 0. -1.
</event>
<event>
 7    1  0.5634483E-012  0.5930193E+02  0.7816164E-02  0.1266605E+00
        -11   -1    0    0    0    0  0.00000000000E+00  0.00000000000E+00  0.45593999997E+02  0.45594000000E+02  0.51100000000E-03 0. -1.
         11   -1    0    0    0    0 -0.00000000000E+00 -0.00000000000E+00 -0.45593999997E+02  0.45594000000E+02  0.51100000000E-03 0.  1.
    9900012    2    1    2    0    0  0.12630070857E+02 -0.11227353025E+02 -0.27039771935E+02  0.59301930752E+02  0.49999975788E+02 0.  0.
         12    1    1    2    0    0 -0.12630070857E+02  0.11227353025E+02  0.27039771935E+02  0.31886069248E+02  0.00000000000E+00 0. -1.
         11    1    3    3    0    0 -0.55405256144E+01  0.30974502783E+01  0.72414740160E+00  0.63887410364E+01  0.51100000000E-03 0. -1.
        -11    1    3    3    0    0  0.10367253590E+01 -0.13263507604E+02  0.63362147252E+01  0.14735774521E+02  0.51100000000E-03 0.  1.
        -12    1    3    3    0    0  0.17133871113E+02 -0.10612956995E+01 -0.34100134062E+02  0.38177415194E+02  0.00000000000E+00 0.  1.
</event>
<event>
 7    1  0.5634483E-012  0.5930198E+02  0.7816164E-02  0.1266605E+00
        -11   -1    0    0    0    0  0.00000000000E+00  0.00000000000E+00  0.45593999997E+02  0.45594000000E+02  0.51100000000E-03 0.  1.
         11   -1    0    0    0    0 -0.00000000000E+00 -0.00000000000E+00 -0.45593999997E+02  0.45594000000E+02  0.51100000000E-03 0. -1.
    9900012    2    1    2    0    0 -0.24403243342E+02 -0.17236860699E+02  0.11139602685E+02  0.59301977979E+02  0.50000061918E+02 0.  0.
         12    1    1    2    0    0  0.24403243342E+02  0.17236860699E+02 -0.11139602685E+02  0.31886022021E+02  0.00000000000E+00 0. -1.
         11    1    3    3    0    0 -0.11268815383E+02  0.64905105617E+01 -0.16290408056E+01  0.13105979616E+02  0.51100000000E-03 0. -1.
        -11    1    3    3    0    0 -0.16622407732E+02 -0.63553141951E+01 -0.74672296586E+01  0.19299066723E+02  0.51100000000E-03 0.  1.
        -12    1    3    3    0    0  0.34879797725E+01 -0.17372057065E+02  0.20235873149E+02  0.26896931640E+02  0.00000000000E+00 0.  1.
</event>
<event>
 7    1  0.5634483E-012  0.5930192E+02  0.7816164E-02  0.1266605E+00
        -11   -1    0    0    0    0  0.00000000000E+00  0.00000000000E+00  0.45593999997E+02  0.45594000000E+02  0.51100000000E-03 0.  1.
         11   -1    0    0    0    0 -0.00000000000E+00 -0.00000000000E+00 -0.45593999997E+02  0.45594000000E+02  0.51100000000E-03 0. -1.
    9900012    2    1    2    0    0 -0.20373795106E+02 -0.98602654098E+01  0.22458978221E+02  0.59301920535E+02  0.49999957154E+02 0.  0.
         12    1    1    2    0    0  0.20373795106E+02  0.98602654098E+01 -0.22458978221E+02  0.31886079465E+02  0.00000000000E+00 0. -1.
         11    1    3    3    0    0  0.48484478254E+01 -0.60754261436E+01 -0.96566143161E+01  0.12396307896E+02  0.51100000000E-03 0. -1.
        -11    1    3    3    0    0  0.25844999419E+00 -0.75476358051E+01  0.32573958245E+01  0.82246112653E+01  0.51100000000E-03 0.  1.
        -12    1    3    3    0    0 -0.25480692925E+02  0.37627965389E+01  0.28858196712E+02  0.38681001373E+02  0.00000000000E+00 0.  1.
</event>
<event>
 7    1  0.5634483E-012  0.5930194E+02  0.7816164E-02  0.1266605E+00
        -11   -1    0    0    0    0  0.00000000000E+00  0.00000000000E+00  0.45593999997E+02  0.45594000000E+02  0.51100000000E-03 0.  1.
         11   -1    0    0    0    0 -0.00000000000E+00 -0.00000000000E+00 -0.45593999997E+02  0.45594000000E+02  0.51100000000E-03 0. -1.
    9900012    2    1    2    0    0 -0.67505378331E+01 -0.41290586798E+01  0.30888540415E+02  0.59301940105E+02  0.49999992847E+02 0.  0.
         12    1    1    2    0    0  0.67505378331E+01  0.41290586798E+01 -0.30888540415E+02  0.31886059895E+02  0.00000000000E+00 0. -1.
         11    1    3    3    0    0 -0.18194117907E+02 -0.11610585679E+02  0.41211582743E+01  0.21973064693E+02  0.51100000000E-03 0. -1.
        -11    1    3    3    0    0  0.10036251320E+02 -0.48845446062E+01  0.49477570680E+01  0.12209234900E+02  0.51100000000E-03 0.  1.
        -12    1    3    3    0    0  0.14073287536E+01  0.12366071605E+02  0.21819625073E+02  0.25119640513E+02  0.00000000000E+00 0.  1.
</event>
<event>
 7    1  0.5634483E-012  0.5930194E+02  0.7816164E-02  0.1266605E+00
        -11   -1    0    0    0    0  0.00000000000E+00  0.00000000000E+00  0.45593999997E+02  0.45594000000E+02  0.51100000000E-03 0.  1.
         11   -1    0    0    0    0 -0.00000000000E+00 -0.00000000000E+00 -0.45593999997E+02  0.45594000000E+02  0.51100000000E-03 0. -1.
    9900012    2    1    2    0    0  0.20594470697E+02  0.81197395848E+01  0.22949035640E+02  0.59301943000E+02  0.49999998126E+02 0.  0.
         12    1    1    2    0    0 -0.20594470697E+02 -0.81197395848E+01 -0.22949035640E+02  0.31886057000E+02  0.00000000000E+00 0. -1.
         11    1    3    3    0    0 -0.28753736911E+01  0.80651904678E+01 -0.62372952218E+00  0.85851097793E+01  0.51100000000E-03 0. -1.
        -11    1    3    3    0    0  0.13305025438E+02  0.18988113339E+02  0.14793381307E+02  0.27503023122E+02  0.51100000000E-03 0.  1.
        -12    1    3    3    0    0  0.10164818949E+02 -0.18933564222E+02  0.87793838555E+01  0.23213810099E+02  0.00000000000E+00 0.  1.
</event>
<event>
 7    1  0.5634483E-012  0.5930194E+02  0.7816164E-02  0.1266605E+00
        -11   -1    0    0    0    0  0.00000000000E+00  0.00000000000E+00  0.45593999997E+02  0.45594000000E+02  0.51100000000E-03 0.  1.
         11   -1    0    0    0    0 -0.00000000000E+00 -0.00000000000E+00 -0.45593999997E+02  0.45594000000E+02  0.51100000000E-03 0. -1.
    9900012    2    1    2    0    0  0.87269824633E+01 -0.91395174744E+01  0.29275069573E+02  0.59301941901E+02  0.49999996122E+02 0.  0.
         12    1    1    2    0    0 -0.87269824633E+01  0.91395174744E+01 -0.29275069573E+02  0.31886058099E+02  0.00000000000E+00 0. -1.
         11    1    3    3    0    0  0.21183515435E+01 -0.35059464968E+01  0.15995993161E+02  0.16512143155E+02  0.51100000000E-03 0. -1.
        -11    1    3    3    0    0 -0.45052552281E+01  0.15856081772E+02  0.53672160564E+01  0.17335502943E+02  0.51100000000E-03 0.  1.
         12    1    3    3    0    0  0.11113886148E+02 -0.21489652749E+02  0.79118603555E+01  0.25454295804E+02  0.00000000000E+00 0. -1.
</event>
<event>
 7    1  0.5634483E-012  0.5930193E+02  0.7816164E-02  0.1266605E+00
        -11   -1    0    0    0    0  0.00000000000E+00  0.00000000000E+00  0.45593999997E+02  0.45594000000E+02  0.51100000000E-03 0.  1.
         11   -1    0    0    0    0 -0.00000000000E+00 -0.00000000000E+00 -0.45593999997E+02  0.45594000000E+02  0.51100000000E-03 0. -1.
    9900012    2    1    2    0    0 -0.79673927033E+01  0.12306108061E+02  0.28316105337E+02  0.59301929945E+02  0.49999974317E+02 0.  0.
         12    1    1    2    0    0  0.79673927033E+01 -0.12306108061E+02 -0.28316105337E+02  0.31886070055E+02  0.00000000000E+00 0. -1.
         11    1    3    3    0    0 -0.33271567452E+01 -0.81636543110E+01  0.27042182018E+01  0.92210639333E+01  0.51100000000E-03 0. -1.
        -11    1    3    3    0    0  0.11653879332E+02  0.38106464127E+01 -0.35381013538E+01  0.12761351458E+02  0.51100000000E-03 0.  1.
        -12    1    3    3    0    0 -0.16294115291E+02  0.16659115959E+02  0.29149988489E+02  0.37319514554E+02  0.00000000000E+00 0.  1.
</event>
<event>
 7    1  0.5634483E-012  0.5930193E+02  0.7816164E-02  0.1266605E+00
        -11   -1    0    0    0    0  0.00000000000E+00  0.00000000000E+00  0.45593999997E+02  0.45594000000E+02  0.51100000000E-03 0.  1.
         11   -1    0    0    0    0 -0.00000000000E+00 -0.00000000000E+00 -0.45593999997E+02  0.45594000000E+02  0.51100000000E-03 0. -1.
    9900012    2    1    2    0    0 -0.62092319862E+01 -0.25513167965E+02  0.18089913367E+02  0.59301933026E+02  0.49999979935E+02 0.  0.
         12    1    1    2    0    0  0.62092319862E+01  0.25513167965E+02 -0.18089913367E+02  0.31886066974E+02  0.00000000000E+00 0. -1.
         11    1    3    3    0    0 -0.70747443058E+01 -0.99533825816E+01  0.13739048853E+02  0.18381602092E+02  0.51100000000E-03 0. -1.
        -11    1    3    3    0    0  0.13366872848E+02 -0.20337387412E+02  0.10106571016E+02  0.26351952384E+02  0.51100000000E-03 0.  1.
         12    1    3    3    0    0 -0.12501360529E+02  0.47776020292E+01 -0.57557065027E+01  0.14568378550E+02  0.00000000000E+00 0. -1.
</event>
<event>
 7    1  0.5634483E-012  0.5930193E+02  0.7816164E-02  0.1266605E+00
        -11   -1    0    0    0    0  0.00000000000E+00  0.00000000000E+00  0.45593999997E+02  0.45594000000E+02  0.51100000000E-03 0.  1.
         11   -1    0    0    0    0 -0.00000000000E+00 -0.00000000000E+00 -0.45593999997E+02  0.45594000000E+02  0.51100000000E-03 0. -1.
    9900012    2    1    2    0    0  0.95683624269E+01 -0.30352798883E+02  0.19686539201E+01  0.59301928467E+02  0.49999971621E+02 0.  0.
         12    1    1    2    0    0 -0.95683624269E+01  0.30352798883E+02 -0.19686539201E+01  0.31886071533E+02  0.00000000000E+00 0. -1.
         11    1    3    3    0    0 -0.10184440542E+01 -0.42837746998E+01  0.15897456034E+02  0.16495971102E+02  0.51100000000E-03 0. -1.
        -11    1    3    3    0    0  0.88854349165E+01 -0.30820197002E+02 -0.48793797657E+01  0.32444473244E+02  0.51100000000E-03 0.  1.
        -12    1    3    3    0    0  0.17013715646E+01  0.47511728191E+01 -0.90494223485E+01  0.10361484121E+02  0.00000000000E+00 0.  1.
</event>
<event>
 7    1  0.5634483E-012  0.5930234E+02  0.7816164E-02  0.1266603E+00
        -11   -1    0    0    0    0  0.00000000000E+00  0.00000000000E+00  0.45593999997E+02  0.45594000000E+02  0.51100000000E-03 0. -1.
         11   -1    0    0    0    0 -0.00000000000E+00 -0.00000000000E+00 -0.45593999997E+02  0.45594000000E+02  0.51100000000E-03 0.  1.
    9900012    2    1    2    0    0  0.21792980272E+01 -0.30090160625E+02  0.10321254246E+02  0.59302338715E+02  0.50000719810E+02 0.  0.
         12    1    1    2    0    0 -0.21792980272E+01  0.30090160625E+02 -0.10321254246E+02  0.31885661285E+02  0.00000000000E+00 0. -1.
         11    1    3    3    0    0  0.44542442673E+01  0.71439098007E+01  0.10220897167E+02  0.13241694695E+02  0.51100000000E-03 0. -1.
        -11    1    3    3    0    0 -0.25989677711E+01  0.36701048079E+01 -0.23647422666E+01  0.50809752041E+01  0.51100000000E-03 0.  1.
         12    1    3    3    0    0  0.32402153095E+00 -0.40904175234E+02  0.24650993453E+01  0.40979668816E+02  0.00000000000E+00 0. -1.
</event>
<event>
 7    1  0.5634483E-012  0.5930197E+02  0.7816164E-02  0.1266605E+00
        -11   -1    0    0    0    0  0.00000000000E+00  0.00000000000E+00  0.45593999997E+02  0.45594000000E+02  0.51100000000E-03 0.  1.
         11   -1    0    0    0    0 -0.00000000000E+00 -0.00000000000E+00 -0.45593999997E+02  0.45594000000E+02  0.51100000000E-03 0. -1.
    9900012    2    1    2    0    0 -0.18660768168E+02 -0.23430198435E+02  0.10932550824E+02  0.59301966461E+02  0.50000040913E+02 0.  0.
         12    1    1    2    0    0  0.18660768168E+02  0.23430198435E+02 -0.10932550824E+02  0.31886033539E+02  0.00000000000E+00 0. -1.
         11    1    3    3    0    0 -0.32756004751E+01  0.92652298196E+01  0.79719890159E+01  0.12654115979E+02  0.51100000000E-03 0. -1.
        -11    1    3    3    0    0  0.82664904380E+01 -0.11441893090E+02  0.44914739075E+01  0.14813005089E+02  0.51100000000E-03 0.  1.
        -12    1    3    3    0    0 -0.23651658131E+02 -0.21253535164E+02 -0.15309120993E+01  0.31834845393E+02  0.00000000000E+00 0.  1.
</event>
<event>
 7    1  0.5634483E-012  0.5930191E+02  0.7816164E-02  0.1266605E+00
        -11   -1    0    0    0    0  0.00000000000E+00  0.00000000000E+00  0.45593999997E+02  0.45594000000E+02  0.51100000000E-03 0.  1.
         11   -1    0    0    0    0 -0.00000000000E+00 -0.00000000000E+00 -0.45593999997E+02  0.45594000000E+02  0.51100000000E-03 0. -1.
    9900012    2    1    2    0    0  0.37644260941E+01 -0.25927348656E+02  0.18174828201E+02  0.59301910678E+02  0.49999939177E+02 0.  0.
         12    1    1    2    0    0 -0.37644260941E+01  0.25927348656E+02 -0.18174828201E+02  0.31886089322E+02  0.00000000000E+00 0. -1.
         11    1    3    3    0    0 -0.16888710736E+02 -0.20318797676E+01  0.93629400821E+01  0.19417047483E+02  0.51100000000E-03 0. -1.
        -11    1    3    3    0    0  0.16299461295E+02 -0.21341825032E+01  0.60705781088E+01  0.17523672341E+02  0.51100000000E-03 0.  1.
        -12    1    3    3    0    0  0.43536755351E+01 -0.21761286385E+02  0.27413100096E+01  0.22361190853E+02  0.00000000000E+00 0.  1.
</event>
<event>
 7    1  0.5634483E-012  0.5930195E+02  0.7816164E-02  0.1266605E+00
        -11   -1    0    0    0    0  0.00000000000E+00  0.00000000000E+00  0.45593999997E+02  0.45594000000E+02  0.51100000000E-03 0. -1.
         11   -1    0    0    0    0 -0.00000000000E+00 -0.00000000000E+00 -0.45593999997E+02  0.45594000000E+02  0.51100000000E-03 0.  1.
    9900012    2    1    2    0    0  0.19735991720E+02 -0.14608284658E+02  0.20342295528E+02  0.59301947608E+02  0.50000006529E+02 0.  0.
         12    1    1    2    0    0 -0.19735991720E+02  0.14608284658E+02 -0.20342295528E+02  0.31886052392E+02  0.00000000000E+00 0. -1.
         11    1    3    3    0    0  0.18259549719E+01 -0.58628809053E+01 -0.55981056091E+01  0.83094085674E+01  0.51100000000E-03 0. -1.
        -11    1    3    3    0    0  0.24838458181E+02 -0.12886554337E+02  0.48359169347E+01  0.28397154442E+02  0.51100000000E-03 0.  1.
         12    1    3    3    0    0 -0.69284214336E+01  0.41411505847E+01  0.21104484202E+02  0.22595384599E+02  0.00000000000E+00 0. -1.
</event>
<event>
 7    1  0.5634483E-012  0.5930187E+02  0.7816164E-02  0.1266605E+00
        -11   -1    0    0    0    0  0.00000000000E+00  0.00000000000E+00  0.45593999997E+02  0.45594000000E+02  0.51100000000E-03 0.  1.
         11   -1    0    0    0    0 -0.00000000000E+00 -0.00000000000E+00 -0.45593999997E+02  0.45594000000E+02  0.51100000000E-03 0. -1.
    9900012    2    1    2    0    0  0.24874754287E-01 -0.11585379670E+02  0.29706958800E+02  0.59301873832E+02  0.49999871979E+02 0.  0.
         12    1    1    2    0    0 -0.24874754287E-01  0.11585379670E+02 -0.29706958800E+02  0.31886126168E+02  0.00000000000E+00 0. -1.
         11    1    3    3    0    0 -0.94861129551E+01 -0.70817757353E+01 -0.10879407259E+02  0.16077916194E+02  0.51100000000E-03 0. -1.
        -11    1    3    3    0    0 -0.19152713998E+00 -0.49271996488E+01  0.10317534794E+02  0.11435274527E+02  0.51100000000E-03 0.  1.
        -12    1    3    3    0    0  0.97025148493E+01  0.42359571425E+00  0.30268831265E+02  0.31788683111E+02  0.00000000000E+00 0.  1.
</event>
<event>
 7    1  0.5634483E-012  0.5930197E+02  0.7816164E-02  0.1266605E+00
        -11   -1    0    0    0    0  0.00000000000E+00  0.00000000000E+00  0.45593999997E+02  0.45594000000E+02  0.51100000000E-03 0. -1.
         11   -1    0    0    0    0 -0.00000000000E+00 -0.00000000000E+00 -0.45593999997E+02  0.45594000000E+02  0.51100000000E-03 0.  1.
    9900012    2    1    2    0    0 -0.15527538889E+02 -0.26904321723E+02 -0.71952598506E+01  0.59301972407E+02  0.50000051757E+02 0.  0.
         12    1    1    2    0    0  0.15527538889E+02  0.26904321723E+02  0.71952598506E+01  0.31886027593E+02  0.00000000000E+00 0. -1.
         11    1    3    3    0    0  0.13780209870E+01 -0.19132912100E+02  0.10582669038E+02  0.21907992868E+02  0.51100000000E-03 0. -1.
        -11    1    3    3    0    0 -0.78527420407E+01 -0.16139041902E+02 -0.17493499761E+02  0.25063055784E+02  0.51100000000E-03 0.  1.
         12    1    3    3    0    0 -0.90528178351E+01  0.83676322792E+01 -0.28442912734E+00  0.12330923755E+02  0.00000000000E+00 0. -1.
</event>
<event>
 7    1  0.5634483E-012  0.5930193E+02  0.7816164E-02  0.1266605E+00
        -11   -1    0    0    0    0  0.00000000000E+00  0.00000000000E+00  0.45593999997E+02  0.45594000000E+02  0.51100000000E-03 0.  1.
         11   -1    0    0    0    0 -0.00000000000E+00 -0.00000000000E+00 -0.45593999997E+02  0.45594000000E+02  0.51100000000E-03 0. -1.
    9900012    2    1    2    0    0 -0.74226488549E+01 -0.12057663409E+02  0.28569885301E+02  0.59301932368E+02  0.49999978735E+02 0.  0.
         12    1    1    2    0    0  0.74226488549E+01  0.12057663409E+02 -0.28569885301E+02  0.31886067632E+02  0.00000000000E+00 0. -1.
         11    1    3    3    0    0  0.16835057211E+01  0.80617986210E+01 -0.67782209518E+00  0.82635483644E+01  0.51100000000E-03 0. -1.
        -11    1    3    3    0    0 -0.10697763605E+02  0.77696049576E+01  0.53008928359E+01  0.14244590990E+02  0.51100000000E-03 0.  1.
         12    1    3    3    0    0  0.15916090294E+01 -0.27889066987E+02  0.23946814561E+02  0.36793793014E+02  0.00000000000E+00 0. -1.
</event>
<event>
 7    1  0.5634483E-012  0.5930192E+02  0.7816164E-02  0.1266605E+00
        -11   -1    0    0    0    0  0.00000000000E+00  0.00000000000E+00  0.45593999997E+02  0.45594000000E+02  0.51100000000E-03 0.  1.
         11   -1    0    0    0    0 -0.00000000000E+00 -0.00000000000E+00 -0.45593999997E+02  0.45594000000E+02  0.51100000000E-03 0. -1.
    9900012    2    1    2    0    0  0.15171205797E+02 -0.12107404387E+02  0.25297572943E+02  0.59301922738E+02  0.49999961173E+02 0.  0.
         12    1    1    2    0    0 -0.15171205797E+02  0.12107404387E+02 -0.25297572943E+02  0.31886077262E+02  0.00000000000E+00 0. -1.
         11    1    3    3    0    0 -0.17676684257E+00 -0.14394100330E+02 -0.10968055029E+01  0.14436909413E+02  0.51100000000E-03 0. -1.
        -11    1    3    3    0    0 -0.92263206586E+01  0.62166279530E+01  0.10745308011E+02  0.15467162006E+02  0.51100000000E-03 0.  1.
        -12    1    3    3    0    0  0.24574293298E+02 -0.39299320092E+01  0.15649070435E+02  0.29397851319E+02  0.00000000000E+00 0.  1.
</event>
<event>
 7    1  0.5634483E-012  0.5930193E+02  0.7816164E-02  0.1266605E+00
        -11   -1    0    0    0    0  0.00000000000E+00  0.00000000000E+00  0.45593999997E+02  0.45594000000E+02  0.51100000000E-03 0.  1.
         11   -1    0    0    0    0 -0.00000000000E+00 -0.00000000000E+00 -0.45593999997E+02  0.45594000000E+02  0.51100000000E-03 0. -1.
    9900012    2    1    2    0    0  0.31381441716E+02 -0.11760389766E+01  0.55266174300E+01  0.59301930125E+02  0.49999974645E+02 0.  0.
         12    1    1    2    0    0 -0.31381441716E+02  0.11760389766E+01 -0.55266174300E+01  0.31886069875E+02  0.00000000000E+00 0. -1.
         11    1    3    3    0    0  0.75664838034E+01 -0.10420663223E+02  0.59290701896E+01  0.14177297794E+02  0.51100000000E-03 0. -1.
        -11    1    3    3    0    0  0.32953279772E+02  0.10632789645E+02 -0.46775110665E+01  0.34940720848E+02  0.51100000000E-03 0.  1.
         12    1    3    3    0    0 -0.91383218587E+01 -0.13881653983E+01  0.42750583069E+01  0.10183911483E+02  0.00000000000E+00 0. -1.
</event>
<event>
 7    1  0.5634483E-012  0.5930196E+02  0.7816164E-02  0.1266605E+00
        -11   -1    0    0    0    0  0.00000000000E+00  0.00000000000E+00  0.45593999997E+02  0.45594000000E+02  0.51100000000E-03 0.  1.
         11   -1    0    0    0    0 -0.00000000000E+00 -0.00000000000E+00 -0.45593999997E+02  0.45594000000E+02  0.51100000000E-03 0. -1.
    9900012    2    1    2    0    0 -0.20803714047E+02  0.58512419017E+01  0.23445425438E+02  0.59301960360E+02  0.50000029786E+02 0.  0.
         12    1    1    2    0    0  0.20803714047E+02 -0.58512419017E+01 -0.23445425438E+02  0.31886039640E+02  0.00000000000E+00 0. -1.
         11    1    3    3    0    0 -0.80667338718E+00  0.78649528820E+01 -0.18152666174E+01  0.81119294217E+01  0.51100000000E-03 0. -1.
        -11    1    3    3    0    0 -0.18586223146E+02  0.15140350706E+02  0.47924558002E+01  0.24446790039E+02  0.51100000000E-03 0.  1.
        -12    1    3    3    0    0 -0.14108175146E+01 -0.17154061687E+02  0.20468236255E+02  0.26743240900E+02  0.00000000000E+00 0.  1.
</event>
<event>
 7    1  0.5634483E-012  0.5930206E+02  0.7816164E-02  0.1266604E+00
        -11   -1    0    0    0    0  0.00000000000E+00  0.00000000000E+00  0.45593999997E+02  0.45594000000E+02  0.51100000000E-03 0. -1.
         11   -1    0    0    0    0 -0.00000000000E+00 -0.00000000000E+00 -0.45593999997E+02  0.45594000000E+02  0.51100000000E-03 0.  1.
    9900012    2    1    2    0    0  0.30378555031E+02 -0.28127235515E+01 -0.92706531227E+01  0.59302062208E+02  0.50000215532E+02 0.  0.
         12    1    1    2    0    0 -0.30378555031E+02  0.28127235515E+01  0.92706531227E+01  0.31885937792E+02  0.00000000000E+00 0. -1.
         11    1    3    3    0    0 -0.63715186884E+01 -0.84155472392E+01 -0.26202795788E+01  0.10875824156E+02  0.51100000000E-03 0. -1.
        -11    1    3    3    0    0 -0.83663046080E+00  0.52587880505E+01 -0.93299522435E+01  0.10742570056E+02  0.51100000000E-03 0.  1.
         12    1    3    3    0    0  0.37586704180E+02  0.34403563714E+00  0.26795786995E+01  0.37683667996E+02  0.00000000000E+00 0. -1.
</event>
<event>
 7    1  0.5634483E-012  0.5930194E+02  0.7816164E-02  0.1266605E+00
        -11   -1    0    0    0    0  0.00000000000E+00  0.00000000000E+00  0.45593999997E+02  0.45594000000E+02  0.51100000000E-03 0.  1.
         11   -1    0    0    0    0 -0.00000000000E+00 -0.00000000000E+00 -0.45593999997E+02  0.45594000000E+02  0.51100000000E-03 0. -1.
    9900012    2    1    2    0    0 -0.14070073799E+02  0.12044008733E+01  0.28588513722E+02  0.59301942310E+02  0.49999996867E+02 0.  0.
         12    1    1    2    0    0  0.14070073799E+02 -0.12044008733E+01 -0.28588513722E+02  0.31886057690E+02  0.00000000000E+00 0. -1.
         11    1    3    3    0    0  0.53207215555E+01  0.11263111495E+02 -0.68156060598E+01  0.14199304372E+02  0.51100000000E-03 0. -1.
        -11    1    3    3    0    0 -0.77723125401E+01  0.40677932355E+01  0.65838425412E+01  0.10968261799E+02  0.51100000000E-03 0.  1.
         12    1    3    3    0    0 -0.11618482814E+02 -0.14126503858E+02  0.28820277241E+02  0.34134376139E+02  0.00000000000E+00 0. -1.
</event>
<event>
 7    1  0.5634483E-012  0.5930194E+02  0.7816164E-02  0.1266605E+00
        -11   -1    0    0    0    0  0.00000000000E+00  0.00000000000E+00  0.45593999997E+02  0.45594000000E+02  0.51100000000E-03 0.  1.
         11   -1    0    0    0    0 -0.00000000000E+00 -0.00000000000E+00 -0.45593999997E+02  0.45594000000E+02  0.51100000000E-03 0. -1.
    9900012    2    1    2    0    0  0.59732339611E+01  0.31089070648E+02  0.38093354391E+01  0.59301939186E+02  0.49999991171E+02 0.  0.
         12    1    1    2    0    0 -0.59732339611E+01 -0.31089070648E+02 -0.38093354391E+01  0.31886060814E+02  0.00000000000E+00 0. -1.
         11    1    3    3    0    0  0.21351676829E+02  0.19320337378E+02  0.93016017722E+01  0.30260359145E+02  0.51100000000E-03 0.  1.
        -11    1    3    3    0    0 -0.19362571788E+00  0.71486512805E+01 -0.10226139911E+02  0.12478567377E+02  0.51100000000E-03 0. -1.
        -12    1    3    3    0    0 -0.15184817150E+02  0.46200819898E+01  0.47338735777E+01  0.16563012664E+02  0.00000000000E+00 0.  1.
</event>
<event>
 7    1  0.5634483E-012  0.5930193E+02  0.7816164E-02  0.1266605E+00
        -11   -1    0    0    0    0  0.00000000000E+00  0.00000000000E+00  0.45593999997E+02  0.45594000000E+02  0.51100000000E-03 0.  1.
         11   -1    0    0    0    0 -0.00000000000E+00 -0.00000000000E+00 -0.45593999997E+02  0.45594000000E+02  0.51100000000E-03 0. -1.
    9900012    2    1    2    0    0 -0.26679158047E+02  0.15739739475E+02  0.75633814464E+01  0.59301927622E+02  0.49999970079E+02 0.  0.
         12    1    1    2    0    0  0.26679158047E+02 -0.15739739475E+02 -0.75633814464E+01  0.31886072378E+02  0.00000000000E+00 0. -1.
         11    1    3    3    0    0 -0.18523532971E+01  0.91983068914E+01  0.59420072025E+01  0.11106192519E+02  0.51100000000E-03 0.  1.
        -11    1    3    3    0    0 -0.67022423225E+01 -0.11800176732E+02 -0.12796716545E+02  0.18652618520E+02  0.51100000000E-03 0. -1.
         12    1    3    3    0    0 -0.18124562427E+02  0.18341609315E+02  0.14418090789E+02  0.29543116583E+02  0.00000000000E+00 0. -1.
</event>
<event>
 7    1  0.5634483E-012  0.5930195E+02  0.7816164E-02  0.1266605E+00
        -11   -1    0    0    0    0  0.00000000000E+00  0.00000000000E+00  0.45593999997E+02  0.45594000000E+02  0.51100000000E-03 0.  1.
         11   -1    0    0    0    0 -0.00000000000E+00 -0.00000000000E+00 -0.45593999997E+02  0.45594000000E+02  0.51100000000E-03 0. -1.
    9900012    2    1    2    0    0  0.65413320460E+01  0.21515786209E+02  0.22605355625E+02  0.59301950009E+02  0.50000010908E+02 0.  0.
         12    1    1    2    0    0 -0.65413320460E+01 -0.21515786209E+02 -0.22605355625E+02  0.31886049991E+02  0.00000000000E+00 0. -1.
         11    1    3    3    0    0  0.46365862692E+01 -0.74696830697E+01 -0.54304016314E+01  0.10333603415E+02  0.51100000000E-03 0. -1.
        -11    1    3    3    0    0  0.95249129256E+01  0.54199659566E+01 -0.76180727843E+00  0.10985460746E+02  0.51100000000E-03 0.  1.
        -12    1    3    3    0    0 -0.76201671488E+01  0.23565503322E+02  0.28797564534E+02  0.37982885848E+02  0.00000000000E+00 0.  1.
</event>
<event>
 7    1  0.5634483E-012  0.5930210E+02  0.7816164E-02  0.1266604E+00
        -11   -1    0    0    0    0  0.00000000000E+00  0.00000000000E+00  0.45593999997E+02  0.45594000000E+02  0.51100000000E-03 0.  1.
         11   -1    0    0    0    0 -0.00000000000E+00 -0.00000000000E+00 -0.45593999997E+02  0.45594000000E+02  0.51100000000E-03 0. -1.
    9900012    2    1    2    0    0 -0.21659049800E+02  0.22962834917E+02  0.45060220604E+01  0.59302102482E+02  0.50000288983E+02 0.  0.
         12    1    1    2    0    0  0.21659049800E+02 -0.22962834917E+02 -0.45060220604E+01  0.31885897518E+02  0.00000000000E+00 0. -1.
         11    1    3    3    0    0 -0.38999796559E+00 -0.81442785116E+01  0.16709040436E+02  0.18592294195E+02  0.51100000000E-03 0. -1.
        -11    1    3    3    0    0 -0.38841729526E+01  0.93217465490E+00 -0.16435913215E+01  0.43193913699E+01  0.51100000000E-03 0.  1.
        -12    1    3    3    0    0 -0.17384878882E+02  0.30174938774E+02 -0.10559427054E+02  0.36390416918E+02  0.00000000000E+00 0.  1.
</event>
<event>
 7    1  0.5634483E-012  0.5930204E+02  0.7816164E-02  0.1266604E+00
        -11   -1    0    0    0    0  0.00000000000E+00  0.00000000000E+00  0.45593999997E+02  0.45594000000E+02  0.51100000000E-03 0.  1.
         11   -1    0    0    0    0 -0.00000000000E+00 -0.00000000000E+00 -0.45593999997E+02  0.45594000000E+02  0.51100000000E-03 0. -1.
    9900012    2    1    2    0    0  0.29410862733E+02 -0.77852006381E+01 -0.95449620889E+01  0.59302039187E+02  0.50000173547E+02 0.  0.
         12    1    1    2    0    0 -0.29410862733E+02  0.77852006381E+01  0.95449620889E+01  0.31885960813E+02  0.00000000000E+00 0. -1.
         11    1    3    3    0    0 -0.20563422483E+01  0.11632483595E+02 -0.13309355643E+02  0.17795565907E+02  0.51100000000E-03 0. -1.
        -11    1    3    3    0    0  0.10768147086E+02 -0.17495731428E+02  0.16057688201E+01  0.20606603399E+02  0.51100000000E-03 0.  1.
        -12    1    3    3    0    0  0.20699057895E+02 -0.19219528057E+01  0.21586247345E+01  0.20899869882E+02  0.00000000000E+00 0.  1.
</event>
<event>
 7    1  0.5634483E-012  0.5930195E+02  0.7816164E-02  0.1266605E+00
        -11   -1    0    0    0    0  0.00000000000E+00  0.00000000000E+00  0.45593999997E+02  0.45594000000E+02  0.51100000000E-03 0.  1.
         11   -1    0    0    0    0 -0.00000000000E+00 -0.00000000000E+00 -0.45593999997E+02  0.45594000000E+02  0.51100000000E-03 0. -1.
    9900012    2    1    2    0    0  0.18154934424E+02 -0.13752209980E+01  0.26176849107E+02  0.59301948098E+02  0.50000007423E+02 0.  0.
         12    1    1    2    0    0 -0.18154934424E+02  0.13752209980E+01 -0.26176849107E+02  0.31886051902E+02  0.00000000000E+00 0. -1.
         11    1    3    3    0    0  0.22305305339E+02  0.12161762359E+02  0.15884184464E+02  0.29962350146E+02  0.51100000000E-03 0. -1.
        -11    1    3    3    0    0  0.51963927464E+01  0.13016989289E+01 -0.40246759098E+01  0.67003682075E+01  0.51100000000E-03 0.  1.
        -12    1    3    3    0    0 -0.93467636610E+01 -0.14838682285E+02  0.14317340553E+02  0.22639229744E+02  0.00000000000E+00 0.  1.
</event>
<event>
 7    1  0.5634483E-012  0.5930195E+02  0.7816164E-02  0.1266605E+00
        -11   -1    0    0    0    0  0.00000000000E+00  0.00000000000E+00  0.45593999997E+02  0.45594000000E+02  0.51100000000E-03 0. -1.
         11   -1    0    0    0    0 -0.00000000000E+00 -0.00000000000E+00 -0.45593999997E+02  0.45594000000E+02  0.51100000000E-03 0.  1.
    9900012    2    1    2    0    0  0.13066984727E+02  0.27231156232E+02 -0.10219515504E+02  0.59301945732E+02  0.50000003109E+02 0.  0.
         12    1    1    2    0    0 -0.13066984727E+02 -0.27231156232E+02  0.10219515504E+02  0.31886054268E+02  0.00000000000E+00 0. -1.
         11    1    3    3    0    0  0.56510435948E+01  0.18311593116E+01 -0.14846117316E+02  0.15990454582E+02  0.51100000000E-03 0.  1.
        -11    1    3    3    0    0  0.79859121103E+01  0.81768496235E+00 -0.11413103540E+02  0.13953577806E+02  0.51100000000E-03 0. -1.
         12    1    3    3    0    0 -0.56997097773E+00  0.24582311958E+02  0.16039705351E+02  0.29357913343E+02  0.00000000000E+00 0. -1.
</event>
<event>
 7    1  0.5634483E-012  0.5930191E+02  0.7816164E-02  0.1266605E+00
        -11   -1    0    0    0    0  0.00000000000E+00  0.00000000000E+00  0.45593999997E+02  0.45594000000E+02  0.51100000000E-03 0. -1.
         11   -1    0    0    0    0 -0.00000000000E+00 -0.00000000000E+00 -0.45593999997E+02  0.45594000000E+02  0.51100000000E-03 0.  1.
    9900012    2    1    2    0    0 -0.28029712556E+02 -0.13726973377E+02  0.65290284320E+01  0.59301909046E+02  0.49999936202E+02 0.  0.
         12    1    1    2    0    0  0.28029712556E+02  0.13726973377E+02 -0.65290284320E+01  0.31886090954E+02  0.00000000000E+00 0. -1.
         11    1    3    3    0    0  0.28702112185E+01  0.85703447038E+01 -0.32816815256E+00  0.90441481289E+01  0.51100000000E-03 0. -1.
        -11    1    3    3    0    0  0.38759948437E+01 -0.13301529308E+02  0.24126948099E+01  0.14063254050E+02  0.51100000000E-03 0.  1.
        -12    1    3    3    0    0 -0.34775918618E+02 -0.89957887726E+01  0.44445017746E+01  0.36194506868E+02  0.00000000000E+00 0.  1.
</event>
<event>
 7    1  0.5634483E-012  0.5930197E+02  0.7816164E-02  0.1266605E+00
        -11   -1    0    0    0    0  0.00000000000E+00  0.00000000000E+00  0.45593999997E+02  0.45594000000E+02  0.51100000000E-03 0.  1.
         11   -1    0    0    0    0 -0.00000000000E+00 -0.00000000000E+00 -0.45593999997E+02  0.45594000000E+02  0.51100000000E-03 0. -1.
    9900012    2    1    2    0    0 -0.18686117513E+01  0.17448371267E+02  0.26622951752E+02  0.59301969677E+02  0.50000046779E+02 0.  0.
         12    1    1    2    0    0  0.18686117513E+01 -0.17448371267E+02 -0.26622951752E+02  0.31886030323E+02  0.00000000000E+00 0. -1.
         11    1    3    3    0    0 -0.72507395148E+01 -0.81369316653E+01  0.19556990255E+01  0.11072833394E+02  0.51100000000E-03 0. -1.
        -11    1    3    3    0    0 -0.69676284267E+01  0.20154166271E+02  0.27137599574E+02  0.34513585367E+02  0.51100000000E-03 0.  1.
         12    1    3    3    0    0  0.12349756190E+02  0.54311366613E+01 -0.24703468473E+01  0.13715550916E+02  0.00000000000E+00 0. -1.
</event>
<event>
 7    1  0.5634483E-012  0.5930195E+02  0.7816164E-02  0.1266605E+00
        -11   -1    0    0    0    0  0.00000000000E+00  0.00000000000E+00  0.45593999997E+02  0.45594000000E+02  0.51100000000E-03 0.  1.
         11   -1    0    0    0    0 -0.00000000000E+00 -0.00000000000E+00 -0.45593999997E+02  0.45594000000E+02  0.51100000000E-03 0. -1.
    9900012    2    1    2    0    0  0.14690545769E+02 -0.15720120563E+01  0.28256627585E+02  0.59301947260E+02  0.50000005894E+02 0.  0.
         12    1    1    2    0    0 -0.14690545769E+02  0.15720120563E+01 -0.28256627585E+02  0.31886052740E+02  0.00000000000E+00 0. -1.
         11    1    3    3    0    0  0.88025547171E+01  0.12076345683E+01  0.86197276614E+01  0.12379137935E+02  0.51100000000E-03 0. -1.
        -11    1    3    3    0    0 -0.85805480394E+01 -0.15490104098E+02  0.21174328405E+02  0.27602922188E+02  0.51100000000E-03 0.  1.
         12    1    3    3    0    0  0.14468539091E+02  0.12710457474E+02 -0.15374284820E+01  0.19319887137E+02  0.00000000000E+00 0. -1.
</event>
<event>
 7    1  0.5634483E-012  0.5930200E+02  0.7816164E-02  0.1266605E+00
        -11   -1    0    0    0    0  0.00000000000E+00  0.00000000000E+00  0.45593999997E+02  0.45594000000E+02  0.51100000000E-03 0. -1.
         11   -1    0    0    0    0 -0.00000000000E+00 -0.00000000000E+00 -0.45593999997E+02  0.45594000000E+02  0.51100000000E-03 0.  1.
    9900012    2    1    2    0    0  0.91968950583E+01  0.30245904221E+02 -0.41616533263E+01  0.59302000576E+02  0.50000103130E+02 0.  0.
         12    1    1    2    0    0 -0.91968950583E+01 -0.30245904221E+02  0.41616533263E+01  0.31885999424E+02  0.00000000000E+00 0. -1.
         11    1    3    3    0    0 -0.10227498338E+02 -0.66953609332E+01 -0.14279724270E+01  0.12307261507E+02  0.51100000000E-03 0. -1.
        -11    1    3    3    0    0 -0.24904622883E+01  0.26074304652E+01 -0.50409023158E+01  0.61977247809E+01  0.51100000000E-03 0.  1.
         12    1    3    3    0    0  0.21914855685E+02  0.34333834689E+02  0.23072214166E+01  0.40797014288E+02  0.00000000000E+00 0. -1.
</event>
<event>
 7    1  0.5634483E-012  0.5930198E+02  0.7816164E-02  0.1266605E+00
        -11   -1    0    0    0    0  0.00000000000E+00  0.00000000000E+00  0.45593999997E+02  0.45594000000E+02  0.51100000000E-03 0. -1.
         11   -1    0    0    0    0 -0.00000000000E+00 -0.00000000000E+00 -0.45593999997E+02  0.45594000000E+02  0.51100000000E-03 0.  1.
    9900012    2    1    2    0    0  0.19377896241E+02  0.24963933828E+02 -0.42447139611E+01  0.59301977177E+02  0.50000060455E+02 0.  0.
         12    1    1    2    0    0 -0.19377896241E+02 -0.24963933828E+02  0.42447139611E+01  0.31886022823E+02  0.00000000000E+00 0. -1.
         11    1    3    3    0    0  0.66146401568E+01  0.24251621931E+02  0.18162924740E+02  0.31012682343E+02  0.51100000000E-03 0. -1.
        -11    1    3    3    0    0  0.52506428064E+01 -0.35680861689E+01 -0.29564859969E+01  0.70029492716E+01  0.51100000000E-03 0.  1.
        -12    1    3    3    0    0  0.75126132776E+01  0.42803980656E+01 -0.19451152705E+02  0.21286345562E+02  0.00000000000E+00 0.  1.
</event>
<event>
 7    1  0.5634483E-012  0.5930189E+02  0.7816164E-02  0.1266605E+00
        -11   -1    0    0    0    0  0.00000000000E+00  0.00000000000E+00  0.45593999997E+02  0.45594000000E+02  0.51100000000E-03 0.  1.
         11   -1    0    0    0    0 -0.00000000000E+00 -0.00000000000E+00 -0.45593999997E+02  0.45594000000E+02  0.51100000000E-03 0. -1.
    9900012    2    1    2    0    0  0.91427800826E+01 -0.16811288737E+02  0.25505174196E+02  0.59301893818E+02  0.49999908430E+02 0.  0.
         12    1    1    2    0    0 -0.91427800826E+01  0.16811288737E+02 -0.25505174196E+02  0.31886106182E+02  0.00000000000E+00 0. -1.
         11    1    3    3    0    0 -0.13156741136E+02  0.21032328757E+01  0.12223610329E+01  0.13379745610E+02  0.51100000000E-03 0. -1.
        -11    1    3    3    0    0 -0.49128548853E+01 -0.41749201922E+01  0.98546758649E+01  0.11776278631E+02  0.51100000000E-03 0.  1.
        -12    1    3    3    0    0  0.27212376104E+02 -0.14739601421E+02  0.14428137298E+02  0.34145869577E+02  0.00000000000E+00 0.  1.
</event>
<event>
 7    1  0.5634483E-012  0.5930195E+02  0.7816164E-02  0.1266605E+00
        -11   -1    0    0    0    0  0.00000000000E+00  0.00000000000E+00  0.45593999997E+02  0.45594000000E+02  0.51100000000E-03 0.  1.
         11   -1    0    0    0    0 -0.00000000000E+00 -0.00000000000E+00 -0.45593999997E+02  0.45594000000E+02  0.51100000000E-03 0. -1.
    9900012    2    1    2    0    0  0.18826076903E+02  0.20915641097E+02 -0.14994501306E+02  0.59301948449E+02  0.50000008064E+02 0.  0.
         12    1    1    2    0    0 -0.18826076903E+02 -0.20915641097E+02  0.14994501306E+02  0.31886051551E+02  0.00000000000E+00 0. -1.
         11    1    3    3    0    0 -0.77683525719E+01  0.32650585397E+01 -0.12329129109E+02  0.14933697928E+02  0.51100000000E-03 0. -1.
        -11    1    3    3    0    0 -0.68260289004E+01  0.45999307895E+01  0.10508214338E+01  0.82980877173E+01  0.51100000000E-03 0.  1.
        -12    1    3    3    0    0  0.33420458375E+02  0.13050651768E+02 -0.37161936308E+01  0.36070162804E+02  0.00000000000E+00 0.  1.
</event>
<event>
 7    1  0.5634483E-012  0.5930193E+02  0.7816164E-02  0.1266605E+00
        -11   -1    0    0    0    0  0.00000000000E+00  0.00000000000E+00  0.45593999997E+02  0.45594000000E+02  0.51100000000E-03 0. -1.
         11   -1    0    0    0    0 -0.00000000000E+00 -0.00000000000E+00 -0.45593999997E+02  0.45594000000E+02  0.51100000000E-03 0.  1.
    9900012    2    1    2    0    0  0.15576007505E+02 -0.77337726734E+00 -0.27812076111E+02  0.59301926240E+02  0.49999967560E+02 0.  0.
         12    1    1    2    0    0 -0.15576007505E+02  0.77337726734E+00  0.27812076111E+02  0.31886073760E+02  0.00000000000E+00 0. -1.
         11    1    3    3    0    0  0.10000983504E+02 -0.18663412812E+01 -0.54477864800E+01  0.11540419343E+02  0.51100000000E-03 0. -1.
        -11    1    3    3    0    0  0.11912325659E+02  0.18380107377E+02 -0.19102579333E+02  0.29062697522E+02  0.51100000000E-03 0.  1.
         12    1    3    3    0    0 -0.63373016583E+01 -0.17287143363E+02 -0.32617102987E+01  0.18698809375E+02  0.00000000000E+00 0. -1.
</event>
<event>
 7    1  0.5634483E-012  0.5930192E+02  0.7816164E-02  0.1266605E+00
        -11   -1    0    0    0    0  0.00000000000E+00  0.00000000000E+00  0.45593999997E+02  0.45594000000E+02  0.51100000000E-03 0.  1.
         11   -1    0    0    0    0 -0.00000000000E+00 -0.00000000000E+00 -0.45593999997E+02  0.45594000000E+02  0.51100000000E-03 0. -1.
    9900012    2    1    2    0    0  0.19842685028E+02  0.23835454452E+01  0.24845695928E+02  0.59301920841E+02  0.49999957712E+02 0.  0.
         12    1    1    2    0    0 -0.19842685028E+02 -0.23835454452E+01 -0.24845695928E+02  0.31886079159E+02  0.00000000000E+00 0. -1.
         11    1    3    3    0    0  0.14084757820E+02 -0.19203147540E+02  0.26047668883E+02  0.35293375197E+02  0.51100000000E-03 0. -1.
        -11    1    3    3    0    0  0.16644114719E+01  0.21589822770E+01 -0.30233509065E+01  0.40708870023E+01  0.51100000000E-03 0.  1.
        -12    1    3    3    0    0  0.40935157360E+01  0.19427710708E+02  0.18213779510E+01  0.19937658641E+02  0.00000000000E+00 0.  1.
</event>
<event>
 7    1  0.5634483E-012  0.5930195E+02  0.7816164E-02  0.1266605E+00
        -11   -1    0    0    0    0  0.00000000000E+00  0.00000000000E+00  0.45593999997E+02  0.45594000000E+02  0.51100000000E-03 0.  1.
         11   -1    0    0    0    0 -0.00000000000E+00 -0.00000000000E+00 -0.45593999997E+02  0.45594000000E+02  0.51100000000E-03 0. -1.
    9900012    2    1    2    0    0  0.13516546164E+02  0.16629149899E+02  0.23611318160E+02  0.59301953023E+02  0.50000016405E+02 0.  0.
         12    1    1    2    0    0 -0.13516546164E+02 -0.16629149899E+02 -0.23611318160E+02  0.31886046977E+02  0.00000000000E+00 0. -1.
         11    1    3    3    0    0  0.51440861980E+00  0.12991242722E+00 -0.92011562592E+01  0.92164402149E+01  0.51100000000E-03 0. -1.
        -11    1    3    3    0    0  0.11008861751E+02 -0.69291222824E+01  0.57127411351E+01  0.14207152572E+02  0.51100000000E-03 0.  1.
         12    1    3    3    0    0  0.19932757925E+01  0.23428359754E+02  0.27099733284E+02  0.35878360236E+02  0.00000000000E+00 0. -1.
</event>
<event>
 7    1  0.5634483E-012  0.5930189E+02  0.7816164E-02  0.1266605E+00
        -11   -1    0    0    0    0  0.00000000000E+00  0.00000000000E+00  0.45593999997E+02  0.45594000000E+02  0.51100000000E-03 0. -1.
         11   -1    0    0    0    0 -0.00000000000E+00 -0.00000000000E+00 -0.45593999997E+02  0.45594000000E+02  0.51100000000E-03 0.  1.
    9900012    2    1    2    0    0 -0.20256906273E+02  0.24422033091E+02  0.31537041297E+01  0.59301893280E+02  0.49999907448E+02 0.  0.
         12    1    1    2    0    0  0.20256906273E+02 -0.24422033091E+02 -0.31537041297E+01  0.31886106720E+02  0.00000000000E+00 0. -1.
         11    1    3    3    0    0 -0.56585151990E+01  0.71032810385E+01 -0.14197644326E+02  0.16853738471E+02  0.51100000000E-03 0. -1.
        -11    1    3    3    0    0 -0.85202669946E+01  0.20839985115E+02 -0.12656975551E+01  0.22549987135E+02  0.51100000000E-03 0.  1.
         12    1    3    3    0    0 -0.60781240790E+01 -0.35212330624E+01  0.18617046011E+02  0.19898167674E+02  0.00000000000E+00 0. -1.
</event>
<event>
 7    1  0.5634483E-012  0.5930195E+02  0.7816164E-02  0.1266605E+00
        -11   -1    0    0    0    0  0.00000000000E+00  0.00000000000E+00  0.45593999997E+02  0.45594000000E+02  0.51100000000E-03 0. -1.
         11   -1    0    0    0    0 -0.00000000000E+00 -0.00000000000E+00 -0.45593999997E+02  0.45594000000E+02  0.51100000000E-03 0.  1.
    9900012    2    1    2    0    0  0.14384490922E+02  0.13276052832E+02 -0.25170479885E+02  0.59301949515E+02  0.50000010007E+02 0.  0.
         12    1    1    2    0    0 -0.14384490922E+02 -0.13276052832E+02  0.25170479885E+02  0.31886050485E+02  0.00000000000E+00 0. -1.
         11    1    3    3    0    0 -0.44723185969E+01  0.16023685278E+02  0.46718348394E+00  0.16642667581E+02  0.51100000000E-03 0. -1.
        -11    1    3    3    0    0  0.10075326941E+01 -0.91562988587E+01  0.17202329162E+01  0.93708127965E+01  0.51100000000E-03 0.  1.
        -12    1    3    3    0    0  0.17849276825E+02  0.64086664129E+01 -0.27357896285E+02  0.33288469138E+02  0.00000000000E+00 0.  1.
</event>
<event>
 7    1  0.5634483E-012  0.5930226E+02  0.7816164E-02  0.1266604E+00
        -11   -1    0    0    0    0  0.00000000000E+00  0.00000000000E+00  0.45593999997E+02  0.45594000000E+02  0.51100000000E-03 0.  1.
         11   -1    0    0    0    0 -0.00000000000E+00 -0.00000000000E+00 -0.45593999997E+02  0.45594000000E+02  0.51100000000E-03 0. -1.
    9900012    2    1    2    0    0  0.13078660295E+02 -0.86128817138E+01  0.27775299974E+02  0.59302260629E+02  0.50000577402E+02 0.  0.
         12    1    1    2    0    0 -0.13078660295E+02  0.86128817138E+01 -0.27775299974E+02  0.31885739371E+02  0.00000000000E+00 0. -1.
         11    1    3    3    0    0 -0.57053082386E+01  0.83955376238E+01  0.13503073626E+01  0.10240064664E+02  0.51100000000E-03 0. -1.
        -11    1    3    3    0    0  0.30500435652E+01  0.53235208962E+01 -0.46414144574E+01  0.76932027732E+01  0.51100000000E-03 0.  1.
        -12    1    3    3    0    0  0.15733924969E+02 -0.22331940234E+02  0.31066407069E+02  0.41368993192E+02  0.00000000000E+00 0.  1.
</event>
<event>
 7    1  0.5634483E-012  0.5930195E+02  0.7816164E-02  0.1266605E+00
        -11   -1    0    0    0    0  0.00000000000E+00  0.00000000000E+00  0.45593999997E+02  0.45594000000E+02  0.51100000000E-03 0. -1.
         11   -1    0    0    0    0 -0.00000000000E+00 -0.00000000000E+00 -0.45593999997E+02  0.45594000000E+02  0.51100000000E-03 0.  1.
    9900012    2    1    2    0    0 -0.19020902642E+02 -0.23065254463E+02 -0.11086901369E+02  0.59301951597E+02  0.50000013805E+02 0.  0.
         12    1    1    2    0    0  0.19020902642E+02  0.23065254463E+02  0.11086901369E+02  0.31886048403E+02  0.00000000000E+00 0. -1.
         11    1    3    3    0    0  0.89419495002E+01 -0.68710776703E+01  0.46289350375E+01  0.12190045490E+02  0.51100000000E-03 0. -1.
        -11    1    3    3    0    0 -0.32403251096E+02 -0.69573535283E+01 -0.75078385482E+01  0.33981510997E+02  0.51100000000E-03 0.  1.
         12    1    3    3    0    0  0.44403989542E+01 -0.92368232646E+01 -0.82079978584E+01  0.13130395110E+02  0.00000000000E+00 0. -1.
</event>
<event>
 7    1  0.5634483E-012  0.5930193E+02  0.7816164E-02  0.1266605E+00
        -11   -1    0    0    0    0  0.00000000000E+00  0.00000000000E+00  0.45593999997E+02  0.45594000000E+02  0.51100000000E-03 0.  1.
         11   -1    0    0    0    0 -0.00000000000E+00 -0.00000000000E+00 -0.45593999997E+02  0.45594000000E+02  0.51100000000E-03 0. -1.
    9900012    2    1    2    0    0 -0.16467623689E+01  0.28062729189E+02  0.15049674970E+02  0.59301932313E+02  0.49999978635E+02 0.  0.
         12    1    1    2    0    0  0.16467623689E+01 -0.28062729189E+02 -0.15049674970E+02  0.31886067687E+02  0.00000000000E+00 0. -1.
         11    1    3    3    0    0 -0.13845639299E+02  0.72857592558E+01 -0.10062750632E+02  0.18602230137E+02  0.51100000000E-03 0. -1.
        -11    1    3    3    0    0 -0.25476942030E+01  0.15671433041E+02  0.16402504341E+02  0.22828199846E+02  0.51100000000E-03 0.  1.
        -12    1    3    3    0    0  0.14746571133E+02  0.51055368928E+01  0.87099212611E+01  0.17871502330E+02  0.00000000000E+00 0.  1.
</event>
<event>
 7    1  0.5634483E-012  0.5930195E+02  0.7816164E-02  0.1266605E+00
        -11   -1    0    0    0    0  0.00000000000E+00  0.00000000000E+00  0.45593999997E+02  0.45594000000E+02  0.51100000000E-03 0.  1.
         11   -1    0    0    0    0 -0.00000000000E+00 -0.00000000000E+00 -0.45593999997E+02  0.45594000000E+02  0.51100000000E-03 0. -1.
    9900012    2    1    2    0    0 -0.31640423714E+01 -0.22724295396E+02  0.22143072801E+02  0.59301946020E+02  0.50000003633E+02 0.  0.
         12    1    1    2    0    0  0.31640423714E+01  0.22724295396E+02 -0.22143072801E+02  0.31886053980E+02  0.00000000000E+00 0. -1.
         11    1    3    3    0    0 -0.81331146967E+01  0.91159953865E+00 -0.50195566288E+01  0.96007560847E+01  0.51100000000E-03 0. -1.
        -11    1    3    3    0    0  0.11396849906E+02 -0.15079099706E+02 -0.16419671907E+01  0.18972703872E+02  0.51100000000E-03 0.  1.
        -12    1    3    3    0    0 -0.64277775807E+01 -0.85567952289E+01  0.28804596620E+02  0.30728486062E+02  0.00000000000E+00 0.  1.
</event>
<event>
 7    1  0.5634483E-012  0.5930193E+02  0.7816164E-02  0.1266605E+00
        -11   -1    0    0    0    0  0.00000000000E+00  0.00000000000E+00  0.45593999997E+02  0.45594000000E+02  0.51100000000E-03 0.  1.
         11   -1    0    0    0    0 -0.00000000000E+00 -0.00000000000E+00 -0.45593999997E+02  0.45594000000E+02  0.51100000000E-03 0. -1.
    9900012    2    1    2    0    0  0.23291860617E+02  0.19250461522E+02  0.10179917236E+02  0.59301925379E+02  0.49999965989E+02 0.  0.
         12    1    1    2    0    0 -0.23291860617E+02 -0.19250461522E+02 -0.10179917236E+02  0.31886074621E+02  0.00000000000E+00 0. -1.
         11    1    3    3    0    0  0.10620824827E+02  0.21209108502E+02  0.95514084972E+01  0.25570639569E+02  0.51100000000E-03 0. -1.
        -11    1    3    3    0    0 -0.15092820309E+01 -0.49166964610E+01  0.13441645875E+02  0.14392000571E+02  0.51100000000E-03 0.  1.
         12    1    3    3    0    0  0.14180317822E+02  0.29580494809E+01 -0.12813137137E+02  0.19339285239E+02  0.00000000000E+00 0. -1.
</event>
<event>
 7    1  0.5634483E-012  0.5930184E+02  0.7816164E-02  0.1266605E+00
        -11   -1    0    0    0    0  0.00000000000E+00  0.00000000000E+00  0.45593999997E+02  0.45594000000E+02  0.51100000000E-03 0.  1.
         11   -1    0    0    0    0 -0.00000000000E+00 -0.00000000000E+00 -0.45593999997E+02  0.45594000000E+02  0.51100000000E-03 0. -1.
    9900012    2    1    2    0    0  0.54387785685E+01 -0.31159319690E+02  0.40303555832E+01  0.59301838707E+02  0.49999807921E+02 0.  0.
         12    1    1    2    0    0 -0.54387785685E+01  0.31159319690E+02 -0.40303555832E+01  0.31886161293E+02  0.00000000000E+00 0. -1.
         11    1    3    3    0    0 -0.77487126905E+01  0.68380937798E+01 -0.17237853899E+01  0.10477285490E+02  0.51100000000E-03 0. -1.
        -11    1    3    3    0    0  0.12946899689E+02 -0.30375692362E+01 -0.50479700818E+00  0.13308037372E+02  0.51100000000E-03 0.  1.
        -12    1    3    3    0    0  0.24059156988E+00 -0.34959844233E+02  0.62589379813E+01  0.35516515845E+02  0.00000000000E+00 0.  1.
</event>
<event>
 7    1  0.5634483E-012  0.5930194E+02  0.7816164E-02  0.1266605E+00
        -11   -1    0    0    0    0  0.00000000000E+00  0.00000000000E+00  0.45593999997E+02  0.45594000000E+02  0.51100000000E-03 0.  1.
         11   -1    0    0    0    0 -0.00000000000E+00 -0.00000000000E+00 -0.45593999997E+02  0.45594000000E+02  0.51100000000E-03 0. -1.
    9900012    2    1    2    0    0  0.77279271042E+01  0.26212271921E+02  0.16429142499E+02  0.59301940666E+02  0.49999993869E+02 0.  0.
         12    1    1    2    0    0 -0.77279271042E+01 -0.26212271921E+02 -0.16429142499E+02  0.31886059334E+02  0.00000000000E+00 0. -1.
         11    1    3    3    0    0 -0.26057635797E+01 -0.77742631512E+01  0.12468725990E+01  0.82936037352E+01  0.51100000000E-03 0. -1.
        -11    1    3    3    0    0 -0.10228602934E+01  0.17192064002E+01  0.16649648351E+02  0.16769397852E+02  0.51100000000E-03 0.  1.
         12    1    3    3    0    0  0.11356550977E+02  0.32267328672E+02 -0.14673784517E+01  0.34238939079E+02  0.00000000000E+00 0. -1.
</event>
<event>
 7    1  0.5634483E-012  0.5930193E+02  0.7816164E-02  0.1266605E+00
        -11   -1    0    0    0    0  0.00000000000E+00  0.00000000000E+00  0.45593999997E+02  0.45594000000E+02  0.51100000000E-03 0. -1.
         11   -1    0    0    0    0 -0.00000000000E+00 -0.00000000000E+00 -0.45593999997E+02  0.45594000000E+02  0.51100000000E-03 0.  1.
    9900012    2    1    2    0    0  0.24076203536E+02 -0.20738576580E+02  0.26399284396E+01  0.59301931609E+02  0.49999977351E+02 0.  0.
         12    1    1    2    0    0 -0.24076203536E+02  0.20738576580E+02 -0.26399284396E+01  0.31886068391E+02  0.00000000000E+00 0. -1.
         11    1    3    3    0    0 -0.43529959819E+00 -0.44260921754E+01  0.20889121727E+00  0.44523492099E+01  0.51100000000E-03 0. -1.
        -11    1    3    3    0    0 -0.11526776716E+02  0.32141357427E+00 -0.77241450225E+01  0.13879204039E+02  0.51100000000E-03 0.  1.
         12    1    3    3    0    0  0.36038279850E+02 -0.16633897979E+02  0.10155182245E+02  0.40970378360E+02  0.00000000000E+00 0. -1.
</event>
<event>
 7    1  0.5634483E-012  0.5930195E+02  0.7816164E-02  0.1266605E+00
        -11   -1    0    0    0    0  0.00000000000E+00  0.00000000000E+00  0.45593999997E+02  0.45594000000E+02  0.51100000000E-03 0.  1.
         11   -1    0    0    0    0 -0.00000000000E+00 -0.00000000000E+00 -0.45593999997E+02  0.45594000000E+02  0.51100000000E-03 0. -1.
    9900012    2    1    2    0    0 -0.23131880977E+02  0.17295301058E+02  0.13509578776E+02  0.59301951720E+02  0.50000014029E+02 0.  0.
         12    1    1    2    0    0  0.23131880977E+02 -0.17295301058E+02 -0.13509578776E+02  0.31886048280E+02  0.00000000000E+00 0. -1.
         11    1    3    3    0    0 -0.12526699713E+02  0.18222396671E+02  0.59577832660E+01  0.22901290964E+02  0.51100000000E-03 0. -1.
        -11    1    3    3    0    0 -0.41407311201E+01  0.12728055314E+02  0.14533175012E+02  0.19757586453E+02  0.51100000000E-03 0.  1.
         12    1    3    3    0    0 -0.64644501439E+01 -0.13655150927E+02 -0.69813795017E+01  0.16643074302E+02  0.00000000000E+00 0. -1.
</event>
<event>
 7    1  0.5634483E-012  0.5930192E+02  0.7816164E-02  0.1266605E+00
        -11   -1    0    0    0    0  0.00000000000E+00  0.00000000000E+00  0.45593999997E+02  0.45594000000E+02  0.51100000000E-03 0. -1.
         11   -1    0    0    0    0 -0.00000000000E+00 -0.00000000000E+00 -0.45593999997E+02  0.45594000000E+02  0.51100000000E-03 0.  1.
    9900012    2    1    2    0    0 -0.25801627793E+02 -0.16405738010E+02  0.90470750931E+01  0.59301924604E+02  0.49999964575E+02 0.  0.
         12    1    1    2    0    0  0.25801627793E+02  0.16405738010E+02 -0.90470750931E+01  0.31886075396E+02  0.00000000000E+00 0. -1.
         11    1    3    3    0    0  0.88804783752E+00 -0.41711558011E+01  0.20573614971E+02  0.21010968633E+02  0.51100000000E-03 0. -1.
        -11    1    3    3    0    0 -0.11477608550E+01  0.33376127123E+01 -0.72615594568E+01  0.80738627436E+01  0.51100000000E-03 0.  1.
        -12    1    3    3    0    0 -0.25541914776E+02 -0.15572194922E+02 -0.42649804210E+01  0.30217093227E+02  0.00000000000E+00 0.  1.
</event>
<event>
 7    1  0.5634483E-012  0.5930193E+02  0.7816164E-02  0.1266605E+00
        -11   -1    0    0    0    0  0.00000000000E+00  0.00000000000E+00  0.45593999997E+02  0.45594000000E+02  0.51100000000E-03 0.  1.
         11   -1    0    0    0    0 -0.00000000000E+00 -0.00000000000E+00 -0.45593999997E+02  0.45594000000E+02  0.51100000000E-03 0. -1.
    9900012    2    1    2    0    0  0.93849845805E+01 -0.25519024482E+02  0.16656012278E+02  0.59301932649E+02  0.49999979249E+02 0.  0.
         12    1    1    2    0    0 -0.93849845805E+01  0.25519024482E+02 -0.16656012278E+02  0.31886067351E+02  0.00000000000E+00 0. -1.
         11    1    3    3    0    0  0.15127366465E+01 -0.26321337162E+02  0.35553257153E+01  0.26603411498E+02  0.51100000000E-03 0. -1.
        -11    1    3    3    0    0 -0.10240564978E+02  0.49554228291E+01  0.49582383213E+01  0.12410056970E+02  0.51100000000E-03 0.  1.
         12    1    3    3    0    0  0.18112812912E+02 -0.41531101492E+01  0.81424482410E+01  0.20288464181E+02  0.00000000000E+00 0. -1.
</event>
<event>
 7    1  0.5634483E-012  0.5930195E+02  0.7816164E-02  0.1266605E+00
        -11   -1    0    0    0    0  0.00000000000E+00  0.00000000000E+00  0.45593999997E+02  0.45594000000E+02  0.51100000000E-03 0. -1.
         11   -1    0    0    0    0 -0.00000000000E+00 -0.00000000000E+00 -0.45593999997E+02  0.45594000000E+02  0.51100000000E-03 0.  1.
    9900012    2    1    2    0    0 -0.20930810234E+02  0.23650699856E+02 -0.43892901678E+01  0.59301948364E+02  0.50000007909E+02 0.  0.
         12    1    1    2    0    0  0.20930810234E+02 -0.23650699856E+02  0.43892901678E+01  0.31886051636E+02  0.00000000000E+00 0. -1.
         11    1    3    3    0    0 -0.46435372267E+01  0.81471601290E+01  0.13382034133E+02  0.16340669935E+02  0.51100000000E-03 0. -1.
        -11    1    3    3    0    0 -0.86065124669E+01  0.14976110048E+02  0.57556345845E+01  0.18206681706E+02  0.51100000000E-03 0.  1.
        -12    1    3    3    0    0 -0.76807605409E+01  0.52742967873E+00 -0.23526958885E+02  0.24754596723E+02  0.00000000000E+00 0.  1.
</event>
<event>
 7    1  0.5634483E-012  0.5930193E+02  0.7816164E-02  0.1266605E+00
        -11   -1    0    0    0    0  0.00000000000E+00  0.00000000000E+00  0.45593999997E+02  0.45594000000E+02  0.51100000000E-03 0.  1.
         11   -1    0    0    0    0 -0.00000000000E+00 -0.00000000000E+00 -0.45593999997E+02  0.45594000000E+02  0.51100000000E-03 0. -1.
    9900012    2    1    2    0    0 -0.30571097767E+02 -0.40238741308E+00 -0.90535774525E+01  0.59301934094E+02  0.49999981883E+02 0.  0.
         12    1    1    2    0    0  0.30571097767E+02  0.40238741308E+00  0.90535774525E+01  0.31886065906E+02  0.00000000000E+00 0. -1.
         11    1    3    3    0    0 -0.52565510555E+00 -0.22112557684E+01  0.86895479177E+01  0.89818822436E+01  0.51100000000E-03 0. -1.
        -11    1    3    3    0    0 -0.10409371632E+02  0.57394357927E+01  0.10389931187E+02  0.15787552417E+02  0.51100000000E-03 0.  1.
         12    1    3    3    0    0 -0.19636071029E+02 -0.39305674374E+01 -0.28133056557E+02  0.34532499433E+02  0.00000000000E+00 0. -1.
</event>
<event>
 7    1  0.5634483E-012  0.5930196E+02  0.7816164E-02  0.1266605E+00
        -11   -1    0    0    0    0  0.00000000000E+00  0.00000000000E+00  0.45593999997E+02  0.45594000000E+02  0.51100000000E-03 0. -1.
         11   -1    0    0    0    0 -0.00000000000E+00 -0.00000000000E+00 -0.45593999997E+02  0.45594000000E+02  0.51100000000E-03 0.  1.
    9900012    2    1    2    0    0 -0.22061651830E+02  0.60228438928E+01 -0.22219997605E+02  0.59301961934E+02  0.50000032656E+02 0.  0.
         12    1    1    2    0    0  0.22061651830E+02 -0.60228438928E+01  0.22219997605E+02  0.31886038066E+02  0.00000000000E+00 0. -1.
         11    1    3    3    0    0 -0.12131884893E+02 -0.11367057178E+02  0.40907044215E+01  0.17120936974E+02  0.51100000000E-03 0. -1.
        -11    1    3    3    0    0 -0.86183376819E+01 -0.39854289407E+01 -0.18562835317E+01  0.96749768502E+01  0.51100000000E-03 0.  1.
        -12    1    3    3    0    0 -0.13114292543E+01  0.21375330011E+02 -0.24454418495E+02  0.32506048109E+02  0.00000000000E+00 0.  1.
</event>
<event>
 7    1  0.5634483E-012  0.5930194E+02  0.7816164E-02  0.1266605E+00
        -11   -1    0    0    0    0  0.00000000000E+00  0.00000000000E+00  0.45593999997E+02  0.45594000000E+02  0.51100000000E-03 0.  1.
         11   -1    0    0    0    0 -0.00000000000E+00 -0.00000000000E+00 -0.45593999997E+02  0.45594000000E+02  0.51100000000E-03 0. -1.
    9900012    2    1    2    0    0  0.16277157349E+02 -0.19957476996E+02  0.18800907266E+02  0.59301939512E+02  0.49999991764E+02 0.  0.
         12    1    1    2    0    0 -0.16277157349E+02  0.19957476996E+02 -0.18800907266E+02  0.31886060488E+02  0.00000000000E+00 0. -1.
         11    1    3    3    0    0 -0.39446353241E+01 -0.20171385846E+02  0.91191815245E+01  0.22485649351E+02  0.51100000000E-03 0. -1.
        -11    1    3    3    0    0 -0.16924529640E+01 -0.10435037975E+02  0.60566180077E+01  0.12183473910E+02  0.51100000000E-03 0.  1.
        -12    1    3    3    0    0  0.21914245637E+02  0.10648946825E+02  0.36251077342E+01  0.24632816250E+02  0.00000000000E+00 0.  1.
</event>
<event>
 7    1  0.5634483E-012  0.5930197E+02  0.7816164E-02  0.1266605E+00
        -11   -1    0    0    0    0  0.00000000000E+00  0.00000000000E+00  0.45593999997E+02  0.45594000000E+02  0.51100000000E-03 0.  1.
         11   -1    0    0    0    0 -0.00000000000E+00 -0.00000000000E+00 -0.45593999997E+02  0.45594000000E+02  0.51100000000E-03 0. -1.
    9900012    2    1    2    0    0 -0.18444854504E+01  0.14130132932E+02  0.28524658887E+02  0.59301969393E+02  0.50000046260E+02 0.  0.
         12    1    1    2    0    0  0.18444854504E+01 -0.14130132932E+02 -0.28524658887E+02  0.31886030607E+02  0.00000000000E+00 0. -1.
         11    1    3    3    0    0  0.49613845851E+01  0.12716964717E+02  0.17978992969E+02  0.22573894592E+02  0.51100000000E-03 0. -1.
        -11    1    3    3    0    0  0.53782896973E+01 -0.29770627239E+01  0.19850820676E+02  0.20780856198E+02  0.51100000000E-03 0.  1.
         12    1    3    3    0    0 -0.12184159733E+02  0.43902309390E+01 -0.93051547587E+01  0.15947218603E+02  0.00000000000E+00 0. -1.
</event>
<event>
 7    1  0.5634483E-012  0.5930194E+02  0.7816164E-02  0.1266605E+00
        -11   -1    0    0    0    0  0.00000000000E+00  0.00000000000E+00  0.45593999997E+02  0.45594000000E+02  0.51100000000E-03 0.  1.
         11   -1    0    0    0    0 -0.00000000000E+00 -0.00000000000E+00 -0.45593999997E+02  0.45594000000E+02  0.51100000000E-03 0. -1.
    9900012    2    1    2    0    0 -0.20148798102E+02 -0.56696790217E+01  0.24054133570E+02  0.59301942436E+02  0.49999997097E+02 0.  0.
         12    1    1    2    0    0  0.20148798102E+02  0.56696790217E+01 -0.24054133570E+02  0.31886057564E+02  0.00000000000E+00 0. -1.
         11    1    3    3    0    0 -0.51110108095E+01 -0.56782459608E+01 -0.91890378447E+01  0.11950034538E+02  0.51100000000E-03 0. -1.
        -11    1    3    3    0    0  0.72899457216E+01  0.72164064847E+01  0.99591552580E+01  0.14297013845E+02  0.51100000000E-03 0.  1.
        -12    1    3    3    0    0 -0.22327733014E+02 -0.72078395456E+01  0.23284016157E+02  0.33054894053E+02  0.00000000000E+00 0.  1.
</event>
<event>
 7    1  0.5634483E-012  0.5930199E+02  0.7816164E-02  0.1266605E+00
        -11   -1    0    0    0    0  0.00000000000E+00  0.00000000000E+00  0.45593999997E+02  0.45594000000E+02  0.51100000000E-03 0. -1.
         11   -1    0    0    0    0 -0.00000000000E+00 -0.00000000000E+00 -0.45593999997E+02  0.45594000000E+02  0.51100000000E-03 0.  1.
    9900012    2    1    2    0    0 -0.13786760776E+02 -0.27549460410E+02  0.82261859596E+01  0.59301989321E+02  0.50000082604E+02 0.  0.
         12    1    1    2    0    0  0.13786760776E+02  0.27549460410E+02 -0.82261859596E+01  0.31886010679E+02  0.00000000000E+00 0. -1.
         11    1    3    3    0    0  0.10201228139E+02  0.57018946371E+01 -0.53313484607E+01  0.12845230036E+02  0.51100000000E-03 0. -1.
        -11    1    3    3    0    0 -0.12880178885E+01 -0.10551729781E+02 -0.19461141375E+01  0.10806727162E+02  0.51100000000E-03 0.  1.
         12    1    3    3    0    0 -0.22699971026E+02 -0.22699625266E+02  0.15503648558E+02  0.35650032124E+02  0.00000000000E+00 0. -1.
</event>
<event>
 7    1  0.5634483E-012  0.5930193E+02  0.7816164E-02  0.1266605E+00
        -11   -1    0    0    0    0  0.00000000000E+00  0.00000000000E+00  0.45593999997E+02  0.45594000000E+02  0.51100000000E-03 0. -1.
         11   -1    0    0    0    0 -0.00000000000E+00 -0.00000000000E+00 -0.45593999997E+02  0.45594000000E+02  0.51100000000E-03 0.  1.
    9900012    2    1    2    0    0 -0.31193579184E+01  0.11798826805E+02 -0.29458081052E+02  0.59301933340E+02  0.49999980507E+02 0.  0.
         12    1    1    2    0    0  0.31193579184E+01 -0.11798826805E+02  0.29458081052E+02  0.31886066660E+02  0.00000000000E+00 0. -1.
         11    1    3    3    0    0  0.40807020315E+01  0.25725417673E+01  0.36433660414E+01  0.60451812701E+01  0.51100000000E-03 0. -1.
        -11    1    3    3    0    0 -0.20902589374E+02 -0.18437913745E+01 -0.77145883554E+01  0.22356938138E+02  0.51100000000E-03 0.  1.
         12    1    3    3    0    0  0.13702529424E+02  0.11070076412E+02 -0.25386858738E+02  0.30899813931E+02  0.00000000000E+00 0. -1.
</event>
<event>
 7    1  0.5634483E-012  0.5930191E+02  0.7816164E-02  0.1266605E+00
        -11   -1    0    0    0    0  0.00000000000E+00  0.00000000000E+00  0.45593999997E+02  0.45594000000E+02  0.51100000000E-03 0. -1.
         11   -1    0    0    0    0 -0.00000000000E+00 -0.00000000000E+00 -0.45593999997E+02  0.45594000000E+02  0.51100000000E-03 0.  1.
    9900012    2    1    2    0    0  0.20183728389E+01 -0.34982719925E+01 -0.31629271795E+02  0.59301912593E+02  0.49999942671E+02 0.  0.
         12    1    1    2    0    0 -0.20183728389E+01  0.34982719925E+01  0.31629271795E+02  0.31886087407E+02  0.00000000000E+00 0. -1.
         11    1    3    3    0    0  0.51440148100E+01  0.49916242710E+01  0.44910134614E+01  0.84585107081E+01  0.51100000000E-03 0. -1.
        -11    1    3    3    0    0  0.12863964968E+02  0.60081892294E+01 -0.14185047168E+02  0.20069765717E+02  0.51100000000E-03 0.  1.
        -12    1    3    3    0    0 -0.15989606939E+02 -0.14498085493E+02 -0.21935238088E+02  0.30773636168E+02  0.00000000000E+00 0.  1.
</event>
<event>
 7    1  0.5634483E-012  0.5930174E+02  0.7816164E-02  0.1266605E+00
        -11   -1    0    0    0    0  0.00000000000E+00  0.00000000000E+00  0.45593999997E+02  0.45594000000E+02  0.51100000000E-03 0. -1.
         11   -1    0    0    0    0 -0.00000000000E+00 -0.00000000000E+00 -0.45593999997E+02  0.45594000000E+02  0.51100000000E-03 0.  1.
    9900012    2    1    2    0    0  0.29957401674E+02 -0.10083638670E+02 -0.41961980536E+01  0.59301737096E+02  0.49999622605E+02 0.  0.
         12    1    1    2    0    0 -0.29957401674E+02  0.10083638670E+02  0.41961980536E+01  0.31886262904E+02  0.00000000000E+00 0. -1.
         11    1    3    3    0    0  0.18669528786E+02  0.65908038158E+00 -0.41158324180E+01  0.19129186308E+02  0.51100000000E-03 0. -1.
        -11    1    3    3    0    0  0.15775526557E+02  0.55125512533E+01  0.10989325101E+02  0.20000518141E+02  0.51100000000E-03 0.  1.
         12    1    3    3    0    0 -0.44876536688E+01 -0.16255270305E+02 -0.11069690737E+02  0.20172032648E+02  0.00000000000E+00 0. -1.
</event>
<event>
 7    1  0.5634483E-012  0.5930195E+02  0.7816164E-02  0.1266605E+00
        -11   -1    0    0    0    0  0.00000000000E+00  0.00000000000E+00  0.45593999997E+02  0.45594000000E+02  0.51100000000E-03 0.  1.
         11   -1    0    0    0    0 -0.00000000000E+00 -0.00000000000E+00 -0.45593999997E+02  0.45594000000E+02  0.51100000000E-03 0. -1.
    9900012    2    1    2    0    0 -0.28965033224E+02  0.12892446538E+02 -0.33958353656E+01  0.59301952499E+02  0.50000015450E+02 0.  0.
         12    1    1    2    0    0  0.28965033224E+02 -0.12892446538E+02  0.33958353656E+01  0.31886047501E+02  0.00000000000E+00 0. -1.
         11    1    3    3    0    0 -0.22789680968E+01  0.57288690739E+01 -0.11197221190E+02  0.12782464516E+02  0.51100000000E-03 0. -1.
        -11    1    3    3    0    0 -0.19033323980E+02  0.21501699043E+02  0.93345161324E+01  0.30194762379E+02  0.51100000000E-03 0.  1.
         12    1    3    3    0    0 -0.76527411478E+01 -0.14338121579E+02 -0.15331303079E+01  0.16324725604E+02  0.00000000000E+00 0. -1.
</event>
<event>
 7    1  0.5634483E-012  0.5930184E+02  0.7816164E-02  0.1266605E+00
        -11   -1    0    0    0    0  0.00000000000E+00  0.00000000000E+00  0.45593999997E+02  0.45594000000E+02  0.51100000000E-03 0. -1.
         11   -1    0    0    0    0 -0.00000000000E+00 -0.00000000000E+00 -0.45593999997E+02  0.45594000000E+02  0.51100000000E-03 0.  1.
    9900012    2    1    2    0    0  0.17049324151E+02  0.26941418236E+02 -0.45545463127E+00  0.59301844548E+02  0.49999818573E+02 0.  0.
         12    1    1    2    0    0 -0.17049324151E+02 -0.26941418236E+02  0.45545463127E+00  0.31886155452E+02  0.00000000000E+00 0. -1.
         11    1    3    3    0    0  0.24622031330E+02  0.35568649503E+00  0.18754939275E+01  0.24695919044E+02  0.51100000000E-03 0. -1.
        -11    1    3    3    0    0  0.17232843260E+01  0.16680689515E+02  0.69516024373E+01  0.18153233549E+02  0.51100000000E-03 0.  1.
        -12    1    3    3    0    0 -0.92959915057E+01  0.99050422259E+01 -0.92825509960E+01  0.16452691955E+02  0.00000000000E+00 0.  1.
</event>
<event>
 7    1  0.5634483E-012  0.5930194E+02  0.7816164E-02  0.1266605E+00
        -11   -1    0    0    0    0  0.00000000000E+00  0.00000000000E+00  0.45593999997E+02  0.45594000000E+02  0.51100000000E-03 0.  1.
         11   -1    0    0    0    0 -0.00000000000E+00 -0.00000000000E+00 -0.45593999997E+02  0.45594000000E+02  0.51100000000E-03 0. -1.
    9900012    2    1    2    0    0  0.53926456604E+01 -0.30752859108E+02  0.64731533851E+01  0.59301942149E+02  0.49999996573E+02 0.  0.
         12    1    1    2    0    0 -0.53926456604E+01  0.30752859108E+02 -0.64731533851E+01  0.31886057851E+02  0.00000000000E+00 0. -1.
         11    1    3    3    0    0  0.51358556601E+00  0.31304201322E+01  0.20726839065E+02  0.20968193967E+02  0.51100000000E-03 0. -1.
        -11    1    3    3    0    0 -0.20182698792E+01 -0.37763118373E+01 -0.38025829612E+01  0.57265680679E+01  0.51100000000E-03 0.  1.
        -12    1    3    3    0    0  0.68973299737E+01 -0.30106967403E+02 -0.10451102719E+02  0.32607180114E+02  0.00000000000E+00 0.  1.
</event>
<event>
 7    1  0.5634483E-012  0.5930194E+02  0.7816164E-02  0.1266605E+00
        -11   -1    0    0    0    0  0.00000000000E+00  0.00000000000E+00  0.45593999997E+02  0.45594000000E+02  0.51100000000E-03 0.  1.
         11   -1    0    0    0    0 -0.00000000000E+00 -0.00000000000E+00 -0.45593999997E+02  0.45594000000E+02  0.51100000000E-03 0. -1.
    9900012    2    1    2    0    0  0.27878420148E+02  0.35034475223E+01  0.15074493559E+02  0.59301940184E+02  0.49999992991E+02 0.  0.
         12    1    1    2    0    0 -0.27878420148E+02 -0.35034475223E+01 -0.15074493559E+02  0.31886059816E+02  0.00000000000E+00 0. -1.
         11    1    3    3    0    0  0.86210751466E+00  0.16047638789E+02  0.70615375005E+01  0.17553781706E+02  0.51100000000E-03 0. -1.
        -11    1    3    3    0    0 -0.55281970844E+01  0.10845391224E+01  0.18601618929E+01  0.59327388820E+01  0.51100000000E-03 0.  1.
        -12    1    3    3    0    0  0.32544509718E+02 -0.13628730389E+02  0.61527941657E+01  0.35815419596E+02  0.00000000000E+00 0.  1.
</event>
<event>
 7    1  0.5634483E-012  0.5930197E+02  0.7816164E-02  0.1266605E+00
        -11   -1    0    0    0    0  0.00000000000E+00  0.00000000000E+00  0.45593999997E+02  0.45594000000E+02  0.51100000000E-03 0.  1.
         11   -1    0    0    0    0 -0.00000000000E+00 -0.00000000000E+00 -0.45593999997E+02  0.45594000000E+02  0.51100000000E-03 0. -1.
    9900012    2    1    2    0    0 -0.11326163568E+02  0.24098709352E+02  0.17541064588E+02  0.59301972959E+02  0.50000052764E+02 0.  0.
         12    1    1    2    0    0  0.11326163568E+02 -0.24098709352E+02 -0.17541064588E+02  0.31886027041E+02  0.00000000000E+00 0. -1.
         11    1    3    3    0    0 -0.21800126352E+01 -0.96117969050E+00  0.49109659333E+01  0.54583796264E+01  0.51100000000E-03 0. -1.
        -11    1    3    3    0    0  0.29257530569E+01  0.15456095087E+02  0.27969125557E+02  0.32089295583E+02  0.51100000000E-03 0.  1.
         12    1    3    3    0    0 -0.12071903990E+02  0.96037939549E+01 -0.15339026903E+02  0.21754297750E+02  0.00000000000E+00 0. -1.
</event>
<event>
 7    1  0.5634483E-012  0.5930192E+02  0.7816164E-02  0.1266605E+00
        -11   -1    0    0    0    0  0.00000000000E+00  0.00000000000E+00  0.45593999997E+02  0.45594000000E+02  0.51100000000E-03 0. -1.
         11   -1    0    0    0    0 -0.00000000000E+00 -0.00000000000E+00 -0.45593999997E+02  0.45594000000E+02  0.51100000000E-03 0.  1.
    9900012    2    1    2    0    0  0.30867477139E+02  0.42027956019E+01 -0.68012891618E+01  0.59301918866E+02  0.49999954111E+02 0.  0.
         12    1    1    2    0    0 -0.30867477139E+02 -0.42027956019E+01  0.68012891618E+01  0.31886081134E+02  0.00000000000E+00 0. -1.
         11    1    3    3    0    0 -0.17610302878E+01 -0.86695095407E+00 -0.13664204703E+02  0.13804467468E+02  0.51100000000E-03 0. -1.
        -11    1    3    3    0    0 -0.30777791371E+00 -0.82703016468E+01  0.54982864262E+01  0.99359836180E+01  0.51100000000E-03 0.  1.
         12    1    3    3    0    0  0.32936285341E+02  0.13340048203E+02  0.13646291152E+01  0.35561467781E+02  0.00000000000E+00 0. -1.
</event>
<event>
 7    1  0.5634483E-012  0.5930194E+02  0.7816164E-02  0.1266605E+00
        -11   -1    0    0    0    0  0.00000000000E+00  0.00000000000E+00  0.45593999997E+02  0.45594000000E+02  0.51100000000E-03 0. -1.
         11   -1    0    0    0    0 -0.00000000000E+00 -0.00000000000E+00 -0.45593999997E+02  0.45594000000E+02  0.51100000000E-03 0.  1.
    9900012    2    1    2    0    0  0.50228946169E+01 -0.31465219645E+02 -0.11964067165E+01  0.59301938677E+02  0.49999990242E+02 0.  0.
         12    1    1    2    0    0 -0.50228946169E+01  0.31465219645E+02  0.11964067165E+01  0.31886061323E+02  0.00000000000E+00 0. -1.
         11    1    3    3    0    0 -0.77742117433E+01 -0.11567739928E+01  0.72262784099E+01  0.10676871930E+02  0.51100000000E-03 0. -1.
        -11    1    3    3    0    0 -0.98134125069E+01 -0.21479297800E+02 -0.39360260197E+01  0.23940668330E+02  0.51100000000E-03 0.  1.
         12    1    3    3    0    0  0.22610518867E+02 -0.88291478527E+01 -0.44866591066E+01  0.24684398416E+02  0.00000000000E+00 0. -1.
</event>
<event>
 7    1  0.5634483E-012  0.5930193E+02  0.7816164E-02  0.1266605E+00
        -11   -1    0    0    0    0  0.00000000000E+00  0.00000000000E+00  0.45593999997E+02  0.45594000000E+02  0.51100000000E-03 0. -1.
         11   -1    0    0    0    0 -0.00000000000E+00 -0.00000000000E+00 -0.45593999997E+02  0.45594000000E+02  0.51100000000E-03 0.  1.
    9900012    2    1    2    0    0  0.85411245324E+01 -0.97329178151E+01 -0.29138310181E+02  0.59301927528E+02  0.49999969909E+02 0.  0.
         12    1    1    2    0    0 -0.85411245324E+01  0.97329178151E+01  0.29138310181E+02  0.31886072472E+02  0.00000000000E+00 0. -1.
         11    1    3    3    0    0  0.62074344008E+01 -0.13962364087E+02 -0.98054223780E+01  0.18155609629E+02  0.51100000000E-03 0. -1.
        -11    1    3    3    0    0  0.18515761423E+02 -0.95174964127E+00 -0.14333569302E+02  0.23434812942E+02  0.51100000000E-03 0.  1.
        -12    1    3    3    0    0 -0.16182071291E+02  0.51811959132E+01 -0.49993185015E+01  0.17711504957E+02  0.00000000000E+00 0.  1.
</event>
<event>
 7    1  0.5634483E-012  0.5930196E+02  0.7816164E-02  0.1266605E+00
        -11   -1    0    0    0    0  0.00000000000E+00  0.00000000000E+00  0.45593999997E+02  0.45594000000E+02  0.51100000000E-03 0.  1.
         11   -1    0    0    0    0 -0.00000000000E+00 -0.00000000000E+00 -0.45593999997E+02  0.45594000000E+02  0.51100000000E-03 0. -1.
    9900012    2    1    2    0    0  0.16694367395E+02 -0.28871524532E+01  0.27012631691E+02  0.59301955672E+02  0.50000021236E+02 0.  0.
         12    1    1    2    0    0 -0.16694367395E+02  0.28871524532E+01 -0.27012631691E+02  0.31886044328E+02  0.00000000000E+00 0. -1.
         11    1    3    3    0    0 -0.79189423205E+01  0.18972013811E+00  0.13389668407E+01  0.80335841110E+01  0.51100000000E-03 0.  1.
        -11    1    3    3    0    0  0.12942427665E+02  0.58510446087E+01 -0.67085996567E+01  0.15708165600E+02  0.51100000000E-03 0. -1.
        -12    1    3    3    0    0  0.11670882050E+02 -0.89279172000E+01  0.32382264507E+02  0.35560205961E+02  0.00000000000E+00 0.  1.
</event>
<event>
 7    1  0.5634483E-012  0.5930194E+02  0.7816164E-02  0.1266605E+00
        -11   -1    0    0    0    0  0.00000000000E+00  0.00000000000E+00  0.45593999997E+02  0.45594000000E+02  0.51100000000E-03 0.  1.
         11   -1    0    0    0    0 -0.00000000000E+00 -0.00000000000E+00 -0.45593999997E+02  0.45594000000E+02  0.51100000000E-03 0. -1.
    9900012    2    1    2    0    0  0.69495287621E+01 -0.30759191840E+02 -0.47219394343E+01  0.59301944354E+02  0.50000000595E+02 0.  0.
         12    1    1    2    0    0 -0.69495287621E+01  0.30759191840E+02  0.47219394343E+01  0.31886055646E+02  0.00000000000E+00 0. -1.
         11    1    3    3    0    0  0.13902171613E+02 -0.26069744344E+01 -0.32793430234E+01  0.14519668804E+02  0.51100000000E-03 0.  1.
        -11    1    3    3    0    0 -0.57639736015E+01  0.52782149652E+01  0.67670098000E+01  0.10338054304E+02  0.51100000000E-03 0. -1.
         12    1    3    3    0    0 -0.11886692495E+01 -0.33430432371E+02 -0.82096062109E+01  0.34444221245E+02  0.00000000000E+00 0. -1.
</event>
<event>
 7    1  0.5634483E-012  0.5930197E+02  0.7816164E-02  0.1266605E+00
        -11   -1    0    0    0    0  0.00000000000E+00  0.00000000000E+00  0.45593999997E+02  0.45594000000E+02  0.51100000000E-03 0.  1.
         11   -1    0    0    0    0 -0.00000000000E+00 -0.00000000000E+00 -0.45593999997E+02  0.45594000000E+02  0.51100000000E-03 0. -1.
    9900012    2    1    2    0    0 -0.26328741968E+02  0.17985345361E+02  0.20818961839E+00  0.59301974153E+02  0.50000054942E+02 0.  0.
         12    1    1    2    0    0  0.26328741968E+02 -0.17985345361E+02 -0.20818961839E+00  0.31886025847E+02  0.00000000000E+00 0. -1.
         11    1    3    3    0    0 -0.12848652277E+02  0.11724462228E+02 -0.69631475685E+01  0.18735962858E+02  0.51100000000E-03 0. -1.
        -11    1    3    3    0    0 -0.65843623067E+01  0.17467994565E+02  0.16110384292E+02  0.24658246966E+02  0.51100000000E-03 0.  1.
         12    1    3    3    0    0 -0.68957273845E+01 -0.11207111433E+02 -0.89390471054E+01  0.15907764330E+02  0.00000000000E+00 0. -1.
</event>
<event>
 7    1  0.5634483E-012  0.5930196E+02  0.7816164E-02  0.1266605E+00
        -11   -1    0    0    0    0  0.00000000000E+00  0.00000000000E+00  0.45593999997E+02  0.45594000000E+02  0.51100000000E-03 0.  1.
         11   -1    0    0    0    0 -0.00000000000E+00 -0.00000000000E+00 -0.45593999997E+02  0.45594000000E+02  0.51100000000E-03 0. -1.
    9900012    2    1    2    0    0 -0.22835179422E+02  0.18550246936E+02  0.12294825914E+02  0.59301955641E+02  0.50000021179E+02 0.  0.
         12    1    1    2    0    0  0.22835179422E+02 -0.18550246936E+02 -0.12294825914E+02  0.31886044359E+02  0.00000000000E+00 0. -1.
         11    1    3    3    0    0  0.42186032665E+01  0.11112962656E+02  0.61913799712E+01  0.13402527326E+02  0.51100000000E-03 0. -1.
        -11    1    3    3    0    0 -0.24051909493E+02  0.11624280569E+02  0.18487149134E+02  0.32486811668E+02  0.51100000000E-03 0.  1.
         12    1    3    3    0    0 -0.30018731961E+01 -0.41869962889E+01 -0.12383703190E+02  0.13412616647E+02  0.00000000000E+00 0. -1.
</event>
<event>
 7    1  0.5634483E-012  0.5930196E+02  0.7816164E-02  0.1266605E+00
        -11   -1    0    0    0    0  0.00000000000E+00  0.00000000000E+00  0.45593999997E+02  0.45594000000E+02  0.51100000000E-03 0. -1.
         11   -1    0    0    0    0 -0.00000000000E+00 -0.00000000000E+00 -0.45593999997E+02  0.45594000000E+02  0.51100000000E-03 0.  1.
    9900012    2    1    2    0    0 -0.24500864364E+02  0.18760709314E+02 -0.80288859067E+01  0.59301959521E+02  0.50000028256E+02 0.  0.
         12    1    1    2    0    0  0.24500864364E+02 -0.18760709314E+02  0.80288859067E+01  0.31886040479E+02  0.00000000000E+00 0. -1.
         11    1    3    3    0    0 -0.29975209610E+02  0.21255410732E+02 -0.73188766382E+01  0.37468275008E+02  0.51100000000E-03 0. -1.
        -11    1    3    3    0    0 -0.73050379094E+01  0.18197259683E+01  0.25658914416E+01  0.79535388733E+01  0.51100000000E-03 0.  1.
         12    1    3    3    0    0  0.12779383156E+02 -0.43144273867E+01 -0.32759007102E+01  0.13880145640E+02  0.00000000000E+00 0. -1.
</event>
<event>
 7    1  0.5634483E-012  0.5930195E+02  0.7816164E-02  0.1266605E+00
        -11   -1    0    0    0    0  0.00000000000E+00  0.00000000000E+00  0.45593999997E+02  0.45594000000E+02  0.51100000000E-03 0.  1.
         11   -1    0    0    0    0 -0.00000000000E+00 -0.00000000000E+00 -0.45593999997E+02  0.45594000000E+02  0.51100000000E-03 0. -1.
    9900012    2    1    2    0    0  0.54922878242E+01 -0.26871441720E+02  0.16262864093E+02  0.59301947341E+02  0.50000006042E+02 0.  0.
         12    1    1    2    0    0 -0.54922878242E+01  0.26871441720E+02 -0.16262864093E+02  0.31886052659E+02  0.00000000000E+00 0. -1.
         11    1    3    3    0    0 -0.10818734677E+01 -0.82606221139E+01  0.22981874223E+02  0.24445344567E+02  0.51100000000E-03 0. -1.
        -11    1    3    3    0    0 -0.98346702915E+01 -0.16138430312E+01  0.96613276296E+00  0.10012923741E+02  0.51100000000E-03 0.  1.
         12    1    3    3    0    0  0.16408831583E+02 -0.16996976575E+02 -0.76851428926E+01  0.24843679033E+02  0.00000000000E+00 0. -1.
</event>
<event>
 7    1  0.5634483E-012  0.5930196E+02  0.7816164E-02  0.1266605E+00
        -11   -1    0    0    0    0  0.00000000000E+00  0.00000000000E+00  0.45593999997E+02  0.45594000000E+02  0.51100000000E-03 0. -1.
         11   -1    0    0    0    0 -0.00000000000E+00 -0.00000000000E+00 -0.45593999997E+02  0.45594000000E+02  0.51100000000E-03 0.  1.
    9900012    2    1    2    0    0 -0.18662030634E+02 -0.22515422046E+02 -0.12708410494E+02  0.59301963643E+02  0.50000035773E+02 0.  0.
         12    1    1    2    0    0  0.18662030634E+02  0.22515422046E+02  0.12708410494E+02  0.31886036357E+02  0.00000000000E+00 0. -1.
         11    1    3    3    0    0 -0.20974246193E+01 -0.20289788081E+01 -0.27699163642E+01  0.40234788384E+01  0.51100000000E-03 0. -1.
        -11    1    3    3    0    0 -0.24063735750E+02 -0.25325597518E+02 -0.21234480431E+02  0.40882177380E+02  0.51100000000E-03 0.  1.
         12    1    3    3    0    0  0.74991297351E+01  0.48391542804E+01  0.11295986301E+02  0.14396307424E+02  0.00000000000E+00 0. -1.
</event>
<event>
 7    1  0.5634483E-012  0.5930199E+02  0.7816164E-02  0.1266605E+00
        -11   -1    0    0    0    0  0.00000000000E+00  0.00000000000E+00  0.45593999997E+02  0.45594000000E+02  0.51100000000E-03 0. -1.
         11   -1    0    0    0    0 -0.00000000000E+00 -0.00000000000E+00 -0.45593999997E+02  0.45594000000E+02  0.51100000000E-03 0.  1.
    9900012    2    1    2    0    0  0.25465991409E+02  0.10078680726E+02  0.16328534200E+02  0.59301991270E+02  0.50000086158E+02 0.  0.
         12    1    1    2    0    0 -0.25465991409E+02 -0.10078680726E+02 -0.16328534200E+02  0.31886008730E+02  0.00000000000E+00 0. -1.
         11    1    3    3    0    0  0.17318591091E+02  0.82318111195E+01  0.11025541635E+02  0.22119197099E+02  0.51100000000E-03 0. -1.
        -11    1    3    3    0    0  0.16980920256E+02  0.13657848217E+02  0.98241087421E+00  0.21814068902E+02  0.51100000000E-03 0.  1.
         12    1    3    3    0    0 -0.88335199382E+01 -0.11810978610E+02  0.43205816905E+01  0.15368725269E+02  0.00000000000E+00 0. -1.
</event>
<event>
 7    1  0.5650643E-012  0.5930196E+02  0.7816164E-02  0.1266605E+00
        -11   -1    0    0    0    0  0.00000000000E+00  0.00000000000E+00  0.45593999997E+02  0.45594000000E+02  0.51100000000E-03 0. -1.
         11   -1    0    0    0    0 -0.00000000000E+00 -0.00000000000E+00 -0.45593999997E+02  0.45594000000E+02  0.51100000000E-03 0.  1.
    9900012    2    1    2    0    0  0.30505713069E+02  0.93410924328E+00 -0.92330065220E+01  0.59301960745E+02  0.50000030489E+02 0.  0.
         12    1    1    2    0    0 -0.30505713069E+02 -0.93410924328E+00  0.92330065220E+01  0.31886039255E+02  0.00000000000E+00 0. -1.
         11    1    3    3    0    0  0.21648128638E+02 -0.85928124560E+01 -0.42254626607E+00  0.23294987552E+02  0.51100000000E-03 0. -1.
        -11    1    3    3    0    0  0.11581384837E+02  0.97757628795E+01 -0.19656828080E+02  0.24821057694E+02  0.51100000000E-03 0.  1.
         12    1    3    3    0    0 -0.27238004066E+01 -0.24884118018E+00  0.10846367824E+02  0.11185915499E+02  0.00000000000E+00 0. -1.
</event>
<event>
 7    1  0.5634483E-012  0.5930198E+02  0.7816164E-02  0.1266605E+00
        -11   -1    0    0    0    0  0.00000000000E+00  0.00000000000E+00  0.45593999997E+02  0.45594000000E+02  0.51100000000E-03 0.  1.
         11   -1    0    0    0    0 -0.00000000000E+00 -0.00000000000E+00 -0.45593999997E+02  0.45594000000E+02  0.51100000000E-03 0. -1.
    9900012    2    1    2    0    0  0.26996084032E+02  0.50235775004E+01  0.16207815747E+02  0.59301981508E+02  0.50000068356E+02 0.  0.
         12    1    1    2    0    0 -0.26996084032E+02 -0.50235775004E+01 -0.16207815747E+02  0.31886018492E+02  0.00000000000E+00 0. -1.
         11    1    3    3    0    0  0.10123425415E+02  0.43156670413E+01  0.72269569598E+01  0.13165774998E+02  0.51100000000E-03 0.  1.
        -11    1    3    3    0    0  0.30104759551E+02  0.53894140634E+01  0.25267541735E+01  0.30687567816E+02  0.51100000000E-03 0. -1.
         12    1    3    3    0    0 -0.13232100934E+02 -0.46815036043E+01  0.64541046133E+01  0.15448638694E+02  0.00000000000E+00 0. -1.
</event>
<event>
 7    1  0.5634483E-012  0.5930204E+02  0.7816164E-02  0.1266604E+00
        -11   -1    0    0    0    0  0.00000000000E+00  0.00000000000E+00  0.45593999997E+02  0.45594000000E+02  0.51100000000E-03 0. -1.
         11   -1    0    0    0    0 -0.00000000000E+00 -0.00000000000E+00 -0.45593999997E+02  0.45594000000E+02  0.51100000000E-03 0.  1.
    9900012    2    1    2    0    0  0.28145484985E+02 -0.10583387675E+02 -0.10608379517E+02  0.59302044852E+02  0.50000183879E+02 0.  0.
         12    1    1    2    0    0 -0.28145484985E+02  0.10583387675E+02  0.10608379517E+02  0.31885955148E+02  0.00000000000E+00 0. -1.
         11    1    3    3    0    0  0.13928328940E+02 -0.53102164247E+01 -0.50767750286E+01  0.15747075617E+02  0.51100000000E-03 0. -1.
        -11    1    3    3    0    0 -0.40966866976E+01  0.45057312759E+01  0.13864614716E+02  0.15143051136E+02  0.51100000000E-03 0.  1.
         12    1    3    3    0    0  0.18313842742E+02 -0.97789025265E+01 -0.19396219205E+02  0.28411918099E+02  0.00000000000E+00 0. -1.
</event>
<event>
 7    1  0.5634483E-012  0.5930195E+02  0.7816164E-02  0.1266605E+00
        -11   -1    0    0    0    0  0.00000000000E+00  0.00000000000E+00  0.45593999997E+02  0.45594000000E+02  0.51100000000E-03 0.  1.
         11   -1    0    0    0    0 -0.00000000000E+00 -0.00000000000E+00 -0.45593999997E+02  0.45594000000E+02  0.51100000000E-03 0. -1.
    9900012    2    1    2    0    0 -0.15065413008E+02 -0.24889514304E+02  0.13048580697E+02  0.59301952117E+02  0.50000014754E+02 0.  0.
         12    1    1    2    0    0  0.15065413008E+02  0.24889514304E+02 -0.13048580697E+02  0.31886047883E+02  0.00000000000E+00 0. -1.
         11    1    3    3    0    0  0.72656346862E+01 -0.27133438854E+02  0.19311076350E+01  0.28155676664E+02  0.51100000000E-03 0. -1.
        -11    1    3    3    0    0 -0.48075069897E+01  0.60004051584E+01  0.10755320130E+02  0.13220964295E+02  0.51100000000E-03 0.  1.
        -12    1    3    3    0    0 -0.17523540705E+02 -0.37564806078E+01  0.36215293165E+00  0.17925311159E+02  0.00000000000E+00 0.  1.
</event>
<event>
 7    1  0.5634483E-012  0.5930194E+02  0.7816164E-02  0.1266605E+00
        -11   -1    0    0    0    0  0.00000000000E+00  0.00000000000E+00  0.45593999997E+02  0.45594000000E+02  0.51100000000E-03 0. -1.
         11   -1    0    0    0    0 -0.00000000000E+00 -0.00000000000E+00 -0.45593999997E+02  0.45594000000E+02  0.51100000000E-03 0.  1.
    9900012    2    1    2    0    0 -0.20937388092E+02  0.15536320610E+02 -0.18356721065E+02  0.59301942131E+02  0.49999996541E+02 0.  0.
         12    1    1    2    0    0  0.20937388092E+02 -0.15536320610E+02  0.18356721065E+02  0.31886057869E+02  0.00000000000E+00 0. -1.
         11    1    3    3    0    0 -0.17965932449E+01  0.24056808444E+02 -0.10222672343E+02  0.26200397132E+02  0.51100000000E-03 0. -1.
        -11    1    3    3    0    0 -0.98392751150E+01 -0.96035722290E+00 -0.15969125686E+02  0.18781549356E+02  0.51100000000E-03 0.  1.
         12    1    3    3    0    0 -0.93015197317E+01 -0.75601306111E+01  0.78350769645E+01  0.14319995643E+02  0.00000000000E+00 0. -1.
</event>
<event>
 7    1  0.5634483E-012  0.5930186E+02  0.7816164E-02  0.1266605E+00
        -11   -1    0    0    0    0  0.00000000000E+00  0.00000000000E+00  0.45593999997E+02  0.45594000000E+02  0.51100000000E-03 0.  1.
         11   -1    0    0    0    0 -0.00000000000E+00 -0.00000000000E+00 -0.45593999997E+02  0.45594000000E+02  0.51100000000E-03 0. -1.
    9900012    2    1    2    0    0 -0.47837317381E+01  0.12873318673E+02  0.28777068955E+02  0.59301856918E+02  0.49999841132E+02 0.  0.
         12    1    1    2    0    0  0.47837317381E+01 -0.12873318673E+02 -0.28777068955E+02  0.31886143082E+02  0.00000000000E+00 0. -1.
         11    1    3    3    0    0 -0.37479759787E+01  0.16060028473E+02  0.22021687142E+02  0.27512298038E+02  0.51100000000E-03 0. -1.
        -11    1    3    3    0    0 -0.13615187128E+02  0.53217487017E+00  0.11510453147E+02  0.17836677452E+02  0.51100000000E-03 0.  1.
         12    1    3    3    0    0  0.12579431369E+02 -0.37188846706E+01 -0.47550713328E+01  0.13952881428E+02  0.00000000000E+00 0. -1.
</event>
<event>
 7    1  0.5634483E-012  0.5930196E+02  0.7816164E-02  0.1266605E+00
        -11   -1    0    0    0    0  0.00000000000E+00  0.00000000000E+00  0.45593999997E+02  0.45594000000E+02  0.51100000000E-03 0.  1.
         11   -1    0    0    0    0 -0.00000000000E+00 -0.00000000000E+00 -0.45593999997E+02  0.45594000000E+02  0.51100000000E-03 0. -1.
    9900012    2    1    2    0    0  0.10056803618E+02 -0.16900882484E+02  0.25098617250E+02  0.59301957354E+02  0.50000024304E+02 0.  0.
         12    1    1    2    0    0 -0.10056803618E+02  0.16900882484E+02 -0.25098617250E+02  0.31886042646E+02  0.00000000000E+00 0. -1.
         11    1    3    3    0    0 -0.13949220940E+01  0.68352340864E+01  0.39663383589E+01  0.80248409892E+01  0.51100000000E-03 0. -1.
        -11    1    3    3    0    0  0.24589304759E+02 -0.12441523736E+02  0.19735524129E+02  0.33895668371E+02  0.51100000000E-03 0.  1.
         12    1    3    3    0    0 -0.13137579047E+02 -0.11294592834E+02  0.13967547625E+01  0.17381447994E+02  0.00000000000E+00 0. -1.
</event>
<event>
 7    1  0.5634483E-012  0.5930195E+02  0.7816164E-02  0.1266605E+00
        -11   -1    0    0    0    0  0.00000000000E+00  0.00000000000E+00  0.45593999997E+02  0.45594000000E+02  0.51100000000E-03 0. -1.
         11   -1    0    0    0    0 -0.00000000000E+00 -0.00000000000E+00 -0.45593999997E+02  0.45594000000E+02  0.51100000000E-03 0.  1.
    9900012    2    1    2    0    0  0.66140382996E+01  0.26303502161E+02 -0.16766055370E+02  0.59301947544E+02  0.50000006412E+02 0.  0.
         12    1    1    2    0    0 -0.66140382996E+01 -0.26303502161E+02  0.16766055370E+02  0.31886052456E+02  0.00000000000E+00 0. -1.
         11    1    3    3    0    0  0.56689361015E+01  0.72568912483E+01  0.64584408996E+01  0.11247700486E+02  0.51100000000E-03 0. -1.
        -11    1    3    3    0    0  0.10167387713E+02 -0.52882337982E+01 -0.18264100273E+02  0.21561969962E+02  0.51100000000E-03 0.  1.
         12    1    3    3    0    0 -0.92222855150E+01  0.24334844711E+02 -0.49603959966E+01  0.26492277095E+02  0.00000000000E+00 0. -1.
</event>
<event>
 7    1  0.5634483E-012  0.5930196E+02  0.7816164E-02  0.1266605E+00
        -11   -1    0    0    0    0  0.00000000000E+00  0.00000000000E+00  0.45593999997E+02  0.45594000000E+02  0.51100000000E-03 0. -1.
         11   -1    0    0    0    0 -0.00000000000E+00 -0.00000000000E+00 -0.45593999997E+02  0.45594000000E+02  0.51100000000E-03 0.  1.
    9900012    2    1    2    0    0  0.49494492367E+01  0.16975421930E+02 -0.26534088075E+02  0.59301955601E+02  0.50000021107E+02 0.  0.
         12    1    1    2    0    0 -0.49494492367E+01 -0.16975421930E+02  0.26534088075E+02  0.31886044399E+02  0.00000000000E+00 0. -1.
         11    1    3    3    0    0 -0.12663777125E+02  0.33410609350E+00 -0.68527292480E+01  0.14402873892E+02  0.51100000000E-03 0. -1.
        -11    1    3    3    0    0 -0.57523900774E+01  0.38566652198E+00 -0.14977811458E+02  0.16049098623E+02  0.51100000000E-03 0.  1.
         12    1    3    3    0    0  0.23365616439E+02  0.16255649314E+02 -0.47035473693E+01  0.28849983086E+02  0.00000000000E+00 0. -1.
</event>
<event>
 7    1  0.5634483E-012  0.5930217E+02  0.7816164E-02  0.1266604E+00
        -11   -1    0    0    0    0  0.00000000000E+00  0.00000000000E+00  0.45593999997E+02  0.45594000000E+02  0.51100000000E-03 0.  1.
         11   -1    0    0    0    0 -0.00000000000E+00 -0.00000000000E+00 -0.45593999997E+02  0.45594000000E+02  0.51100000000E-03 0. -1.
    9900012    2    1    2    0    0 -0.16073622248E+01  0.27603440420E+02  0.15879936437E+02  0.59302173719E+02  0.50000418901E+02 0.  0.
         12    1    1    2    0    0  0.16073622248E+01 -0.27603440420E+02 -0.15879936437E+02  0.31885826281E+02  0.00000000000E+00 0. -1.
         11    1    3    3    0    0  0.12283466722E+02 -0.71144638796E+00  0.61012799887E+00  0.12319170716E+02  0.51100000000E-03 0. -1.
        -11    1    3    3    0    0  0.56533218959E+00  0.22457092584E+02 -0.33288051503E+01  0.22709503557E+02  0.51100000000E-03 0.  1.
        -12    1    3    3    0    0 -0.14456161137E+02  0.58577942241E+01  0.18598613588E+02  0.24273499447E+02  0.00000000000E+00 0.  1.
</event>
<event>
 7    1  0.5634483E-012  0.5930191E+02  0.7816164E-02  0.1266605E+00
        -11   -1    0    0    0    0  0.00000000000E+00  0.00000000000E+00  0.45593999997E+02  0.45594000000E+02  0.51100000000E-03 0.  1.
         11   -1    0    0    0    0 -0.00000000000E+00 -0.00000000000E+00 -0.45593999997E+02  0.45594000000E+02  0.51100000000E-03 0. -1.
    9900012    2    1    2    0    0 -0.16453789763E+02  0.27312907479E+02 -0.25664837688E-01  0.59301909440E+02  0.49999936920E+02 0.  0.
         12    1    1    2    0    0  0.16453789763E+02 -0.27312907479E+02  0.25664837688E-01  0.31886090560E+02  0.00000000000E+00 0. -1.
         11    1    3    3    0    0 -0.11922712445E+02  0.23953433748E+02 -0.73088373733E+01  0.27736927810E+02  0.51100000000E-03 0. -1.
        -11    1    3    3    0    0 -0.16989419997E+02 -0.20440037717E+01  0.46483051747E+01  0.17732035543E+02  0.51100000000E-03 0.  1.
        -12    1    3    3    0    0  0.12458342679E+02  0.54034775031E+01  0.26348673609E+01  0.13832946087E+02  0.00000000000E+00 0.  1.
</event>
<event>
 7    1  0.5634483E-012  0.5930192E+02  0.7816164E-02  0.1266605E+00
        -11   -1    0    0    0    0  0.00000000000E+00  0.00000000000E+00  0.45593999997E+02  0.45594000000E+02  0.51100000000E-03 0.  1.
         11   -1    0    0    0    0 -0.00000000000E+00 -0.00000000000E+00 -0.45593999997E+02  0.45594000000E+02  0.51100000000E-03 0. -1.
    9900012    2    1    2    0    0  0.53252967780E+01  0.29159025161E+01  0.31302723752E+02  0.59301924864E+02  0.49999965050E+02 0.  0.
         12    1    1    2    0    0 -0.53252967780E+01 -0.29159025161E+01 -0.31302723752E+02  0.31886075136E+02  0.00000000000E+00 0. -1.
         11    1    3    3    0    0  0.16669607339E+02 -0.86927231663E+01  0.10658268157E+02  0.21611060253E+02  0.51100000000E-03 0. -1.
        -11    1    3    3    0    0  0.62077477898E+01  0.10803968824E+01  0.15285708417E+02  0.16533489411E+02  0.51100000000E-03 0.  1.
         12    1    3    3    0    0 -0.17552058351E+02  0.10528228800E+02  0.53587471780E+01  0.21157375200E+02  0.00000000000E+00 0. -1.
</event>
<event>
 7    1  0.5634483E-012  0.5930192E+02  0.7816164E-02  0.1266605E+00
        -11   -1    0    0    0    0  0.00000000000E+00  0.00000000000E+00  0.45593999997E+02  0.45594000000E+02  0.51100000000E-03 0.  1.
         11   -1    0    0    0    0 -0.00000000000E+00 -0.00000000000E+00 -0.45593999997E+02  0.45594000000E+02  0.51100000000E-03 0. -1.
    9900012    2    1    2    0    0 -0.12448420643E+02  0.13979868922E+02  0.25813217703E+02  0.59301919654E+02  0.49999955549E+02 0.  0.
         12    1    1    2    0    0  0.12448420643E+02 -0.13979868922E+02 -0.25813217703E+02  0.31886080346E+02  0.00000000000E+00 0. -1.
         11    1    3    3    0    0 -0.12889677124E+02 -0.74758367480E+01  0.15976477088E+02  0.21846732750E+02  0.51100000000E-03 0. -1.
        -11    1    3    3    0    0  0.17898032691E+01  0.12235275502E+02  0.20095989118E+02  0.23595638183E+02  0.51100000000E-03 0.  1.
        -12    1    3    3    0    0 -0.13485467886E+01  0.92204301687E+01 -0.10259248503E+02  0.13859548722E+02  0.00000000000E+00 0.  1.
</event>
<event>
 7    1  0.5634483E-012  0.5930194E+02  0.7816164E-02  0.1266605E+00
        -11   -1    0    0    0    0  0.00000000000E+00  0.00000000000E+00  0.45593999997E+02  0.45594000000E+02  0.51100000000E-03 0.  1.
         11   -1    0    0    0    0 -0.00000000000E+00 -0.00000000000E+00 -0.45593999997E+02  0.45594000000E+02  0.51100000000E-03 0. -1.
    9900012    2    1    2    0    0 -0.85377040559E+01 -0.66230734764E+01  0.29999388869E+02  0.59301939953E+02  0.49999992569E+02 0.  0.
         12    1    1    2    0    0  0.85377040559E+01  0.66230734764E+01 -0.29999388869E+02  0.31886060047E+02  0.00000000000E+00 0. -1.
         11    1    3    3    0    0 -0.51926764921E+01  0.11953537432E+02  0.15869761182E+02  0.20535341890E+02  0.51100000000E-03 0. -1.
        -11    1    3    3    0    0 -0.52286159225E+00  0.84033432082E+01  0.56890233713E+00  0.84387920611E+01  0.51100000000E-03 0.  1.
        -12    1    3    3    0    0 -0.28221659715E+01 -0.26979954117E+02  0.13560725350E+02  0.30327806002E+02  0.00000000000E+00 0.  1.
</event>
<event>
 7    1  0.5634483E-012  0.5930197E+02  0.7816164E-02  0.1266605E+00
        -11   -1    0    0    0    0  0.00000000000E+00  0.00000000000E+00  0.45593999997E+02  0.45594000000E+02  0.51100000000E-03 0. -1.
         11   -1    0    0    0    0 -0.00000000000E+00 -0.00000000000E+00 -0.45593999997E+02  0.45594000000E+02  0.51100000000E-03 0.  1.
    9900012    2    1    2    0    0  0.44199711041E+01  0.58689213566E+01 -0.31028027391E+02  0.59301970673E+02  0.50000048595E+02 0.  0.
         12    1    1    2    0    0 -0.44199711041E+01 -0.58689213566E+01  0.31028027391E+02  0.31886029327E+02  0.00000000000E+00 0. -1.
         11    1    3    3    0    0  0.11244458630E+02  0.69135753124E+01 -0.17408544547E+02  0.21847031766E+02  0.51100000000E-03 0. -1.
        -11    1    3    3    0    0  0.36490258014E+01 -0.11668488895E+02 -0.18132252854E+02  0.21868873227E+02  0.51100000000E-03 0.  1.
        -12    1    3    3    0    0 -0.10473513327E+02  0.10623834939E+02  0.45127700100E+01  0.15586065680E+02  0.00000000000E+00 0.  1.
</event>
<event>
 7    1  0.5634483E-012  0.5930190E+02  0.7816164E-02  0.1266605E+00
        -11   -1    0    0    0    0  0.00000000000E+00  0.00000000000E+00  0.45593999997E+02  0.45594000000E+02  0.51100000000E-03 0. -1.
         11   -1    0    0    0    0 -0.00000000000E+00 -0.00000000000E+00 -0.45593999997E+02  0.45594000000E+02  0.51100000000E-03 0.  1.
    9900012    2    1    2    0    0  0.49464437132E+01 -0.70924258061E+01 -0.30691260787E+02  0.59301901181E+02  0.49999921857E+02 0.  0.
         12    1    1    2    0    0 -0.49464437132E+01  0.70924258061E+01  0.30691260787E+02  0.31886098819E+02  0.00000000000E+00 0. -1.
         11    1    3    3    0    0  0.17445057308E+01  0.19855806363E+02 -0.62659868600E+01  0.20893992873E+02  0.51100000000E-03 0. -1.
        -11    1    3    3    0    0  0.22356879816E+01 -0.94981343063E+01 -0.16608154565E+02  0.19262493462E+02  0.51100000000E-03 0.  1.
        -12    1    3    3    0    0  0.96625000091E+00 -0.17450097863E+02 -0.78171193624E+01  0.19145414846E+02  0.00000000000E+00 0.  1.
</event>
<event>
 7    1  0.6066789E-012  0.5930196E+02  0.7816164E-02  0.1266605E+00
        -11   -1    0    0    0    0  0.00000000000E+00  0.00000000000E+00  0.45593999997E+02  0.45594000000E+02  0.51100000000E-03 0.  1.
         11   -1    0    0    0    0 -0.00000000000E+00 -0.00000000000E+00 -0.45593999997E+02  0.45594000000E+02  0.51100000000E-03 0. -1.
    9900012    2    1    2    0    0 -0.11535723949E+02  0.22532395679E+02  0.19389115919E+02  0.59301959196E+02  0.50000027663E+02 0.  0.
         12    1    1    2    0    0  0.11535723949E+02 -0.22532395679E+02 -0.19389115919E+02  0.31886040804E+02  0.00000000000E+00 0. -1.
         11    1    3    3    0    0  0.93005378279E+01  0.24574600987E+01 -0.30399255422E+01  0.10088620401E+02  0.51100000000E-03 0. -1.
        -11    1    3    3    0    0 -0.18733953928E+01  0.19911492590E+02  0.22692739089E+02  0.30247934724E+02  0.51100000000E-03 0.  1.
         12    1    3    3    0    0 -0.18962866384E+02  0.16344299032E+00 -0.26369762805E+00  0.18965404071E+02  0.00000000000E+00 0. -1.
</event>
<event>
 7    1  0.5634483E-012  0.5930192E+02  0.7816164E-02  0.1266605E+00
        -11   -1    0    0    0    0  0.00000000000E+00  0.00000000000E+00  0.45593999997E+02  0.45594000000E+02  0.51100000000E-03 0.  1.
         11   -1    0    0    0    0 -0.00000000000E+00 -0.00000000000E+00 -0.45593999997E+02  0.45594000000E+02  0.51100000000E-03 0. -1.
    9900012    2    1    2    0    0  0.31714855491E+02 -0.32907837814E+01 -0.24652816136E+00  0.59301920077E+02  0.49999956319E+02 0.  0.
         12    1    1    2    0    0 -0.31714855491E+02  0.32907837814E+01  0.24652816136E+00  0.31886079923E+02  0.00000000000E+00 0. -1.
         11    1    3    3    0    0  0.23090166360E+02 -0.14090731804E+02  0.51511887414E+01  0.27536144447E+02  0.51100000000E-03 0. -1.
        -11    1    3    3    0    0  0.18051051589E+02  0.16837726646E+01 -0.21520583619E+01  0.18256694918E+02  0.51100000000E-03 0.  1.
        -12    1    3    3    0    0 -0.94263624576E+01  0.91161753576E+01 -0.32456585409E+01  0.13509080712E+02  0.00000000000E+00 0.  1.
</event>
<event>
 7    1  0.5634483E-012  0.5930177E+02  0.7816164E-02  0.1266605E+00
        -11   -1    0    0    0    0  0.00000000000E+00  0.00000000000E+00  0.45593999997E+02  0.45594000000E+02  0.51100000000E-03 0.  1.
         11   -1    0    0    0    0 -0.00000000000E+00 -0.00000000000E+00 -0.45593999997E+02  0.45594000000E+02  0.51100000000E-03 0. -1.
    9900012    2    1    2    0    0 -0.15471488119E+02 -0.15289661811E+02  0.23315036107E+02  0.59301770816E+02  0.49999684102E+02 0.  0.
         12    1    1    2    0    0  0.15471488119E+02  0.15289661811E+02 -0.23315036107E+02  0.31886229184E+02  0.00000000000E+00 0. -1.
         11    1    3    3    0    0  0.12885373830E+01  0.10318421963E+02  0.14127025422E+00  0.10399524890E+02  0.51100000000E-03 0. -1.
        -11    1    3    3    0    0 -0.74279964810E+01 -0.10109874082E+02 -0.65147743435E+01  0.14136016790E+02  0.51100000000E-03 0.  1.
        -12    1    3    3    0    0 -0.93320290211E+01 -0.15498209692E+02  0.29688540196E+02  0.34766229135E+02  0.00000000000E+00 0.  1.
</event>
<event>
 7    1  0.5634483E-012  0.5930196E+02  0.7816164E-02  0.1266605E+00
        -11   -1    0    0    0    0  0.00000000000E+00  0.00000000000E+00  0.45593999997E+02  0.45594000000E+02  0.51100000000E-03 0.  1.
         11   -1    0    0    0    0 -0.00000000000E+00 -0.00000000000E+00 -0.45593999997E+02  0.45594000000E+02  0.51100000000E-03 0. -1.
    9900012    2    1    2    0    0  0.28294345098E+02 -0.16898094512E+00  0.14701055343E+02  0.59301959993E+02  0.50000029118E+02 0.  0.
         12    1    1    2    0    0 -0.28294345098E+02  0.16898094512E+00 -0.14701055343E+02  0.31886040007E+02  0.00000000000E+00 0. -1.
         11    1    3    3    0    0  0.20711102090E+02  0.92275145549E+01 -0.96804564893E+01  0.24653762649E+02  0.51100000000E-03 0. -1.
        -11    1    3    3    0    0 -0.26362663142E+01  0.35366396419E+01 -0.86690658145E+00  0.44954696438E+01  0.51100000000E-03 0.  1.
        -12    1    3    3    0    0  0.10219509323E+02 -0.12933135142E+02  0.25248418414E+02  0.30152727701E+02  0.00000000000E+00 0.  1.
</event>
<event>
 7    1  0.5634483E-012  0.5930195E+02  0.7816164E-02  0.1266605E+00
        -11   -1    0    0    0    0  0.00000000000E+00  0.00000000000E+00  0.45593999997E+02  0.45594000000E+02  0.51100000000E-03 0. -1.
         11   -1    0    0    0    0 -0.00000000000E+00 -0.00000000000E+00 -0.45593999997E+02  0.45594000000E+02  0.51100000000E-03 0.  1.
    9900012    2    1    2    0    0 -0.11168003605E+02  0.28574960434E+02  0.86871892953E+01  0.59301954052E+02  0.50000018282E+02 0.  0.
         12    1    1    2    0    0  0.11168003605E+02 -0.28574960434E+02 -0.86871892953E+01  0.31886045948E+02  0.00000000000E+00 0. -1.
         11    1    3    3    0    0 -0.26618569342E+02  0.80051094350E+01  0.60302850765E+01  0.28442825971E+02  0.51100000000E-03 0. -1.
        -11    1    3    3    0    0  0.11857813451E+02  0.23094211517E+01  0.15839820813E+00  0.12081649562E+02  0.51100000000E-03 0.  1.
        -12    1    3    3    0    0  0.35927522862E+01  0.18260429848E+02  0.24985060106E+01  0.18777478518E+02  0.00000000000E+00 0.  1.
</event>
<event>
 7    1  0.5634483E-012  0.5930197E+02  0.7816164E-02  0.1266605E+00
        -11   -1    0    0    0    0  0.00000000000E+00  0.00000000000E+00  0.45593999997E+02  0.45594000000E+02  0.51100000000E-03 0. -1.
         11   -1    0    0    0    0 -0.00000000000E+00 -0.00000000000E+00 -0.45593999997E+02  0.45594000000E+02  0.51100000000E-03 0.  1.
    9900012    2    1    2    0    0 -0.15489393183E+02 -0.21516927535E+02 -0.17714954564E+02  0.59301967213E+02  0.50000042284E+02 0.  0.
         12    1    1    2    0    0  0.15489393183E+02  0.21516927535E+02  0.17714954564E+02  0.31886032787E+02  0.00000000000E+00 0. -1.
         11    1    3    3    0    0 -0.16662547326E+02  0.50329716187E+01 -0.24471533697E+01  0.17577253670E+02  0.51100000000E-03 0. -1.
        -11    1    3    3    0    0  0.50681775515E+01  0.46069566170E+01 -0.90709388695E-01  0.68497227257E+01  0.51100000000E-03 0.  1.
        -12    1    3    3    0    0 -0.38950234085E+01 -0.31156855770E+02 -0.15177091806E+02  0.34874990817E+02  0.00000000000E+00 0.  1.
</event>
<event>
 7    1  0.5634483E-012  0.5930192E+02  0.7816164E-02  0.1266605E+00
        -11   -1    0    0    0    0  0.00000000000E+00  0.00000000000E+00  0.45593999997E+02  0.45594000000E+02  0.51100000000E-03 0.  1.
         11   -1    0    0    0    0 -0.00000000000E+00 -0.00000000000E+00 -0.45593999997E+02  0.45594000000E+02  0.51100000000E-03 0. -1.
    9900012    2    1    2    0    0  0.13906905698E+02 -0.11234517785E+02  0.26402754294E+02  0.59301923881E+02  0.49999963258E+02 0.  0.
         12    1    1    2    0    0 -0.13906905698E+02  0.11234517785E+02 -0.26402754294E+02  0.31886076119E+02  0.00000000000E+00 0. -1.
         11    1    3    3    0    0  0.68708838997E+01 -0.81094970151E+01  0.23841854349E+02  0.26103773797E+02  0.51100000000E-03 0. -1.
        -11    1    3    3    0    0  0.14006821030E+02 -0.52673934776E+01  0.13431341247E+02  0.20108142564E+02  0.51100000000E-03 0.  1.
         12    1    3    3    0    0 -0.69707992316E+01  0.21423727078E+01 -0.10870441303E+02  0.13090007520E+02  0.00000000000E+00 0. -1.
</event>
<event>
 7    1  0.5634483E-012  0.5930194E+02  0.7816164E-02  0.1266605E+00
        -11   -1    0    0    0    0  0.00000000000E+00  0.00000000000E+00  0.45593999997E+02  0.45594000000E+02  0.51100000000E-03 0. -1.
         11   -1    0    0    0    0 -0.00000000000E+00 -0.00000000000E+00 -0.45593999997E+02  0.45594000000E+02  0.51100000000E-03 0.  1.
    9900012    2    1    2    0    0 -0.22527000575E+02  0.12754716945E+02  0.18616450453E+02  0.59301940559E+02  0.49999993674E+02 0.  0.
         12    1    1    2    0    0  0.22527000575E+02 -0.12754716945E+02 -0.18616450453E+02  0.31886059441E+02  0.00000000000E+00 0. -1.
         11    1    3    3    0    0 -0.74047954733E+01  0.40979744159E+00  0.12229323242E+01  0.75162819049E+01  0.51100000000E-03 0. -1.
        -11    1    3    3    0    0 -0.15770115836E+02  0.10821858731E+02 -0.11847210296E+02  0.22498123742E+02  0.51100000000E-03 0.  1.
         12    1    3    3    0    0  0.64791073448E+00  0.15230607723E+01  0.29240728424E+02  0.29287534912E+02  0.00000000000E+00 0. -1.
</event>
<event>
 7    1  0.5634483E-012  0.5930193E+02  0.7816164E-02  0.1266605E+00
        -11   -1    0    0    0    0  0.00000000000E+00  0.00000000000E+00  0.45593999997E+02  0.45594000000E+02  0.51100000000E-03 0. -1.
         11   -1    0    0    0    0 -0.00000000000E+00 -0.00000000000E+00 -0.45593999997E+02  0.45594000000E+02  0.51100000000E-03 0.  1.
    9900012    2    1    2    0    0  0.12203866738E+02  0.16117459652E+02 -0.24657945667E+02  0.59301934807E+02  0.49999983183E+02 0.  0.
         12    1    1    2    0    0 -0.12203866738E+02 -0.16117459652E+02  0.24657945667E+02  0.31886065193E+02  0.00000000000E+00 0. -1.
         11    1    3    3    0    0  0.32164837837E+01  0.70647457176E+00 -0.74285903087E+01  0.81258124817E+01  0.51100000000E-03 0. -1.
        -11    1    3    3    0    0  0.22262910597E+01 -0.15328359106E+02 -0.11238705886E+02  0.19136966192E+02  0.51100000000E-03 0.  1.
         12    1    3    3    0    0  0.67610918949E+01  0.30739344187E+02 -0.59906494719E+01  0.32039156133E+02  0.00000000000E+00 0. -1.
</event>
<event>
 7    1  0.5634483E-012  0.5930183E+02  0.7816164E-02  0.1266605E+00
        -11   -1    0    0    0    0  0.00000000000E+00  0.00000000000E+00  0.45593999997E+02  0.45594000000E+02  0.51100000000E-03 0.  1.
         11   -1    0    0    0    0 -0.00000000000E+00 -0.00000000000E+00 -0.45593999997E+02  0.45594000000E+02  0.51100000000E-03 0. -1.
    9900012    2    1    2    0    0 -0.28079109625E+02  0.24681082180E+01  0.14906379465E+02  0.59301825814E+02  0.49999784406E+02 0.  0.
         12    1    1    2    0    0  0.28079109625E+02 -0.24681082180E+01 -0.14906379465E+02  0.31886174186E+02  0.00000000000E+00 0. -1.
         11    1    3    3    0    0 -0.30150880745E+02 -0.16182533444E+02  0.13714830001E+02  0.36865248684E+02  0.51100000000E-03 0. -1.
        -11    1    3    3    0    0 -0.45066393144E+01  0.93184248095E+01  0.32194702438E+01  0.10840102756E+02  0.51100000000E-03 0.  1.
        -12    1    3    3    0    0  0.65784104344E+01  0.93322168522E+01 -0.20279207800E+01  0.11596474374E+02  0.00000000000E+00 0.  1.
</event>
<event>
 7    1  0.5634483E-012  0.5930193E+02  0.7816164E-02  0.1266605E+00
        -11   -1    0    0    0    0  0.00000000000E+00  0.00000000000E+00  0.45593999997E+02  0.45594000000E+02  0.51100000000E-03 0.  1.
         11   -1    0    0    0    0 -0.00000000000E+00 -0.00000000000E+00 -0.45593999997E+02  0.45594000000E+02  0.51100000000E-03 0. -1.
    9900012    2    1    2    0    0  0.20329084738E+02 -0.90465111997E+01  0.22838797580E+02  0.59301925828E+02  0.49999966808E+02 0.  0.
         12    1    1    2    0    0 -0.20329084738E+02  0.90465111997E+01 -0.22838797580E+02  0.31886074172E+02  0.00000000000E+00 0. -1.
         11    1    3    3    0    0  0.10939157136E+02  0.11967416591E+02 -0.55643074440E+01  0.17141929188E+02  0.51100000000E-03 0. -1.
        -11    1    3    3    0    0 -0.20886772158E+01  0.33329340775E+01  0.18379895241E+01  0.43415697425E+01  0.51100000000E-03 0.  1.
         12    1    3    3    0    0  0.11478604818E+02 -0.24346861869E+02  0.26565115500E+02  0.37818426897E+02  0.00000000000E+00 0. -1.
</event>
<event>
 7    1  0.5634483E-012  0.5930197E+02  0.7816164E-02  0.1266605E+00
        -11   -1    0    0    0    0  0.00000000000E+00  0.00000000000E+00  0.45593999997E+02  0.45594000000E+02  0.51100000000E-03 0. -1.
         11   -1    0    0    0    0 -0.00000000000E+00 -0.00000000000E+00 -0.45593999997E+02  0.45594000000E+02  0.51100000000E-03 0.  1.
    9900012    2    1    2    0    0 -0.21310871045E+02  0.97747192970E+01 -0.21610659533E+02  0.59301969085E+02  0.50000045698E+02 0.  0.
         12    1    1    2    0    0  0.21310871045E+02 -0.97747192970E+01  0.21610659533E+02  0.31886030915E+02  0.00000000000E+00 0. -1.
         11    1    3    3    0    0  0.35735038788E+01 -0.21307144951E+01 -0.13276092461E+02  0.13912746153E+02  0.51100000000E-03 0. -1.
        -11    1    3    3    0    0 -0.32004974452E+02  0.15905059416E+02 -0.98746713558E+01  0.37078274492E+02  0.51100000000E-03 0.  1.
         12    1    3    3    0    0  0.71205995278E+01 -0.39996256237E+01  0.15401042831E+01  0.83109484397E+01  0.00000000000E+00 0. -1.
</event>
<event>
 7    1  0.5634483E-012  0.5930199E+02  0.7816164E-02  0.1266605E+00
        -11   -1    0    0    0    0  0.00000000000E+00  0.00000000000E+00  0.45593999997E+02  0.45594000000E+02  0.51100000000E-03 0.  1.
         11   -1    0    0    0    0 -0.00000000000E+00 -0.00000000000E+00 -0.45593999997E+02  0.45594000000E+02  0.51100000000E-03 0. -1.
    9900012    2    1    2    0    0  0.15353680003E+02 -0.14355217857E+02  0.23977282385E+02  0.59301986767E+02  0.50000077946E+02 0.  0.
         12    1    1    2    0    0 -0.15353680003E+02  0.14355217857E+02 -0.23977282385E+02  0.31886013233E+02  0.00000000000E+00 0. -1.
         11    1    3    3    0    0  0.10465829046E+02 -0.17443219185E+02  0.30143077727E+01  0.20564180625E+02  0.51100000000E-03 0.  1.
        -11    1    3    3    0    0 -0.95607612235E+01 -0.18637334035E+01  0.21341701511E+02  0.23459537102E+02  0.51100000000E-03 0. -1.
         12    1    3    3    0    0  0.14448612181E+02  0.49517347318E+01 -0.37872689899E+00  0.15278269040E+02  0.00000000000E+00 0. -1.
</event>
<event>
 7    1  0.5634483E-012  0.5930189E+02  0.7816164E-02  0.1266605E+00
        -11   -1    0    0    0    0  0.00000000000E+00  0.00000000000E+00  0.45593999997E+02  0.45594000000E+02  0.51100000000E-03 0. -1.
         11   -1    0    0    0    0 -0.00000000000E+00 -0.00000000000E+00 -0.45593999997E+02  0.45594000000E+02  0.51100000000E-03 0.  1.
    9900012    2    1    2    0    0  0.57530515916E+01  0.27898999175E+02  0.14327333813E+02  0.59301886223E+02  0.49999894579E+02 0.  0.
         12    1    1    2    0    0 -0.57530515916E+01 -0.27898999175E+02 -0.14327333813E+02  0.31886113777E+02  0.00000000000E+00 0. -1.
         11    1    3    3    0    0  0.54242501145E+00  0.11490633944E+02  0.46958419078E+01  0.12424967800E+02  0.51100000000E-03 0. -1.
        -11    1    3    3    0    0  0.23939547908E+02  0.11244382504E+02  0.56232543654E+01  0.27039953437E+02  0.51100000000E-03 0.  1.
         12    1    3    3    0    0 -0.18728921328E+02  0.51639827269E+01  0.40082375401E+01  0.19836964987E+02  0.00000000000E+00 0. -1.
</event>
<event>
 7    1  0.5634483E-012  0.5930193E+02  0.7816164E-02  0.1266605E+00
        -11   -1    0    0    0    0  0.00000000000E+00  0.00000000000E+00  0.45593999997E+02  0.45594000000E+02  0.51100000000E-03 0. -1.
         11   -1    0    0    0    0 -0.00000000000E+00 -0.00000000000E+00 -0.45593999997E+02  0.45594000000E+02  0.51100000000E-03 0.  1.
    9900012    2    1    2    0    0 -0.11958441237E+02 -0.29229757933E+02  0.43975167074E+01  0.59301933782E+02  0.49999981314E+02 0.  0.
         12    1    1    2    0    0  0.11958441237E+02  0.29229757933E+02 -0.43975167074E+01  0.31886066218E+02  0.00000000000E+00 0. -1.
         11    1    3    3    0    0  0.11427052451E+02 -0.68719133929E+01 -0.45834267581E+01  0.14099947606E+02  0.51100000000E-03 0. -1.
        -11    1    3    3    0    0  0.31700535815E+01  0.51239980660E+01  0.42631558692E+00  0.60403924650E+01  0.51100000000E-03 0.  1.
         12    1    3    3    0    0 -0.26555547270E+02 -0.27481842606E+02  0.85546278786E+01  0.39161593711E+02  0.00000000000E+00 0. -1.
</event>
<event>
 7    1  0.5634483E-012  0.5930195E+02  0.7816164E-02  0.1266605E+00
        -11   -1    0    0    0    0  0.00000000000E+00  0.00000000000E+00  0.45593999997E+02  0.45594000000E+02  0.51100000000E-03 0.  1.
         11   -1    0    0    0    0 -0.00000000000E+00 -0.00000000000E+00 -0.45593999997E+02  0.45594000000E+02  0.51100000000E-03 0. -1.
    9900012    2    1    2    0    0 -0.24068567441E+02  0.15343341044E+02 -0.14212895820E+02  0.59301945671E+02  0.50000002998E+02 0.  0.
         12    1    1    2    0    0  0.24068567441E+02 -0.15343341044E+02  0.14212895820E+02  0.31886054329E+02  0.00000000000E+00 0. -1.
         11    1    3    3    0    0 -0.22771696971E+02  0.13926138806E+02 -0.14804618138E+02  0.30523175514E+02  0.51100000000E-03 0. -1.
        -11    1    3    3    0    0 -0.31901345227E+01  0.11399816885E+02 -0.89499640485E+01  0.14840304580E+02  0.51100000000E-03 0.  1.
        -12    1    3    3    0    0  0.18932640525E+01 -0.99826146469E+01  0.95416863665E+01  0.13938465578E+02  0.00000000000E+00 0.  1.
</event>
<event>
 7    1  0.6207600E-012  0.5930194E+02  0.7816164E-02  0.1266605E+00
        -11   -1    0    0    0    0  0.00000000000E+00  0.00000000000E+00  0.45593999997E+02  0.45594000000E+02  0.51100000000E-03 0. -1.
         11   -1    0    0    0    0 -0.00000000000E+00 -0.00000000000E+00 -0.45593999997E+02  0.45594000000E+02  0.51100000000E-03 0.  1.
    9900012    2    1    2    0    0  0.53056153929E+01  0.10014508526E+02 -0.29804040409E+02  0.59301940971E+02  0.49999994425E+02 0.  0.
         12    1    1    2    0    0 -0.53056153929E+01 -0.10014508526E+02  0.29804040409E+02  0.31886059029E+02  0.00000000000E+00 0. -1.
         11    1    3    3    0    0 -0.37466645924E+01 -0.61143482203E+01  0.27412763853E+01  0.76770662502E+01  0.51100000000E-03 0. -1.
        -11    1    3    3    0    0  0.15384609247E+02 -0.59270332191E+01 -0.91556394790E+01  0.18858463856E+02  0.51100000000E-03 0.  1.
        -12    1    3    3    0    0 -0.63323292623E+01  0.22055889965E+02 -0.23389677315E+02  0.32766410865E+02  0.00000000000E+00 0.  1.
</event>
<event>
 7    1  0.5634483E-012  0.5930193E+02  0.7816164E-02  0.1266605E+00
        -11   -1    0    0    0    0  0.00000000000E+00  0.00000000000E+00  0.45593999997E+02  0.45594000000E+02  0.51100000000E-03 0. -1.
         11   -1    0    0    0    0 -0.00000000000E+00 -0.00000000000E+00 -0.45593999997E+02  0.45594000000E+02  0.51100000000E-03 0.  1.
    9900012    2    1    2    0    0 -0.15595570648E+02  0.79330452470E+01 -0.26656446415E+02  0.59301934608E+02  0.49999982820E+02 0.  0.
         12    1    1    2    0    0  0.15595570648E+02 -0.79330452470E+01  0.26656446415E+02  0.31886065392E+02  0.00000000000E+00 0. -1.
         11    1    3    3    0    0  0.82793665610E+01  0.89713938784E+01 -0.24655560259E+02  0.27512369413E+02  0.51100000000E-03 0. -1.
        -11    1    3    3    0    0 -0.20859678173E+02  0.51651040717E+01 -0.77151298943E+01  0.22832601759E+02  0.51100000000E-03 0.  1.
         12    1    3    3    0    0 -0.30152590360E+01 -0.62034527031E+01  0.57142437378E+01  0.89569634357E+01  0.00000000000E+00 0. -1.
</event>
<event>
 7    1  0.5634483E-012  0.5930193E+02  0.7816164E-02  0.1266605E+00
        -11   -1    0    0    0    0  0.00000000000E+00  0.00000000000E+00  0.45593999997E+02  0.45594000000E+02  0.51100000000E-03 0. -1.
         11   -1    0    0    0    0 -0.00000000000E+00 -0.00000000000E+00 -0.45593999997E+02  0.45594000000E+02  0.51100000000E-03 0.  1.
    9900012    2    1    2    0    0  0.20994210744E+02 -0.22394188306E+02 -0.86292932554E+01  0.59301933188E+02  0.49999980231E+02 0.  0.
         12    1    1    2    0    0 -0.20994210744E+02  0.22394188306E+02  0.86292932554E+01  0.31886066812E+02  0.00000000000E+00 0. -1.
         11    1    3    3    0    0  0.16244297990E+00 -0.14255823300E+02  0.25285386701E+01  0.14479240095E+02  0.51100000000E-03 0. -1.
        -11    1    3    3    0    0 -0.37230397289E+01  0.95814327458E+01  0.39127641132E+01  0.10998845465E+02  0.51100000000E-03 0.  1.
        -12    1    3    3    0    0  0.24554807493E+02 -0.17719797752E+02 -0.15070596039E+02  0.33823847628E+02  0.00000000000E+00 0.  1.
</event>
<event>
 7    1  0.5634483E-012  0.5930191E+02  0.7816164E-02  0.1266605E+00
        -11   -1    0    0    0    0  0.00000000000E+00  0.00000000000E+00  0.45593999997E+02  0.45594000000E+02  0.51100000000E-03 0. -1.
         11   -1    0    0    0    0 -0.00000000000E+00 -0.00000000000E+00 -0.45593999997E+02  0.45594000000E+02  0.51100000000E-03 0.  1.
    9900012    2    1    2    0    0 -0.10028121569E+02  0.27781991665E+02 -0.12013334112E+02  0.59301914014E+02  0.49999945261E+02 0.  0.
         12    1    1    2    0    0  0.10028121569E+02 -0.27781991665E+02  0.12013334112E+02  0.31886085986E+02  0.00000000000E+00 0. -1.
         11    1    3    3    0    0  0.23918116723E+01  0.57466705214E+01 -0.26624266070E+01  0.67700443762E+01  0.51100000000E-03 0. -1.
        -11    1    3    3    0    0 -0.16229427256E+02  0.34748959554E+02 -0.81245440899E+01  0.39203223287E+02  0.51100000000E-03 0.  1.
         12    1    3    3    0    0  0.38094940148E+01 -0.12713638411E+02 -0.12263634146E+01  0.13328646350E+02  0.00000000000E+00 0. -1.
</event>
<event>
 7    1  0.5634483E-012  0.5930194E+02  0.7816164E-02  0.1266605E+00
        -11   -1    0    0    0    0  0.00000000000E+00  0.00000000000E+00  0.45593999997E+02  0.45594000000E+02  0.51100000000E-03 0.  1.
         11   -1    0    0    0    0 -0.00000000000E+00 -0.00000000000E+00 -0.45593999997E+02  0.45594000000E+02  0.51100000000E-03 0. -1.
    9900012    2    1    2    0    0  0.19665661404E+02 -0.15828220543E+02  0.19479477476E+02  0.59301939617E+02  0.49999991957E+02 0.  0.
         12    1    1    2    0    0 -0.19665661404E+02  0.15828220543E+02 -0.19479477476E+02  0.31886060383E+02  0.00000000000E+00 0. -1.
         11    1    3    3    0    0 -0.14714564097E+01  0.61335772976E+01  0.63897610914E+01  0.89785857181E+01  0.51100000000E-03 0. -1.
        -11    1    3    3    0    0  0.25834557169E+02 -0.17223791300E+02  0.22814195947E+02  0.38530129351E+02  0.51100000000E-03 0.  1.
         12    1    3    3    0    0 -0.46974393557E+01 -0.47380065403E+01 -0.97244795624E+01  0.11793224548E+02  0.00000000000E+00 0. -1.
</event>
<event>
 7    1  0.5634483E-012  0.5930189E+02  0.7816164E-02  0.1266605E+00
        -11   -1    0    0    0    0  0.00000000000E+00  0.00000000000E+00  0.45593999997E+02  0.45594000000E+02  0.51100000000E-03 0.  1.
         11   -1    0    0    0    0 -0.00000000000E+00 -0.00000000000E+00 -0.45593999997E+02  0.45594000000E+02  0.51100000000E-03 0. -1.
    9900012    2    1    2    0    0  0.37713716848E+00  0.25805036720E+02  0.18726499399E+02  0.59301891233E+02  0.49999903716E+02 0.  0.
         12    1    1    2    0    0 -0.37713716848E+00 -0.25805036720E+02 -0.18726499399E+02  0.31886108767E+02  0.00000000000E+00 0. -1.
         11    1    3    3    0    0  0.10280197163E+02  0.95140759158E+00 -0.16156273159E+01  0.10449779041E+02  0.51100000000E-03 0. -1.
        -11    1    3    3    0    0 -0.68082988261E+01 -0.62079593964E+01 -0.32009098467E+01  0.97538462609E+01  0.51100000000E-03 0.  1.
        -12    1    3    3    0    0 -0.30947611684E+01  0.31061588524E+02  0.23543036561E+02  0.39098265932E+02  0.00000000000E+00 0.  1.
</event>
<event>
 7    1  0.5634483E-012  0.5930194E+02  0.7816164E-02  0.1266605E+00
        -11   -1    0    0    0    0  0.00000000000E+00  0.00000000000E+00  0.45593999997E+02  0.45594000000E+02  0.51100000000E-03 0.  1.
         11   -1    0    0    0    0 -0.00000000000E+00 -0.00000000000E+00 -0.45593999997E+02  0.45594000000E+02  0.51100000000E-03 0. -1.
    9900012    2    1    2    0    0  0.11879161170E+02  0.19967697310E+02  0.21837975584E+02  0.59301943743E+02  0.49999999481E+02 0.  0.
         12    1    1    2    0    0 -0.11879161170E+02 -0.19967697310E+02 -0.21837975584E+02  0.31886056257E+02  0.00000000000E+00 0. -1.
         11    1    3    3    0    0  0.18067000926E+01  0.78138356958E+01  0.98153415514E+01  0.12675216903E+02  0.51100000000E-03 0. -1.
        -11    1    3    3    0    0  0.17046891809E+02 -0.11373114262E+02  0.61377499129E+01  0.21391966310E+02  0.51100000000E-03 0.  1.
         12    1    3    3    0    0 -0.69744307319E+01  0.23526975876E+02  0.58848841201E+01  0.25234760530E+02  0.00000000000E+00 0. -1.
</event>
<event>
 7    1  0.5634483E-012  0.5930194E+02  0.7816164E-02  0.1266605E+00
        -11   -1    0    0    0    0  0.00000000000E+00  0.00000000000E+00  0.45593999997E+02  0.45594000000E+02  0.51100000000E-03 0.  1.
         11   -1    0    0    0    0 -0.00000000000E+00 -0.00000000000E+00 -0.45593999997E+02  0.45594000000E+02  0.51100000000E-03 0. -1.
    9900012    2    1    2    0    0  0.20351229357E+02  0.19323448831E+02  0.15137793957E+02  0.59301936948E+02  0.49999987089E+02 0.  0.
         12    1    1    2    0    0 -0.20351229357E+02 -0.19323448831E+02 -0.15137793957E+02  0.31886063052E+02  0.00000000000E+00 0. -1.
         11    1    3    3    0    0  0.98816836754E+00 -0.46268654212E+01 -0.26065178124E+01  0.54016937821E+01  0.51100000000E-03 0. -1.
        -11    1    3    3    0    0 -0.76428722941E+01  0.19591471509E+02 -0.47159391584E+00  0.21034772494E+02  0.51100000000E-03 0.  1.
         12    1    3    3    0    0  0.27005933284E+02  0.43588427429E+01  0.18215905685E+02  0.32865470672E+02  0.00000000000E+00 0. -1.
</event>
<event>
 7    1  0.5634483E-012  0.5930200E+02  0.7816164E-02  0.1266605E+00
        -11   -1    0    0    0    0  0.00000000000E+00  0.00000000000E+00  0.45593999997E+02  0.45594000000E+02  0.51100000000E-03 0. -1.
         11   -1    0    0    0    0 -0.00000000000E+00 -0.00000000000E+00 -0.45593999997E+02  0.45594000000E+02  0.51100000000E-03 0.  1.
    9900012    2    1    2    0    0 -0.28218512336E+02  0.12052072014E+02 -0.86706541516E+01  0.59301998029E+02  0.50000098485E+02 0.  0.
         12    1    1    2    0    0  0.28218512336E+02 -0.12052072014E+02  0.86706541516E+01  0.31886001971E+02  0.00000000000E+00 0. -1.
         11    1    3    3    0    0  0.41917177337E+01  0.18026491735E+02  0.10195947128E+01  0.18535492318E+02  0.51100000000E-03 0. -1.
        -11    1    3    3    0    0 -0.16579200742E+02  0.15014027871E+01  0.55573467304E+01  0.17550162692E+02  0.51100000000E-03 0.  1.
        -12    1    3    3    0    0 -0.15831029328E+02 -0.74758225080E+01 -0.15247595595E+02  0.23216343019E+02  0.00000000000E+00 0.  1.
</event>
<event>
 7    1  0.5634483E-012  0.5930194E+02  0.7816164E-02  0.1266605E+00
        -11   -1    0    0    0    0  0.00000000000E+00  0.00000000000E+00  0.45593999997E+02  0.45594000000E+02  0.51100000000E-03 0.  1.
         11   -1    0    0    0    0 -0.00000000000E+00 -0.00000000000E+00 -0.45593999997E+02  0.45594000000E+02  0.51100000000E-03 0. -1.
    9900012    2    1    2    0    0 -0.97036498073E+01  0.48315675342E+01  0.29986927065E+02  0.59301942557E+02  0.49999997319E+02 0.  0.
         12    1    1    2    0    0  0.97036498073E+01 -0.48315675342E+01 -0.29986927065E+02  0.31886057443E+02  0.00000000000E+00 0. -1.
         11    1    3    3    0    0  0.10434732549E+02 -0.51957706160E+01  0.10375822651E+02  0.15605683952E+02  0.51100000000E-03 0. -1.
        -11    1    3    3    0    0  0.51450402673E+01 -0.46121438780E+01  0.11430632394E+02  0.13356746149E+02  0.51100000000E-03 0.  1.
        -12    1    3    3    0    0 -0.25283422624E+02  0.14639482028E+02  0.81804720203E+01  0.30339512456E+02  0.00000000000E+00 0.  1.
</event>
<event>
 7    1  0.5634483E-012  0.5930191E+02  0.7816164E-02  0.1266605E+00
        -11   -1    0    0    0    0  0.00000000000E+00  0.00000000000E+00  0.45593999997E+02  0.45594000000E+02  0.51100000000E-03 0.  1.
         11   -1    0    0    0    0 -0.00000000000E+00 -0.00000000000E+00 -0.45593999997E+02  0.45594000000E+02  0.51100000000E-03 0. -1.
    9900012    2    1    2    0    0 -0.24222631695E+02 -0.19940415673E+02  0.56891468837E+01  0.59301914387E+02  0.49999945943E+02 0.  0.
         12    1    1    2    0    0  0.24222631695E+02  0.19940415673E+02 -0.56891468837E+01  0.31886085613E+02  0.00000000000E+00 0. -1.
         11    1    3    3    0    0 -0.19694914891E+02 -0.29561695293E+01 -0.11544535648E+02  0.23019663647E+02  0.51100000000E-03 0. -1.
        -11    1    3    3    0    0 -0.11531534730E+02 -0.20646085521E+02  0.15232671041E+02  0.28129546884E+02  0.51100000000E-03 0.  1.
         12    1    3    3    0    0  0.70038179263E+01  0.36618393780E+01  0.20010114912E+01  0.81527038560E+01  0.00000000000E+00 0. -1.
</event>
<event>
 7    1  0.5634483E-012  0.5930196E+02  0.7816164E-02  0.1266605E+00
        -11   -1    0    0    0    0  0.00000000000E+00  0.00000000000E+00  0.45593999997E+02  0.45594000000E+02  0.51100000000E-03 0. -1.
         11   -1    0    0    0    0 -0.00000000000E+00 -0.00000000000E+00 -0.45593999997E+02  0.45594000000E+02  0.51100000000E-03 0.  1.
    9900012    2    1    2    0    0  0.28404725828E+01 -0.18996114979E+02  0.25451897444E+02  0.59301956779E+02  0.50000023255E+02 0.  0.
         12    1    1    2    0    0 -0.28404725828E+01  0.18996114979E+02 -0.25451897444E+02  0.31886043221E+02  0.00000000000E+00 0. -1.
         11    1    3    3    0    0  0.77902411823E+01 -0.12749390564E+02 -0.57458210986E+01  0.16007788036E+02  0.51100000000E-03 0. -1.
        -11    1    3    3    0    0  0.11376202449E+02 -0.86184827910E+00  0.62841075944E+01  0.13025005686E+02  0.51100000000E-03 0.  1.
         12    1    3    3    0    0 -0.16325971048E+02 -0.53848761361E+01  0.24913610949E+02  0.30269163057E+02  0.00000000000E+00 0. -1.
</event>
<event>
 7    1  0.5634483E-012  0.5930195E+02  0.7816164E-02  0.1266605E+00
        -11   -1    0    0    0    0  0.00000000000E+00  0.00000000000E+00  0.45593999997E+02  0.45594000000E+02  0.51100000000E-03 0.  1.
         11   -1    0    0    0    0 -0.00000000000E+00 -0.00000000000E+00 -0.45593999997E+02  0.45594000000E+02  0.51100000000E-03 0. -1.
    9900012    2    1    2    0    0 -0.15691456734E+02  0.10279885972E+02  0.25784153852E+02  0.59301945683E+02  0.50000003019E+02 0.  0.
         12    1    1    2    0    0  0.15691456734E+02 -0.10279885972E+02 -0.25784153852E+02  0.31886054317E+02  0.00000000000E+00 0. -1.
         11    1    3    3    0    0 -0.15757575545E+02  0.10156356565E+02  0.80133214846E+01  0.20387890700E+02  0.51100000000E-03 0. -1.
        -11    1    3    3    0    0 -0.85944041110E+01  0.10834464487E+02  0.20639515856E+02  0.24844295478E+02  0.51100000000E-03 0.  1.
         12    1    3    3    0    0  0.86605229223E+01 -0.10710935080E+02 -0.28686834886E+01  0.14069759505E+02  0.00000000000E+00 0. -1.
</event>
<event>
 7    1  0.5634483E-012  0.5930196E+02  0.7816164E-02  0.1266605E+00
        -11   -1    0    0    0    0  0.00000000000E+00  0.00000000000E+00  0.45593999997E+02  0.45594000000E+02  0.51100000000E-03 0.  1.
         11   -1    0    0    0    0 -0.00000000000E+00 -0.00000000000E+00 -0.45593999997E+02  0.45594000000E+02  0.51100000000E-03 0. -1.
    9900012    2    1    2    0    0 -0.36295335205E+01 -0.95174342103E+01  0.30215302732E+02  0.59301959375E+02  0.50000027990E+02 0.  0.
         12    1    1    2    0    0  0.36295335205E+01  0.95174342103E+01 -0.30215302732E+02  0.31886040625E+02  0.00000000000E+00 0. -1.
         11    1    3    3    0    0  0.81921722939E+01 -0.37073605462E+01  0.77446558327E+01  0.11867430360E+02  0.51100000000E-03 0. -1.
        -11    1    3    3    0    0  0.10583270727E+01 -0.12566598049E+02  0.28900400992E+02  0.31532088743E+02  0.51100000000E-03 0.  1.
         12    1    3    3    0    0 -0.12880032887E+02  0.67565243848E+01 -0.64297540929E+01  0.15902440273E+02  0.00000000000E+00 0. -1.
</event>
<event>
 7    1  0.5634483E-012  0.5930197E+02  0.7816164E-02  0.1266605E+00
        -11   -1    0    0    0    0  0.00000000000E+00  0.00000000000E+00  0.45593999997E+02  0.45594000000E+02  0.51100000000E-03 0.  1.
         11   -1    0    0    0    0 -0.00000000000E+00 -0.00000000000E+00 -0.45593999997E+02  0.45594000000E+02  0.51100000000E-03 0. -1.
    9900012    2    1    2    0    0  0.23945095694E+02  0.17737763192E+02  0.11345605594E+02  0.59301974579E+02  0.50000055718E+02 0.  0.
         12    1    1    2    0    0 -0.23945095694E+02 -0.17737763192E+02 -0.11345605594E+02  0.31886025421E+02  0.00000000000E+00 0. -1.
         11    1    3    3    0    0  0.16375431638E+02  0.16774089937E+01  0.45072669315E+01  0.17067041856E+02  0.51100000000E-03 0. -1.
        -11    1    3    3    0    0  0.10242859598E+02 -0.47817660579E+01 -0.10166595799E+02  0.15203326274E+02  0.51100000000E-03 0.  1.
         12    1    3    3    0    0 -0.26731955420E+01  0.20842120257E+02  0.17004934461E+02  0.27031606449E+02  0.00000000000E+00 0. -1.
</event>
<event>
 7    1  0.5634483E-012  0.5930234E+02  0.7816164E-02  0.1266603E+00
        -11   -1    0    0    0    0  0.00000000000E+00  0.00000000000E+00  0.45593999997E+02  0.45594000000E+02  0.51100000000E-03 0.  1.
         11   -1    0    0    0    0 -0.00000000000E+00 -0.00000000000E+00 -0.45593999997E+02  0.45594000000E+02  0.51100000000E-03 0. -1.
    9900012    2    1    2    0    0 -0.11955083592E+02 -0.66540608386E+01  0.28800947938E+02  0.59302342543E+02  0.50000726791E+02 0.  0.
         12    1    1    2    0    0  0.11955083592E+02  0.66540608386E+01 -0.28800947938E+02  0.31885657457E+02  0.00000000000E+00 0. -1.
         11    1    3    3    0    0 -0.77496615682E+01  0.71472009858E+00  0.19526928601E+02  0.21020680771E+02  0.51100000000E-03 0. -1.
        -11    1    3    3    0    0  0.57638598036E+01 -0.77253790817E+01  0.20868182597E+02  0.22986617997E+02  0.51100000000E-03 0.  1.
         12    1    3    3    0    0 -0.99692818271E+01  0.35659814453E+00 -0.11594163260E+02  0.15295043775E+02  0.00000000000E+00 0. -1.
</event>
<event>
 7    1  0.5634483E-012  0.5930195E+02  0.7816164E-02  0.1266605E+00
        -11   -1    0    0    0    0  0.00000000000E+00  0.00000000000E+00  0.45593999997E+02  0.45594000000E+02  0.51100000000E-03 0.  1.
         11   -1    0    0    0    0 -0.00000000000E+00 -0.00000000000E+00 -0.45593999997E+02  0.45594000000E+02  0.51100000000E-03 0. -1.
    9900012    2    1    2    0    0 -0.10906668475E+02 -0.22295331542E+02  0.20017059138E+02  0.59301954740E+02  0.50000019537E+02 0.  0.
         12    1    1    2    0    0  0.10906668475E+02  0.22295331542E+02 -0.20017059138E+02  0.31886045260E+02  0.00000000000E+00 0. -1.
         11    1    3    3    0    0  0.41917527962E+01  0.52793673450E+01  0.12099365895E+02  0.13850529463E+02  0.51100000000E-03 0. -1.
        -11    1    3    3    0    0 -0.15672375625E+01 -0.29841649265E+02  0.10132813631E+02  0.31553988287E+02  0.51100000000E-03 0.  1.
         12    1    3    3    0    0 -0.13531183709E+02  0.22669503782E+01 -0.22151203886E+01  0.13897436991E+02  0.00000000000E+00 0. -1.
</event>
<event>
 7    1  0.5634483E-012  0.5930194E+02  0.7816164E-02  0.1266605E+00
        -11   -1    0    0    0    0  0.00000000000E+00  0.00000000000E+00  0.45593999997E+02  0.45594000000E+02  0.51100000000E-03 0.  1.
         11   -1    0    0    0    0 -0.00000000000E+00 -0.00000000000E+00 -0.45593999997E+02  0.45594000000E+02  0.51100000000E-03 0. -1.
    9900012    2    1    2    0    0 -0.76285176756E+01  0.30437829740E+02  0.56626048871E+01  0.59301939482E+02  0.49999991710E+02 0.  0.
         12    1    1    2    0    0  0.76285176756E+01 -0.30437829740E+02 -0.56626048871E+01  0.31886060518E+02  0.00000000000E+00 0. -1.
         11    1    3    3    0    0  0.46355921073E+01  0.13295270934E+02 -0.17408558161E+02  0.22389971882E+02  0.51100000000E-03 0. -1.
        -11    1    3    3    0    0  0.37246575248E+01  0.85129514458E+01  0.28324161962E+01  0.97142162713E+01  0.51100000000E-03 0.  1.
        -12    1    3    3    0    0 -0.15988767308E+02  0.86296073610E+01  0.20238746852E+02  0.27197751329E+02  0.00000000000E+00 0.  1.
</event>
<event>
 7    1  0.5634483E-012  0.5930191E+02  0.7816164E-02  0.1266605E+00
        -11   -1    0    0    0    0  0.00000000000E+00  0.00000000000E+00  0.45593999997E+02  0.45594000000E+02  0.51100000000E-03 0. -1.
         11   -1    0    0    0    0 -0.00000000000E+00 -0.00000000000E+00 -0.45593999997E+02  0.45594000000E+02  0.51100000000E-03 0.  1.
    9900012    2    1    2    0    0 -0.14586564872E+02  0.14133721331E+02 -0.24580327432E+02  0.59301914476E+02  0.49999946104E+02 0.  0.
         12    1    1    2    0    0  0.14586564872E+02 -0.14133721331E+02  0.24580327432E+02  0.31886085524E+02  0.00000000000E+00 0. -1.
         11    1    3    3    0    0 -0.12096503038E+02  0.21540562247E+02 -0.30534571533E+02  0.39276981384E+02  0.51100000000E-03 0.  1.
        -11    1    3    3    0    0 -0.31134362892E+01 -0.53844865719E+00 -0.56802874648E+01  0.64999291094E+01  0.51100000000E-03 0. -1.
        -12    1    3    3    0    0  0.62337445542E+00 -0.68683922595E+01  0.11634531566E+02  0.13525003982E+02  0.00000000000E+00 0.  1.
</event>
<event>
 7    1  0.5634483E-012  0.5930199E+02  0.7816164E-02  0.1266605E+00
        -11   -1    0    0    0    0  0.00000000000E+00  0.00000000000E+00  0.45593999997E+02  0.45594000000E+02  0.51100000000E-03 0.  1.
         11   -1    0    0    0    0 -0.00000000000E+00 -0.00000000000E+00 -0.45593999997E+02  0.45594000000E+02  0.51100000000E-03 0. -1.
    9900012    2    1    2    0    0  0.98150288334E+01  0.29734052309E+02  0.60223571340E+01  0.59301992988E+02  0.50000089292E+02 0.  0.
         12    1    1    2    0    0 -0.98150288334E+01 -0.29734052309E+02 -0.60223571340E+01  0.31886007012E+02  0.00000000000E+00 0. -1.
         11    1    3    3    0    0 -0.43690222589E+01  0.56952739113E+01 -0.46714576997E+01  0.85642873448E+01  0.51100000000E-03 0. -1.
        -11    1    3    3    0    0  0.26135824098E+02  0.20361156339E+02 -0.16430007130E+01  0.33171636082E+02  0.51100000000E-03 0.  1.
         12    1    3    3    0    0 -0.11951773006E+02  0.36776220585E+01  0.12336815547E+02  0.17566069561E+02  0.00000000000E+00 0. -1.
</event>
<event>
 7    1  0.5634483E-012  0.5930190E+02  0.7816164E-02  0.1266605E+00
        -11   -1    0    0    0    0  0.00000000000E+00  0.00000000000E+00  0.45593999997E+02  0.45594000000E+02  0.51100000000E-03 0. -1.
         11   -1    0    0    0    0 -0.00000000000E+00 -0.00000000000E+00 -0.45593999997E+02  0.45594000000E+02  0.51100000000E-03 0.  1.
    9900012    2    1    2    0    0 -0.20095599988E+02  0.22781616214E+02 -0.96895826398E+01  0.59301902905E+02  0.49999925002E+02 0.  0.
         12    1    1    2    0    0  0.20095599988E+02 -0.22781616214E+02  0.96895826398E+01  0.31886097095E+02  0.00000000000E+00 0. -1.
         11    1    3    3    0    0 -0.69612292636E+01  0.11624746009E+02  0.14054702329E+01  0.13622363211E+02  0.51100000000E-03 0. -1.
        -11    1    3    3    0    0 -0.24180815976E+02  0.18976423655E+02 -0.85907368251E+01  0.31915784112E+02  0.51100000000E-03 0.  1.
         12    1    3    3    0    0  0.11046445252E+02 -0.78195534494E+01 -0.25043160476E+01  0.13763755582E+02  0.00000000000E+00 0. -1.
</event>
<event>
 7    1  0.5634483E-012  0.5930194E+02  0.7816164E-02  0.1266605E+00
        -11   -1    0    0    0    0  0.00000000000E+00  0.00000000000E+00  0.45593999997E+02  0.45594000000E+02  0.51100000000E-03 0.  1.
         11   -1    0    0    0    0 -0.00000000000E+00 -0.00000000000E+00 -0.45593999997E+02  0.45594000000E+02  0.51100000000E-03 0. -1.
    9900012    2    1    2    0    0  0.22826941993E+02 -0.22176513911E+02  0.19631604035E+01  0.59301936449E+02  0.49999986178E+02 0.  0.
         12    1    1    2    0    0 -0.22826941993E+02  0.22176513911E+02 -0.19631604035E+01  0.31886063551E+02  0.00000000000E+00 0. -1.
         11    1    3    3    0    0  0.31912893652E+02  0.30716538649E+01  0.60258624301E+00  0.32066040434E+02  0.51100000000E-03 0.  1.
        -11    1    3    3    0    0 -0.42815458841E+01 -0.60593621901E+01  0.24924257377E+00  0.74235858875E+01  0.51100000000E-03 0. -1.
        -12    1    3    3    0    0 -0.48044057744E+01 -0.19188805586E+02  0.11113315867E+01  0.19812310127E+02  0.00000000000E+00 0.  1.
</event>
<event>
 7    1  0.5634483E-012  0.5930194E+02  0.7816164E-02  0.1266605E+00
        -11   -1    0    0    0    0  0.00000000000E+00  0.00000000000E+00  0.45593999997E+02  0.45594000000E+02  0.51100000000E-03 0.  1.
         11   -1    0    0    0    0 -0.00000000000E+00 -0.00000000000E+00 -0.45593999997E+02  0.45594000000E+02  0.51100000000E-03 0. -1.
    9900012    2    1    2    0    0  0.30582620534E+02  0.32575747687E+01 -0.84150115002E+01  0.59301938928E+02  0.49999990700E+02 0.  0.
         12    1    1    2    0    0 -0.30582620534E+02 -0.32575747687E+01  0.84150115002E+01  0.31886061072E+02  0.00000000000E+00 0. -1.
         11    1    3    3    0    0  0.13601676927E+02 -0.13431077533E+01 -0.12953282763E+02  0.18830748479E+02  0.51100000000E-03 0. -1.
        -11    1    3    3    0    0  0.17755874705E+02  0.15675961110E+02 -0.67595726687E+01  0.24631253849E+02  0.51100000000E-03 0.  1.
        -12    1    3    3    0    0 -0.77493109790E+00 -0.11075278588E+02  0.11297843932E+02  0.15839936600E+02  0.00000000000E+00 0.  1.
</event>
<event>
 7    1  0.5634483E-012  0.5930204E+02  0.7816164E-02  0.1266604E+00
        -11   -1    0    0    0    0  0.00000000000E+00  0.00000000000E+00  0.45593999997E+02  0.45594000000E+02  0.51100000000E-03 0. -1.
         11   -1    0    0    0    0 -0.00000000000E+00 -0.00000000000E+00 -0.45593999997E+02  0.45594000000E+02  0.51100000000E-03 0.  1.
    9900012    2    1    2    0    0  0.25337669462E+02 -0.57952855691E+01  0.18469745126E+02  0.59302042062E+02  0.50000178791E+02 0.  0.
         12    1    1    2    0    0 -0.25337669462E+02  0.57952855691E+01 -0.18469745126E+02  0.31885957938E+02  0.00000000000E+00 0. -1.
         11    1    3    3    0    0  0.15659948767E+02  0.14966939585E+02  0.11482013392E+02  0.24516931042E+02  0.51100000000E-03 0. -1.
        -11    1    3    3    0    0  0.11968263264E+02 -0.42349508686E+01 -0.56084733221E+01  0.13879088863E+02  0.51100000000E-03 0.  1.
         12    1    3    3    0    0 -0.22905425689E+01 -0.16527274286E+02  0.12596205057E+02  0.20906022157E+02  0.00000000000E+00 0. -1.
</event>
<event>
 7    1  0.5634483E-012  0.5930179E+02  0.7816164E-02  0.1266605E+00
        -11   -1    0    0    0    0  0.00000000000E+00  0.00000000000E+00  0.45593999997E+02  0.45594000000E+02  0.51100000000E-03 0.  1.
         11   -1    0    0    0    0 -0.00000000000E+00 -0.00000000000E+00 -0.45593999997E+02  0.45594000000E+02  0.51100000000E-03 0. -1.
    9900012    2    1    2    0    0  0.51896928544E+01 -0.26544133836E+02 -0.16888047455E+02  0.59301794520E+02  0.49999727334E+02 0.  0.
         12    1    1    2    0    0 -0.51896928544E+01  0.26544133836E+02  0.16888047455E+02  0.31886205480E+02  0.00000000000E+00 0. -1.
         11    1    3    3    0    0  0.32760433423E+01 -0.90074580540E+01  0.49834685070E+01  0.10802856992E+02  0.51100000000E-03 0. -1.
        -11    1    3    3    0    0 -0.21684496825E+01 -0.26603363709E+02 -0.26056341369E+01  0.26818472443E+02  0.51100000000E-03 0.  1.
         12    1    3    3    0    0  0.40820991946E+01  0.90666879270E+01 -0.19265881825E+02  0.21680465085E+02  0.00000000000E+00 0. -1.
</event>
<event>
 7    1  0.5634483E-012  0.5930194E+02  0.7816164E-02  0.1266605E+00
        -11   -1    0    0    0    0  0.00000000000E+00  0.00000000000E+00  0.45593999997E+02  0.45594000000E+02  0.51100000000E-03 0. -1.
         11   -1    0    0    0    0 -0.00000000000E+00 -0.00000000000E+00 -0.45593999997E+02  0.45594000000E+02  0.51100000000E-03 0.  1.
    9900012    2    1    2    0    0  0.26048580673E+02  0.13055481153E+02 -0.12951701663E+02  0.59301941617E+02  0.49999995604E+02 0.  0.
         12    1    1    2    0    0 -0.26048580673E+02 -0.13055481153E+02  0.12951701663E+02  0.31886058383E+02  0.00000000000E+00 0. -1.
         11    1    3    3    0    0  0.21748426347E+02  0.12223021537E+01  0.10503854354E+02  0.24183031813E+02  0.51100000000E-03 0. -1.
        -11    1    3    3    0    0  0.38206063210E+01 -0.66353652622E+01 -0.72213444033E+01  0.10524871499E+02  0.51100000000E-03 0.  1.
         12    1    3    3    0    0  0.47954800539E+00  0.18468544261E+02 -0.16234211614E+02  0.24594038305E+02  0.00000000000E+00 0. -1.
</event>
