<event>
 7    1  0.6090311E-013  0.5052886E+02  0.7816164E-02  0.1300439E+00
        -11   -1    0    0    0    0  0.00000000000E+00  0.00000000000E+00  0.45593999997E+02  0.45594000000E+02  0.51100000000E-03 0.  1.
         11   -1    0    0    0    0 -0.00000000000E+00 -0.00000000000E+00 -0.45593999997E+02  0.45594000000E+02  0.51100000000E-03 0. -1.
    9900012    2    1    2    0    0  0.27670349650E+02 -0.25600822127E+02 -0.15235330381E+02  0.50528860373E+02  0.30000001590E+02 0.  0.
        -12    1    1    2    0    0 -0.27670349650E+02  0.25600822127E+02  0.15235330381E+02  0.40659139627E+02  0.00000000000E+00 0.  1.
         11    1    3    3    0    0  0.10895128197E+02 -0.10194315127E+02  0.51562016211E+01  0.15786522567E+02  0.51100000000E-03 0. -1.
        -11    1    3    3    0    0  0.77656143395E+00 -0.11244746448E+02 -0.10901633114E+02  0.15680974942E+02  0.51100000000E-03 0.  1.
         12    1    3    3    0    0  0.15998660020E+02 -0.41617605526E+01 -0.94898988881E+01  0.19061362864E+02  0.00000000000E+00 0. -1.
</event>
<event>
 7    1  0.6090311E-013  0.5052886E+02  0.7816164E-02  0.1300439E+00
        -11   -1    0    0    0    0  0.00000000000E+00  0.00000000000E+00  0.45593999997E+02  0.45594000000E+02  0.51100000000E-03 0.  1.
         11   -1    0    0    0    0 -0.00000000000E+00 -0.00000000000E+00 -0.45593999997E+02  0.45594000000E+02  0.51100000000E-03 0. -1.
    9900012    2    1    2    0    0  0.12729140819E+02  0.43174099767E+01 -0.38373099706E+02  0.50528857905E+02  0.29999994087E+02 0.  0.
        -12    1    1    2    0    0 -0.12729140819E+02 -0.43174099767E+01  0.38373099706E+02  0.40659142095E+02  0.00000000000E+00 0.  1.
         11    1    3    3    0    0  0.70696881431E+01  0.36466499769E-02 -0.24989161402E+02  0.25969957481E+02  0.51100000000E-03 0. -1.
        -11    1    3    3    0    0  0.41110877582E+01  0.63946720720E+01 -0.17845994282E+02  0.19397741767E+02  0.51100000000E-03 0.  1.
         12    1    3    3    0    0  0.15483649172E+01 -0.20809087453E+01  0.44620559786E+01  0.51611586567E+01  0.00000000000E+00 0. -1.
</event>
<event>
 7    1  0.6090311E-013  0.5052886E+02  0.7816164E-02  0.1300439E+00
        -11   -1    0    0    0    0  0.00000000000E+00  0.00000000000E+00  0.45593999997E+02  0.45594000000E+02  0.51100000000E-03 0.  1.
         11   -1    0    0    0    0 -0.00000000000E+00 -0.00000000000E+00 -0.45593999997E+02  0.45594000000E+02  0.51100000000E-03 0. -1.
    9900012    2    1    2    0    0 -0.36087847349E+02  0.15356508668E+02 -0.10724302343E+02  0.50528859017E+02  0.29999997468E+02 0.  0.
        -12    1    1    2    0    0  0.36087847349E+02 -0.15356508668E+02  0.10724302343E+02  0.40659140983E+02  0.00000000000E+00 0.  1.
         11    1    3    3    0    0 -0.11502292399E+02  0.15254689620E+02 -0.56324819545E+00  0.19113490906E+02  0.51100000000E-03 0. -1.
        -11    1    3    3    0    0 -0.79651712929E+01  0.27894125773E+01 -0.11791317714E+02  0.14500343098E+02  0.51100000000E-03 0.  1.
        -12    1    3    3    0    0 -0.16620383657E+02 -0.26875935293E+01  0.16302635668E+01  0.16915025013E+02  0.00000000000E+00 0.  1.
</event>
<event>
 7    1  0.6090311E-013  0.5052885E+02  0.7816164E-02  0.1300439E+00
        -11   -1    0    0    0    0  0.00000000000E+00  0.00000000000E+00  0.45593999997E+02  0.45594000000E+02  0.51100000000E-03 0.  1.
         11   -1    0    0    0    0 -0.00000000000E+00 -0.00000000000E+00 -0.45593999997E+02  0.45594000000E+02  0.51100000000E-03 0. -1.
    9900012    2    1    2    0    0  0.15114857404E+02 -0.25969616927E+02 -0.27391354330E+02  0.50528853308E+02  0.29999980115E+02 0.  0.
        -12    1    1    2    0    0 -0.15114857404E+02  0.25969616927E+02  0.27391354330E+02  0.40659146692E+02  0.00000000000E+00 0.  1.
         11    1    3    3    0    0 -0.64245372431E+01  0.16759920492E+00 -0.31858076048E+01  0.71730146129E+01  0.51100000000E-03 0. -1.
        -11    1    3    3    0    0  0.26185350730E+01 -0.13535540463E+00  0.66280741631E+00  0.27045075238E+01  0.51100000000E-03 0.  1.
         12    1    3    3    0    0  0.18920859574E+02 -0.26001860727E+02 -0.24868354142E+02  0.40651331171E+02  0.00000000000E+00 0. -1.
</event>
<event>
 7    1  0.6090311E-013  0.5052886E+02  0.7816164E-02  0.1300439E+00
        -11   -1    0    0    0    0  0.00000000000E+00  0.00000000000E+00  0.45593999997E+02  0.45594000000E+02  0.51100000000E-03 0.  1.
         11   -1    0    0    0    0 -0.00000000000E+00 -0.00000000000E+00 -0.45593999997E+02  0.45594000000E+02  0.51100000000E-03 0. -1.
    9900012    2    1    2    0    0 -0.24002875366E+02  0.32784701538E+02 -0.14801245729E+01  0.50528862656E+02  0.30000008530E+02 0.  0.
        -12    1    1    2    0    0  0.24002875366E+02 -0.32784701538E+02  0.14801245729E+01  0.40659137344E+02  0.00000000000E+00 0.  1.
         11    1    3    3    0    0 -0.71063132651E+01  0.10555650082E+02 -0.52186487401E+01  0.13753389830E+02  0.51100000000E-03 0. -1.
        -11    1    3    3    0    0 -0.16195006733E+01  0.69513430826E+01 -0.91601160886E+01  0.11612565612E+02  0.51100000000E-03 0.  1.
        -12    1    3    3    0    0 -0.15277061428E+02  0.15277708374E+02  0.12898640256E+02  0.25162907214E+02  0.00000000000E+00 0.  1.
</event>
<event>
 7    1  0.6090311E-013  0.5052886E+02  0.7816164E-02  0.1300439E+00
        -11   -1    0    0    0    0  0.00000000000E+00  0.00000000000E+00  0.45593999997E+02  0.45594000000E+02  0.51100000000E-03 0.  1.
         11   -1    0    0    0    0 -0.00000000000E+00 -0.00000000000E+00 -0.45593999997E+02  0.45594000000E+02  0.51100000000E-03 0. -1.
    9900012    2    1    2    0    0 -0.28367468483E+02 -0.40465081439E+01 -0.28845764724E+02  0.50528860329E+02  0.30000001455E+02 0.  0.
        -12    1    1    2    0    0  0.28367468483E+02  0.40465081439E+01  0.28845764724E+02  0.40659139671E+02  0.00000000000E+00 0.  1.
         11    1    3    3    0    0 -0.19514227390E+02  0.51730720036E+01 -0.13317000594E+02  0.24184876466E+02  0.51100000000E-03 0. -1.
        -11    1    3    3    0    0  0.43304538244E+01 -0.21077867101E-01 -0.67717887075E+01  0.80380592908E+01  0.51100000000E-03 0.  1.
        -12    1    3    3    0    0 -0.13183694917E+02 -0.91985022804E+01 -0.87569754228E+01  0.18305924572E+02  0.00000000000E+00 0.  1.
</event>
<event>
 7    1  0.6090311E-013  0.5052888E+02  0.7816164E-02  0.1300439E+00
        -11   -1    0    0    0    0  0.00000000000E+00  0.00000000000E+00  0.45593999997E+02  0.45594000000E+02  0.51100000000E-03 0. -1.
         11   -1    0    0    0    0 -0.00000000000E+00 -0.00000000000E+00 -0.45593999997E+02  0.45594000000E+02  0.51100000000E-03 0.  1.
    9900012    2    1    2    0    0 -0.30361346387E+02  0.52909894757E+01 -0.26520900444E+02  0.50528879443E+02  0.30000059556E+02 0.  0.
        -12    1    1    2    0    0  0.30361346387E+02 -0.52909894757E+01  0.26520900444E+02  0.40659120557E+02  0.00000000000E+00 0.  1.
         11    1    3    3    0    0 -0.20773746008E+01 -0.17719733732E+01 -0.13521375670E+01  0.30469084543E+01  0.51100000000E-03 0. -1.
        -11    1    3    3    0    0 -0.29576516829E+02  0.12009323857E+02 -0.13342430700E+02  0.34597899712E+02  0.51100000000E-03 0.  1.
        -12    1    3    3    0    0  0.12925450426E+01 -0.49463610080E+01 -0.11826332177E+02  0.12884071277E+02  0.00000000000E+00 0.  1.
</event>
<event>
 7    1  0.6090311E-013  0.5052888E+02  0.7816164E-02  0.1300439E+00
        -11   -1    0    0    0    0  0.00000000000E+00  0.00000000000E+00  0.45593999997E+02  0.45594000000E+02  0.51100000000E-03 0.  1.
         11   -1    0    0    0    0 -0.00000000000E+00 -0.00000000000E+00 -0.45593999997E+02  0.45594000000E+02  0.51100000000E-03 0. -1.
    9900012    2    1    2    0    0  0.13557706928E+02 -0.24210325256E+02 -0.29718898725E+02  0.50528877929E+02  0.30000054954E+02 0.  0.
        -12    1    1    2    0    0 -0.13557706928E+02  0.24210325256E+02  0.29718898725E+02  0.40659122071E+02  0.00000000000E+00 0.  1.
         11    1    3    3    0    0  0.10815022751E+01  0.63687363484E+01 -0.57475416443E+01  0.86466574502E+01  0.51100000000E-03 0. -1.
        -11    1    3    3    0    0  0.10905995744E+01 -0.88581351843E+01 -0.10914159089E+02  0.14098752968E+02  0.51100000000E-03 0.  1.
        -12    1    3    3    0    0  0.11385605079E+02 -0.21720926420E+02 -0.13057197991E+02  0.27783467511E+02  0.00000000000E+00 0.  1.
</event>
<event>
 7    1  0.6090311E-013  0.5052886E+02  0.7816164E-02  0.1300439E+00
        -11   -1    0    0    0    0  0.00000000000E+00  0.00000000000E+00  0.45593999997E+02  0.45594000000E+02  0.51100000000E-03 0.  1.
         11   -1    0    0    0    0 -0.00000000000E+00 -0.00000000000E+00 -0.45593999997E+02  0.45594000000E+02  0.51100000000E-03 0. -1.
    9900012    2    1    2    0    0  0.19229160186E+02  0.14252213739E+02 -0.32867607174E+02  0.50528858356E+02  0.29999995457E+02 0.  0.
        -12    1    1    2    0    0 -0.19229160186E+02 -0.14252213739E+02  0.32867607174E+02  0.40659141644E+02  0.00000000000E+00 0.  1.
         11    1    3    3    0    0  0.92331325850E+01  0.55469210444E+01 -0.16348429513E+02  0.19577799116E+02  0.51100000000E-03 0. -1.
        -11    1    3    3    0    0  0.12683953005E+02  0.12620922541E+00 -0.17813324312E+02  0.21868084413E+02  0.51100000000E-03 0.  1.
        -12    1    3    3    0    0 -0.26879254037E+01  0.85790834692E+01  0.12941466512E+01  0.90829748267E+01  0.00000000000E+00 0.  1.
</event>
<event>
 7    1  0.6090311E-013  0.5052886E+02  0.7816164E-02  0.1300439E+00
        -11   -1    0    0    0    0  0.00000000000E+00  0.00000000000E+00  0.45593999997E+02  0.45594000000E+02  0.51100000000E-03 0.  1.
         11   -1    0    0    0    0 -0.00000000000E+00 -0.00000000000E+00 -0.45593999997E+02  0.45594000000E+02  0.51100000000E-03 0. -1.
    9900012    2    1    2    0    0 -0.18466311612E+02 -0.36220767340E+02 -0.46568620622E+00  0.50528861852E+02  0.30000006087E+02 0.  0.
        -12    1    1    2    0    0  0.18466311612E+02  0.36220767340E+02  0.46568620622E+00  0.40659138148E+02  0.00000000000E+00 0.  1.
         11    1    3    3    0    0 -0.11493276095E+02 -0.91184498755E+01  0.33559868464E+01  0.15050055532E+02  0.51100000000E-03 0. -1.
        -11    1    3    3    0    0 -0.10711710031E+02 -0.46787865088E+01 -0.50039773105E+01  0.12715013337E+02  0.51100000000E-03 0.  1.
         12    1    3    3    0    0  0.37386745139E+01 -0.22423530956E+02  0.11823042578E+01  0.22763792984E+02  0.00000000000E+00 0. -1.
</event>
<event>
 7    1  0.6090311E-013  0.5052891E+02  0.7816164E-02  0.1300439E+00
        -11   -1    0    0    0    0  0.00000000000E+00  0.00000000000E+00  0.45593999997E+02  0.45594000000E+02  0.51100000000E-03 0.  1.
         11   -1    0    0    0    0 -0.00000000000E+00 -0.00000000000E+00 -0.45593999997E+02  0.45594000000E+02  0.51100000000E-03 0. -1.
    9900012    2    1    2    0    0  0.21813168777E+02 -0.31156483423E+02 -0.14374311717E+02  0.50528909643E+02  0.30000151349E+02 0.  0.
        -12    1    1    2    0    0 -0.21813168777E+02  0.31156483423E+02  0.14374311717E+02  0.40659090357E+02  0.00000000000E+00 0.  1.
         11    1    3    3    0    0  0.10992976414E+01  0.36454118846E+01  0.86279121607E+00  0.39040865842E+01  0.51100000000E-03 0. -1.
        -11    1    3    3    0    0  0.14372267077E+01 -0.42855447849E+01  0.37205284578E+01  0.58543869858E+01  0.51100000000E-03 0.  1.
         12    1    3    3    0    0  0.19276644428E+02 -0.30516350522E+02 -0.18957631391E+02  0.40770436073E+02  0.00000000000E+00 0. -1.
</event>
<event>
 7    1  0.6090311E-013  0.5052886E+02  0.7816164E-02  0.1300439E+00
        -11   -1    0    0    0    0  0.00000000000E+00  0.00000000000E+00  0.45593999997E+02  0.45594000000E+02  0.51100000000E-03 0.  1.
         11   -1    0    0    0    0 -0.00000000000E+00 -0.00000000000E+00 -0.45593999997E+02  0.45594000000E+02  0.51100000000E-03 0. -1.
    9900012    2    1    2    0    0  0.92082399815E+00  0.31336529922E+02 -0.25890917767E+02  0.50528860225E+02  0.30000001141E+02 0.  0.
        -12    1    1    2    0    0 -0.92082399815E+00 -0.31336529922E+02  0.25890917767E+02  0.40659139775E+02  0.00000000000E+00 0.  1.
         11    1    3    3    0    0 -0.10912131499E+01 -0.21113458189E+01 -0.86057326174E+01  0.89278867292E+01  0.51100000000E-03 0.  1.
        -11    1    3    3    0    0 -0.30850791785E+01  0.21788360700E+02 -0.18593160774E+02  0.28808956998E+02  0.51100000000E-03 0. -1.
        -12    1    3    3    0    0  0.50971163266E+01  0.11659515041E+02  0.13079756242E+01  0.12792016498E+02  0.00000000000E+00 0.  1.
</event>
<event>
 7    1  0.6090311E-013  0.5052885E+02  0.7816164E-02  0.1300439E+00
        -11   -1    0    0    0    0  0.00000000000E+00  0.00000000000E+00  0.45593999997E+02  0.45594000000E+02  0.51100000000E-03 0.  1.
         11   -1    0    0    0    0 -0.00000000000E+00 -0.00000000000E+00 -0.45593999997E+02  0.45594000000E+02  0.51100000000E-03 0. -1.
    9900012    2    1    2    0    0  0.28891301166E+02 -0.99534550770E+01 -0.26821408869E+02  0.50528849433E+02  0.29999968338E+02 0.  0.
        -12    1    1    2    0    0 -0.28891301166E+02  0.99534550770E+01  0.26821408869E+02  0.40659150567E+02  0.00000000000E+00 0.  1.
         11    1    3    3    0    0  0.54557691363E+00 -0.46436462495E+01 -0.20189662059E+01  0.50928704540E+01  0.51100000000E-03 0. -1.
        -11    1    3    3    0    0  0.87609493980E+01 -0.12124288216E+02 -0.18442519186E+02  0.23746138913E+02  0.51100000000E-03 0.  1.
        -12    1    3    3    0    0  0.19584774855E+02  0.68144793891E+01 -0.63599234779E+01  0.21689840066E+02  0.00000000000E+00 0.  1.
</event>
<event>
 7    1  0.6090311E-013  0.5052886E+02  0.7816164E-02  0.1300439E+00
        -11   -1    0    0    0    0  0.00000000000E+00  0.00000000000E+00  0.45593999997E+02  0.45594000000E+02  0.51100000000E-03 0. -1.
         11   -1    0    0    0    0 -0.00000000000E+00 -0.00000000000E+00 -0.45593999997E+02  0.45594000000E+02  0.51100000000E-03 0.  1.
    9900012    2    1    2    0    0  0.29454427035E+01 -0.20586289045E+02  0.34938442785E+02  0.50528859409E+02  0.29999998658E+02 0.  0.
        -12    1    1    2    0    0 -0.29454427035E+01  0.20586289045E+02 -0.34938442785E+02  0.40659140591E+02  0.00000000000E+00 0.  1.
         11    1    3    3    0    0 -0.33998083455E+00 -0.58426601718E+01  0.48852117443E+01  0.76234873187E+01  0.51100000000E-03 0. -1.
        -11    1    3    3    0    0  0.61796088340E+01 -0.17864440138E+02  0.32787622361E+02  0.37846452504E+02  0.51100000000E-03 0.  1.
        -12    1    3    3    0    0 -0.28941852959E+01  0.31208112647E+01 -0.27343913206E+01  0.50589195854E+01  0.00000000000E+00 0.  1.
</event>
<event>
 7    1  0.6090311E-013  0.5052886E+02  0.7816164E-02  0.1300439E+00
        -11   -1    0    0    0    0  0.00000000000E+00  0.00000000000E+00  0.45593999997E+02  0.45594000000E+02  0.51100000000E-03 0. -1.
         11   -1    0    0    0    0 -0.00000000000E+00 -0.00000000000E+00 -0.45593999997E+02  0.45594000000E+02  0.51100000000E-03 0.  1.
    9900012    2    1    2    0    0  0.33259823800E+02 -0.17913764887E+02  0.15034856893E+02  0.50528858673E+02  0.29999996424E+02 0.  0.
        -12    1    1    2    0    0 -0.33259823800E+02  0.17913764887E+02 -0.15034856893E+02  0.40659141327E+02  0.00000000000E+00 0.  1.
         11    1    3    3    0    0  0.11374042586E+02 -0.13227260846E+02  0.69959220223E+01  0.18795536689E+02  0.51100000000E-03 0. -1.
        -11    1    3    3    0    0  0.56276345928E+01 -0.10876293080E+02  0.74349051272E+01  0.14326263881E+02  0.51100000000E-03 0.  1.
         12    1    3    3    0    0  0.16258146621E+02  0.61897890385E+01  0.60402974330E+00  0.17407058104E+02  0.00000000000E+00 0. -1.
</event>
<event>
 7    1  0.6090311E-013  0.5052886E+02  0.7816164E-02  0.1300439E+00
        -11   -1    0    0    0    0  0.00000000000E+00  0.00000000000E+00  0.45593999997E+02  0.45594000000E+02  0.51100000000E-03 0.  1.
         11   -1    0    0    0    0 -0.00000000000E+00 -0.00000000000E+00 -0.45593999997E+02  0.45594000000E+02  0.51100000000E-03 0. -1.
    9900012    2    1    2    0    0  0.29205780971E+02  0.70060650106E+01 -0.27406262792E+02  0.50528857986E+02  0.29999994336E+02 0.  0.
        -12    1    1    2    0    0 -0.29205780971E+02 -0.70060650106E+01  0.27406262792E+02  0.40659142014E+02  0.00000000000E+00 0.  1.
         11    1    3    3    0    0  0.56055907053E+01  0.69215597707E+00  0.53828437304E+01  0.78023543843E+01  0.51100000000E-03 0. -1.
        -11    1    3    3    0    0  0.54653612681E+01  0.31523194003E+01 -0.15982424569E+01  0.65085843779E+01  0.51100000000E-03 0.  1.
         12    1    3    3    0    0  0.18134828998E+02  0.31615896332E+01 -0.31190864065E+02  0.36217919224E+02  0.00000000000E+00 0. -1.
</event>
<event>
 7    1  0.6090311E-013  0.5052880E+02  0.7816164E-02  0.1300439E+00
        -11   -1    0    0    0    0  0.00000000000E+00  0.00000000000E+00  0.45593999997E+02  0.45594000000E+02  0.51100000000E-03 0.  1.
         11   -1    0    0    0    0 -0.00000000000E+00 -0.00000000000E+00 -0.45593999997E+02  0.45594000000E+02  0.51100000000E-03 0. -1.
    9900012    2    1    2    0    0 -0.37367580829E+02 -0.51900658447E+01 -0.15162379551E+02  0.50528798899E+02  0.29999814733E+02 0.  0.
        -12    1    1    2    0    0  0.37367580829E+02  0.51900658447E+01  0.15162379551E+02  0.40659201101E+02  0.00000000000E+00 0.  1.
         11    1    3    3    0    0 -0.12280791715E+02  0.69478404666E+01 -0.47839307598E+01  0.14898869959E+02  0.51100000000E-03 0. -1.
        -11    1    3    3    0    0 -0.78109981186E+01  0.32151877278E+01  0.29534407593E+01  0.89482923686E+01  0.51100000000E-03 0.  1.
         12    1    3    3    0    0 -0.17275790996E+02 -0.15353094039E+02 -0.13331889551E+02  0.26681636571E+02  0.00000000000E+00 0. -1.
</event>
<event>
 7    1  0.6090311E-013  0.5052886E+02  0.7816164E-02  0.1300439E+00
        -11   -1    0    0    0    0  0.00000000000E+00  0.00000000000E+00  0.45593999997E+02  0.45594000000E+02  0.51100000000E-03 0.  1.
         11   -1    0    0    0    0 -0.00000000000E+00 -0.00000000000E+00 -0.45593999997E+02  0.45594000000E+02  0.51100000000E-03 0. -1.
    9900012    2    1    2    0    0  0.57283855766E+00 -0.83603402057E+01 -0.39786209602E+02  0.50528857033E+02  0.29999991436E+02 0.  0.
        -12    1    1    2    0    0 -0.57283855766E+00  0.83603402057E+01  0.39786209602E+02  0.40659142967E+02  0.00000000000E+00 0.  1.
         11    1    3    3    0    0 -0.62537411011E+00  0.88147902369E+00 -0.14908493853E+01  0.18413935477E+01  0.51100000000E-03 0. -1.
        -11    1    3    3    0    0  0.31165670857E+01 -0.11111279814E+02 -0.13201415096E+01  0.11615347751E+02  0.51100000000E-03 0.  1.
         12    1    3    3    0    0 -0.19183544179E+01  0.18694605849E+01 -0.36975218707E+02  0.37072115734E+02  0.00000000000E+00 0. -1.
</event>
<event>
 7    1  0.6090311E-013  0.5052886E+02  0.7816164E-02  0.1300439E+00
        -11   -1    0    0    0    0  0.00000000000E+00  0.00000000000E+00  0.45593999997E+02  0.45594000000E+02  0.51100000000E-03 0. -1.
         11   -1    0    0    0    0 -0.00000000000E+00 -0.00000000000E+00 -0.45593999997E+02  0.45594000000E+02  0.51100000000E-03 0.  1.
    9900012    2    1    2    0    0 -0.31393958588E+02 -0.12609866592E+02  0.22551635096E+02  0.50528860600E+02  0.30000002280E+02 0.  0.
        -12    1    1    2    0    0  0.31393958588E+02  0.12609866592E+02 -0.22551635096E+02  0.40659139400E+02  0.00000000000E+00 0.  1.
         11    1    3    3    0    0 -0.73075519938E+01 -0.12746045308E+02  0.49168599784E+01  0.15493143627E+02  0.51100000000E-03 0. -1.
        -11    1    3    3    0    0 -0.68883027211E+01 -0.42203734105E+01 -0.22510336819E+01  0.83861444657E+01  0.51100000000E-03 0.  1.
        -12    1    3    3    0    0 -0.17198103873E+02  0.43565521261E+01  0.19885808799E+02  0.26649572507E+02  0.00000000000E+00 0.  1.
</event>
<event>
 7    1  0.6090311E-013  0.5052885E+02  0.7816164E-02  0.1300439E+00
        -11   -1    0    0    0    0  0.00000000000E+00  0.00000000000E+00  0.45593999997E+02  0.45594000000E+02  0.51100000000E-03 0.  1.
         11   -1    0    0    0    0 -0.00000000000E+00 -0.00000000000E+00 -0.45593999997E+02  0.45594000000E+02  0.51100000000E-03 0. -1.
    9900012    2    1    2    0    0  0.32040605577E+02  0.16286003115E+02 -0.19008734359E+02  0.50528852380E+02  0.29999977295E+02 0.  0.
        -12    1    1    2    0    0 -0.32040605577E+02 -0.16286003115E+02  0.19008734359E+02  0.40659147620E+02  0.00000000000E+00 0.  1.
         11    1    3    3    0    0  0.21196089968E+02  0.15963918751E+01 -0.98623316878E+01  0.23432632877E+02  0.51100000000E-03 0. -1.
        -11    1    3    3    0    0  0.53160007098E+01  0.80178576277E+01 -0.14135001499E+02  0.17098075100E+02  0.51100000000E-03 0.  1.
         12    1    3    3    0    0  0.55285148993E+01  0.66717536122E+01  0.49885988274E+01  0.99981444035E+01  0.00000000000E+00 0. -1.
</event>
<event>
 7    1  0.6090311E-013  0.5052886E+02  0.7816164E-02  0.1300439E+00
        -11   -1    0    0    0    0  0.00000000000E+00  0.00000000000E+00  0.45593999997E+02  0.45594000000E+02  0.51100000000E-03 0.  1.
         11   -1    0    0    0    0 -0.00000000000E+00 -0.00000000000E+00 -0.45593999997E+02  0.45594000000E+02  0.51100000000E-03 0. -1.
    9900012    2    1    2    0    0 -0.22216348052E+02  0.43005871157E+01 -0.33780239312E+02  0.50528859105E+02  0.29999997735E+02 0.  0.
        -12    1    1    2    0    0  0.22216348052E+02 -0.43005871157E+01  0.33780239312E+02  0.40659140895E+02  0.00000000000E+00 0.  1.
         11    1    3    3    0    0 -0.12272304181E+02  0.18972083045E+00 -0.12993402199E+02  0.17873834084E+02  0.51100000000E-03 0. -1.
        -11    1    3    3    0    0 -0.16823071505E+02  0.56868794848E+01 -0.12224251877E+02  0.21558957937E+02  0.51100000000E-03 0.  1.
         12    1    3    3    0    0  0.68790276333E+01 -0.15760131996E+01 -0.85625852363E+01  0.11096067083E+02  0.00000000000E+00 0. -1.
</event>
<event>
 7    1  0.6090311E-013  0.5052888E+02  0.7816164E-02  0.1300439E+00
        -11   -1    0    0    0    0  0.00000000000E+00  0.00000000000E+00  0.45593999997E+02  0.45594000000E+02  0.51100000000E-03 0.  1.
         11   -1    0    0    0    0 -0.00000000000E+00 -0.00000000000E+00 -0.45593999997E+02  0.45594000000E+02  0.51100000000E-03 0. -1.
    9900012    2    1    2    0    0 -0.14697210613E+02  0.24637705031E+02 -0.28812148420E+02  0.50528875494E+02  0.30000047552E+02 0.  0.
        -12    1    1    2    0    0  0.14697210613E+02 -0.24637705031E+02  0.28812148420E+02  0.40659124506E+02  0.00000000000E+00 0.  1.
         11    1    3    3    0    0 -0.24477365863E+01  0.70824307068E+01 -0.21965441411E+02  0.23208465175E+02  0.51100000000E-03 0. -1.
        -11    1    3    3    0    0  0.36558809768E+01  0.48825515367E+01 -0.19337395041E+01  0.63987595638E+01  0.51100000000E-03 0.  1.
         12    1    3    3    0    0 -0.15905355004E+02  0.12672722787E+02 -0.49129675050E+01  0.20921650756E+02  0.00000000000E+00 0. -1.
</event>
<event>
 7    1  0.6090311E-013  0.5052886E+02  0.7816164E-02  0.1300439E+00
        -11   -1    0    0    0    0  0.00000000000E+00  0.00000000000E+00  0.45593999997E+02  0.45594000000E+02  0.51100000000E-03 0. -1.
         11   -1    0    0    0    0 -0.00000000000E+00 -0.00000000000E+00 -0.45593999997E+02  0.45594000000E+02  0.51100000000E-03 0.  1.
    9900012    2    1    2    0    0  0.14779705989E+02  0.34372403877E+01  0.37721492840E+02  0.50528863847E+02  0.30000012150E+02 0.  0.
        -12    1    1    2    0    0 -0.14779705989E+02 -0.34372403877E+01 -0.37721492840E+02  0.40659136153E+02  0.00000000000E+00 0.  1.
         11    1    3    3    0    0 -0.19278838118E+01 -0.39654557174E+01  0.27630183936E+01  0.52034455838E+01  0.51100000000E-03 0.  1.
        -11    1    3    3    0    0  0.20448681048E+02  0.15864603145E+01  0.31511622370E+02  0.37598507385E+02  0.51100000000E-03 0. -1.
         12    1    3    3    0    0 -0.37410912472E+01  0.58162357906E+01  0.34468520768E+01  0.77269108789E+01  0.00000000000E+00 0. -1.
</event>
<event>
 7    1  0.6090311E-013  0.5052886E+02  0.7816164E-02  0.1300439E+00
        -11   -1    0    0    0    0  0.00000000000E+00  0.00000000000E+00  0.45593999997E+02  0.45594000000E+02  0.51100000000E-03 0.  1.
         11   -1    0    0    0    0 -0.00000000000E+00 -0.00000000000E+00 -0.45593999997E+02  0.45594000000E+02  0.51100000000E-03 0. -1.
    9900012    2    1    2    0    0 -0.47131930566E+01 -0.62796814686E+01 -0.39893821471E+02  0.50528861055E+02  0.30000003663E+02 0.  0.
        -12    1    1    2    0    0  0.47131930566E+01  0.62796814686E+01  0.39893821471E+02  0.40659138945E+02  0.00000000000E+00 0.  1.
         11    1    3    3    0    0 -0.10623141103E+02 -0.68626659732E+00 -0.26209289876E+02  0.28288672023E+02  0.51100000000E-03 0. -1.
        -11    1    3    3    0    0  0.85721494130E+01 -0.30655271169E+00 -0.13881236829E+02  0.16317611844E+02  0.51100000000E-03 0.  1.
        -12    1    3    3    0    0 -0.26622013662E+01 -0.52868621596E+01  0.19670523318E+00  0.59225771889E+01  0.00000000000E+00 0.  1.
</event>
<event>
 7    1  0.6090311E-013  0.5052886E+02  0.7816164E-02  0.1300439E+00
        -11   -1    0    0    0    0  0.00000000000E+00  0.00000000000E+00  0.45593999997E+02  0.45594000000E+02  0.51100000000E-03 0.  1.
         11   -1    0    0    0    0 -0.00000000000E+00 -0.00000000000E+00 -0.45593999997E+02  0.45594000000E+02  0.51100000000E-03 0. -1.
    9900012    2    1    2    0    0 -0.45670782509E+01  0.10138206280E+02 -0.39109129378E+02  0.50528862884E+02  0.30000009221E+02 0.  0.
        -12    1    1    2    0    0  0.45670782509E+01 -0.10138206280E+02  0.39109129378E+02  0.40659137116E+02  0.00000000000E+00 0.  1.
         11    1    3    3    0    0  0.60333984851E+00 -0.36176285189E+01  0.25320459584E+01  0.44567378283E+01  0.51100000000E-03 0. -1.
        -11    1    3    3    0    0  0.79961818760E+00  0.89317021823E+00  0.72139510980E+00  0.13991259594E+01  0.51100000000E-03 0.  1.
         12    1    3    3    0    0 -0.59700362870E+01  0.12862664581E+02 -0.42362570446E+02  0.44672999096E+02  0.00000000000E+00 0. -1.
</event>
<event>
 7    1  0.6090311E-013  0.5052886E+02  0.7816164E-02  0.1300439E+00
        -11   -1    0    0    0    0  0.00000000000E+00  0.00000000000E+00  0.45593999997E+02  0.45594000000E+02  0.51100000000E-03 0. -1.
         11   -1    0    0    0    0 -0.00000000000E+00 -0.00000000000E+00 -0.45593999997E+02  0.45594000000E+02  0.51100000000E-03 0.  1.
    9900012    2    1    2    0    0 -0.38799258839E+02  0.65438425439E+01 -0.10245059299E+02  0.50528860784E+02  0.30000002841E+02 0.  0.
        -12    1    1    2    0    0  0.38799258839E+02 -0.65438425439E+01  0.10245059299E+02  0.40659139216E+02  0.00000000000E+00 0.  1.
         11    1    3    3    0    0 -0.15184932281E+02  0.11686832964E+02 -0.52041959802E+01  0.19855676497E+02  0.51100000000E-03 0. -1.
        -11    1    3    3    0    0 -0.77584152551E+01  0.36884703183E+01 -0.86248878777E+01  0.12173188232E+02  0.51100000000E-03 0.  1.
         12    1    3    3    0    0 -0.15855911303E+02 -0.88314607381E+01  0.35840245589E+01  0.18499996056E+02  0.00000000000E+00 0. -1.
</event>
<event>
 7    1  0.6090311E-013  0.5052887E+02  0.7816164E-02  0.1300439E+00
        -11   -1    0    0    0    0  0.00000000000E+00  0.00000000000E+00  0.45593999997E+02  0.45594000000E+02  0.51100000000E-03 0.  1.
         11   -1    0    0    0    0 -0.00000000000E+00 -0.00000000000E+00 -0.45593999997E+02  0.45594000000E+02  0.51100000000E-03 0. -1.
    9900012    2    1    2    0    0  0.19372119345E+02 -0.15921570578E+02 -0.32006085656E+02  0.50528868964E+02  0.30000027704E+02 0.  0.
        -12    1    1    2    0    0 -0.19372119345E+02  0.15921570578E+02  0.32006085656E+02  0.40659131036E+02  0.00000000000E+00 0.  1.
         11    1    3    3    0    0  0.16324310735E+02 -0.80294908376E+01 -0.21113985347E+02  0.27870346636E+02  0.51100000000E-03 0. -1.
        -11    1    3    3    0    0  0.10366018576E+02 -0.23537146162E+01 -0.67296596918E+01  0.12581042621E+02  0.51100000000E-03 0.  1.
         12    1    3    3    0    0 -0.73182099662E+01 -0.55383651247E+01 -0.41624406165E+01  0.10077479707E+02  0.00000000000E+00 0. -1.
</event>
<event>
 7    1  0.6090311E-013  0.5052886E+02  0.7816164E-02  0.1300439E+00
        -11   -1    0    0    0    0  0.00000000000E+00  0.00000000000E+00  0.45593999997E+02  0.45594000000E+02  0.51100000000E-03 0.  1.
         11   -1    0    0    0    0 -0.00000000000E+00 -0.00000000000E+00 -0.45593999997E+02  0.45594000000E+02  0.51100000000E-03 0. -1.
    9900012    2    1    2    0    0 -0.14761146760E+02 -0.58051357845E+01 -0.37437611000E+02  0.50528858684E+02  0.29999996457E+02 0.  0.
        -12    1    1    2    0    0  0.14761146760E+02  0.58051357845E+01  0.37437611000E+02  0.40659141316E+02  0.00000000000E+00 0.  1.
         11    1    3    3    0    0 -0.11325334747E+02 -0.65511430809E+01 -0.32577746577E+02  0.35106840574E+02  0.51100000000E-03 0. -1.
        -11    1    3    3    0    0 -0.42204696283E+01 -0.25558402334E+01 -0.88813452751E+01  0.10159870931E+02  0.51100000000E-03 0.  1.
        -12    1    3    3    0    0  0.78465761554E+00  0.33018475298E+01  0.40214808524E+01  0.52621471787E+01  0.00000000000E+00 0.  1.
</event>
<event>
 7    1  0.6090311E-013  0.5052885E+02  0.7816164E-02  0.1300439E+00
        -11   -1    0    0    0    0  0.00000000000E+00  0.00000000000E+00  0.45593999997E+02  0.45594000000E+02  0.51100000000E-03 0.  1.
         11   -1    0    0    0    0 -0.00000000000E+00 -0.00000000000E+00 -0.45593999997E+02  0.45594000000E+02  0.51100000000E-03 0. -1.
    9900012    2    1    2    0    0 -0.19818317437E+02 -0.33740452040E+02 -0.11044587245E+02  0.50528847066E+02  0.29999961142E+02 0.  0.
        -12    1    1    2    0    0  0.19818317437E+02  0.33740452040E+02  0.11044587245E+02  0.40659152934E+02  0.00000000000E+00 0.  1.
         11    1    3    3    0    0 -0.11630478716E+02 -0.92046379559E+01  0.21682990798E+01  0.14989827091E+02  0.51100000000E-03 0. -1.
        -11    1    3    3    0    0 -0.55802785295E+01 -0.22843863646E+02 -0.16586670037E+01  0.23573985476E+02  0.51100000000E-03 0.  1.
        -12    1    3    3    0    0 -0.26075601922E+01 -0.16919504381E+01 -0.11554219321E+02  0.11965034499E+02  0.00000000000E+00 0.  1.
</event>
<event>
 7    1  0.6090311E-013  0.5052887E+02  0.7816164E-02  0.1300439E+00
        -11   -1    0    0    0    0  0.00000000000E+00  0.00000000000E+00  0.45593999997E+02  0.45594000000E+02  0.51100000000E-03 0. -1.
         11   -1    0    0    0    0 -0.00000000000E+00 -0.00000000000E+00 -0.45593999997E+02  0.45594000000E+02  0.51100000000E-03 0.  1.
    9900012    2    1    2    0    0 -0.27798702084E+02 -0.26991070634E+02  0.12323909613E+02  0.50528874583E+02  0.30000044782E+02 0.  0.
        -12    1    1    2    0    0  0.27798702084E+02  0.26991070634E+02 -0.12323909613E+02  0.40659125417E+02  0.00000000000E+00 0.  1.
         11    1    3    3    0    0 -0.10450315548E+02 -0.78780508336E+01  0.22535234260E+01  0.13279726958E+02  0.51100000000E-03 0. -1.
        -11    1    3    3    0    0 -0.23921359319E+01 -0.18053725054E+02 -0.15531703036E+01  0.18277626785E+02  0.51100000000E-03 0.  1.
        -12    1    3    3    0    0 -0.14956250604E+02 -0.10592947469E+01  0.11623556491E+02  0.18971520840E+02  0.00000000000E+00 0.  1.
</event>
<event>
 7    1  0.6090311E-013  0.5052886E+02  0.7816164E-02  0.1300439E+00
        -11   -1    0    0    0    0  0.00000000000E+00  0.00000000000E+00  0.45593999997E+02  0.45594000000E+02  0.51100000000E-03 0.  1.
         11   -1    0    0    0    0 -0.00000000000E+00 -0.00000000000E+00 -0.45593999997E+02  0.45594000000E+02  0.51100000000E-03 0. -1.
    9900012    2    1    2    0    0 -0.53200042026E+01  0.82155098746E+01 -0.39463512409E+02  0.50528857622E+02  0.29999993229E+02 0.  0.
        -12    1    1    2    0    0  0.53200042026E+01 -0.82155098746E+01  0.39463512409E+02  0.40659142378E+02  0.00000000000E+00 0.  1.
         11    1    3    3    0    0  0.79088394742E+00 -0.39279312887E+01 -0.21274626067E+02  0.21648645597E+02  0.51100000000E-03 0. -1.
        -11    1    3    3    0    0 -0.65856663764E+01 -0.13880399661E+01 -0.12494079338E+02  0.14191535341E+02  0.51100000000E-03 0.  1.
         12    1    3    3    0    0  0.47477822639E+00  0.13531481129E+02 -0.56948070039E+01  0.14688676684E+02  0.00000000000E+00 0. -1.
</event>
<event>
 7    1  0.6090311E-013  0.5052892E+02  0.7816164E-02  0.1300439E+00
        -11   -1    0    0    0    0  0.00000000000E+00  0.00000000000E+00  0.45593999997E+02  0.45594000000E+02  0.51100000000E-03 0.  1.
         11   -1    0    0    0    0 -0.00000000000E+00 -0.00000000000E+00 -0.45593999997E+02  0.45594000000E+02  0.51100000000E-03 0. -1.
    9900012    2    1    2    0    0 -0.93194739181E+01  0.14400893008E+02 -0.36863564024E+02  0.50528921480E+02  0.30000187329E+02 0.  0.
        -12    1    1    2    0    0  0.93194739181E+01 -0.14400893008E+02  0.36863564024E+02  0.40659078520E+02  0.00000000000E+00 0.  1.
         11    1    3    3    0    0  0.92793868412E+00 -0.28208088531E+01 -0.32263105927E+01  0.43848732124E+01  0.51100000000E-03 0. -1.
        -11    1    3    3    0    0  0.47722575411E+01 -0.35019919467E+01 -0.76075828232E+01  0.96391756030E+01  0.51100000000E-03 0.  1.
         12    1    3    3    0    0 -0.15019670143E+02  0.20723693808E+02 -0.26029670608E+02  0.36504872664E+02  0.00000000000E+00 0. -1.
</event>
<event>
 7    1  0.6090311E-013  0.5052886E+02  0.7816164E-02  0.1300439E+00
        -11   -1    0    0    0    0  0.00000000000E+00  0.00000000000E+00  0.45593999997E+02  0.45594000000E+02  0.51100000000E-03 0. -1.
         11   -1    0    0    0    0 -0.00000000000E+00 -0.00000000000E+00 -0.45593999997E+02  0.45594000000E+02  0.51100000000E-03 0.  1.
    9900012    2    1    2    0    0  0.32542993829E+02  0.20771571294E+02  0.12753857685E+02  0.50528861947E+02  0.30000006374E+02 0.  0.
        -12    1    1    2    0    0 -0.32542993829E+02 -0.20771571294E+02 -0.12753857685E+02  0.40659138053E+02  0.00000000000E+00 0.  1.
         11    1    3    3    0    0  0.16254250424E+02  0.15062552412E+02  0.50698281873E+00  0.22166149278E+02  0.51100000000E-03 0. -1.
        -11    1    3    3    0    0  0.48345713426E+01  0.11148825960E+02  0.25923766638E+01  0.12425369910E+02  0.51100000000E-03 0.  1.
        -12    1    3    3    0    0  0.11454172062E+02 -0.54398070780E+01  0.96544982023E+01  0.15937342759E+02  0.00000000000E+00 0.  1.
</event>
<event>
 7    1  0.6090311E-013  0.5052886E+02  0.7816164E-02  0.1300439E+00
        -11   -1    0    0    0    0  0.00000000000E+00  0.00000000000E+00  0.45593999997E+02  0.45594000000E+02  0.51100000000E-03 0. -1.
         11   -1    0    0    0    0 -0.00000000000E+00 -0.00000000000E+00 -0.45593999997E+02  0.45594000000E+02  0.51100000000E-03 0.  1.
    9900012    2    1    2    0    0  0.21494264414E+02 -0.24817836020E+02  0.23984100151E+02  0.50528862681E+02  0.30000008607E+02 0.  0.
        -12    1    1    2    0    0 -0.21494264414E+02  0.24817836020E+02 -0.23984100151E+02  0.40659137319E+02  0.00000000000E+00 0.  1.
         11    1    3    3    0    0  0.19913750445E+02 -0.82017098822E+01  0.13376206200E+02  0.25352483001E+02  0.51100000000E-03 0. -1.
        -11    1    3    3    0    0  0.47314019311E+01 -0.34047825668E+01  0.10007292643E+02  0.11581218194E+02  0.51100000000E-03 0.  1.
        -12    1    3    3    0    0 -0.31508879615E+01 -0.13211343571E+02  0.60060130809E+00  0.13595161486E+02  0.00000000000E+00 0.  1.
</event>
<event>
 7    1  0.6090311E-013  0.5052885E+02  0.7816164E-02  0.1300439E+00
        -11   -1    0    0    0    0  0.00000000000E+00  0.00000000000E+00  0.45593999997E+02  0.45594000000E+02  0.51100000000E-03 0. -1.
         11   -1    0    0    0    0 -0.00000000000E+00 -0.00000000000E+00 -0.45593999997E+02  0.45594000000E+02  0.51100000000E-03 0.  1.
    9900012    2    1    2    0    0  0.40601834352E+02  0.16356362303E+01  0.14079846546E+01  0.50528847532E+02  0.29999962559E+02 0.  0.
        -12    1    1    2    0    0 -0.40601834352E+02 -0.16356362303E+01 -0.14079846546E+01  0.40659152468E+02  0.00000000000E+00 0.  1.
         11    1    3    3    0    0  0.10016512538E+02  0.40825239993E+01 -0.45266901446E+01  0.11725546877E+02  0.51100000000E-03 0. -1.
        -11    1    3    3    0    0  0.11343102284E+02  0.94409919671E+01  0.66198346779E+01  0.16174687329E+02  0.51100000000E-03 0.  1.
         12    1    3    3    0    0  0.19242219529E+02 -0.11887879736E+02 -0.68515987873E+00  0.22628613327E+02  0.00000000000E+00 0. -1.
</event>
<event>
 7    1  0.6090311E-013  0.5052886E+02  0.7816164E-02  0.1300439E+00
        -11   -1    0    0    0    0  0.00000000000E+00  0.00000000000E+00  0.45593999997E+02  0.45594000000E+02  0.51100000000E-03 0. -1.
         11   -1    0    0    0    0 -0.00000000000E+00 -0.00000000000E+00 -0.45593999997E+02  0.45594000000E+02  0.51100000000E-03 0.  1.
    9900012    2    1    2    0    0 -0.34623990442E+02  0.20801283523E+02 -0.46530850467E+01  0.50528864363E+02  0.30000013717E+02 0.  0.
        -12    1    1    2    0    0  0.34623990442E+02 -0.20801283523E+02  0.46530850467E+01  0.40659135637E+02  0.00000000000E+00 0.  1.
         11    1    3    3    0    0  0.13143972976E+01  0.81776486280E+01 -0.35315754398E+01  0.90040881097E+01  0.51100000000E-03 0. -1.
        -11    1    3    3    0    0 -0.65147809519E+00  0.16255541676E+01 -0.40854954792E+01  0.44450110947E+01  0.51100000000E-03 0.  1.
         12    1    3    3    0    0 -0.35286909644E+02  0.10998080728E+02  0.29639858723E+01  0.37079765158E+02  0.00000000000E+00 0. -1.
</event>
<event>
 7    1  0.6090311E-013  0.5052886E+02  0.7816164E-02  0.1300439E+00
        -11   -1    0    0    0    0  0.00000000000E+00  0.00000000000E+00  0.45593999997E+02  0.45594000000E+02  0.51100000000E-03 0.  1.
         11   -1    0    0    0    0 -0.00000000000E+00 -0.00000000000E+00 -0.45593999997E+02  0.45594000000E+02  0.51100000000E-03 0. -1.
    9900012    2    1    2    0    0  0.84340661879E+01 -0.38115443903E+02  0.11368619541E+02  0.50528855314E+02  0.29999986211E+02 0.  0.
        -12    1    1    2    0    0 -0.84340661879E+01  0.38115443903E+02 -0.11368619541E+02  0.40659144686E+02  0.00000000000E+00 0.  1.
         11    1    3    3    0    0  0.15335714125E+02 -0.19072054099E+02  0.15084436110E+02  0.28748349314E+02  0.51100000000E-03 0. -1.
        -11    1    3    3    0    0 -0.40687787442E+01 -0.44350662616E+01  0.11441979426E+01  0.61264967483E+01  0.51100000000E-03 0.  1.
        -12    1    3    3    0    0 -0.28328691928E+01 -0.14608323542E+02 -0.48600145118E+01  0.15654009251E+02  0.00000000000E+00 0.  1.
</event>
<event>
 7    1  0.6090311E-013  0.5052886E+02  0.7816164E-02  0.1300439E+00
        -11   -1    0    0    0    0  0.00000000000E+00  0.00000000000E+00  0.45593999997E+02  0.45594000000E+02  0.51100000000E-03 0. -1.
         11   -1    0    0    0    0 -0.00000000000E+00 -0.00000000000E+00 -0.45593999997E+02  0.45594000000E+02  0.51100000000E-03 0.  1.
    9900012    2    1    2    0    0 -0.82480777141E+01  0.39810216511E+02  0.53079675446E+00  0.50528857488E+02  0.29999992820E+02 0.  0.
        -12    1    1    2    0    0  0.82480777141E+01 -0.39810216511E+02 -0.53079675446E+00  0.40659142512E+02  0.00000000000E+00 0.  1.
         11    1    3    3    0    0  0.53258860275E+01  0.22531227377E+02 -0.52704407889E+01  0.23744448097E+02  0.51100000000E-03 0.  1.
        -11    1    3    3    0    0 -0.21027080533E+01 -0.11341653100E+01  0.44469530276E+01  0.50480791989E+01  0.51100000000E-03 0. -1.
        -12    1    3    3    0    0 -0.11471255688E+02  0.18413154444E+02  0.13542845158E+01  0.21736330192E+02  0.00000000000E+00 0.  1.
</event>
<event>
 7    1  0.6090311E-013  0.5052886E+02  0.7816164E-02  0.1300439E+00
        -11   -1    0    0    0    0  0.00000000000E+00  0.00000000000E+00  0.45593999997E+02  0.45594000000E+02  0.51100000000E-03 0.  1.
         11   -1    0    0    0    0 -0.00000000000E+00 -0.00000000000E+00 -0.45593999997E+02  0.45594000000E+02  0.51100000000E-03 0. -1.
    9900012    2    1    2    0    0  0.14894496084E+02  0.29290669356E+02 -0.23945271118E+02  0.50528864079E+02  0.30000012856E+02 0.  0.
        -12    1    1    2    0    0 -0.14894496084E+02 -0.29290669356E+02  0.23945271118E+02  0.40659135921E+02  0.00000000000E+00 0.  1.
         11    1    3    3    0    0  0.17169972040E+02  0.15447156316E+02 -0.88986318242E+01  0.24750923755E+02  0.51100000000E-03 0. -1.
        -11    1    3    3    0    0  0.66641679974E+01  0.48518285318E+01 -0.55773225165E+01  0.99527836264E+01  0.51100000000E-03 0.  1.
         12    1    3    3    0    0 -0.89396439536E+01  0.89916845080E+01 -0.94693167770E+01  0.15825156698E+02  0.00000000000E+00 0. -1.
</event>
<event>
 7    1  0.6090311E-013  0.5052881E+02  0.7816164E-02  0.1300439E+00
        -11   -1    0    0    0    0  0.00000000000E+00  0.00000000000E+00  0.45593999997E+02  0.45594000000E+02  0.51100000000E-03 0.  1.
         11   -1    0    0    0    0 -0.00000000000E+00 -0.00000000000E+00 -0.45593999997E+02  0.45594000000E+02  0.51100000000E-03 0. -1.
    9900012    2    1    2    0    0 -0.11368956265E+02 -0.15636886690E+02 -0.35768756609E+02  0.50528814798E+02  0.29999863061E+02 0.  0.
        -12    1    1    2    0    0  0.11368956265E+02  0.15636886690E+02  0.35768756609E+02  0.40659185202E+02  0.00000000000E+00 0.  1.
         11    1    3    3    0    0 -0.57142028450E+00 -0.71801900193E+01 -0.82206119280E+01  0.10929780903E+02  0.51100000000E-03 0. -1.
        -11    1    3    3    0    0 -0.25048963083E+01 -0.44866426718E+01 -0.29712646416E+02  0.30153703343E+02  0.51100000000E-03 0.  1.
        -12    1    3    3    0    0 -0.82926396720E+01 -0.39700539989E+01  0.21645017350E+01  0.94453305525E+01  0.00000000000E+00 0.  1.
</event>
<event>
 7    1  0.6090311E-013  0.5052885E+02  0.7816164E-02  0.1300439E+00
        -11   -1    0    0    0    0  0.00000000000E+00  0.00000000000E+00  0.45593999997E+02  0.45594000000E+02  0.51100000000E-03 0.  1.
         11   -1    0    0    0    0 -0.00000000000E+00 -0.00000000000E+00 -0.45593999997E+02  0.45594000000E+02  0.51100000000E-03 0. -1.
    9900012    2    1    2    0    0 -0.87295879343E+01 -0.38116134445E+02 -0.11140966901E+02  0.50528849074E+02  0.29999967244E+02 0.  0.
        -12    1    1    2    0    0  0.87295879343E+01  0.38116134445E+02  0.11140966901E+02  0.40659150926E+02  0.00000000000E+00 0.  1.
         11    1    3    3    0    0 -0.67893119178E+01 -0.33095368463E+01 -0.13404293447E+02  0.15385801036E+02  0.51100000000E-03 0. -1.
        -11    1    3    3    0    0 -0.20667450651E+01 -0.83586771472E+01  0.94315957036E+00  0.86618975434E+01  0.51100000000E-03 0.  1.
        -12    1    3    3    0    0  0.12646904855E+00 -0.26447920452E+02  0.13201669754E+01  0.26481150494E+02  0.00000000000E+00 0.  1.
</event>
<event>
 7    1  0.6090311E-013  0.5052885E+02  0.7816164E-02  0.1300439E+00
        -11   -1    0    0    0    0  0.00000000000E+00  0.00000000000E+00  0.45593999997E+02  0.45594000000E+02  0.51100000000E-03 0.  1.
         11   -1    0    0    0    0 -0.00000000000E+00 -0.00000000000E+00 -0.45593999997E+02  0.45594000000E+02  0.51100000000E-03 0. -1.
    9900012    2    1    2    0    0 -0.13323321820E+02 -0.36149295038E+02  0.12995540416E+02  0.50528849655E+02  0.29999969010E+02 0.  0.
        -12    1    1    2    0    0  0.13323321820E+02  0.36149295038E+02 -0.12995540416E+02  0.40659150345E+02  0.00000000000E+00 0.  1.
         11    1    3    3    0    0  0.61376014431E+01 -0.13577420253E+02  0.78053815067E+01  0.16820834490E+02  0.51100000000E-03 0. -1.
        -11    1    3    3    0    0 -0.46039588704E+01 -0.54677135087E+01 -0.51442570103E+01  0.88065719064E+01  0.51100000000E-03 0.  1.
        -12    1    3    3    0    0 -0.14856964393E+02 -0.17104161276E+02  0.10334415920E+02  0.24901443258E+02  0.00000000000E+00 0.  1.
</event>
<event>
 7    1  0.6090311E-013  0.5052895E+02  0.7816164E-02  0.1300438E+00
        -11   -1    0    0    0    0  0.00000000000E+00  0.00000000000E+00  0.45593999997E+02  0.45594000000E+02  0.51100000000E-03 0.  1.
         11   -1    0    0    0    0 -0.00000000000E+00 -0.00000000000E+00 -0.45593999997E+02  0.45594000000E+02  0.51100000000E-03 0. -1.
    9900012    2    1    2    0    0  0.49745643806E+01  0.39550945059E+02 -0.80084226508E+01  0.50528949603E+02  0.30000272813E+02 0.  0.
        -12    1    1    2    0    0 -0.49745643806E+01 -0.39550945059E+02  0.80084226508E+01  0.40659050397E+02  0.00000000000E+00 0.  1.
         11    1    3    3    0    0 -0.31973779024E+01  0.78984579449E+01  0.24538783549E+01  0.88673774365E+01  0.51100000000E-03 0. -1.
        -11    1    3    3    0    0 -0.71060179470E+01  0.14267004106E+02 -0.93750704012E+01  0.18491480269E+02  0.51100000000E-03 0.  1.
         12    1    3    3    0    0  0.15277960230E+02  0.17385483007E+02 -0.10872306044E+01  0.23170091898E+02  0.00000000000E+00 0. -1.
</event>
<event>
 7    1  0.6090311E-013  0.5052886E+02  0.7816164E-02  0.1300439E+00
        -11   -1    0    0    0    0  0.00000000000E+00  0.00000000000E+00  0.45593999997E+02  0.45594000000E+02  0.51100000000E-03 0. -1.
         11   -1    0    0    0    0 -0.00000000000E+00 -0.00000000000E+00 -0.45593999997E+02  0.45594000000E+02  0.51100000000E-03 0.  1.
    9900012    2    1    2    0    0  0.27207848005E+02  0.18899745612E+00 -0.30213625208E+02  0.50528857592E+02  0.29999993137E+02 0.  0.
        -12    1    1    2    0    0 -0.27207848005E+02 -0.18899745612E+00  0.30213625208E+02  0.40659142408E+02  0.00000000000E+00 0.  1.
         11    1    3    3    0    0  0.17224944207E+02 -0.31504226497E+01 -0.14455808140E+02  0.22706700664E+02  0.51100000000E-03 0. -1.
        -11    1    3    3    0    0  0.12973975629E+02  0.11540155615E+01 -0.18907511007E+02  0.22959742339E+02  0.51100000000E-03 0.  1.
         12    1    3    3    0    0 -0.29910718307E+01  0.21854045443E+01  0.31496939393E+01  0.48624145885E+01  0.00000000000E+00 0. -1.
</event>
<event>
 7    1  0.6090311E-013  0.5052886E+02  0.7816164E-02  0.1300439E+00
        -11   -1    0    0    0    0  0.00000000000E+00  0.00000000000E+00  0.45593999997E+02  0.45594000000E+02  0.51100000000E-03 0.  1.
         11   -1    0    0    0    0 -0.00000000000E+00 -0.00000000000E+00 -0.45593999997E+02  0.45594000000E+02  0.51100000000E-03 0. -1.
    9900012    2    1    2    0    0  0.69327324939E+01 -0.28080565109E+01 -0.39965207239E+02  0.50528858951E+02  0.29999997268E+02 0.  0.
        -12    1    1    2    0    0 -0.69327324939E+01  0.28080565109E+01  0.39965207239E+02  0.40659141049E+02  0.00000000000E+00 0.  1.
         11    1    3    3    0    0 -0.12461904392E+01 -0.83584242890E+01 -0.20980545976E+02  0.22618566641E+02  0.51100000000E-03 0. -1.
        -11    1    3    3    0    0  0.12847121601E+02  0.22840093437E+01 -0.17833832067E+02  0.22097755509E+02  0.51100000000E-03 0.  1.
        -12    1    3    3    0    0 -0.46681986674E+01  0.32663584344E+01 -0.11508291961E+01  0.58125368007E+01  0.00000000000E+00 0.  1.
</event>
<event>
 7    1  0.6090311E-013  0.5052886E+02  0.7816164E-02  0.1300439E+00
        -11   -1    0    0    0    0  0.00000000000E+00  0.00000000000E+00  0.45593999997E+02  0.45594000000E+02  0.51100000000E-03 0.  1.
         11   -1    0    0    0    0 -0.00000000000E+00 -0.00000000000E+00 -0.45593999997E+02  0.45594000000E+02  0.51100000000E-03 0. -1.
    9900012    2    1    2    0    0 -0.37753312251E+02 -0.22898450813E+01 -0.14920100206E+02  0.50528863677E+02  0.30000011633E+02 0.  0.
        -12    1    1    2    0    0  0.37753312251E+02  0.22898450813E+01  0.14920100206E+02  0.40659136323E+02  0.00000000000E+00 0.  1.
         11    1    3    3    0    0 -0.24531289428E+02 -0.91117099155E+01 -0.20049709393E+02  0.32966623509E+02  0.51100000000E-03 0. -1.
        -11    1    3    3    0    0 -0.55138743847E+01 -0.98541339035E+00  0.40177636981E+00  0.56156277292E+01  0.51100000000E-03 0.  1.
        -12    1    3    3    0    0 -0.77081484383E+01  0.78072782245E+01  0.47278328176E+01  0.11946612439E+02  0.00000000000E+00 0.  1.
</event>
<event>
 7    1  0.6090311E-013  0.5052886E+02  0.7816164E-02  0.1300439E+00
        -11   -1    0    0    0    0  0.00000000000E+00  0.00000000000E+00  0.45593999997E+02  0.45594000000E+02  0.51100000000E-03 0. -1.
         11   -1    0    0    0    0 -0.00000000000E+00 -0.00000000000E+00 -0.45593999997E+02  0.45594000000E+02  0.51100000000E-03 0.  1.
    9900012    2    1    2    0    0 -0.39615118599E+02  0.89340844137E+01 -0.19975730357E+01  0.50528858544E+02  0.29999996029E+02 0.  0.
        -12    1    1    2    0    0  0.39615118599E+02 -0.89340844137E+01  0.19975730357E+01  0.40659141456E+02  0.00000000000E+00 0.  1.
         11    1    3    3    0    0 -0.12662901179E+02  0.46689749318E+01  0.42556642994E+01  0.14151292241E+02  0.51100000000E-03 0. -1.
        -11    1    3    3    0    0 -0.71270200270E+01  0.43784908013E+01  0.83001602035E+01  0.11783813297E+02  0.51100000000E-03 0.  1.
         12    1    3    3    0    0 -0.19825197393E+02 -0.11338131942E+00 -0.14553397539E+02  0.24593753006E+02  0.00000000000E+00 0. -1.
</event>
<event>
 7    1  0.6090311E-013  0.5052886E+02  0.7816164E-02  0.1300439E+00
        -11   -1    0    0    0    0  0.00000000000E+00  0.00000000000E+00  0.45593999997E+02  0.45594000000E+02  0.51100000000E-03 0.  1.
         11   -1    0    0    0    0 -0.00000000000E+00 -0.00000000000E+00 -0.45593999997E+02  0.45594000000E+02  0.51100000000E-03 0. -1.
    9900012    2    1    2    0    0 -0.22005681270E+01  0.36603056557E+02 -0.17565292644E+02  0.50528858899E+02  0.29999997109E+02 0.  0.
        -12    1    1    2    0    0  0.22005681270E+01 -0.36603056557E+02  0.17565292644E+02  0.40659141101E+02  0.00000000000E+00 0.  1.
         11    1    3    3    0    0 -0.23763065665E+00  0.71969040508E+01 -0.47526856901E+01  0.86278570790E+01  0.51100000000E-03 0. -1.
        -11    1    3    3    0    0  0.73955433022E+01  0.29368193796E+02 -0.77504158755E+01  0.31261059069E+02  0.51100000000E-03 0.  1.
         12    1    3    3    0    0 -0.93584807725E+01  0.37958710175E-01 -0.50621910786E+01  0.10639942751E+02  0.00000000000E+00 0. -1.
</event>
<event>
 7    1  0.6090311E-013  0.5052885E+02  0.7816164E-02  0.1300439E+00
        -11   -1    0    0    0    0  0.00000000000E+00  0.00000000000E+00  0.45593999997E+02  0.45594000000E+02  0.51100000000E-03 0. -1.
         11   -1    0    0    0    0 -0.00000000000E+00 -0.00000000000E+00 -0.45593999997E+02  0.45594000000E+02  0.51100000000E-03 0.  1.
    9900012    2    1    2    0    0  0.30438841639E+02 -0.14907506459E+02  0.22459070394E+02  0.50528847622E+02  0.29999962830E+02 0.  0.
        -12    1    1    2    0    0 -0.30438841639E+02  0.14907506459E+02 -0.22459070394E+02  0.40659152378E+02  0.00000000000E+00 0.  1.
         11    1    3    3    0    0  0.52773768340E+01  0.12661183290E+01 -0.40829894966E+01  0.67915068550E+01  0.51100000000E-03 0. -1.
        -11    1    3    3    0    0  0.42970246753E+01  0.38979128380E+01  0.48274545324E+01  0.75473480824E+01  0.51100000000E-03 0.  1.
         12    1    3    3    0    0  0.20864440130E+02 -0.20071537626E+02  0.21714605359E+02  0.36189992684E+02  0.00000000000E+00 0. -1.
</event>
<event>
 7    1  0.6090311E-013  0.5052887E+02  0.7816164E-02  0.1300439E+00
        -11   -1    0    0    0    0  0.00000000000E+00  0.00000000000E+00  0.45593999997E+02  0.45594000000E+02  0.51100000000E-03 0.  1.
         11   -1    0    0    0    0 -0.00000000000E+00 -0.00000000000E+00 -0.45593999997E+02  0.45594000000E+02  0.51100000000E-03 0. -1.
    9900012    2    1    2    0    0  0.23397281295E+02  0.29192797073E+02 -0.15922093122E+02  0.50528865451E+02  0.30000017024E+02 0.  0.
        -12    1    1    2    0    0 -0.23397281295E+02 -0.29192797073E+02  0.15922093122E+02  0.40659134549E+02  0.00000000000E+00 0.  1.
         11    1    3    3    0    0  0.14904895305E+02  0.41957610287E+01 -0.78380700609E+01  0.17354989404E+02  0.51100000000E-03 0. -1.
        -11    1    3    3    0    0  0.12567314405E+02  0.15540196145E+02 -0.10529666017E+02  0.22590018908E+02  0.51100000000E-03 0.  1.
        -12    1    3    3    0    0 -0.40749284150E+01  0.94568398989E+01  0.24456429561E+01  0.10583857139E+02  0.00000000000E+00 0.  1.
</event>
<event>
 7    1  0.6090311E-013  0.5052889E+02  0.7816164E-02  0.1300439E+00
        -11   -1    0    0    0    0  0.00000000000E+00  0.00000000000E+00  0.45593999997E+02  0.45594000000E+02  0.51100000000E-03 0.  1.
         11   -1    0    0    0    0 -0.00000000000E+00 -0.00000000000E+00 -0.45593999997E+02  0.45594000000E+02  0.51100000000E-03 0. -1.
    9900012    2    1    2    0    0  0.16161401442E+02  0.16011755322E+01 -0.37274775920E+02  0.50528885652E+02  0.30000078429E+02 0.  0.
        -12    1    1    2    0    0 -0.16161401442E+02 -0.16011755322E+01  0.37274775920E+02  0.40659114348E+02  0.00000000000E+00 0.  1.
         11    1    3    3    0    0 -0.29428758472E+01 -0.57210566743E+01 -0.15822006098E+02  0.17080014197E+02  0.51100000000E-03 0. -1.
        -11    1    3    3    0    0  0.15213285068E+02  0.67799209369E+01 -0.23666229021E+02  0.28939622782E+02  0.51100000000E-03 0.  1.
         12    1    3    3    0    0  0.38909922209E+01  0.54231126962E+00  0.22134591988E+01  0.45092486736E+01  0.00000000000E+00 0. -1.
</event>
<event>
 7    1  0.6090311E-013  0.5052885E+02  0.7816164E-02  0.1300439E+00
        -11   -1    0    0    0    0  0.00000000000E+00  0.00000000000E+00  0.45593999997E+02  0.45594000000E+02  0.51100000000E-03 0. -1.
         11   -1    0    0    0    0 -0.00000000000E+00 -0.00000000000E+00 -0.45593999997E+02  0.45594000000E+02  0.51100000000E-03 0.  1.
    9900012    2    1    2    0    0 -0.21979190280E+02  0.20508590608E+02  0.27376624969E+02  0.50528847417E+02  0.29999962207E+02 0.  0.
        -12    1    1    2    0    0  0.21979190280E+02 -0.20508590608E+02 -0.27376624969E+02  0.40659152583E+02  0.00000000000E+00 0.  1.
         11    1    3    3    0    0  0.72818220237E+00  0.35028591708E+01  0.11601326849E+02  0.12140471845E+02  0.51100000000E-03 0. -1.
        -11    1    3    3    0    0 -0.61314817642E+01 -0.21159059225E+01  0.10799636620E+02  0.12597788611E+02  0.51100000000E-03 0.  1.
         12    1    3    3    0    0 -0.16575890719E+02  0.19121637359E+02  0.49756615000E+01  0.25790586961E+02  0.00000000000E+00 0. -1.
</event>
<event>
 7    1  0.6090311E-013  0.5052886E+02  0.7816164E-02  0.1300439E+00
        -11   -1    0    0    0    0  0.00000000000E+00  0.00000000000E+00  0.45593999997E+02  0.45594000000E+02  0.51100000000E-03 0.  1.
         11   -1    0    0    0    0 -0.00000000000E+00 -0.00000000000E+00 -0.45593999997E+02  0.45594000000E+02  0.51100000000E-03 0. -1.
    9900012    2    1    2    0    0 -0.15623744609E+02  0.14032058455E+02 -0.34816172632E+02  0.50528856664E+02  0.29999990315E+02 0.  0.
        -12    1    1    2    0    0  0.15623744609E+02 -0.14032058455E+02  0.34816172632E+02  0.40659143336E+02  0.00000000000E+00 0.  1.
         11    1    3    3    0    0 -0.15334816078E+02  0.50227042999E+01 -0.16282179462E+02  0.22923645236E+02  0.51100000000E-03 0. -1.
        -11    1    3    3    0    0 -0.81909577404E+01  0.86358172599E+01 -0.14390234816E+02  0.18674795495E+02  0.51100000000E-03 0.  1.
        -12    1    3    3    0    0  0.79020292091E+01  0.37353689540E+00 -0.41437583539E+01  0.89304159326E+01  0.00000000000E+00 0.  1.
</event>
<event>
 7    1  0.6090311E-013  0.5052886E+02  0.7816164E-02  0.1300439E+00
        -11   -1    0    0    0    0  0.00000000000E+00  0.00000000000E+00  0.45593999997E+02  0.45594000000E+02  0.51100000000E-03 0. -1.
         11   -1    0    0    0    0 -0.00000000000E+00 -0.00000000000E+00 -0.45593999997E+02  0.45594000000E+02  0.51100000000E-03 0.  1.
    9900012    2    1    2    0    0  0.14272625811E+02 -0.10500030965E+02  0.36595181221E+02  0.50528858513E+02  0.29999995938E+02 0.  0.
        -12    1    1    2    0    0 -0.14272625811E+02  0.10500030965E+02 -0.36595181221E+02  0.40659141487E+02  0.00000000000E+00 0.  1.
         11    1    3    3    0    0  0.12095616171E+00 -0.67411044609E+00 -0.66857585451E+00  0.95710460293E+00  0.51100000000E-03 0.  1.
        -11    1    3    3    0    0 -0.58534812059E+01 -0.56275110863E+01  0.23668381870E+02  0.25022478371E+02  0.51100000000E-03 0. -1.
         12    1    3    3    0    0  0.20005150855E+02 -0.41984094325E+01  0.13595375206E+02  0.24549275539E+02  0.00000000000E+00 0. -1.
</event>
<event>
 7    1  0.6090311E-013  0.5052886E+02  0.7816164E-02  0.1300439E+00
        -11   -1    0    0    0    0  0.00000000000E+00  0.00000000000E+00  0.45593999997E+02  0.45594000000E+02  0.51100000000E-03 0. -1.
         11   -1    0    0    0    0 -0.00000000000E+00 -0.00000000000E+00 -0.45593999997E+02  0.45594000000E+02  0.51100000000E-03 0.  1.
    9900012    2    1    2    0    0 -0.28856675382E+02  0.18223761741E+02  0.22098693255E+02  0.50528862655E+02  0.30000008525E+02 0.  0.
        -12    1    1    2    0    0  0.28856675382E+02 -0.18223761741E+02 -0.22098693255E+02  0.40659137345E+02  0.00000000000E+00 0.  1.
         11    1    3    3    0    0 -0.12515324501E+02  0.14231241891E+02  0.17071331874E+02  0.25506704321E+02  0.51100000000E-03 0. -1.
        -11    1    3    3    0    0 -0.13867728061E+02  0.10197658994E+02  0.60880980057E+01  0.18258451964E+02  0.51100000000E-03 0.  1.
        -12    1    3    3    0    0 -0.24736228209E+01 -0.62051391444E+01 -0.10607366251E+01  0.67637063692E+01  0.00000000000E+00 0.  1.
</event>
<event>
 7    1  0.6090311E-013  0.5052888E+02  0.7816164E-02  0.1300439E+00
        -11   -1    0    0    0    0  0.00000000000E+00  0.00000000000E+00  0.45593999997E+02  0.45594000000E+02  0.51100000000E-03 0.  1.
         11   -1    0    0    0    0 -0.00000000000E+00 -0.00000000000E+00 -0.45593999997E+02  0.45594000000E+02  0.51100000000E-03 0. -1.
    9900012    2    1    2    0    0 -0.29838673024E+02  0.12190743086E+02 -0.24783124999E+02  0.50528881594E+02  0.30000066092E+02 0.  0.
        -12    1    1    2    0    0  0.29838673024E+02 -0.12190743086E+02  0.24783124999E+02  0.40659118406E+02  0.00000000000E+00 0.  1.
         11    1    3    3    0    0  0.31155938855E+01 -0.16977343745E+01 -0.13374796625E+01  0.37918437961E+01  0.51100000000E-03 0. -1.
        -11    1    3    3    0    0 -0.14225903631E+01 -0.13424563113E+01 -0.83988370416E+01  0.86235964772E+01  0.51100000000E-03 0.  1.
         12    1    3    3    0    0 -0.31531676547E+02  0.15230933772E+02 -0.15046808295E+02  0.38113441320E+02  0.00000000000E+00 0. -1.
</event>
<event>
 7    1  0.6090311E-013  0.5052886E+02  0.7816164E-02  0.1300439E+00
        -11   -1    0    0    0    0  0.00000000000E+00  0.00000000000E+00  0.45593999997E+02  0.45594000000E+02  0.51100000000E-03 0.  1.
         11   -1    0    0    0    0 -0.00000000000E+00 -0.00000000000E+00 -0.45593999997E+02  0.45594000000E+02  0.51100000000E-03 0. -1.
    9900012    2    1    2    0    0  0.94218368866E+01 -0.28392870853E+02 -0.27536143089E+02  0.50528864473E+02  0.30000014052E+02 0.  0.
        -12    1    1    2    0    0 -0.94218368866E+01  0.28392870853E+02  0.27536143089E+02  0.40659135527E+02  0.00000000000E+00 0.  1.
         11    1    3    3    0    0 -0.43044916134E+01 -0.49744607664E+01 -0.96341726398E+01  0.11665812903E+02  0.51100000000E-03 0. -1.
        -11    1    3    3    0    0  0.51833043838E+01 -0.10099234790E+02 -0.19903843716E+02  0.22913406177E+02  0.51100000000E-03 0.  1.
        -12    1    3    3    0    0  0.85430241162E+01 -0.13319175296E+02  0.20018732664E+01  0.15949645394E+02  0.00000000000E+00 0.  1.
</event>
<event>
 7    1  0.6090311E-013  0.5052885E+02  0.7816164E-02  0.1300439E+00
        -11   -1    0    0    0    0  0.00000000000E+00  0.00000000000E+00  0.45593999997E+02  0.45594000000E+02  0.51100000000E-03 0. -1.
         11   -1    0    0    0    0 -0.00000000000E+00 -0.00000000000E+00 -0.45593999997E+02  0.45594000000E+02  0.51100000000E-03 0.  1.
    9900012    2    1    2    0    0  0.30871183840E+02 -0.50539296120E+01  0.25972960300E+02  0.50528845275E+02  0.29999955699E+02 0.  0.
        -12    1    1    2    0    0 -0.30871183840E+02  0.50539296120E+01 -0.25972960300E+02  0.40659154725E+02  0.00000000000E+00 0.  1.
         11    1    3    3    0    0  0.72822907657E+01  0.84226491810E+01  0.82022490806E+01  0.13829304692E+02  0.51100000000E-03 0. -1.
        -11    1    3    3    0    0  0.39259832631E+01  0.26384312829E+01  0.83319520858E+01  0.95810276087E+01  0.51100000000E-03 0.  1.
        -12    1    3    3    0    0  0.19662909811E+02 -0.16115010076E+02  0.94387591334E+01  0.27118512975E+02  0.00000000000E+00 0.  1.
</event>
<event>
 7    1  0.6090311E-013  0.5052885E+02  0.7816164E-02  0.1300439E+00
        -11   -1    0    0    0    0  0.00000000000E+00  0.00000000000E+00  0.45593999997E+02  0.45594000000E+02  0.51100000000E-03 0. -1.
         11   -1    0    0    0    0 -0.00000000000E+00 -0.00000000000E+00 -0.45593999997E+02  0.45594000000E+02  0.51100000000E-03 0.  1.
    9900012    2    1    2    0    0  0.31405277902E+02 -0.25246566637E+02  0.54300828701E+01  0.50528850881E+02  0.29999972739E+02 0.  0.
        -12    1    1    2    0    0 -0.31405277902E+02  0.25246566637E+02 -0.54300828701E+01  0.40659149119E+02  0.00000000000E+00 0.  1.
         11    1    3    3    0    0  0.20772744424E+02 -0.19868763197E+02  0.13659462755E+02  0.31825392141E+02  0.51100000000E-03 0. -1.
        -11    1    3    3    0    0  0.25278007723E+01 -0.41579637664E+01  0.22818628254E+01  0.53745081303E+01  0.51100000000E-03 0.  1.
         12    1    3    3    0    0  0.81047327058E+01 -0.12198396733E+01 -0.10511242710E+02  0.13328950610E+02  0.00000000000E+00 0. -1.
</event>
<event>
 7    1  0.6090311E-013  0.5052886E+02  0.7816164E-02  0.1300439E+00
        -11   -1    0    0    0    0  0.00000000000E+00  0.00000000000E+00  0.45593999997E+02  0.45594000000E+02  0.51100000000E-03 0. -1.
         11   -1    0    0    0    0 -0.00000000000E+00 -0.00000000000E+00 -0.45593999997E+02  0.45594000000E+02  0.51100000000E-03 0.  1.
    9900012    2    1    2    0    0 -0.37301839177E+02 -0.15092130725E+02  0.58280248027E+01  0.50528862172E+02  0.30000007059E+02 0.  0.
        -12    1    1    2    0    0  0.37301839177E+02  0.15092130725E+02 -0.58280248027E+01  0.40659137828E+02  0.00000000000E+00 0.  1.
         11    1    3    3    0    0 -0.35217326460E+00 -0.17979804865E+01  0.28524771959E+01  0.33901897074E+01  0.51100000000E-03 0.  1.
        -11    1    3    3    0    0 -0.85390524590E+01  0.28685473579E+01  0.10257128621E+02  0.13651105034E+02  0.51100000000E-03 0. -1.
        -12    1    3    3    0    0 -0.28410613453E+02 -0.16162697597E+02 -0.72815810141E+01  0.33487567431E+02  0.00000000000E+00 0.  1.
</event>
<event>
 7    1  0.6090311E-013  0.5052886E+02  0.7816164E-02  0.1300439E+00
        -11   -1    0    0    0    0  0.00000000000E+00  0.00000000000E+00  0.45593999997E+02  0.45594000000E+02  0.51100000000E-03 0.  1.
         11   -1    0    0    0    0 -0.00000000000E+00 -0.00000000000E+00 -0.45593999997E+02  0.45594000000E+02  0.51100000000E-03 0. -1.
    9900012    2    1    2    0    0  0.88220275635E+01 -0.38775988700E+02 -0.84711485731E+01  0.50528858000E+02  0.29999994378E+02 0.  0.
        -12    1    1    2    0    0 -0.88220275635E+01  0.38775988700E+02  0.84711485731E+01  0.40659142000E+02  0.00000000000E+00 0.  1.
         11    1    3    3    0    0  0.26880978274E+01 -0.16001545341E+01 -0.40833510748E-01  0.31285830818E+01  0.51100000000E-03 0. -1.
        -11    1    3    3    0    0  0.43017217883E+01  0.29196239525E+01  0.25464432283E+01  0.57890748608E+01  0.51100000000E-03 0.  1.
         12    1    3    3    0    0  0.18322079478E+01 -0.40095458118E+02 -0.10976758291E+02  0.41611200058E+02  0.00000000000E+00 0. -1.
</event>
<event>
 7    1  0.6090311E-013  0.5052886E+02  0.7816164E-02  0.1300439E+00
        -11   -1    0    0    0    0  0.00000000000E+00  0.00000000000E+00  0.45593999997E+02  0.45594000000E+02  0.51100000000E-03 0.  1.
         11   -1    0    0    0    0 -0.00000000000E+00 -0.00000000000E+00 -0.45593999997E+02  0.45594000000E+02  0.51100000000E-03 0. -1.
    9900012    2    1    2    0    0 -0.20605274137E+02  0.24107766190E+02 -0.25444127237E+02  0.50528864202E+02  0.30000013229E+02 0.  0.
        -12    1    1    2    0    0  0.20605274137E+02 -0.24107766190E+02  0.25444127237E+02  0.40659135798E+02  0.00000000000E+00 0.  1.
         11    1    3    3    0    0 -0.13597072297E+02 -0.19343655803E+01 -0.22633786382E+01  0.13919232320E+02  0.51100000000E-03 0.  1.
        -11    1    3    3    0    0 -0.80481706935E+01  0.14405908528E+02 -0.15414330658E+02  0.22581072648E+02  0.51100000000E-03 0. -1.
        -12    1    3    3    0    0  0.10399688534E+01  0.11636223242E+02 -0.77664179411E+01  0.14028559235E+02  0.00000000000E+00 0.  1.
</event>
<event>
 7    1  0.6090311E-013  0.5052885E+02  0.7816164E-02  0.1300439E+00
        -11   -1    0    0    0    0  0.00000000000E+00  0.00000000000E+00  0.45593999997E+02  0.45594000000E+02  0.51100000000E-03 0. -1.
         11   -1    0    0    0    0 -0.00000000000E+00 -0.00000000000E+00 -0.45593999997E+02  0.45594000000E+02  0.51100000000E-03 0.  1.
    9900012    2    1    2    0    0 -0.15485081571E+02  0.36339180232E+02  0.96354905211E+01  0.50528850368E+02  0.29999971178E+02 0.  0.
        -12    1    1    2    0    0  0.15485081571E+02 -0.36339180232E+02 -0.96354905211E+01  0.40659149632E+02  0.00000000000E+00 0.  1.
         11    1    3    3    0    0 -0.52806029222E+01  0.11740110640E+02  0.30822147771E+01  0.13236880798E+02  0.51100000000E-03 0. -1.
        -11    1    3    3    0    0 -0.13228238138E+02  0.24256709039E+02  0.12718960021E+02  0.30416215444E+02  0.51100000000E-03 0.  1.
        -12    1    3    3    0    0  0.30237594894E+01  0.34236055291E+00 -0.61656842770E+01  0.68757541260E+01  0.00000000000E+00 0.  1.
</event>
<event>
 7    1  0.6090311E-013  0.5052886E+02  0.7816164E-02  0.1300439E+00
        -11   -1    0    0    0    0  0.00000000000E+00  0.00000000000E+00  0.45593999997E+02  0.45594000000E+02  0.51100000000E-03 0. -1.
         11   -1    0    0    0    0 -0.00000000000E+00 -0.00000000000E+00 -0.45593999997E+02  0.45594000000E+02  0.51100000000E-03 0.  1.
    9900012    2    1    2    0    0 -0.11475577109E+02 -0.10945000786E+02  0.37439067471E+02  0.50528859757E+02  0.29999999718E+02 0.  0.
        -12    1    1    2    0    0  0.11475577109E+02  0.10945000786E+02 -0.37439067471E+02  0.40659140243E+02  0.00000000000E+00 0.  1.
         11    1    3    3    0    0 -0.28467274762E+01 -0.44637037216E+01 -0.96758350778E+00  0.53818887338E+01  0.51100000000E-03 0. -1.
        -11    1    3    3    0    0 -0.11956377656E+02 -0.48860230504E+01  0.95701639089E+01  0.16075329714E+02  0.51100000000E-03 0.  1.
         12    1    3    3    0    0  0.33275280233E+01 -0.15952740138E+01  0.28836487070E+02  0.29071641310E+02  0.00000000000E+00 0. -1.
</event>
<event>
 7    1  0.6090311E-013  0.5052887E+02  0.7816164E-02  0.1300439E+00
        -11   -1    0    0    0    0  0.00000000000E+00  0.00000000000E+00  0.45593999997E+02  0.45594000000E+02  0.51100000000E-03 0.  1.
         11   -1    0    0    0    0 -0.00000000000E+00 -0.00000000000E+00 -0.45593999997E+02  0.45594000000E+02  0.51100000000E-03 0. -1.
    9900012    2    1    2    0    0  0.92836334728E+01 -0.34132763099E+02 -0.20048288110E+02  0.50528865438E+02  0.30000016984E+02 0.  0.
        -12    1    1    2    0    0 -0.92836334728E+01  0.34132763099E+02  0.20048288110E+02  0.40659134562E+02  0.00000000000E+00 0.  1.
         11    1    3    3    0    0  0.11871365253E+02 -0.64348063370E+01 -0.78522871275E+01  0.15620321986E+02  0.51100000000E-03 0.  1.
        -11    1    3    3    0    0  0.48212492588E+01 -0.19433033070E+02 -0.12847822890E+02  0.23789782933E+02  0.51100000000E-03 0. -1.
        -12    1    3    3    0    0 -0.74089810389E+01 -0.82649236919E+01  0.65182190743E+00  0.11118760518E+02  0.00000000000E+00 0.  1.
</event>
<event>
 7    1  0.6090311E-013  0.5052887E+02  0.7816164E-02  0.1300439E+00
        -11   -1    0    0    0    0  0.00000000000E+00  0.00000000000E+00  0.45593999997E+02  0.45594000000E+02  0.51100000000E-03 0.  1.
         11   -1    0    0    0    0 -0.00000000000E+00 -0.00000000000E+00 -0.45593999997E+02  0.45594000000E+02  0.51100000000E-03 0. -1.
    9900012    2    1    2    0    0  0.22593271753E+02  0.20905359717E+02 -0.26564545243E+02  0.50528867479E+02  0.30000023189E+02 0.  0.
        -12    1    1    2    0    0 -0.22593271753E+02 -0.20905359717E+02  0.26564545243E+02  0.40659132521E+02  0.00000000000E+00 0.  1.
         11    1    3    3    0    0  0.24013316914E+02  0.18595919347E+02 -0.16257764151E+02  0.34449419458E+02  0.51100000000E-03 0. -1.
        -11    1    3    3    0    0  0.29457217076E+01  0.55576808393E+01 -0.29996058072E+01  0.69686962876E+01  0.51100000000E-03 0.  1.
        -12    1    3    3    0    0 -0.43657668688E+01 -0.32482404686E+01 -0.73071752848E+01  0.91107517328E+01  0.00000000000E+00 0.  1.
</event>
<event>
 7    1  0.6090311E-013  0.5052887E+02  0.7816164E-02  0.1300439E+00
        -11   -1    0    0    0    0  0.00000000000E+00  0.00000000000E+00  0.45593999997E+02  0.45594000000E+02  0.51100000000E-03 0.  1.
         11   -1    0    0    0    0 -0.00000000000E+00 -0.00000000000E+00 -0.45593999997E+02  0.45594000000E+02  0.51100000000E-03 0. -1.
    9900012    2    1    2    0    0  0.19494751924E+02 -0.34028903790E+02  0.10730960987E+02  0.50528866100E+02  0.30000018999E+02 0.  0.
        -12    1    1    2    0    0 -0.19494751924E+02  0.34028903790E+02 -0.10730960987E+02  0.40659133900E+02  0.00000000000E+00 0.  1.
         11    1    3    3    0    0  0.13179051745E+02 -0.20459928326E+02 -0.18396414761E+01  0.24406563729E+02  0.51100000000E-03 0. -1.
        -11    1    3    3    0    0  0.23862718805E+01 -0.15654837421E+02  0.37958636791E+01  0.16284250351E+02  0.51100000000E-03 0.  1.
        -12    1    3    3    0    0  0.39294282987E+01  0.20858619563E+01  0.87747387835E+01  0.98380520213E+01  0.00000000000E+00 0.  1.
</event>
<event>
 7    1  0.6090311E-013  0.5052886E+02  0.7816164E-02  0.1300439E+00
        -11   -1    0    0    0    0  0.00000000000E+00  0.00000000000E+00  0.45593999997E+02  0.45594000000E+02  0.51100000000E-03 0.  1.
         11   -1    0    0    0    0 -0.00000000000E+00 -0.00000000000E+00 -0.45593999997E+02  0.45594000000E+02  0.51100000000E-03 0. -1.
    9900012    2    1    2    0    0 -0.16948694919E+02  0.19727091415E+02 -0.31252989904E+02  0.50528858678E+02  0.29999996437E+02 0.  0.
        -12    1    1    2    0    0  0.16948694919E+02 -0.19727091415E+02  0.31252989904E+02  0.40659141322E+02  0.00000000000E+00 0.  1.
         11    1    3    3    0    0 -0.13418738524E+02  0.15747333531E+02 -0.21330535749E+02  0.29715868025E+02  0.51100000000E-03 0. -1.
        -11    1    3    3    0    0 -0.71040244244E+01  0.79379386808E+01 -0.11064476975E+02  0.15359058712E+02  0.51100000000E-03 0.  1.
        -12    1    3    3    0    0  0.35740680292E+01 -0.39581807967E+01  0.11420228196E+01  0.54539319410E+01  0.00000000000E+00 0.  1.
</event>
<event>
 7    1  0.6090311E-013  0.5052886E+02  0.7816164E-02  0.1300439E+00
        -11   -1    0    0    0    0  0.00000000000E+00  0.00000000000E+00  0.45593999997E+02  0.45594000000E+02  0.51100000000E-03 0.  1.
         11   -1    0    0    0    0 -0.00000000000E+00 -0.00000000000E+00 -0.45593999997E+02  0.45594000000E+02  0.51100000000E-03 0. -1.
    9900012    2    1    2    0    0  0.39298470606E+02 -0.10177110568E+02  0.22852449187E+01  0.50528859382E+02  0.29999998576E+02 0.  0.
        -12    1    1    2    0    0 -0.39298470606E+02  0.10177110568E+02 -0.22852449187E+01  0.40659140618E+02  0.00000000000E+00 0.  1.
         11    1    3    3    0    0  0.21961364485E+02 -0.46616911996E+01 -0.66991715699E+01  0.23428866700E+02  0.51100000000E-03 0. -1.
        -11    1    3    3    0    0  0.17977013328E+02 -0.46172776429E+01  0.52388733365E+00  0.18567894852E+02  0.51100000000E-03 0.  1.
        -12    1    3    3    0    0 -0.63990720667E+00 -0.89814172500E+00  0.84605291549E+01  0.85320978295E+01  0.00000000000E+00 0.  1.
</event>
<event>
 7    1  0.6090311E-013  0.5052886E+02  0.7816164E-02  0.1300439E+00
        -11   -1    0    0    0    0  0.00000000000E+00  0.00000000000E+00  0.45593999997E+02  0.45594000000E+02  0.51100000000E-03 0. -1.
         11   -1    0    0    0    0 -0.00000000000E+00 -0.00000000000E+00 -0.45593999997E+02  0.45594000000E+02  0.51100000000E-03 0.  1.
    9900012    2    1    2    0    0  0.67028169761E+01  0.20331149006E+02  0.34567065051E+02  0.50528863738E+02  0.30000011818E+02 0.  0.
        -12    1    1    2    0    0 -0.67028169761E+01 -0.20331149006E+02 -0.34567065051E+02  0.40659136262E+02  0.00000000000E+00 0.  1.
         11    1    3    3    0    0  0.25170429332E+01  0.10879592604E+02  0.13369889439E+02  0.17419959364E+02  0.51100000000E-03 0. -1.
        -11    1    3    3    0    0  0.19526863708E+01  0.77957718141E+01 -0.31291082470E+01  0.86242890097E+01  0.51100000000E-03 0.  1.
        -12    1    3    3    0    0  0.22330876722E+01  0.16557845878E+01  0.24326283859E+02  0.24484615364E+02  0.00000000000E+00 0.  1.
</event>
<event>
 7    1  0.6090311E-013  0.5052886E+02  0.7816164E-02  0.1300439E+00
        -11   -1    0    0    0    0  0.00000000000E+00  0.00000000000E+00  0.45593999997E+02  0.45594000000E+02  0.51100000000E-03 0.  1.
         11   -1    0    0    0    0 -0.00000000000E+00 -0.00000000000E+00 -0.45593999997E+02  0.45594000000E+02  0.51100000000E-03 0. -1.
    9900012    2    1    2    0    0  0.55928839576E+01 -0.32194114264E+02 -0.24195544502E+02  0.50528859355E+02  0.29999998496E+02 0.  0.
        -12    1    1    2    0    0 -0.55928839576E+01  0.32194114264E+02  0.24195544502E+02  0.40659140645E+02  0.00000000000E+00 0.  1.
         11    1    3    3    0    0 -0.57751974043E-01 -0.86822008053E+01 -0.11518152550E+02  0.14424000296E+02  0.51100000000E-03 0. -1.
        -11    1    3    3    0    0  0.57642506245E+01 -0.14028990454E+02 -0.19293592672E+02  0.24541431843E+02  0.51100000000E-03 0.  1.
         12    1    3    3    0    0 -0.11361469281E+00 -0.94829230048E+01  0.66162007206E+01  0.11563427216E+02  0.00000000000E+00 0. -1.
</event>
<event>
 7    1  0.6090311E-013  0.5052884E+02  0.7816164E-02  0.1300439E+00
        -11   -1    0    0    0    0  0.00000000000E+00  0.00000000000E+00  0.45593999997E+02  0.45594000000E+02  0.51100000000E-03 0. -1.
         11   -1    0    0    0    0 -0.00000000000E+00 -0.00000000000E+00 -0.45593999997E+02  0.45594000000E+02  0.51100000000E-03 0.  1.
    9900012    2    1    2    0    0 -0.35827790860E+02  0.16918223719E+01  0.19148753370E+02  0.50528836008E+02  0.29999927531E+02 0.  0.
        -12    1    1    2    0    0  0.35827790860E+02 -0.16918223719E+01 -0.19148753370E+02  0.40659163992E+02  0.00000000000E+00 0.  1.
         11    1    3    3    0    0 -0.52298335291E+01 -0.10894569892E+01  0.15748357296E+02  0.16629757456E+02  0.51100000000E-03 0. -1.
        -11    1    3    3    0    0 -0.81138957095E+01 -0.33572838975E+01  0.57156822591E+01  0.10477389117E+02  0.51100000000E-03 0.  1.
        -12    1    3    3    0    0 -0.22484061622E+02  0.61385632586E+01 -0.23152861848E+01  0.23421689435E+02  0.00000000000E+00 0.  1.
</event>
<event>
 7    1  0.6090311E-013  0.5052886E+02  0.7816164E-02  0.1300439E+00
        -11   -1    0    0    0    0  0.00000000000E+00  0.00000000000E+00  0.45593999997E+02  0.45594000000E+02  0.51100000000E-03 0.  1.
         11   -1    0    0    0    0 -0.00000000000E+00 -0.00000000000E+00 -0.45593999997E+02  0.45594000000E+02  0.51100000000E-03 0. -1.
    9900012    2    1    2    0    0 -0.29937328815E+02 -0.85725939198E+01 -0.26142541692E+02  0.50528861922E+02  0.30000006299E+02 0.  0.
        -12    1    1    2    0    0  0.29937328815E+02  0.85725939198E+01  0.26142541692E+02  0.40659138078E+02  0.00000000000E+00 0.  1.
         11    1    3    3    0    0 -0.27628792897E+02 -0.98898619137E+00 -0.12690088567E+02  0.30419839558E+02  0.51100000000E-03 0. -1.
        -11    1    3    3    0    0 -0.72375408050E+01 -0.55887266808E+01 -0.10848654381E+02  0.14188346097E+02  0.51100000000E-03 0.  1.
        -12    1    3    3    0    0  0.49290048869E+01 -0.19948810477E+01 -0.26037987434E+01  0.59206762676E+01  0.00000000000E+00 0.  1.
</event>
<event>
 7    1  0.6090311E-013  0.5052879E+02  0.7816164E-02  0.1300439E+00
        -11   -1    0    0    0    0  0.00000000000E+00  0.00000000000E+00  0.45593999997E+02  0.45594000000E+02  0.51100000000E-03 0. -1.
         11   -1    0    0    0    0 -0.00000000000E+00 -0.00000000000E+00 -0.45593999997E+02  0.45594000000E+02  0.51100000000E-03 0.  1.
    9900012    2    1    2    0    0 -0.24214136940E+02  0.59179861994E+01  0.32122021884E+02  0.50528790978E+02  0.29999790655E+02 0.  0.
        -12    1    1    2    0    0  0.24214136940E+02 -0.59179861994E+01 -0.32122021884E+02  0.40659209022E+02  0.00000000000E+00 0.  1.
         11    1    3    3    0    0 -0.90231259318E+00  0.22330093455E+01  0.49772559101E+01  0.55293377008E+01  0.51100000000E-03 0. -1.
        -11    1    3    3    0    0 -0.48691184821E+01  0.36697404939E+01 -0.50363575863E+01  0.79082367240E+01  0.51100000000E-03 0.  1.
         12    1    3    3    0    0 -0.18442705865E+02  0.15236360022E-01  0.32181123560E+02  0.37091216553E+02  0.00000000000E+00 0. -1.
</event>
<event>
 7    1  0.6090311E-013  0.5052886E+02  0.7816164E-02  0.1300439E+00
        -11   -1    0    0    0    0  0.00000000000E+00  0.00000000000E+00  0.45593999997E+02  0.45594000000E+02  0.51100000000E-03 0. -1.
         11   -1    0    0    0    0 -0.00000000000E+00 -0.00000000000E+00 -0.45593999997E+02  0.45594000000E+02  0.51100000000E-03 0.  1.
    9900012    2    1    2    0    0  0.37769930105E+02 -0.13216102706E+02  0.72064263984E+01  0.50528861146E+02  0.30000003940E+02 0.  0.
        -12    1    1    2    0    0 -0.37769930105E+02  0.13216102706E+02 -0.72064263984E+01  0.40659138854E+02  0.00000000000E+00 0.  1.
         11    1    3    3    0    0  0.17757214718E+02  0.51425344420E+01  0.32783384484E+01  0.18775298620E+02  0.51100000000E-03 0. -1.
        -11    1    3    3    0    0  0.13601810092E+02 -0.36822443051E+01  0.65251375276E+01  0.15528862834E+02  0.51100000000E-03 0.  1.
        -12    1    3    3    0    0  0.64109052952E+01 -0.14676392843E+02 -0.25970495775E+01  0.16224699692E+02  0.00000000000E+00 0.  1.
</event>
<event>
 7    1  0.6090311E-013  0.5052886E+02  0.7816164E-02  0.1300439E+00
        -11   -1    0    0    0    0  0.00000000000E+00  0.00000000000E+00  0.45593999997E+02  0.45594000000E+02  0.51100000000E-03 0.  1.
         11   -1    0    0    0    0 -0.00000000000E+00 -0.00000000000E+00 -0.45593999997E+02  0.45594000000E+02  0.51100000000E-03 0. -1.
    9900012    2    1    2    0    0  0.13276245278E+02 -0.33317640966E+02  0.19153106963E+02  0.50528863333E+02  0.30000010587E+02 0.  0.
        -12    1    1    2    0    0 -0.13276245278E+02  0.33317640966E+02 -0.19153106963E+02  0.40659136667E+02  0.00000000000E+00 0.  1.
         11    1    3    3    0    0  0.43256474981E+01 -0.52938380822E+01  0.15245092638E+02  0.16707746638E+02  0.51100000000E-03 0. -1.
        -11    1    3    3    0    0  0.19663490109E+01  0.19786649546E+01  0.36663808104E+00  0.28135506355E+01  0.51100000000E-03 0.  1.
         12    1    3    3    0    0  0.69842487687E+01 -0.30002467838E+02  0.35413762434E+01  0.31007566059E+02  0.00000000000E+00 0. -1.
</event>
<event>
 7    1  0.6090311E-013  0.5052886E+02  0.7816164E-02  0.1300439E+00
        -11   -1    0    0    0    0  0.00000000000E+00  0.00000000000E+00  0.45593999997E+02  0.45594000000E+02  0.51100000000E-03 0.  1.
         11   -1    0    0    0    0 -0.00000000000E+00 -0.00000000000E+00 -0.45593999997E+02  0.45594000000E+02  0.51100000000E-03 0. -1.
    9900012    2    1    2    0    0 -0.22120690569E+02  0.33947899125E+02 -0.33735531513E+01  0.50528859981E+02  0.30000000398E+02 0.  0.
        -12    1    1    2    0    0  0.22120690569E+02 -0.33947899125E+02  0.33735531513E+01  0.40659140019E+02  0.00000000000E+00 0.  1.
         11    1    3    3    0    0 -0.79331636888E+01  0.13984514313E+02  0.76066284682E+00  0.16095972630E+02  0.51100000000E-03 0. -1.
        -11    1    3    3    0    0 -0.34963915315E-01  0.19806967635E+02 -0.46885818304E+00  0.19812546975E+02  0.51100000000E-03 0.  1.
        -12    1    3    3    0    0 -0.14152562965E+02  0.15641717680E+00 -0.36653578151E+01  0.14620340376E+02  0.00000000000E+00 0.  1.
</event>
<event>
 7    1  0.6090311E-013  0.5052886E+02  0.7816164E-02  0.1300439E+00
        -11   -1    0    0    0    0  0.00000000000E+00  0.00000000000E+00  0.45593999997E+02  0.45594000000E+02  0.51100000000E-03 0.  1.
         11   -1    0    0    0    0 -0.00000000000E+00 -0.00000000000E+00 -0.45593999997E+02  0.45594000000E+02  0.51100000000E-03 0. -1.
    9900012    2    1    2    0    0  0.27927009274E+02 -0.27957899977E+02 -0.95710006396E+01  0.50528855009E+02  0.29999985286E+02 0.  0.
        -12    1    1    2    0    0 -0.27927009274E+02  0.27957899977E+02  0.95710006396E+01  0.40659144991E+02  0.00000000000E+00 0.  1.
         11    1    3    3    0    0  0.15970457338E+02 -0.22442428804E+02 -0.10370688758E+00  0.27545033556E+02  0.51100000000E-03 0. -1.
        -11    1    3    3    0    0  0.15389352276E+02 -0.61400728186E+01 -0.10146803746E+02  0.19429109198E+02  0.51100000000E-03 0.  1.
        -12    1    3    3    0    0 -0.34328003397E+01  0.62460164585E+00  0.67950999417E+00  0.35547122556E+01  0.00000000000E+00 0.  1.
</event>
<event>
 7    1  0.6090311E-013  0.5052885E+02  0.7816164E-02  0.1300439E+00
        -11   -1    0    0    0    0  0.00000000000E+00  0.00000000000E+00  0.45593999997E+02  0.45594000000E+02  0.51100000000E-03 0.  1.
         11   -1    0    0    0    0 -0.00000000000E+00 -0.00000000000E+00 -0.45593999997E+02  0.45594000000E+02  0.51100000000E-03 0. -1.
    9900012    2    1    2    0    0  0.33486242940E+02 -0.98088407705E+01 -0.20871615277E+02  0.50528854070E+02  0.29999982431E+02 0.  0.
        -12    1    1    2    0    0 -0.33486242940E+02  0.98088407705E+01  0.20871615277E+02  0.40659145930E+02  0.00000000000E+00 0.  1.
         11    1    3    3    0    0  0.23950694465E+02  0.36688901219E+01 -0.12544418283E+02  0.27284775066E+02  0.51100000000E-03 0. -1.
        -11    1    3    3    0    0 -0.23057869222E+01  0.22620319706E+00 -0.40009445650E+01  0.46233514781E+01  0.51100000000E-03 0.  1.
        -12    1    3    3    0    0  0.11841335397E+02 -0.13703934089E+02 -0.43262524292E+01  0.18620727526E+02  0.00000000000E+00 0.  1.
</event>
<event>
 7    1  0.6090311E-013  0.5052888E+02  0.7816164E-02  0.1300439E+00
        -11   -1    0    0    0    0  0.00000000000E+00  0.00000000000E+00  0.45593999997E+02  0.45594000000E+02  0.51100000000E-03 0. -1.
         11   -1    0    0    0    0 -0.00000000000E+00 -0.00000000000E+00 -0.45593999997E+02  0.45594000000E+02  0.51100000000E-03 0.  1.
    9900012    2    1    2    0    0  0.93621221755E+01  0.24730974989E+02  0.30885173659E+02  0.50528875471E+02  0.30000047482E+02 0.  0.
        -12    1    1    2    0    0 -0.93621221755E+01 -0.24730974989E+02 -0.30885173659E+02  0.40659124529E+02  0.00000000000E+00 0.  1.
         11    1    3    3    0    0 -0.30058868930E+01 -0.17432344813E+01  0.15118208752E+00  0.34780855013E+01  0.51100000000E-03 0.  1.
        -11    1    3    3    0    0  0.12836935605E+01 -0.34654904333E+01  0.29623202394E+01  0.47363313400E+01  0.51100000000E-03 0. -1.
        -12    1    3    3    0    0  0.11084315508E+02  0.29939699903E+02  0.27771671332E+02  0.42314458630E+02  0.00000000000E+00 0.  1.
</event>
<event>
 7    1  0.6090311E-013  0.5052885E+02  0.7816164E-02  0.1300439E+00
        -11   -1    0    0    0    0  0.00000000000E+00  0.00000000000E+00  0.45593999997E+02  0.45594000000E+02  0.51100000000E-03 0. -1.
         11   -1    0    0    0    0 -0.00000000000E+00 -0.00000000000E+00 -0.45593999997E+02  0.45594000000E+02  0.51100000000E-03 0.  1.
    9900012    2    1    2    0    0  0.44104652813E+01 -0.40157598096E+02  0.45914338109E+01  0.50528854002E+02  0.29999982224E+02 0.  0.
        -12    1    1    2    0    0 -0.44104652813E+01  0.40157598096E+02 -0.45914338109E+01  0.40659145998E+02  0.00000000000E+00 0.  1.
         11    1    3    3    0    0  0.62000989380E+01 -0.34804881555E+01  0.59211875579E+01  0.92528637188E+01  0.51100000000E-03 0.  1.
        -11    1    3    3    0    0 -0.25921997062E+00 -0.37996087249E+02 -0.36822844392E+01  0.38174979505E+02  0.51100000000E-03 0. -1.
         12    1    3    3    0    0 -0.15304136861E+01  0.13189773083E+01  0.23525306922E+01  0.31010107785E+01  0.00000000000E+00 0. -1.
</event>
<event>
 7    1  0.6090311E-013  0.5052883E+02  0.7816164E-02  0.1300439E+00
        -11   -1    0    0    0    0  0.00000000000E+00  0.00000000000E+00  0.45593999997E+02  0.45594000000E+02  0.51100000000E-03 0. -1.
         11   -1    0    0    0    0 -0.00000000000E+00 -0.00000000000E+00 -0.45593999997E+02  0.45594000000E+02  0.51100000000E-03 0.  1.
    9900012    2    1    2    0    0 -0.29162486383E+02  0.17070356729E+02  0.22612394892E+02  0.50528830140E+02  0.29999909694E+02 0.  0.
        -12    1    1    2    0    0  0.29162486383E+02 -0.17070356729E+02 -0.22612394892E+02  0.40659169860E+02  0.00000000000E+00 0.  1.
         11    1    3    3    0    0 -0.11914771035E+02  0.76946943006E+01 -0.40577272919E+01  0.14752465564E+02  0.51100000000E-03 0. -1.
        -11    1    3    3    0    0  0.14822095585E+01  0.24583969996E+01  0.58976978701E+00  0.29306125036E+01  0.51100000000E-03 0.  1.
         12    1    3    3    0    0 -0.18729924907E+02  0.69172654292E+01  0.26080352397E+02  0.32845752072E+02  0.00000000000E+00 0. -1.
</event>
<event>
 7    1  0.6090311E-013  0.5052886E+02  0.7816164E-02  0.1300439E+00
        -11   -1    0    0    0    0  0.00000000000E+00  0.00000000000E+00  0.45593999997E+02  0.45594000000E+02  0.51100000000E-03 0.  1.
         11   -1    0    0    0    0 -0.00000000000E+00 -0.00000000000E+00 -0.45593999997E+02  0.45594000000E+02  0.51100000000E-03 0. -1.
    9900012    2    1    2    0    0  0.17444553978E+02 -0.35772600208E+02  0.83171150912E+01  0.50528858438E+02  0.29999995707E+02 0.  0.
        -12    1    1    2    0    0 -0.17444553978E+02  0.35772600208E+02 -0.83171150912E+01  0.40659141562E+02  0.00000000000E+00 0.  1.
         11    1    3    3    0    0  0.20198373172E+01 -0.51595448514E+01  0.98013324565E+01  0.11259074742E+02  0.51100000000E-03 0. -1.
        -11    1    3    3    0    0  0.57115430110E+01 -0.10295333225E+02  0.86149984126E+01  0.14588824753E+02  0.51100000000E-03 0.  1.
        -12    1    3    3    0    0  0.97131736500E+01 -0.20317722132E+02 -0.10099215778E+02  0.24680958942E+02  0.00000000000E+00 0.  1.
</event>
<event>
 7    1  0.6090311E-013  0.5052886E+02  0.7816164E-02  0.1300439E+00
        -11   -1    0    0    0    0  0.00000000000E+00  0.00000000000E+00  0.45593999997E+02  0.45594000000E+02  0.51100000000E-03 0. -1.
         11   -1    0    0    0    0 -0.00000000000E+00 -0.00000000000E+00 -0.45593999997E+02  0.45594000000E+02  0.51100000000E-03 0.  1.
    9900012    2    1    2    0    0 -0.39178681495E+02 -0.26661680073E+01 -0.10539831385E+02  0.50528861038E+02  0.30000003610E+02 0.  0.
        -12    1    1    2    0    0  0.39178681495E+02  0.26661680073E+01  0.10539831385E+02  0.40659138962E+02  0.00000000000E+00 0.  1.
         11    1    3    3    0    0 -0.13120687338E+02  0.98254964811E+01 -0.66057327811E+01  0.17672818766E+02  0.51100000000E-03 0. -1.
        -11    1    3    3    0    0 -0.17261655975E+02 -0.47182823713E+01 -0.90472533037E+01  0.20051926295E+02  0.51100000000E-03 0.  1.
        -12    1    3    3    0    0 -0.87963381819E+01 -0.77733821170E+01  0.51131546997E+01  0.12804115976E+02  0.00000000000E+00 0.  1.
</event>
<event>
 7    1  0.6090311E-013  0.5052885E+02  0.7816164E-02  0.1300439E+00
        -11   -1    0    0    0    0  0.00000000000E+00  0.00000000000E+00  0.45593999997E+02  0.45594000000E+02  0.51100000000E-03 0.  1.
         11   -1    0    0    0    0 -0.00000000000E+00 -0.00000000000E+00 -0.45593999997E+02  0.45594000000E+02  0.51100000000E-03 0. -1.
    9900012    2    1    2    0    0 -0.28213043287E+02 -0.28278288437E+02 -0.75847667113E+01  0.50528854725E+02  0.29999984422E+02 0.  0.
        -12    1    1    2    0    0  0.28213043287E+02  0.28278288437E+02  0.75847667113E+01  0.40659145275E+02  0.00000000000E+00 0.  1.
         11    1    3    3    0    0 -0.15006106858E+02 -0.27589645448E+02 -0.24958084998E+01  0.31505568386E+02  0.51100000000E-03 0. -1.
        -11    1    3    3    0    0  0.21030346850E+00 -0.44011083550E+01 -0.13571662333E+01  0.46104102580E+01  0.51100000000E-03 0.  1.
        -12    1    3    3    0    0 -0.13417239898E+02  0.37124653660E+01 -0.37317919781E+01  0.14412876081E+02  0.00000000000E+00 0.  1.
</event>
<event>
 7    1  0.6090311E-013  0.5052886E+02  0.7816164E-02  0.1300439E+00
        -11   -1    0    0    0    0  0.00000000000E+00  0.00000000000E+00  0.45593999997E+02  0.45594000000E+02  0.51100000000E-03 0. -1.
         11   -1    0    0    0    0 -0.00000000000E+00 -0.00000000000E+00 -0.45593999997E+02  0.45594000000E+02  0.51100000000E-03 0.  1.
    9900012    2    1    2    0    0 -0.39585257554E+02  0.10020943336E+01  0.92287046629E+01  0.50528858366E+02  0.29999995490E+02 0.  0.
        -12    1    1    2    0    0  0.39585257554E+02 -0.10020943336E+01 -0.92287046629E+01  0.40659141634E+02  0.00000000000E+00 0.  1.
         11    1    3    3    0    0 -0.17813437273E+02  0.77479594805E+01  0.53021579115E+01  0.20136094516E+02  0.51100000000E-03 0. -1.
        -11    1    3    3    0    0 -0.15866334001E+02  0.50275630291E+01  0.43902253360E+01  0.17213106152E+02  0.51100000000E-03 0.  1.
        -12    1    3    3    0    0 -0.59054862803E+01 -0.11773428176E+02 -0.46367858462E+00  0.13179657699E+02  0.00000000000E+00 0.  1.
</event>
<event>
 7    1  0.6090311E-013  0.5052886E+02  0.7816164E-02  0.1300439E+00
        -11   -1    0    0    0    0  0.00000000000E+00  0.00000000000E+00  0.45593999997E+02  0.45594000000E+02  0.51100000000E-03 0.  1.
         11   -1    0    0    0    0 -0.00000000000E+00 -0.00000000000E+00 -0.45593999997E+02  0.45594000000E+02  0.51100000000E-03 0. -1.
    9900012    2    1    2    0    0  0.12134700680E+02  0.62923698180E+01 -0.38292566184E+02  0.50528861993E+02  0.30000006515E+02 0.  0.
        -12    1    1    2    0    0 -0.12134700680E+02 -0.62923698180E+01  0.38292566184E+02  0.40659138007E+02  0.00000000000E+00 0.  1.
         11    1    3    3    0    0  0.49623072664E+01  0.48182361002E+01 -0.27176683406E+02  0.28043038597E+02  0.51100000000E-03 0. -1.
        -11    1    3    3    0    0 -0.47583984479E+01  0.51393669134E+01 -0.48575707515E+01  0.85235815199E+01  0.51100000000E-03 0.  1.
         12    1    3    3    0    0  0.11930791861E+02 -0.36652331957E+01 -0.62583120262E+01  0.13962241877E+02  0.00000000000E+00 0. -1.
</event>
<event>
 7    1  0.6090311E-013  0.5052886E+02  0.7816164E-02  0.1300439E+00
        -11   -1    0    0    0    0  0.00000000000E+00  0.00000000000E+00  0.45593999997E+02  0.45594000000E+02  0.51100000000E-03 0.  1.
         11   -1    0    0    0    0 -0.00000000000E+00 -0.00000000000E+00 -0.45593999997E+02  0.45594000000E+02  0.51100000000E-03 0. -1.
    9900012    2    1    2    0    0 -0.42023220882E+01  0.23391436551E+02 -0.32990107147E+02  0.50528856079E+02  0.29999988536E+02 0.  0.
        -12    1    1    2    0    0  0.42023220882E+01 -0.23391436551E+02  0.32990107147E+02  0.40659143921E+02  0.00000000000E+00 0.  1.
         11    1    3    3    0    0  0.28250182231E+00  0.25704025505E+02 -0.22415919811E+02  0.34106453871E+02  0.51100000000E-03 0. -1.
        -11    1    3    3    0    0 -0.14439784351E+01  0.38226340016E+01 -0.82233319890E+01  0.91826354439E+01  0.51100000000E-03 0.  1.
        -12    1    3    3    0    0 -0.30408454754E+01 -0.61352229559E+01 -0.23508553470E+01  0.72397667632E+01  0.00000000000E+00 0.  1.
</event>
<event>
 7    1  0.6090311E-013  0.5052885E+02  0.7816164E-02  0.1300439E+00
        -11   -1    0    0    0    0  0.00000000000E+00  0.00000000000E+00  0.45593999997E+02  0.45594000000E+02  0.51100000000E-03 0. -1.
         11   -1    0    0    0    0 -0.00000000000E+00 -0.00000000000E+00 -0.45593999997E+02  0.45594000000E+02  0.51100000000E-03 0.  1.
    9900012    2    1    2    0    0  0.72676557184E+01 -0.37241453072E+02  0.14608952866E+02  0.50528854037E+02  0.29999982332E+02 0.  0.
        -12    1    1    2    0    0 -0.72676557184E+01  0.37241453072E+02 -0.14608952866E+02  0.40659145963E+02  0.00000000000E+00 0.  1.
         11    1    3    3    0    0 -0.49691964944E+01 -0.16142471933E+02  0.43739447740E+01  0.17447169027E+02  0.51100000000E-03 0. -1.
        -11    1    3    3    0    0  0.70536517510E+01 -0.13605077626E+02 -0.43089992891E+01  0.15919158752E+02  0.51100000000E-03 0.  1.
         12    1    3    3    0    0  0.51832004618E+01 -0.74939035137E+01  0.14544007381E+02  0.17162526259E+02  0.00000000000E+00 0. -1.
</event>
<event>
 7    1  0.6090311E-013  0.5052887E+02  0.7816164E-02  0.1300439E+00
        -11   -1    0    0    0    0  0.00000000000E+00  0.00000000000E+00  0.45593999997E+02  0.45594000000E+02  0.51100000000E-03 0. -1.
         11   -1    0    0    0    0 -0.00000000000E+00 -0.00000000000E+00 -0.45593999997E+02  0.45594000000E+02  0.51100000000E-03 0.  1.
    9900012    2    1    2    0    0  0.21384730349E+02  0.24489594518E+02 -0.24415533720E+02  0.50528865497E+02  0.30000017163E+02 0.  0.
        -12    1    1    2    0    0 -0.21384730349E+02 -0.24489594518E+02  0.24415533720E+02  0.40659134503E+02  0.00000000000E+00 0.  1.
         11    1    3    3    0    0  0.10008839597E+02 -0.41031081261E+01 -0.52711169426E+01  0.12033164192E+02  0.51100000000E-03 0. -1.
        -11    1    3    3    0    0  0.12971896104E+02  0.15910781090E+02 -0.13138883339E+02  0.24373208633E+02  0.51100000000E-03 0.  1.
        -12    1    3    3    0    0 -0.15960053519E+01  0.12681921554E+02 -0.60055334379E+01  0.14122492672E+02  0.00000000000E+00 0.  1.
</event>
<event>
 7    1  0.6090311E-013  0.5052886E+02  0.7816164E-02  0.1300439E+00
        -11   -1    0    0    0    0  0.00000000000E+00  0.00000000000E+00  0.45593999997E+02  0.45594000000E+02  0.51100000000E-03 0.  1.
         11   -1    0    0    0    0 -0.00000000000E+00 -0.00000000000E+00 -0.45593999997E+02  0.45594000000E+02  0.51100000000E-03 0. -1.
    9900012    2    1    2    0    0  0.34230556419E+02  0.16747642654E+02 -0.14175720170E+02  0.50528861180E+02  0.30000004044E+02 0.  0.
        -12    1    1    2    0    0 -0.34230556419E+02 -0.16747642654E+02  0.14175720170E+02  0.40659138820E+02  0.00000000000E+00 0.  1.
         11    1    3    3    0    0  0.23145081533E+01 -0.57264364011E+00 -0.30961315591E+01  0.39077998442E+01  0.51100000000E-03 0. -1.
        -11    1    3    3    0    0  0.16704993020E+02 -0.13965314826E+01  0.51664461937E+01  0.17541358514E+02  0.51100000000E-03 0.  1.
         12    1    3    3    0    0  0.15211055246E+02  0.18716817777E+02 -0.16246034804E+02  0.29079702822E+02  0.00000000000E+00 0. -1.
</event>
<event>
 7    1  0.6090311E-013  0.5052887E+02  0.7816164E-02  0.1300439E+00
        -11   -1    0    0    0    0  0.00000000000E+00  0.00000000000E+00  0.45593999997E+02  0.45594000000E+02  0.51100000000E-03 0.  1.
         11   -1    0    0    0    0 -0.00000000000E+00 -0.00000000000E+00 -0.45593999997E+02  0.45594000000E+02  0.51100000000E-03 0. -1.
    9900012    2    1    2    0    0  0.23908105716E+02  0.21157082059E+02 -0.25178266100E+02  0.50528871578E+02  0.30000035649E+02 0.  0.
        -12    1    1    2    0    0 -0.23908105716E+02 -0.21157082059E+02  0.25178266100E+02  0.40659128422E+02  0.00000000000E+00 0.  1.
         11    1    3    3    0    0  0.21501061609E+02  0.93310682389E+01 -0.15866228688E+02  0.28303739998E+02  0.51100000000E-03 0. -1.
        -11    1    3    3    0    0  0.55447563239E+01  0.12630371454E+02 -0.16321450246E+01  0.13890086515E+02  0.51100000000E-03 0.  1.
        -12    1    3    3    0    0 -0.31377122173E+01 -0.80435763344E+00 -0.76798923874E+01  0.83350450654E+01  0.00000000000E+00 0.  1.
</event>
<event>
 7    1  0.6090311E-013  0.5052877E+02  0.7816164E-02  0.1300439E+00
        -11   -1    0    0    0    0  0.00000000000E+00  0.00000000000E+00  0.45593999997E+02  0.45594000000E+02  0.51100000000E-03 0.  1.
         11   -1    0    0    0    0 -0.00000000000E+00 -0.00000000000E+00 -0.45593999997E+02  0.45594000000E+02  0.51100000000E-03 0. -1.
    9900012    2    1    2    0    0  0.52742165469E+01  0.15250220770E+02 -0.37320048792E+02  0.50528774288E+02  0.29999739924E+02 0.  0.
        -12    1    1    2    0    0 -0.52742165469E+01 -0.15250220770E+02  0.37320048792E+02  0.40659225712E+02  0.00000000000E+00 0.  1.
         11    1    3    3    0    0  0.35762190172E+01 -0.79848079451E+00 -0.86137675480E+00  0.37641578358E+01  0.51100000000E-03 0. -1.
        -11    1    3    3    0    0 -0.36078390257E+01  0.54268263426E+01  0.17550074655E+01  0.67488516100E+01  0.51100000000E-03 0.  1.
         12    1    3    3    0    0  0.53058365554E+01  0.10621875222E+02 -0.38213679502E+02  0.40015764842E+02  0.00000000000E+00 0. -1.
</event>
<event>
 7    1  0.6090311E-013  0.5052886E+02  0.7816164E-02  0.1300439E+00
        -11   -1    0    0    0    0  0.00000000000E+00  0.00000000000E+00  0.45593999997E+02  0.45594000000E+02  0.51100000000E-03 0.  1.
         11   -1    0    0    0    0 -0.00000000000E+00 -0.00000000000E+00 -0.45593999997E+02  0.45594000000E+02  0.51100000000E-03 0. -1.
    9900012    2    1    2    0    0 -0.53558871416E+01 -0.16812195849E+02 -0.36630996740E+02  0.50528863530E+02  0.30000011185E+02 0.  0.
        -12    1    1    2    0    0  0.53558871416E+01  0.16812195849E+02  0.36630996740E+02  0.40659136470E+02  0.00000000000E+00 0.  1.
         11    1    3    3    0    0 -0.75358970506E+01 -0.26596038322E+01 -0.27906721310E+02  0.29028405595E+02  0.51100000000E-03 0. -1.
        -11    1    3    3    0    0  0.64976499566E+01 -0.39695716207E+01 -0.69291999313E+01  0.10295181677E+02  0.51100000000E-03 0.  1.
        -12    1    3    3    0    0 -0.43176400475E+01 -0.10183020396E+02 -0.17950754991E+01  0.11205276258E+02  0.00000000000E+00 0.  1.
</event>
<event>
 7    1  0.6090311E-013  0.5052886E+02  0.7816164E-02  0.1300439E+00
        -11   -1    0    0    0    0  0.00000000000E+00  0.00000000000E+00  0.45593999997E+02  0.45594000000E+02  0.51100000000E-03 0.  1.
         11   -1    0    0    0    0 -0.00000000000E+00 -0.00000000000E+00 -0.45593999997E+02  0.45594000000E+02  0.51100000000E-03 0. -1.
    9900012    2    1    2    0    0 -0.98286275651E+01 -0.33898905941E+02 -0.20184846103E+02  0.50528858888E+02  0.29999997076E+02 0.  0.
        -12    1    1    2    0    0  0.98286275651E+01  0.33898905941E+02  0.20184846103E+02  0.40659141112E+02  0.00000000000E+00 0.  1.
         11    1    3    3    0    0 -0.36003139962E+01 -0.10276368757E+02 -0.53700622580E+01  0.12140987794E+02  0.51100000000E-03 0. -1.
        -11    1    3    3    0    0 -0.12293384435E+02 -0.14030779329E+02  0.12756441617E+01  0.18698057058E+02  0.51100000000E-03 0.  1.
        -12    1    3    3    0    0  0.60650708659E+01 -0.95917578548E+01 -0.16090428006E+02  0.19689814036E+02  0.00000000000E+00 0.  1.
</event>
<event>
 7    1  0.6090311E-013  0.5052886E+02  0.7816164E-02  0.1300439E+00
        -11   -1    0    0    0    0  0.00000000000E+00  0.00000000000E+00  0.45593999997E+02  0.45594000000E+02  0.51100000000E-03 0.  1.
         11   -1    0    0    0    0 -0.00000000000E+00 -0.00000000000E+00 -0.45593999997E+02  0.45594000000E+02  0.51100000000E-03 0. -1.
    9900012    2    1    2    0    0  0.23616781341E+02  0.11690088531E+02 -0.30963770132E+02  0.50528860910E+02  0.30000003221E+02 0.  0.
        -12    1    1    2    0    0 -0.23616781341E+02 -0.11690088531E+02  0.30963770132E+02  0.40659139090E+02  0.00000000000E+00 0.  1.
         11    1    3    3    0    0  0.23336761891E+01  0.12724030463E+01 -0.19771575251E+01  0.33127339477E+01  0.51100000000E-03 0. -1.
        -11    1    3    3    0    0 -0.37464909962E+01 -0.58256120317E+00  0.32167861967E+01  0.49722516063E+01  0.51100000000E-03 0.  1.
        -12    1    3    3    0    0  0.25029596148E+02  0.11000246688E+02 -0.32203398804E+02  0.42243875356E+02  0.00000000000E+00 0.  1.
</event>
<event>
 7    1  0.6090311E-013  0.5052883E+02  0.7816164E-02  0.1300439E+00
        -11   -1    0    0    0    0  0.00000000000E+00  0.00000000000E+00  0.45593999997E+02  0.45594000000E+02  0.51100000000E-03 0.  1.
         11   -1    0    0    0    0 -0.00000000000E+00 -0.00000000000E+00 -0.45593999997E+02  0.45594000000E+02  0.51100000000E-03 0. -1.
    9900012    2    1    2    0    0  0.20446033745E+02 -0.33657236630E+02 -0.10115250985E+02  0.50528829128E+02  0.29999906617E+02 0.  0.
        -12    1    1    2    0    0 -0.20446033745E+02  0.33657236630E+02  0.10115250985E+02  0.40659170872E+02  0.00000000000E+00 0.  1.
         11    1    3    3    0    0  0.19563908886E+02 -0.89473833006E+01 -0.67768025512E+01  0.22554982862E+02  0.51100000000E-03 0. -1.
        -11    1    3    3    0    0 -0.52165497072E+01 -0.54970412272E+01 -0.15675840046E+01  0.77386803122E+01  0.51100000000E-03 0.  1.
        -12    1    3    3    0    0  0.60986745669E+01 -0.19212812102E+02 -0.17708644293E+01  0.20235165954E+02  0.00000000000E+00 0.  1.
</event>
<event>
 7    1  0.6090311E-013  0.5052886E+02  0.7816164E-02  0.1300439E+00
        -11   -1    0    0    0    0  0.00000000000E+00  0.00000000000E+00  0.45593999997E+02  0.45594000000E+02  0.51100000000E-03 0.  1.
         11   -1    0    0    0    0 -0.00000000000E+00 -0.00000000000E+00 -0.45593999997E+02  0.45594000000E+02  0.51100000000E-03 0. -1.
    9900012    2    1    2    0    0  0.40580218563E+02  0.22742751206E+01 -0.11132049291E+01  0.50528859685E+02  0.29999999497E+02 0.  0.
        -12    1    1    2    0    0 -0.40580218563E+02 -0.22742751206E+01  0.11132049291E+01  0.40659140315E+02  0.00000000000E+00 0.  1.
         11    1    3    3    0    0  0.11777895587E+02 -0.96704066290E+00 -0.83105029928E+01  0.14447091484E+02  0.51100000000E-03 0.  1.
        -11    1    3    3    0    0  0.18653685709E+02  0.72766213160E+01 -0.40239571095E+01  0.20423061460E+02  0.51100000000E-03 0. -1.
        -12    1    3    3    0    0  0.10148637267E+02 -0.40353055324E+01  0.11221255173E+02  0.15658706740E+02  0.00000000000E+00 0.  1.
</event>
<event>
 7    1  0.6090311E-013  0.5052886E+02  0.7816164E-02  0.1300439E+00
        -11   -1    0    0    0    0  0.00000000000E+00  0.00000000000E+00  0.45593999997E+02  0.45594000000E+02  0.51100000000E-03 0. -1.
         11   -1    0    0    0    0 -0.00000000000E+00 -0.00000000000E+00 -0.45593999997E+02  0.45594000000E+02  0.51100000000E-03 0.  1.
    9900012    2    1    2    0    0  0.64058646633E+01  0.40070359578E+02  0.25489215576E+01  0.50528858101E+02  0.29999994685E+02 0.  0.
        -12    1    1    2    0    0 -0.64058646633E+01 -0.40070359578E+02 -0.25489215576E+01  0.40659141899E+02  0.00000000000E+00 0.  1.
         11    1    3    3    0    0 -0.42466092103E+01  0.54280167500E+01  0.42502030359E+01  0.80969921409E+01  0.51100000000E-03 0. -1.
        -11    1    3    3    0    0 -0.12042689765E+01  0.21527577584E+02  0.70765464816E+01  0.22692826416E+02  0.51100000000E-03 0.  1.
        -12    1    3    3    0    0  0.11856742850E+02  0.13114765245E+02 -0.87778279598E+01  0.19739039544E+02  0.00000000000E+00 0.  1.
</event>
<event>
 7    1  0.6090311E-013  0.5052885E+02  0.7816164E-02  0.1300439E+00
        -11   -1    0    0    0    0  0.00000000000E+00  0.00000000000E+00  0.45593999997E+02  0.45594000000E+02  0.51100000000E-03 0.  1.
         11   -1    0    0    0    0 -0.00000000000E+00 -0.00000000000E+00 -0.45593999997E+02  0.45594000000E+02  0.51100000000E-03 0. -1.
    9900012    2    1    2    0    0 -0.15447294266E+02 -0.23546375928E+02 -0.29327735800E+02  0.50528845968E+02  0.29999957803E+02 0.  0.
        -12    1    1    2    0    0  0.15447294266E+02  0.23546375928E+02  0.29327735800E+02  0.40659154032E+02  0.00000000000E+00 0.  1.
         11    1    3    3    0    0 -0.35823644055E+01 -0.62726505967E+01 -0.62315178962E+01  0.95399840563E+01  0.51100000000E-03 0. -1.
        -11    1    3    3    0    0 -0.22241176055E+01 -0.20111732619E+02 -0.59097235094E+01  0.21079689757E+02  0.51100000000E-03 0.  1.
         12    1    3    3    0    0 -0.96408122545E+01  0.28380072874E+01 -0.17186494395E+02  0.19909172154E+02  0.00000000000E+00 0. -1.
</event>
<event>
 7    1  0.6090311E-013  0.5052884E+02  0.7816164E-02  0.1300439E+00
        -11   -1    0    0    0    0  0.00000000000E+00  0.00000000000E+00  0.45593999997E+02  0.45594000000E+02  0.51100000000E-03 0.  1.
         11   -1    0    0    0    0 -0.00000000000E+00 -0.00000000000E+00 -0.45593999997E+02  0.45594000000E+02  0.51100000000E-03 0. -1.
    9900012    2    1    2    0    0  0.27648473276E+02 -0.19887519488E+02  0.22208468456E+02  0.50528836494E+02  0.29999929006E+02 0.  0.
        -12    1    1    2    0    0 -0.27648473276E+02  0.19887519488E+02 -0.22208468456E+02  0.40659163506E+02  0.00000000000E+00 0.  1.
         11    1    3    3    0    0  0.16681089846E+02 -0.11232757338E+02  0.39630611902E+01  0.20497303484E+02  0.51100000000E-03 0. -1.
        -11    1    3    3    0    0  0.15692582765E+02 -0.32672278923E+01  0.91657770547E+01  0.18464652751E+02  0.51100000000E-03 0.  1.
        -12    1    3    3    0    0 -0.47251993353E+01 -0.53875342577E+01  0.90796302112E+01  0.11566880258E+02  0.00000000000E+00 0.  1.
</event>
<event>
 7    1  0.6090311E-013  0.5052886E+02  0.7816164E-02  0.1300439E+00
        -11   -1    0    0    0    0  0.00000000000E+00  0.00000000000E+00  0.45593999997E+02  0.45594000000E+02  0.51100000000E-03 0.  1.
         11   -1    0    0    0    0 -0.00000000000E+00 -0.00000000000E+00 -0.45593999997E+02  0.45594000000E+02  0.51100000000E-03 0. -1.
    9900012    2    1    2    0    0 -0.22752727872E+02  0.30303818624E+02 -0.14736278970E+02  0.50528856296E+02  0.29999989199E+02 0.  0.
        -12    1    1    2    0    0  0.22752727872E+02 -0.30303818624E+02  0.14736278970E+02  0.40659143704E+02  0.00000000000E+00 0.  1.
         11    1    3    3    0    0 -0.72457393993E+01  0.14068439628E+02 -0.10848060764E+02  0.19185988523E+02  0.51100000000E-03 0. -1.
        -11    1    3    3    0    0  0.14109368082E+01  0.74534105215E+01 -0.88401314276E+01  0.11648690699E+02  0.51100000000E-03 0.  1.
        -12    1    3    3    0    0 -0.16917925281E+02  0.87819684747E+01  0.49519132211E+01  0.19694177075E+02  0.00000000000E+00 0.  1.
</event>
<event>
 7    1  0.6090311E-013  0.5052886E+02  0.7816164E-02  0.1300439E+00
        -11   -1    0    0    0    0  0.00000000000E+00  0.00000000000E+00  0.45593999997E+02  0.45594000000E+02  0.51100000000E-03 0.  1.
         11   -1    0    0    0    0 -0.00000000000E+00 -0.00000000000E+00 -0.45593999997E+02  0.45594000000E+02  0.51100000000E-03 0. -1.
    9900012    2    1    2    0    0  0.91419671896E+01  0.29170691637E+02 -0.26807850834E+02  0.50528859809E+02  0.29999999876E+02 0.  0.
        -12    1    1    2    0    0 -0.91419671896E+01 -0.29170691637E+02  0.26807850834E+02  0.40659140191E+02  0.00000000000E+00 0.  1.
         11    1    3    3    0    0  0.66260587221E+01  0.18639280228E+02 -0.11315822731E+02  0.22789806185E+02  0.51100000000E-03 0. -1.
        -11    1    3    3    0    0 -0.29882888588E+01  0.14750608224E+02 -0.65270548238E+01  0.16404656601E+02  0.51100000000E-03 0.  1.
        -12    1    3    3    0    0  0.55041973263E+01 -0.42191968147E+01 -0.89649732796E+01  0.11334397023E+02  0.00000000000E+00 0.  1.
</event>
<event>
 7    1  0.6090311E-013  0.5052886E+02  0.7816164E-02  0.1300439E+00
        -11   -1    0    0    0    0  0.00000000000E+00  0.00000000000E+00  0.45593999997E+02  0.45594000000E+02  0.51100000000E-03 0. -1.
         11   -1    0    0    0    0 -0.00000000000E+00 -0.00000000000E+00 -0.45593999997E+02  0.45594000000E+02  0.51100000000E-03 0.  1.
    9900012    2    1    2    0    0  0.12383226492E+02 -0.12776310026E+02  0.36559366010E+02  0.50528860323E+02  0.30000001436E+02 0.  0.
        -12    1    1    2    0    0 -0.12383226492E+02  0.12776310026E+02 -0.36559366010E+02  0.40659139677E+02  0.00000000000E+00 0.  1.
         11    1    3    3    0    0  0.83210668606E-02 -0.59835821516E+01  0.19108592901E+02  0.20023527349E+02  0.51100000000E-03 0. -1.
        -11    1    3    3    0    0 -0.48941734361E+01 -0.58553323824E+01  0.65934933350E+01  0.10085237010E+02  0.51100000000E-03 0.  1.
         12    1    3    3    0    0  0.17269078862E+02 -0.93739549185E+00  0.10857279775E+02  0.20420095963E+02  0.00000000000E+00 0. -1.
</event>
<event>
 7    1  0.6090311E-013  0.5052886E+02  0.7816164E-02  0.1300439E+00
        -11   -1    0    0    0    0  0.00000000000E+00  0.00000000000E+00  0.45593999997E+02  0.45594000000E+02  0.51100000000E-03 0. -1.
         11   -1    0    0    0    0 -0.00000000000E+00 -0.00000000000E+00 -0.45593999997E+02  0.45594000000E+02  0.51100000000E-03 0.  1.
    9900012    2    1    2    0    0 -0.73028955357E+01  0.33971585723E+02  0.21113135499E+02  0.50528863139E+02  0.30000009997E+02 0.  0.
        -12    1    1    2    0    0  0.73028955357E+01 -0.33971585723E+02 -0.21113135499E+02  0.40659136861E+02  0.00000000000E+00 0.  1.
         11    1    3    3    0    0  0.63650802894E+01  0.49661744431E+01  0.70679804799E+01  0.10730027214E+02  0.51100000000E-03 0. -1.
        -11    1    3    3    0    0 -0.16488557653E+01 -0.26280557599E+01  0.26851639184E+01  0.41031095454E+01  0.51100000000E-03 0.  1.
         12    1    3    3    0    0 -0.12019120060E+02  0.31633467039E+02  0.11359991101E+02  0.35695726379E+02  0.00000000000E+00 0. -1.
</event>
<event>
 7    1  0.6090311E-013  0.5052885E+02  0.7816164E-02  0.1300439E+00
        -11   -1    0    0    0    0  0.00000000000E+00  0.00000000000E+00  0.45593999997E+02  0.45594000000E+02  0.51100000000E-03 0.  1.
         11   -1    0    0    0    0 -0.00000000000E+00 -0.00000000000E+00 -0.45593999997E+02  0.45594000000E+02  0.51100000000E-03 0. -1.
    9900012    2    1    2    0    0  0.26689543393E+02  0.23964641940E+01 -0.30579266648E+02  0.50528852003E+02  0.29999976147E+02 0.  0.
        -12    1    1    2    0    0 -0.26689543393E+02 -0.23964641940E+01  0.30579266648E+02  0.40659147997E+02  0.00000000000E+00 0.  1.
         11    1    3    3    0    0  0.82437784683E+01  0.44390495000E+01 -0.31172087639E+01  0.98682336128E+01  0.51100000000E-03 0. -1.
        -11    1    3    3    0    0  0.66447066098E+01  0.65631060752E+01  0.24160742692E+00  0.93426367635E+01  0.51100000000E-03 0.  1.
         12    1    3    3    0    0  0.11801058315E+02 -0.86056913812E+01 -0.27703665311E+02  0.31317981626E+02  0.00000000000E+00 0. -1.
</event>
<event>
 7    1  0.6090311E-013  0.5052892E+02  0.7816164E-02  0.1300439E+00
        -11   -1    0    0    0    0  0.00000000000E+00  0.00000000000E+00  0.45593999997E+02  0.45594000000E+02  0.51100000000E-03 0.  1.
         11   -1    0    0    0    0 -0.00000000000E+00 -0.00000000000E+00 -0.45593999997E+02  0.45594000000E+02  0.51100000000E-03 0. -1.
    9900012    2    1    2    0    0  0.23872619260E+02  0.31406284559E+02 -0.98440015723E+01  0.50528917041E+02  0.30000173837E+02 0.  0.
        -12    1    1    2    0    0 -0.23872619260E+02 -0.31406284559E+02  0.98440015723E+01  0.40659082959E+02  0.00000000000E+00 0.  1.
         11    1    3    3    0    0  0.17175862625E+00  0.23846304104E+01  0.12040905620E+01  0.26769007383E+01  0.51100000000E-03 0. -1.
        -11    1    3    3    0    0 -0.58919743240E+01  0.13576397643E+01 -0.12492104990E+01  0.61740646495E+01  0.51100000000E-03 0.  1.
         12    1    3    3    0    0  0.29592834958E+02  0.27664014384E+02 -0.97988816353E+01  0.41677951653E+02  0.00000000000E+00 0. -1.
</event>
<event>
 7    1  0.6090311E-013  0.5052886E+02  0.7816164E-02  0.1300439E+00
        -11   -1    0    0    0    0  0.00000000000E+00  0.00000000000E+00  0.45593999997E+02  0.45594000000E+02  0.51100000000E-03 0. -1.
         11   -1    0    0    0    0 -0.00000000000E+00 -0.00000000000E+00 -0.45593999997E+02  0.45594000000E+02  0.51100000000E-03 0.  1.
    9900012    2    1    2    0    0 -0.30364792681E+02  0.13729682459E+02  0.23294659925E+02  0.50528855936E+02  0.29999988104E+02 0.  0.
        -12    1    1    2    0    0  0.30364792681E+02 -0.13729682459E+02 -0.23294659925E+02  0.40659144064E+02  0.00000000000E+00 0.  1.
         11    1    3    3    0    0 -0.89582100364E+01  0.76199771515E+00 -0.54065756433E+01  0.10491007007E+02  0.51100000000E-03 0.  1.
        -11    1    3    3    0    0 -0.57420771885E+01  0.57763226091E+01  0.22212262465E+01  0.84422271720E+01  0.51100000000E-03 0. -1.
        -12    1    3    3    0    0 -0.15664505456E+02  0.71913621346E+01  0.26480009322E+02  0.31595621757E+02  0.00000000000E+00 0.  1.
</event>
<event>
 7    1  0.7272464E-013  0.5052885E+02  0.7816164E-02  0.1300439E+00
        -11   -1    0    0    0    0  0.00000000000E+00  0.00000000000E+00  0.45593999997E+02  0.45594000000E+02  0.51100000000E-03 0. -1.
         11   -1    0    0    0    0 -0.00000000000E+00 -0.00000000000E+00 -0.45593999997E+02  0.45594000000E+02  0.51100000000E-03 0.  1.
    9900012    2    1    2    0    0 -0.32785735015E+02  0.10480417904E+02  0.21643086530E+02  0.50528846363E+02  0.29999959005E+02 0.  0.
        -12    1    1    2    0    0  0.32785735015E+02 -0.10480417904E+02 -0.21643086530E+02  0.40659153637E+02  0.00000000000E+00 0.  1.
         11    1    3    3    0    0 -0.10553226906E+02  0.68057491484E+01  0.15183389315E+02  0.19703404045E+02  0.51100000000E-03 0. -1.
        -11    1    3    3    0    0  0.49941114236E-01  0.48755145729E+01 -0.38803721122E+01  0.62314062984E+01  0.51100000000E-03 0.  1.
         12    1    3    3    0    0 -0.22282449223E+02 -0.12008458170E+01  0.10340069328E+02  0.24594036020E+02  0.00000000000E+00 0. -1.
</event>
<event>
 7    1  0.6090311E-013  0.5052886E+02  0.7816164E-02  0.1300439E+00
        -11   -1    0    0    0    0  0.00000000000E+00  0.00000000000E+00  0.45593999997E+02  0.45594000000E+02  0.51100000000E-03 0. -1.
         11   -1    0    0    0    0 -0.00000000000E+00 -0.00000000000E+00 -0.45593999997E+02  0.45594000000E+02  0.51100000000E-03 0.  1.
    9900012    2    1    2    0    0 -0.13951308359E+02 -0.37999610447E+02  0.38152430054E+01  0.50528862303E+02  0.30000007455E+02 0.  0.
        -12    1    1    2    0    0  0.13951308359E+02  0.37999610447E+02 -0.38152430054E+01  0.40659137697E+02  0.00000000000E+00 0.  1.
         11    1    3    3    0    0  0.46790020006E+01 -0.24355576132E+02 -0.30199716972E+01  0.24984142526E+02  0.51100000000E-03 0. -1.
        -11    1    3    3    0    0  0.22829814807E+00  0.78812485564E+00  0.52223650307E+00  0.97262123087E+00  0.51100000000E-03 0.  1.
         12    1    3    3    0    0 -0.18858608508E+02 -0.14432159171E+02  0.63129781995E+01  0.24572098546E+02  0.00000000000E+00 0. -1.
</event>
<event>
 7    1  0.6090311E-013  0.5052887E+02  0.7816164E-02  0.1300439E+00
        -11   -1    0    0    0    0  0.00000000000E+00  0.00000000000E+00  0.45593999997E+02  0.45594000000E+02  0.51100000000E-03 0.  1.
         11   -1    0    0    0    0 -0.00000000000E+00 -0.00000000000E+00 -0.45593999997E+02  0.45594000000E+02  0.51100000000E-03 0. -1.
    9900012    2    1    2    0    0 -0.58309136670E+00 -0.60545053501E+01 -0.40201592934E+02  0.50528866893E+02  0.30000021408E+02 0.  0.
        -12    1    1    2    0    0  0.58309136670E+00  0.60545053501E+01  0.40201592934E+02  0.40659133107E+02  0.00000000000E+00 0.  1.
         11    1    3    3    0    0 -0.21692097098E+01 -0.16934919049E+01  0.53792146052E+00  0.28040587290E+01  0.51100000000E-03 0. -1.
        -11    1    3    3    0    0  0.49068231264E+01 -0.98868095114E+01 -0.63448702023E+01  0.12731193725E+02  0.51100000000E-03 0.  1.
         12    1    3    3    0    0 -0.33207047833E+01  0.55257960662E+01 -0.34394644192E+02  0.34993614439E+02  0.00000000000E+00 0. -1.
</event>
<event>
 7    1  0.6090311E-013  0.5052885E+02  0.7816164E-02  0.1300439E+00
        -11   -1    0    0    0    0  0.00000000000E+00  0.00000000000E+00  0.45593999997E+02  0.45594000000E+02  0.51100000000E-03 0.  1.
         11   -1    0    0    0    0 -0.00000000000E+00 -0.00000000000E+00 -0.45593999997E+02  0.45594000000E+02  0.51100000000E-03 0. -1.
    9900012    2    1    2    0    0 -0.33729659944E+02  0.53982576086E+01 -0.22053018150E+02  0.50528846607E+02  0.29999959745E+02 0.  0.
        -12    1    1    2    0    0  0.33729659944E+02 -0.53982576086E+01  0.22053018150E+02  0.40659153393E+02  0.00000000000E+00 0.  1.
         11    1    3    3    0    0 -0.14144484561E+02  0.88845354695E+01 -0.43474459994E+01  0.17259829112E+02  0.51100000000E-03 0. -1.
        -11    1    3    3    0    0 -0.17959381232E+01  0.57204776083E+01  0.73747809904E+00  0.60409545617E+01  0.51100000000E-03 0.  1.
        -12    1    3    3    0    0 -0.17789237260E+02 -0.92067554691E+01 -0.18443050249E+02  0.27228062933E+02  0.00000000000E+00 0.  1.
</event>
<event>
 7    1  0.6090311E-013  0.5052882E+02  0.7816164E-02  0.1300439E+00
        -11   -1    0    0    0    0  0.00000000000E+00  0.00000000000E+00  0.45593999997E+02  0.45594000000E+02  0.51100000000E-03 0.  1.
         11   -1    0    0    0    0 -0.00000000000E+00 -0.00000000000E+00 -0.45593999997E+02  0.45594000000E+02  0.51100000000E-03 0. -1.
    9900012    2    1    2    0    0  0.32380831700E+02 -0.23671019280E+02  0.66583320854E+01  0.50528821437E+02  0.29999883238E+02 0.  0.
        -12    1    1    2    0    0 -0.32380831700E+02  0.23671019280E+02 -0.66583320854E+01  0.40659178563E+02  0.00000000000E+00 0.  1.
         11    1    3    3    0    0  0.10526910194E+02 -0.14151021634E+02 -0.62673218970E+00  0.17648230649E+02  0.51100000000E-03 0. -1.
        -11    1    3    3    0    0  0.13438502305E+01 -0.75362957288E+01 -0.47582493724E+01  0.90134690384E+01  0.51100000000E-03 0.  1.
        -12    1    3    3    0    0  0.20510071275E+02 -0.19837019165E+01  0.12043313648E+02  0.23867121749E+02  0.00000000000E+00 0.  1.
</event>
<event>
 7    1  0.6090311E-013  0.5052886E+02  0.7816164E-02  0.1300439E+00
        -11   -1    0    0    0    0  0.00000000000E+00  0.00000000000E+00  0.45593999997E+02  0.45594000000E+02  0.51100000000E-03 0. -1.
         11   -1    0    0    0    0 -0.00000000000E+00 -0.00000000000E+00 -0.45593999997E+02  0.45594000000E+02  0.51100000000E-03 0.  1.
    9900012    2    1    2    0    0 -0.28270847726E+02  0.74793993878E+01  0.28248597043E+02  0.50528862266E+02  0.30000007344E+02 0.  0.
        -12    1    1    2    0    0  0.28270847726E+02 -0.74793993878E+01 -0.28248597043E+02  0.40659137734E+02  0.00000000000E+00 0.  1.
         11    1    3    3    0    0 -0.38299669736E+01  0.99898570981E+01  0.19035840314E+01  0.10866900399E+02  0.51100000000E-03 0.  1.
        -11    1    3    3    0    0 -0.10883076346E+02  0.70952811840E+01  0.10534353210E+02  0.16725936854E+02  0.51100000000E-03 0. -1.
         12    1    3    3    0    0 -0.13557804407E+02 -0.96057388943E+01  0.15810659801E+02  0.22936025013E+02  0.00000000000E+00 0. -1.
</event>
<event>
 7    1  0.6090311E-013  0.5052886E+02  0.7816164E-02  0.1300439E+00
        -11   -1    0    0    0    0  0.00000000000E+00  0.00000000000E+00  0.45593999997E+02  0.45594000000E+02  0.51100000000E-03 0.  1.
         11   -1    0    0    0    0 -0.00000000000E+00 -0.00000000000E+00 -0.45593999997E+02  0.45594000000E+02  0.51100000000E-03 0. -1.
    9900012    2    1    2    0    0  0.10198120716E+02  0.38816339267E+02 -0.65158381683E+01  0.50528855797E+02  0.29999987682E+02 0.  0.
        -12    1    1    2    0    0 -0.10198120716E+02 -0.38816339267E+02  0.65158381683E+01  0.40659144203E+02  0.00000000000E+00 0.  1.
         11    1    3    3    0    0 -0.44399188843E+00  0.21184582993E+02  0.29832674083E+01  0.21398214180E+02  0.51100000000E-03 0. -1.
        -11    1    3    3    0    0  0.52875080484E+01  0.19634467892E+02 -0.31322379690E+01  0.20573793664E+02  0.51100000000E-03 0.  1.
        -12    1    3    3    0    0  0.53546045562E+01 -0.20027116176E+01 -0.63668676076E+01  0.85568479541E+01  0.00000000000E+00 0.  1.
</event>
<event>
 7    1  0.6090311E-013  0.5052885E+02  0.7816164E-02  0.1300439E+00
        -11   -1    0    0    0    0  0.00000000000E+00  0.00000000000E+00  0.45593999997E+02  0.45594000000E+02  0.51100000000E-03 0.  1.
         11   -1    0    0    0    0 -0.00000000000E+00 -0.00000000000E+00 -0.45593999997E+02  0.45594000000E+02  0.51100000000E-03 0. -1.
    9900012    2    1    2    0    0 -0.16251669303E+02 -0.36897863517E+02  0.52533351747E+01  0.50528848291E+02  0.29999964864E+02 0.  0.
        -12    1    1    2    0    0  0.16251669303E+02  0.36897863517E+02 -0.52533351747E+01  0.40659151709E+02  0.00000000000E+00 0.  1.
         11    1    3    3    0    0 -0.10951655700E+02 -0.23628556072E+02  0.42182749348E+00  0.26046599842E+02  0.51100000000E-03 0. -1.
        -11    1    3    3    0    0  0.17851072224E+01 -0.96317597051E+01 -0.56575454822E+01  0.11312171496E+02  0.51100000000E-03 0.  1.
         12    1    3    3    0    0 -0.70851208257E+01 -0.36375477399E+01  0.10489053163E+02  0.13170076953E+02  0.00000000000E+00 0. -1.
</event>
<event>
 7    1  0.6090311E-013  0.5052887E+02  0.7816164E-02  0.1300439E+00
        -11   -1    0    0    0    0  0.00000000000E+00  0.00000000000E+00  0.45593999997E+02  0.45594000000E+02  0.51100000000E-03 0.  1.
         11   -1    0    0    0    0 -0.00000000000E+00 -0.00000000000E+00 -0.45593999997E+02  0.45594000000E+02  0.51100000000E-03 0. -1.
    9900012    2    1    2    0    0 -0.13608563994E+02  0.31003395349E+02 -0.22511364266E+02  0.50528867468E+02  0.30000023156E+02 0.  0.
        -12    1    1    2    0    0  0.13608563994E+02 -0.31003395349E+02  0.22511364266E+02  0.40659132532E+02  0.00000000000E+00 0.  1.
         11    1    3    3    0    0 -0.90170117182E+01  0.90795035533E+00 -0.34925470702E+01  0.97122993917E+01  0.51100000000E-03 0. -1.
        -11    1    3    3    0    0 -0.39739218358E+01  0.78980382673E+00  0.22187486557E+01  0.46193820690E+01  0.51100000000E-03 0.  1.
        -12    1    3    3    0    0 -0.61763043990E+00  0.29305641167E+02 -0.21237565851E+02  0.36197186007E+02  0.00000000000E+00 0.  1.
</event>
<event>
 7    1  0.6090311E-013  0.5052886E+02  0.7816164E-02  0.1300439E+00
        -11   -1    0    0    0    0  0.00000000000E+00  0.00000000000E+00  0.45593999997E+02  0.45594000000E+02  0.51100000000E-03 0.  1.
         11   -1    0    0    0    0 -0.00000000000E+00 -0.00000000000E+00 -0.45593999997E+02  0.45594000000E+02  0.51100000000E-03 0. -1.
    9900012    2    1    2    0    0 -0.22711727650E+02 -0.15464023853E+02 -0.29970097427E+02  0.50528863926E+02  0.30000012388E+02 0.  0.
        -12    1    1    2    0    0  0.22711727650E+02  0.15464023853E+02  0.29970097427E+02  0.40659136074E+02  0.00000000000E+00 0.  1.
         11    1    3    3    0    0 -0.20844467330E+02 -0.13081235433E+02 -0.19030747826E+02  0.31109161059E+02  0.51100000000E-03 0. -1.
        -11    1    3    3    0    0 -0.23089793546E+01 -0.31726760677E+01  0.33149240096E+01  0.51367285836E+01  0.51100000000E-03 0.  1.
         12    1    3    3    0    0  0.44171903520E+00  0.78988764815E+00 -0.14254273610E+02  0.14282974283E+02  0.00000000000E+00 0. -1.
</event>
<event>
 7    1  0.6090311E-013  0.5052886E+02  0.7816164E-02  0.1300439E+00
        -11   -1    0    0    0    0  0.00000000000E+00  0.00000000000E+00  0.45593999997E+02  0.45594000000E+02  0.51100000000E-03 0.  1.
         11   -1    0    0    0    0 -0.00000000000E+00 -0.00000000000E+00 -0.45593999997E+02  0.45594000000E+02  0.51100000000E-03 0. -1.
    9900012    2    1    2    0    0  0.39930895738E+02 -0.35982720488E+01 -0.67632560208E+01  0.50528860459E+02  0.30000001853E+02 0.  0.
        -12    1    1    2    0    0 -0.39930895738E+02  0.35982720488E+01  0.67632560208E+01  0.40659139541E+02  0.00000000000E+00 0.  1.
         11    1    3    3    0    0  0.27142867422E+00 -0.29046552995E+01 -0.68307585659E+01  0.74276482672E+01  0.51100000000E-03 0.  1.
        -11    1    3    3    0    0  0.15288676474E+00  0.24133213650E+01  0.23961823419E+01  0.34042891256E+01  0.51100000000E-03 0. -1.
         12    1    3    3    0    0  0.39506580299E+02 -0.31069381143E+01 -0.23286797967E+01  0.39696923067E+02  0.00000000000E+00 0. -1.
</event>
<event>
 7    1  0.6090311E-013  0.5052886E+02  0.7816164E-02  0.1300439E+00
        -11   -1    0    0    0    0  0.00000000000E+00  0.00000000000E+00  0.45593999997E+02  0.45594000000E+02  0.51100000000E-03 0. -1.
         11   -1    0    0    0    0 -0.00000000000E+00 -0.00000000000E+00 -0.45593999997E+02  0.45594000000E+02  0.51100000000E-03 0.  1.
    9900012    2    1    2    0    0  0.19937842988E+02  0.17010338268E+02  0.31085307130E+02  0.50528861908E+02  0.30000006256E+02 0.  0.
        -12    1    1    2    0    0 -0.19937842988E+02 -0.17010338268E+02 -0.31085307130E+02  0.40659138092E+02  0.00000000000E+00 0.  1.
         11    1    3    3    0    0  0.86624835561E+01  0.10732421287E+01  0.64823794504E+01  0.10872521034E+02  0.51100000000E-03 0. -1.
        -11    1    3    3    0    0  0.11804409924E+02  0.24726808674E+01  0.53424367990E+00  0.12072433926E+02  0.51100000000E-03 0.  1.
         12    1    3    3    0    0 -0.52905049232E+00  0.13464415272E+02  0.24068684000E+02  0.27583906948E+02  0.00000000000E+00 0. -1.
</event>
<event>
 7    1  0.6090311E-013  0.5052886E+02  0.7816164E-02  0.1300439E+00
        -11   -1    0    0    0    0  0.00000000000E+00  0.00000000000E+00  0.45593999997E+02  0.45594000000E+02  0.51100000000E-03 0.  1.
         11   -1    0    0    0    0 -0.00000000000E+00 -0.00000000000E+00 -0.45593999997E+02  0.45594000000E+02  0.51100000000E-03 0. -1.
    9900012    2    1    2    0    0 -0.19128015388E+02  0.12141686141E+02 -0.33761878712E+02  0.50528856266E+02  0.29999989106E+02 0.  0.
        -12    1    1    2    0    0  0.19128015388E+02 -0.12141686141E+02  0.33761878712E+02  0.40659143734E+02  0.00000000000E+00 0.  1.
         11    1    3    3    0    0 -0.36921290212E+01  0.66954766689E+01 -0.65302190333E+01  0.10055097484E+02  0.51100000000E-03 0. -1.
        -11    1    3    3    0    0  0.23495812863E+01  0.10991084373E+02 -0.11636236349E+02  0.16177962311E+02  0.51100000000E-03 0.  1.
         12    1    3    3    0    0 -0.17785467653E+02 -0.55448749004E+01 -0.15595423329E+02  0.24295796470E+02  0.00000000000E+00 0. -1.
</event>
<event>
 7    1  0.6090311E-013  0.5052886E+02  0.7816164E-02  0.1300439E+00
        -11   -1    0    0    0    0  0.00000000000E+00  0.00000000000E+00  0.45593999997E+02  0.45594000000E+02  0.51100000000E-03 0.  1.
         11   -1    0    0    0    0 -0.00000000000E+00 -0.00000000000E+00 -0.45593999997E+02  0.45594000000E+02  0.51100000000E-03 0. -1.
    9900012    2    1    2    0    0 -0.17778756129E+02 -0.28152181999E+01 -0.36457592980E+02  0.50528859466E+02  0.29999998834E+02 0.  0.
        -12    1    1    2    0    0  0.17778756129E+02  0.28152181999E+01  0.36457592980E+02  0.40659140534E+02  0.00000000000E+00 0.  1.
         11    1    3    3    0    0 -0.16748967751E+02  0.38171331380E+01 -0.23111433498E+02  0.28796471741E+02  0.51100000000E-03 0. -1.
        -11    1    3    3    0    0 -0.14885166254E+01  0.46666306783E+01 -0.76159015374E+01  0.90551134792E+01  0.51100000000E-03 0.  1.
         12    1    3    3    0    0  0.45872824757E+00 -0.11298982016E+02 -0.57302579449E+01  0.12677274246E+02  0.00000000000E+00 0. -1.
</event>
<event>
 7    1  0.6090311E-013  0.5052886E+02  0.7816164E-02  0.1300439E+00
        -11   -1    0    0    0    0  0.00000000000E+00  0.00000000000E+00  0.45593999997E+02  0.45594000000E+02  0.51100000000E-03 0.  1.
         11   -1    0    0    0    0 -0.00000000000E+00 -0.00000000000E+00 -0.45593999997E+02  0.45594000000E+02  0.51100000000E-03 0. -1.
    9900012    2    1    2    0    0 -0.56670144557E+01 -0.37314372745E+02 -0.15122432003E+02  0.50528863070E+02  0.30000009789E+02 0.  0.
        -12    1    1    2    0    0  0.56670144557E+01  0.37314372745E+02  0.15122432003E+02  0.40659136930E+02  0.00000000000E+00 0.  1.
         11    1    3    3    0    0  0.79397044456E+01 -0.53780071774E+01 -0.17815902554E+01  0.97537650158E+01  0.51100000000E-03 0. -1.
        -11    1    3    3    0    0 -0.51230046937E+01 -0.12169220152E+01  0.17020922645E+01  0.55338227855E+01  0.51100000000E-03 0.  1.
        -12    1    3    3    0    0 -0.84837142075E+01 -0.30719443552E+02 -0.15042934012E+02  0.35241275269E+02  0.00000000000E+00 0.  1.
</event>
<event>
 7    1  0.6090311E-013  0.5052886E+02  0.7816164E-02  0.1300439E+00
        -11   -1    0    0    0    0  0.00000000000E+00  0.00000000000E+00  0.45593999997E+02  0.45594000000E+02  0.51100000000E-03 0.  1.
         11   -1    0    0    0    0 -0.00000000000E+00 -0.00000000000E+00 -0.45593999997E+02  0.45594000000E+02  0.51100000000E-03 0. -1.
    9900012    2    1    2    0    0 -0.12840334899E+02  0.37955712787E+02 -0.69032754031E+01  0.50528861485E+02  0.30000004970E+02 0.  0.
        -12    1    1    2    0    0  0.12840334899E+02 -0.37955712787E+02  0.69032754031E+01  0.40659138515E+02  0.00000000000E+00 0.  1.
         11    1    3    3    0    0 -0.32646201308E+01  0.15718420468E+02  0.18941484785E+01  0.16165218381E+02  0.51100000000E-03 0.  1.
        -11    1    3    3    0    0  0.26303692059E+01  0.74270178560E+01  0.61844902244E+01  0.10016354426E+02  0.51100000000E-03 0. -1.
        -12    1    3    3    0    0 -0.12206083974E+02  0.14810274463E+02 -0.14981914106E+02  0.24347288677E+02  0.00000000000E+00 0.  1.
</event>
<event>
 7    1  0.6090311E-013  0.5052886E+02  0.7816164E-02  0.1300439E+00
        -11   -1    0    0    0    0  0.00000000000E+00  0.00000000000E+00  0.45593999997E+02  0.45594000000E+02  0.51100000000E-03 0.  1.
         11   -1    0    0    0    0 -0.00000000000E+00 -0.00000000000E+00 -0.45593999997E+02  0.45594000000E+02  0.51100000000E-03 0. -1.
    9900012    2    1    2    0    0 -0.36272225763E+02 -0.17717672341E+02  0.48554269242E+01  0.50528862705E+02  0.30000008679E+02 0.  0.
        -12    1    1    2    0    0  0.36272225763E+02  0.17717672341E+02 -0.48554269242E+01  0.40659137295E+02  0.00000000000E+00 0.  1.
         11    1    3    3    0    0 -0.13999168714E+02  0.17978732130E+01  0.34399702685E-01  0.14114186352E+02  0.51100000000E-03 0. -1.
        -11    1    3    3    0    0 -0.22800788718E+02 -0.74279609339E+01  0.27110207180E+01  0.24132969221E+02  0.51100000000E-03 0.  1.
        -12    1    3    3    0    0  0.52773166965E+00 -0.12087584620E+02  0.21100065036E+01  0.12281707133E+02  0.00000000000E+00 0.  1.
</event>
<event>
 7    1  0.6090311E-013  0.5052886E+02  0.7816164E-02  0.1300439E+00
        -11   -1    0    0    0    0  0.00000000000E+00  0.00000000000E+00  0.45593999997E+02  0.45594000000E+02  0.51100000000E-03 0.  1.
         11   -1    0    0    0    0 -0.00000000000E+00 -0.00000000000E+00 -0.45593999997E+02  0.45594000000E+02  0.51100000000E-03 0. -1.
    9900012    2    1    2    0    0  0.31188097324E+01 -0.16113929159E+02 -0.37199192806E+02  0.50528860406E+02  0.30000001689E+02 0.  0.
        -12    1    1    2    0    0 -0.31188097324E+01  0.16113929159E+02  0.37199192806E+02  0.40659139594E+02  0.00000000000E+00 0.  1.
         11    1    3    3    0    0  0.25935326444E+01 -0.13564440283E+02 -0.12717610394E+02  0.18773866575E+02  0.51100000000E-03 0.  1.
        -11    1    3    3    0    0  0.42895833162E+00  0.52192525852E+01  0.80806249952E+00  0.52988270460E+01  0.51100000000E-03 0. -1.
         12    1    3    3    0    0  0.96318756382E-01 -0.77687414621E+01 -0.25289644911E+02  0.26456166785E+02  0.00000000000E+00 0. -1.
</event>
<event>
 7    1  0.6090311E-013  0.5052886E+02  0.7816164E-02  0.1300439E+00
        -11   -1    0    0    0    0  0.00000000000E+00  0.00000000000E+00  0.45593999997E+02  0.45594000000E+02  0.51100000000E-03 0. -1.
         11   -1    0    0    0    0 -0.00000000000E+00 -0.00000000000E+00 -0.45593999997E+02  0.45594000000E+02  0.51100000000E-03 0.  1.
    9900012    2    1    2    0    0 -0.30248179241E+00  0.40554334030E+02 -0.29017807397E+01  0.50528857912E+02  0.29999994110E+02 0.  0.
        -12    1    1    2    0    0  0.30248179241E+00 -0.40554334030E+02  0.29017807397E+01  0.40659142088E+02  0.00000000000E+00 0.  1.
         11    1    3    3    0    0 -0.81284918271E+01  0.20661864789E+02 -0.13199941161E+02  0.25830669423E+02  0.51100000000E-03 0. -1.
        -11    1    3    3    0    0  0.39315028362E+01  0.38946915730E+01  0.48404146567E+01  0.73522072407E+01  0.51100000000E-03 0.  1.
        -12    1    3    3    0    0  0.38945071984E+01  0.15997777668E+02  0.54577457642E+01  0.17345981248E+02  0.00000000000E+00 0.  1.
</event>
<event>
 7    1  0.6090311E-013  0.5052886E+02  0.7816164E-02  0.1300439E+00
        -11   -1    0    0    0    0  0.00000000000E+00  0.00000000000E+00  0.45593999997E+02  0.45594000000E+02  0.51100000000E-03 0.  1.
         11   -1    0    0    0    0 -0.00000000000E+00 -0.00000000000E+00 -0.45593999997E+02  0.45594000000E+02  0.51100000000E-03 0. -1.
    9900012    2    1    2    0    0  0.25589582114E+02 -0.27356852013E+02 -0.15809533568E+02  0.50528863063E+02  0.30000009767E+02 0.  0.
        -12    1    1    2    0    0 -0.25589582114E+02  0.27356852013E+02  0.15809533568E+02  0.40659136937E+02  0.00000000000E+00 0.  1.
         11    1    3    3    0    0  0.92975315303E+00 -0.19259626494E+02 -0.29942645516E+01  0.19513156435E+02  0.51100000000E-03 0. -1.
        -11    1    3    3    0    0  0.17430016155E+02 -0.10822357068E+02 -0.94486918247E+01  0.22587754495E+02  0.51100000000E-03 0.  1.
        -12    1    3    3    0    0  0.72298128056E+01  0.27251315489E+01 -0.33665771920E+01  0.84279521328E+01  0.00000000000E+00 0.  1.
</event>
<event>
 7    1  0.6090311E-013  0.5052883E+02  0.7816164E-02  0.1300439E+00
        -11   -1    0    0    0    0  0.00000000000E+00  0.00000000000E+00  0.45593999997E+02  0.45594000000E+02  0.51100000000E-03 0.  1.
         11   -1    0    0    0    0 -0.00000000000E+00 -0.00000000000E+00 -0.45593999997E+02  0.45594000000E+02  0.51100000000E-03 0. -1.
    9900012    2    1    2    0    0 -0.23408463295E+02 -0.16824918890E+02 -0.28672880287E+02  0.50528829898E+02  0.29999908957E+02 0.  0.
        -12    1    1    2    0    0  0.23408463295E+02  0.16824918890E+02  0.28672880287E+02  0.40659170102E+02  0.00000000000E+00 0.  1.
         11    1    3    3    0    0 -0.18721245152E+02 -0.62308282278E+01 -0.18594324610E+01  0.19818318036E+02  0.51100000000E-03 0. -1.
        -11    1    3    3    0    0  0.25917880150E+01 -0.27032055794E+01 -0.39004150106E+01  0.54072102821E+01  0.51100000000E-03 0.  1.
        -12    1    3    3    0    0 -0.72790061576E+01 -0.78908850825E+01 -0.22913032815E+02  0.25303301579E+02  0.00000000000E+00 0.  1.
</event>
<event>
 7    1  0.6090311E-013  0.5052887E+02  0.7816164E-02  0.1300439E+00
        -11   -1    0    0    0    0  0.00000000000E+00  0.00000000000E+00  0.45593999997E+02  0.45594000000E+02  0.51100000000E-03 0.  1.
         11   -1    0    0    0    0 -0.00000000000E+00 -0.00000000000E+00 -0.45593999997E+02  0.45594000000E+02  0.51100000000E-03 0. -1.
    9900012    2    1    2    0    0  0.77453689243E+01  0.10530689679E+02 -0.38500376328E+02  0.50528866435E+02  0.30000020015E+02 0.  0.
        -12    1    1    2    0    0 -0.77453689243E+01 -0.10530689679E+02  0.38500376328E+02  0.40659133565E+02  0.00000000000E+00 0.  1.
         11    1    3    3    0    0  0.68252379830E+01  0.12174594154E+02 -0.11080975704E+02  0.17821129009E+02  0.51100000000E-03 0.  1.
        -11    1    3    3    0    0  0.73706088303E+01 -0.44043279547E+01 -0.68789167523E+01  0.11001975968E+02  0.51100000000E-03 0. -1.
        -12    1    3    3    0    0 -0.64504778890E+01  0.27604234804E+01 -0.20540483872E+02  0.21705761458E+02  0.00000000000E+00 0.  1.
</event>
<event>
 7    1  0.6090311E-013  0.5052886E+02  0.7816164E-02  0.1300439E+00
        -11   -1    0    0    0    0  0.00000000000E+00  0.00000000000E+00  0.45593999997E+02  0.45594000000E+02  0.51100000000E-03 0.  1.
         11   -1    0    0    0    0 -0.00000000000E+00 -0.00000000000E+00 -0.45593999997E+02  0.45594000000E+02  0.51100000000E-03 0. -1.
    9900012    2    1    2    0    0 -0.21823762064E+02  0.34137589188E+02 -0.33932037698E+01  0.50528863044E+02  0.30000009709E+02 0.  0.
        -12    1    1    2    0    0  0.21823762064E+02 -0.34137589188E+02  0.33932037698E+01  0.40659136956E+02  0.00000000000E+00 0.  1.
         11    1    3    3    0    0 -0.96671475473E+00  0.21074663754E+02  0.41775731884E+01  0.21506466650E+02  0.51100000000E-03 0.  1.
        -11    1    3    3    0    0 -0.28858601912E+01  0.91804966808E+01 -0.29388331688E+01  0.10062129447E+02  0.51100000000E-03 0. -1.
         12    1    3    3    0    0 -0.17971187118E+02  0.38824287530E+01 -0.46319437894E+01  0.18960266947E+02  0.00000000000E+00 0. -1.
</event>
<event>
 7    1  0.6090311E-013  0.5052887E+02  0.7816164E-02  0.1300439E+00
        -11   -1    0    0    0    0  0.00000000000E+00  0.00000000000E+00  0.45593999997E+02  0.45594000000E+02  0.51100000000E-03 0.  1.
         11   -1    0    0    0    0 -0.00000000000E+00 -0.00000000000E+00 -0.45593999997E+02  0.45594000000E+02  0.51100000000E-03 0. -1.
    9900012    2    1    2    0    0 -0.16534922517E+02 -0.24649566828E+02 -0.27787771515E+02  0.50528867530E+02  0.30000023344E+02 0.  0.
        -12    1    1    2    0    0  0.16534922517E+02  0.24649566828E+02  0.27787771515E+02  0.40659132470E+02  0.00000000000E+00 0.  1.
         11    1    3    3    0    0 -0.57646309066E+01 -0.14637938300E+01 -0.61765239618E+01  0.85745618185E+01  0.51100000000E-03 0. -1.
        -11    1    3    3    0    0 -0.82702643927E+00  0.53175357905E+01 -0.12001444748E+01  0.55136654447E+01  0.51100000000E-03 0.  1.
        -12    1    3    3    0    0 -0.99432651711E+01 -0.28503308789E+02 -0.20411103078E+02  0.36440640267E+02  0.00000000000E+00 0.  1.
</event>
<event>
 7    1  0.6090311E-013  0.5052886E+02  0.7816164E-02  0.1300439E+00
        -11   -1    0    0    0    0  0.00000000000E+00  0.00000000000E+00  0.45593999997E+02  0.45594000000E+02  0.51100000000E-03 0.  1.
         11   -1    0    0    0    0 -0.00000000000E+00 -0.00000000000E+00 -0.45593999997E+02  0.45594000000E+02  0.51100000000E-03 0. -1.
    9900012    2    1    2    0    0  0.16777159844E+02 -0.16091254517E+02 -0.33358119920E+02  0.50528859220E+02  0.29999998087E+02 0.  0.
        -12    1    1    2    0    0 -0.16777159844E+02  0.16091254517E+02  0.33358119920E+02  0.40659140780E+02  0.00000000000E+00 0.  1.
         11    1    3    3    0    0  0.74249954614E+01 -0.18299267810E+01 -0.27794080705E+01  0.81366024303E+01  0.51100000000E-03 0. -1.
        -11    1    3    3    0    0  0.65607835486E+01  0.47984152174E+01 -0.28180517069E+01  0.86029114289E+01  0.51100000000E-03 0.  1.
         12    1    3    3    0    0  0.27913808338E+01 -0.19059742953E+02 -0.27760660142E+02  0.33789345361E+02  0.00000000000E+00 0. -1.
</event>
<event>
 7    1  0.6090311E-013  0.5052885E+02  0.7816164E-02  0.1300439E+00
        -11   -1    0    0    0    0  0.00000000000E+00  0.00000000000E+00  0.45593999997E+02  0.45594000000E+02  0.51100000000E-03 0. -1.
         11   -1    0    0    0    0 -0.00000000000E+00 -0.00000000000E+00 -0.45593999997E+02  0.45594000000E+02  0.51100000000E-03 0.  1.
    9900012    2    1    2    0    0 -0.26590920225E+01  0.13540059455E+02  0.38246077078E+02  0.50528851062E+02  0.29999973289E+02 0.  0.
        -12    1    1    2    0    0  0.26590920225E+01 -0.13540059455E+02 -0.38246077078E+02  0.40659148938E+02  0.00000000000E+00 0.  1.
         11    1    3    3    0    0  0.97753016250E+01  0.73492918089E+01  0.98897361905E+01  0.15728175169E+02  0.51100000000E-03 0. -1.
        -11    1    3    3    0    0 -0.30841905664E+01  0.10051368139E+01 -0.11305322303E+01  0.34352052121E+01  0.51100000000E-03 0.  1.
         12    1    3    3    0    0 -0.93502030811E+01  0.51856308325E+01  0.29486873118E+02  0.31365470682E+02  0.00000000000E+00 0. -1.
</event>
<event>
 7    1  0.6090311E-013  0.5052886E+02  0.7816164E-02  0.1300439E+00
        -11   -1    0    0    0    0  0.00000000000E+00  0.00000000000E+00  0.45593999997E+02  0.45594000000E+02  0.51100000000E-03 0. -1.
         11   -1    0    0    0    0 -0.00000000000E+00 -0.00000000000E+00 -0.45593999997E+02  0.45594000000E+02  0.51100000000E-03 0.  1.
    9900012    2    1    2    0    0 -0.31900384431E+02  0.10581893870E+02 -0.22881317202E+02  0.50528859802E+02  0.29999999854E+02 0.  0.
        -12    1    1    2    0    0  0.31900384431E+02 -0.10581893870E+02  0.22881317202E+02  0.40659140198E+02  0.00000000000E+00 0.  1.
         11    1    3    3    0    0  0.42549690297E+00 -0.28355885496E+01  0.13264049252E+01  0.31592657887E+01  0.51100000000E-03 0. -1.
        -11    1    3    3    0    0 -0.50897643182E+01 -0.55245321790E+01 -0.51834202188E+01  0.91265547738E+01  0.51100000000E-03 0.  1.
         12    1    3    3    0    0 -0.27236117016E+02  0.18942014599E+02 -0.19024301909E+02  0.38243039239E+02  0.00000000000E+00 0. -1.
</event>
<event>
 7    1  0.6090311E-013  0.5052886E+02  0.7816164E-02  0.1300439E+00
        -11   -1    0    0    0    0  0.00000000000E+00  0.00000000000E+00  0.45593999997E+02  0.45594000000E+02  0.51100000000E-03 0. -1.
         11   -1    0    0    0    0 -0.00000000000E+00 -0.00000000000E+00 -0.45593999997E+02  0.45594000000E+02  0.51100000000E-03 0.  1.
    9900012    2    1    2    0    0  0.13163906446E+02  0.38433933529E+02 -0.16462863076E+01  0.50528856649E+02  0.29999990269E+02 0.  0.
        -12    1    1    2    0    0 -0.13163906446E+02 -0.38433933529E+02  0.16462863076E+01  0.40659143351E+02  0.00000000000E+00 0.  1.
         11    1    3    3    0    0  0.17429683520E+01  0.15158416365E+02  0.80290794166E+01  0.17241857264E+02  0.51100000000E-03 0. -1.
        -11    1    3    3    0    0  0.49573614831E+01  0.19673175450E+02  0.98283625294E+00  0.20311948024E+02  0.51100000000E-03 0.  1.
        -12    1    3    3    0    0  0.64635766110E+01  0.36023417146E+01 -0.10658201977E+02  0.12975051361E+02  0.00000000000E+00 0.  1.
</event>
<event>
 7    1  0.6090311E-013  0.5052886E+02  0.7816164E-02  0.1300439E+00
        -11   -1    0    0    0    0  0.00000000000E+00  0.00000000000E+00  0.45593999997E+02  0.45594000000E+02  0.51100000000E-03 0.  1.
         11   -1    0    0    0    0 -0.00000000000E+00 -0.00000000000E+00 -0.45593999997E+02  0.45594000000E+02  0.51100000000E-03 0. -1.
    9900012    2    1    2    0    0  0.57029341064E+01 -0.19897043280E+02 -0.34996430646E+02  0.50528856543E+02  0.29999989947E+02 0.  0.
        -12    1    1    2    0    0 -0.57029341064E+01  0.19897043280E+02  0.34996430646E+02  0.40659143457E+02  0.00000000000E+00 0.  1.
         11    1    3    3    0    0  0.54724549089E+01 -0.35010797728E+01 -0.21553072915E+01  0.68447550787E+01  0.51100000000E-03 0. -1.
        -11    1    3    3    0    0 -0.10301968520E+02 -0.62316546726E+01 -0.68432658995E+01  0.13848984215E+02  0.51100000000E-03 0.  1.
         12    1    3    3    0    0  0.10532447718E+02 -0.10164308835E+02 -0.25997857455E+02  0.29835117249E+02  0.00000000000E+00 0. -1.
</event>
<event>
 7    1  0.6090311E-013  0.5052886E+02  0.7816164E-02  0.1300439E+00
        -11   -1    0    0    0    0  0.00000000000E+00  0.00000000000E+00  0.45593999997E+02  0.45594000000E+02  0.51100000000E-03 0.  1.
         11   -1    0    0    0    0 -0.00000000000E+00 -0.00000000000E+00 -0.45593999997E+02  0.45594000000E+02  0.51100000000E-03 0. -1.
    9900012    2    1    2    0    0  0.26090811783E+02  0.69620291967E+01 -0.30396803976E+02  0.50528855863E+02  0.29999987880E+02 0.  0.
        -12    1    1    2    0    0 -0.26090811783E+02 -0.69620291967E+01  0.30396803976E+02  0.40659144137E+02  0.00000000000E+00 0.  1.
         11    1    3    3    0    0  0.82106849340E+00  0.76686297046E+00 -0.54745554541E+01  0.55886483131E+01  0.51100000000E-03 0.  1.
        -11    1    3    3    0    0  0.34728052806E+01 -0.39911102676E+01 -0.19596608258E+02  0.20298186943E+02  0.51100000000E-03 0. -1.
        -12    1    3    3    0    0  0.21796938009E+02  0.10186276494E+02 -0.53256402638E+01  0.24642020607E+02  0.00000000000E+00 0.  1.
</event>
<event>
 7    1  0.6090311E-013  0.5052886E+02  0.7816164E-02  0.1300439E+00
        -11   -1    0    0    0    0  0.00000000000E+00  0.00000000000E+00  0.45593999997E+02  0.45594000000E+02  0.51100000000E-03 0.  1.
         11   -1    0    0    0    0 -0.00000000000E+00 -0.00000000000E+00 -0.45593999997E+02  0.45594000000E+02  0.51100000000E-03 0. -1.
    9900012    2    1    2    0    0  0.10602818864E+02  0.17421333140E+01 -0.39213656506E+02  0.50528860155E+02  0.30000000928E+02 0.  0.
        -12    1    1    2    0    0 -0.10602818864E+02 -0.17421333140E+01  0.39213656506E+02  0.40659139845E+02  0.00000000000E+00 0.  1.
         11    1    3    3    0    0 -0.22437741396E+00  0.55361364098E+01 -0.35909124965E+00  0.55523056794E+01  0.51100000000E-03 0. -1.
        -11    1    3    3    0    0  0.13785369813E+02 -0.71278138924E+01 -0.18536006405E+02  0.24174897838E+02  0.51100000000E-03 0.  1.
         12    1    3    3    0    0 -0.29581735350E+01  0.33338107966E+01 -0.20318558851E+02  0.20801656638E+02  0.00000000000E+00 0. -1.
</event>
<event>
 7    1  0.6090311E-013  0.5052886E+02  0.7816164E-02  0.1300439E+00
        -11   -1    0    0    0    0  0.00000000000E+00  0.00000000000E+00  0.45593999997E+02  0.45594000000E+02  0.51100000000E-03 0.  1.
         11   -1    0    0    0    0 -0.00000000000E+00 -0.00000000000E+00 -0.45593999997E+02  0.45594000000E+02  0.51100000000E-03 0. -1.
    9900012    2    1    2    0    0 -0.27541163308E+01  0.39510670545E+02 -0.91916895243E+01  0.50528863266E+02  0.30000010383E+02 0.  0.
        -12    1    1    2    0    0  0.27541163308E+01 -0.39510670545E+02  0.91916895243E+01  0.40659136734E+02  0.00000000000E+00 0.  1.
         11    1    3    3    0    0 -0.54006815315E+01  0.11882924589E+02  0.49177411170E+01  0.13948313007E+02  0.51100000000E-03 0. -1.
        -11    1    3    3    0    0 -0.20911947403E+01  0.12058512083E+02  0.33739712062E+01  0.12695057741E+02  0.51100000000E-03 0.  1.
        -12    1    3    3    0    0  0.47377599409E+01  0.15569233873E+02 -0.17483401848E+02  0.23885492518E+02  0.00000000000E+00 0.  1.
</event>
<event>
 7    1  0.6090311E-013  0.5052886E+02  0.7816164E-02  0.1300439E+00
        -11   -1    0    0    0    0  0.00000000000E+00  0.00000000000E+00  0.45593999997E+02  0.45594000000E+02  0.51100000000E-03 0. -1.
         11   -1    0    0    0    0 -0.00000000000E+00 -0.00000000000E+00 -0.45593999997E+02  0.45594000000E+02  0.51100000000E-03 0.  1.
    9900012    2    1    2    0    0  0.32849250454E+01  0.40476511856E+02 -0.20067441699E+01  0.50528858756E+02  0.29999996674E+02 0.  0.
        -12    1    1    2    0    0 -0.32849250454E+01 -0.40476511856E+02  0.20067441699E+01  0.40659141244E+02  0.00000000000E+00 0.  1.
         11    1    3    3    0    0 -0.90157599986E+00  0.20954245472E+02 -0.26506537794E+01  0.21140463767E+02  0.51100000000E-03 0. -1.
        -11    1    3    3    0    0  0.38487719799E+01  0.23991503343E+02  0.27179452742E+01  0.24449795606E+02  0.51100000000E-03 0.  1.
        -12    1    3    3    0    0  0.33772906541E+00 -0.44692369592E+01 -0.20740356646E+01  0.49385993821E+01  0.00000000000E+00 0.  1.
</event>
<event>
 7    1  0.6090311E-013  0.5052886E+02  0.7816164E-02  0.1300439E+00
        -11   -1    0    0    0    0  0.00000000000E+00  0.00000000000E+00  0.45593999997E+02  0.45594000000E+02  0.51100000000E-03 0.  1.
         11   -1    0    0    0    0 -0.00000000000E+00 -0.00000000000E+00 -0.45593999997E+02  0.45594000000E+02  0.51100000000E-03 0. -1.
    9900012    2    1    2    0    0  0.10547023317E+02 -0.22210980583E+02 -0.32382073639E+02  0.50528855241E+02  0.29999985992E+02 0.  0.
        -12    1    1    2    0    0 -0.10547023317E+02  0.22210980583E+02  0.32382073639E+02  0.40659144759E+02  0.00000000000E+00 0.  1.
         11    1    3    3    0    0  0.15178718102E+01  0.22562734732E+01 -0.53037911475E+01  0.59602773103E+01  0.51100000000E-03 0. -1.
        -11    1    3    3    0    0  0.64038912343E+00 -0.13746129946E+01  0.43902494869E+01  0.46447766289E+01  0.51100000000E-03 0.  1.
         12    1    3    3    0    0  0.83887623837E+01 -0.23092641062E+02 -0.31468531979E+02  0.39923801302E+02  0.00000000000E+00 0. -1.
</event>
<event>
 7    1  0.6090311E-013  0.5052885E+02  0.7816164E-02  0.1300439E+00
        -11   -1    0    0    0    0  0.00000000000E+00  0.00000000000E+00  0.45593999997E+02  0.45594000000E+02  0.51100000000E-03 0. -1.
         11   -1    0    0    0    0 -0.00000000000E+00 -0.00000000000E+00 -0.45593999997E+02  0.45594000000E+02  0.51100000000E-03 0.  1.
    9900012    2    1    2    0    0 -0.24013271027E+02  0.14839638557E+02  0.29262851346E+02  0.50528849408E+02  0.29999968261E+02 0.  0.
        -12    1    1    2    0    0  0.24013271027E+02 -0.14839638557E+02 -0.29262851346E+02  0.40659150592E+02  0.00000000000E+00 0.  1.
         11    1    3    3    0    0 -0.15459429032E+02  0.48379115269E+01  0.22258517432E+02  0.27528910848E+02  0.51100000000E-03 0. -1.
        -11    1    3    3    0    0 -0.10677310305E+02  0.97057186816E+00  0.83974033033E+01  0.13618492854E+02  0.51100000000E-03 0.  1.
        -12    1    3    3    0    0  0.21234683106E+01  0.90311551620E+01 -0.13930693885E+01  0.93814457067E+01  0.00000000000E+00 0.  1.
</event>
<event>
 7    1  0.6090311E-013  0.5052885E+02  0.7816164E-02  0.1300439E+00
        -11   -1    0    0    0    0  0.00000000000E+00  0.00000000000E+00  0.45593999997E+02  0.45594000000E+02  0.51100000000E-03 0.  1.
         11   -1    0    0    0    0 -0.00000000000E+00 -0.00000000000E+00 -0.45593999997E+02  0.45594000000E+02  0.51100000000E-03 0. -1.
    9900012    2    1    2    0    0  0.27900301184E+02 -0.25863059790E+02 -0.14347198412E+02  0.50528846417E+02  0.29999959169E+02 0.  0.
        -12    1    1    2    0    0 -0.27900301184E+02  0.25863059790E+02  0.14347198412E+02  0.40659153583E+02  0.00000000000E+00 0.  1.
         11    1    3    3    0    0  0.12431107287E+02 -0.94368457492E+01 -0.57438120282E+01  0.16630630263E+02  0.51100000000E-03 0. -1.
        -11    1    3    3    0    0  0.19069565468E+02 -0.36323848330E+01 -0.63013810863E+01  0.20409555374E+02  0.51100000000E-03 0.  1.
        -12    1    3    3    0    0 -0.36003715711E+01 -0.12793829207E+02 -0.23020052976E+01  0.13488660780E+02  0.00000000000E+00 0.  1.
</event>
<event>
 7    1  0.6090311E-013  0.5052883E+02  0.7816164E-02  0.1300439E+00
        -11   -1    0    0    0    0  0.00000000000E+00  0.00000000000E+00  0.45593999997E+02  0.45594000000E+02  0.51100000000E-03 0. -1.
         11   -1    0    0    0    0 -0.00000000000E+00 -0.00000000000E+00 -0.45593999997E+02  0.45594000000E+02  0.51100000000E-03 0.  1.
    9900012    2    1    2    0    0  0.21014729199E+02 -0.34721200930E+02  0.24469057627E+01  0.50528831475E+02  0.29999913750E+02 0.  0.
        -12    1    1    2    0    0 -0.21014729199E+02  0.34721200930E+02 -0.24469057627E+01  0.40659168525E+02  0.00000000000E+00 0.  1.
         11    1    3    3    0    0  0.19755799197E+02 -0.21304062336E+02  0.95773848238E+01  0.30592171781E+02  0.51100000000E-03 0. -1.
        -11    1    3    3    0    0  0.64148470886E+01 -0.54164745274E+01 -0.64796008798E+00  0.84207073344E+01  0.51100000000E-03 0.  1.
        -12    1    3    3    0    0 -0.51559170863E+01 -0.80006640666E+01 -0.64825189732E+01  0.11515952359E+02  0.00000000000E+00 0.  1.
</event>
<event>
 7    1  0.6090311E-013  0.5052885E+02  0.7816164E-02  0.1300439E+00
        -11   -1    0    0    0    0  0.00000000000E+00  0.00000000000E+00  0.45593999997E+02  0.45594000000E+02  0.51100000000E-03 0.  1.
         11   -1    0    0    0    0 -0.00000000000E+00 -0.00000000000E+00 -0.45593999997E+02  0.45594000000E+02  0.51100000000E-03 0. -1.
    9900012    2    1    2    0    0 -0.27994002164E+02  0.72514305328E-01 -0.29487236881E+02  0.50528849070E+02  0.29999967233E+02 0.  0.
        -12    1    1    2    0    0  0.27994002164E+02 -0.72514305328E-01  0.29487236881E+02  0.40659150930E+02  0.00000000000E+00 0.  1.
         11    1    3    3    0    0 -0.40426669346E+01  0.57221272476E+01 -0.78069304007E+01  0.10489712042E+02  0.51100000000E-03 0. -1.
        -11    1    3    3    0    0 -0.16191053625E+02  0.15403454130E+01 -0.24206169670E+02  0.29162673605E+02  0.51100000000E-03 0.  1.
        -12    1    3    3    0    0 -0.77602816046E+01 -0.71899583554E+01  0.25258631894E+01  0.10876463423E+02  0.00000000000E+00 0.  1.
</event>
<event>
 7    1  0.6090311E-013  0.5052883E+02  0.7816164E-02  0.1300439E+00
        -11   -1    0    0    0    0  0.00000000000E+00  0.00000000000E+00  0.45593999997E+02  0.45594000000E+02  0.51100000000E-03 0. -1.
         11   -1    0    0    0    0 -0.00000000000E+00 -0.00000000000E+00 -0.45593999997E+02  0.45594000000E+02  0.51100000000E-03 0.  1.
    9900012    2    1    2    0    0  0.11315040477E+02 -0.37670500867E+01  0.38870903574E+02  0.50528831883E+02  0.29999914991E+02 0.  0.
        -12    1    1    2    0    0 -0.11315040477E+02  0.37670500867E+01 -0.38870903574E+02  0.40659168117E+02  0.00000000000E+00 0.  1.
         11    1    3    3    0    0  0.14405343170E+01  0.34414524850E+01  0.16240702877E+02  0.16663708007E+02  0.51100000000E-03 0. -1.
        -11    1    3    3    0    0  0.69111647387E+01  0.21189858015E+01  0.22961628442E+02  0.24072612651E+02  0.51100000000E-03 0.  1.
        -12    1    3    3    0    0  0.29633414215E+01 -0.93274883732E+01 -0.33142774621E+00  0.97925112246E+01  0.00000000000E+00 0.  1.
</event>
<event>
 7    1  0.6090311E-013  0.5052886E+02  0.7816164E-02  0.1300439E+00
        -11   -1    0    0    0    0  0.00000000000E+00  0.00000000000E+00  0.45593999997E+02  0.45594000000E+02  0.51100000000E-03 0.  1.
         11   -1    0    0    0    0 -0.00000000000E+00 -0.00000000000E+00 -0.45593999997E+02  0.45594000000E+02  0.51100000000E-03 0. -1.
    9900012    2    1    2    0    0  0.14040072760E+02  0.13817351805E+02 -0.35568561190E+02  0.50528863276E+02  0.30000010414E+02 0.  0.
        -12    1    1    2    0    0 -0.14040072760E+02 -0.13817351805E+02  0.35568561190E+02  0.40659136724E+02  0.00000000000E+00 0.  1.
         11    1    3    3    0    0  0.28511258691E+01 -0.19404000289E+01 -0.10278489239E+02  0.10841651732E+02  0.51100000000E-03 0. -1.
        -11    1    3    3    0    0 -0.24561338210E+01  0.57577883041E+01  0.28307096190E+01  0.68700536177E+01  0.51100000000E-03 0.  1.
         12    1    3    3    0    0  0.13645080712E+02  0.99999635298E+01 -0.28120781570E+02  0.32817157926E+02  0.00000000000E+00 0. -1.
</event>
<event>
 7    1  0.6090311E-013  0.5052886E+02  0.7816164E-02  0.1300439E+00
        -11   -1    0    0    0    0  0.00000000000E+00  0.00000000000E+00  0.45593999997E+02  0.45594000000E+02  0.51100000000E-03 0.  1.
         11   -1    0    0    0    0 -0.00000000000E+00 -0.00000000000E+00 -0.45593999997E+02  0.45594000000E+02  0.51100000000E-03 0. -1.
    9900012    2    1    2    0    0 -0.23993073344E+01 -0.40862099845E+01 -0.40382075787E+02  0.50528857945E+02  0.29999994211E+02 0.  0.
        -12    1    1    2    0    0  0.23993073344E+01  0.40862099845E+01  0.40382075787E+02  0.40659142055E+02  0.00000000000E+00 0.  1.
         11    1    3    3    0    0 -0.70412145404E+01 -0.24417239291E+01 -0.57589586580E+01  0.94184034229E+01  0.51100000000E-03 0. -1.
        -11    1    3    3    0    0  0.75049638203E+00 -0.79160863011E+00  0.30438495917E+01  0.32334052701E+01  0.51100000000E-03 0.  1.
         12    1    3    3    0    0  0.38914108240E+01 -0.85287742530E+00 -0.37666966721E+02  0.37877049252E+02  0.00000000000E+00 0. -1.
</event>
<event>
 7    1  0.6090311E-013  0.5052887E+02  0.7816164E-02  0.1300439E+00
        -11   -1    0    0    0    0  0.00000000000E+00  0.00000000000E+00  0.45593999997E+02  0.45594000000E+02  0.51100000000E-03 0. -1.
         11   -1    0    0    0    0 -0.00000000000E+00 -0.00000000000E+00 -0.45593999997E+02  0.45594000000E+02  0.51100000000E-03 0.  1.
    9900012    2    1    2    0    0  0.34215540623E+02  0.18868693539E+02  0.11244290301E+02  0.50528869655E+02  0.30000029804E+02 0.  0.
        -12    1    1    2    0    0 -0.34215540623E+02 -0.18868693539E+02 -0.11244290301E+02  0.40659130345E+02  0.00000000000E+00 0.  1.
         11    1    3    3    0    0  0.10188289060E+02  0.13566335584E+02  0.86485024345E+01  0.19043195366E+02  0.51100000000E-03 0. -1.
        -11    1    3    3    0    0  0.16605850249E+02  0.10658080324E+02 -0.40903401667E+01  0.20151422323E+02  0.51100000000E-03 0.  1.
         12    1    3    3    0    0  0.74214013142E+01 -0.53557223689E+01  0.66861280331E+01  0.11334251966E+02  0.00000000000E+00 0. -1.
</event>
<event>
 7    1  0.6090311E-013  0.5052886E+02  0.7816164E-02  0.1300439E+00
        -11   -1    0    0    0    0  0.00000000000E+00  0.00000000000E+00  0.45593999997E+02  0.45594000000E+02  0.51100000000E-03 0.  1.
         11   -1    0    0    0    0 -0.00000000000E+00 -0.00000000000E+00 -0.45593999997E+02  0.45594000000E+02  0.51100000000E-03 0. -1.
    9900012    2    1    2    0    0  0.19412296006E+02  0.35225190195E+02 -0.59593739996E+01  0.50528863278E+02  0.30000010420E+02 0.  0.
        -12    1    1    2    0    0 -0.19412296006E+02 -0.35225190195E+02  0.59593739996E+01  0.40659136722E+02  0.00000000000E+00 0.  1.
         11    1    3    3    0    0  0.14482029387E+02  0.25362825258E+02 -0.65545838391E+00  0.29213553467E+02  0.51100000000E-03 0. -1.
        -11    1    3    3    0    0  0.10487328049E+02  0.99202163972E+01 -0.13581310214E+01  0.14499629757E+02  0.51100000000E-03 0.  1.
        -12    1    3    3    0    0 -0.55570614297E+01 -0.57851460009E-01 -0.39457845942E+01  0.68156800533E+01  0.00000000000E+00 0.  1.
</event>
<event>
 7    1  0.6090311E-013  0.5052886E+02  0.7816164E-02  0.1300439E+00
        -11   -1    0    0    0    0  0.00000000000E+00  0.00000000000E+00  0.45593999997E+02  0.45594000000E+02  0.51100000000E-03 0. -1.
         11   -1    0    0    0    0 -0.00000000000E+00 -0.00000000000E+00 -0.45593999997E+02  0.45594000000E+02  0.51100000000E-03 0.  1.
    9900012    2    1    2    0    0 -0.29388147311E+02 -0.28007351213E+02 -0.22563156290E+01  0.50528857307E+02  0.29999992269E+02 0.  0.
        -12    1    1    2    0    0  0.29388147311E+02  0.28007351213E+02  0.22563156290E+01  0.40659142693E+02  0.00000000000E+00 0.  1.
         11    1    3    3    0    0 -0.10006228792E+02 -0.82659913170E+01  0.16735679213E+01  0.13086330920E+02  0.51100000000E-03 0. -1.
        -11    1    3    3    0    0 -0.22360689727E+02 -0.23192450037E+02 -0.53717922690E+01  0.32661082900E+02  0.51100000000E-03 0.  1.
        -12    1    3    3    0    0  0.29787712073E+01  0.34510901409E+01  0.14419087187E+01  0.47814434870E+01  0.00000000000E+00 0.  1.
</event>
<event>
 7    1  0.6090311E-013  0.5052886E+02  0.7816164E-02  0.1300439E+00
        -11   -1    0    0    0    0  0.00000000000E+00  0.00000000000E+00  0.45593999997E+02  0.45594000000E+02  0.51100000000E-03 0.  1.
         11   -1    0    0    0    0 -0.00000000000E+00 -0.00000000000E+00 -0.45593999997E+02  0.45594000000E+02  0.51100000000E-03 0. -1.
    9900012    2    1    2    0    0 -0.15567436434E+02 -0.37229034132E+02  0.49819212992E+01  0.50528860813E+02  0.30000002928E+02 0.  0.
        -12    1    1    2    0    0  0.15567436434E+02  0.37229034132E+02 -0.49819212992E+01  0.40659139187E+02  0.00000000000E+00 0.  1.
         11    1    3    3    0    0 -0.28985682515E+01 -0.18734588472E+02  0.56342884550E+01  0.19777050078E+02  0.51100000000E-03 0. -1.
        -11    1    3    3    0    0  0.69389493004E+00 -0.92557729668E+01  0.80818662571E+01  0.12307208694E+02  0.51100000000E-03 0.  1.
        -12    1    3    3    0    0 -0.13362763113E+02 -0.92386726937E+01 -0.87342334129E+01  0.18444602041E+02  0.00000000000E+00 0.  1.
</event>
<event>
 7    1  0.6090311E-013  0.5052886E+02  0.7816164E-02  0.1300439E+00
        -11   -1    0    0    0    0  0.00000000000E+00  0.00000000000E+00  0.45593999997E+02  0.45594000000E+02  0.51100000000E-03 0. -1.
         11   -1    0    0    0    0 -0.00000000000E+00 -0.00000000000E+00 -0.45593999997E+02  0.45594000000E+02  0.51100000000E-03 0.  1.
    9900012    2    1    2    0    0  0.34840140132E+02 -0.70552572770E+01  0.19737109611E+02  0.50528861845E+02  0.30000006065E+02 0.  0.
        -12    1    1    2    0    0 -0.34840140132E+02  0.70552572770E+01 -0.19737109611E+02  0.40659138155E+02  0.00000000000E+00 0.  1.
         11    1    3    3    0    0  0.31901476477E+01  0.46691810548E+01  0.18885778111E+01  0.59619644536E+01  0.51100000000E-03 0. -1.
        -11    1    3    3    0    0  0.18605784721E+02  0.27183653248E+01  0.10072828835E+01  0.18830277592E+02  0.51100000000E-03 0.  1.
        -12    1    3    3    0    0  0.13044207764E+02 -0.14442803657E+02  0.16841248917E+02  0.25736619800E+02  0.00000000000E+00 0.  1.
</event>
<event>
 7    1  0.6090311E-013  0.5052885E+02  0.7816164E-02  0.1300439E+00
        -11   -1    0    0    0    0  0.00000000000E+00  0.00000000000E+00  0.45593999997E+02  0.45594000000E+02  0.51100000000E-03 0.  1.
         11   -1    0    0    0    0 -0.00000000000E+00 -0.00000000000E+00 -0.45593999997E+02  0.45594000000E+02  0.51100000000E-03 0. -1.
    9900012    2    1    2    0    0 -0.10185954440E+02 -0.14646194662E+02 -0.36536311300E+02  0.50528846918E+02  0.29999960692E+02 0.  0.
        -12    1    1    2    0    0  0.10185954440E+02  0.14646194662E+02  0.36536311300E+02  0.40659153082E+02  0.00000000000E+00 0.  1.
         11    1    3    3    0    0  0.92056431279E+00 -0.12625985548E+02 -0.19325417283E+02  0.23102699044E+02  0.51100000000E-03 0. -1.
        -11    1    3    3    0    0  0.44129399448E+01 -0.69564916420E+00 -0.84428798228E+01  0.95519729208E+01  0.51100000000E-03 0.  1.
         12    1    3    3    0    0 -0.15519458698E+02 -0.13245599503E+01 -0.87680141941E+01  0.17874174953E+02  0.00000000000E+00 0. -1.
</event>
<event>
 7    1  0.6090311E-013  0.5052886E+02  0.7816164E-02  0.1300439E+00
        -11   -1    0    0    0    0  0.00000000000E+00  0.00000000000E+00  0.45593999997E+02  0.45594000000E+02  0.51100000000E-03 0.  1.
         11   -1    0    0    0    0 -0.00000000000E+00 -0.00000000000E+00 -0.45593999997E+02  0.45594000000E+02  0.51100000000E-03 0. -1.
    9900012    2    1    2    0    0  0.38073277855E+02  0.33634995460E+01 -0.13866447027E+02  0.50528856269E+02  0.29999989115E+02 0.  0.
        -12    1    1    2    0    0 -0.38073277855E+02 -0.33634995460E+01  0.13866447027E+02  0.40659143731E+02  0.00000000000E+00 0.  1.
         11    1    3    3    0    0  0.14210553402E+02 -0.21055084935E+01 -0.14119217466E+02  0.20142623864E+02  0.51100000000E-03 0. -1.
        -11    1    3    3    0    0 -0.20856213663E+01  0.27957178466E+01 -0.22967772298E+01  0.41762471988E+01  0.51100000000E-03 0.  1.
         12    1    3    3    0    0  0.25948345819E+02  0.26732901929E+01  0.25495476690E+01  0.26209985207E+02  0.00000000000E+00 0. -1.
</event>
<event>
 7    1  0.6090311E-013  0.5052887E+02  0.7816164E-02  0.1300439E+00
        -11   -1    0    0    0    0  0.00000000000E+00  0.00000000000E+00  0.45593999997E+02  0.45594000000E+02  0.51100000000E-03 0.  1.
         11   -1    0    0    0    0 -0.00000000000E+00 -0.00000000000E+00 -0.45593999997E+02  0.45594000000E+02  0.51100000000E-03 0. -1.
    9900012    2    1    2    0    0 -0.39749139182E+02 -0.79281530100E+01 -0.32117321666E+01  0.50528869422E+02  0.30000029095E+02 0.  0.
        -12    1    1    2    0    0  0.39749139182E+02  0.79281530100E+01  0.32117321666E+01  0.40659130578E+02  0.00000000000E+00 0.  1.
         11    1    3    3    0    0 -0.38141953915E+01 -0.17962902949E+01  0.10490423162E+01  0.43445638849E+01  0.51100000000E-03 0. -1.
        -11    1    3    3    0    0  0.18267314825E+01  0.58268835341E+01  0.11266009610E+01  0.62095691972E+01  0.51100000000E-03 0.  1.
         12    1    3    3    0    0 -0.37761675273E+02 -0.11958746249E+02 -0.53873754437E+01  0.39974736340E+02  0.00000000000E+00 0. -1.
</event>
<event>
 7    1  0.6090311E-013  0.5052884E+02  0.7816164E-02  0.1300439E+00
        -11   -1    0    0    0    0  0.00000000000E+00  0.00000000000E+00  0.45593999997E+02  0.45594000000E+02  0.51100000000E-03 0.  1.
         11   -1    0    0    0    0 -0.00000000000E+00 -0.00000000000E+00 -0.45593999997E+02  0.45594000000E+02  0.51100000000E-03 0. -1.
    9900012    2    1    2    0    0 -0.26267424746E+02 -0.22256388072E+02 -0.21629674676E+02  0.50528840646E+02  0.29999941628E+02 0.  0.
        -12    1    1    2    0    0  0.26267424746E+02  0.22256388072E+02  0.21629674676E+02  0.40659159354E+02  0.00000000000E+00 0.  1.
         11    1    3    3    0    0 -0.67273782297E+01  0.15500912089E+01 -0.56003828654E+01  0.88895831793E+01  0.51100000000E-03 0. -1.
        -11    1    3    3    0    0  0.17205236452E+01  0.27846367940E+01 -0.47604371708E+01  0.57772109193E+01  0.51100000000E-03 0.  1.
         12    1    3    3    0    0 -0.21260570161E+02 -0.26591116075E+02 -0.11268854640E+02  0.35862046548E+02  0.00000000000E+00 0. -1.
</event>
<event>
 7    1  0.6090311E-013  0.5052885E+02  0.7816164E-02  0.1300439E+00
        -11   -1    0    0    0    0  0.00000000000E+00  0.00000000000E+00  0.45593999997E+02  0.45594000000E+02  0.51100000000E-03 0.  1.
         11   -1    0    0    0    0 -0.00000000000E+00 -0.00000000000E+00 -0.45593999997E+02  0.45594000000E+02  0.51100000000E-03 0. -1.
    9900012    2    1    2    0    0 -0.16061434659E+02  0.37350974694E+02  0.31845259116E+00  0.50528850895E+02  0.29999972781E+02 0.  0.
        -12    1    1    2    0    0  0.16061434659E+02 -0.37350974694E+02 -0.31845259116E+00  0.40659149105E+02  0.00000000000E+00 0.  1.
         11    1    3    3    0    0 -0.26257660879E+01  0.17908668356E+02 -0.83776428551E+01  0.19944922911E+02  0.51100000000E-03 0. -1.
        -11    1    3    3    0    0 -0.89829173229E+00 -0.27294757146E+01  0.36032561312E+01  0.46087330928E+01  0.51100000000E-03 0.  1.
         12    1    3    3    0    0 -0.12537376839E+02  0.22171782052E+02  0.50928393151E+01  0.25975194891E+02  0.00000000000E+00 0. -1.
</event>
<event>
 7    1  0.6090311E-013  0.5052888E+02  0.7816164E-02  0.1300439E+00
        -11   -1    0    0    0    0  0.00000000000E+00  0.00000000000E+00  0.45593999997E+02  0.45594000000E+02  0.51100000000E-03 0. -1.
         11   -1    0    0    0    0 -0.00000000000E+00 -0.00000000000E+00 -0.45593999997E+02  0.45594000000E+02  0.51100000000E-03 0.  1.
    9900012    2    1    2    0    0  0.12520554229E+01 -0.35075706721E+02  0.20525371205E+02  0.50528884074E+02  0.30000073631E+02 0.  0.
        -12    1    1    2    0    0 -0.12520554229E+01  0.35075706721E+02 -0.20525371205E+02  0.40659115926E+02  0.00000000000E+00 0.  1.
         11    1    3    3    0    0 -0.29460065330E+01 -0.15464680623E+02  0.54073192346E+01  0.16645552044E+02  0.51100000000E-03 0. -1.
        -11    1    3    3    0    0 -0.68863521817E+01 -0.69068107182E+01 -0.18900580056E+01  0.99346967842E+01  0.51100000000E-03 0.  1.
         12    1    3    3    0    0  0.11084414138E+02 -0.12704215380E+02  0.17008109976E+02  0.23948635246E+02  0.00000000000E+00 0. -1.
</event>
<event>
 7    1  0.6090311E-013  0.5052885E+02  0.7816164E-02  0.1300439E+00
        -11   -1    0    0    0    0  0.00000000000E+00  0.00000000000E+00  0.45593999997E+02  0.45594000000E+02  0.51100000000E-03 0. -1.
         11   -1    0    0    0    0 -0.00000000000E+00 -0.00000000000E+00 -0.45593999997E+02  0.45594000000E+02  0.51100000000E-03 0.  1.
    9900012    2    1    2    0    0  0.87127160860E+01  0.27722903666E+02  0.28437574768E+02  0.50528850132E+02  0.29999970462E+02 0.  0.
        -12    1    1    2    0    0 -0.87127160860E+01 -0.27722903666E+02 -0.28437574768E+02  0.40659149868E+02  0.00000000000E+00 0.  1.
         11    1    3    3    0    0 -0.12347845648E+01  0.42939660343E+00 -0.32699795653E+01  0.35216247646E+01  0.51100000000E-03 0. -1.
        -11    1    3    3    0    0  0.44920885633E+01 -0.19671661119E+01  0.37781306118E+01  0.61905470964E+01  0.51100000000E-03 0.  1.
        -12    1    3    3    0    0  0.54554120875E+01  0.29260673174E+02  0.27929423722E+02  0.40816678271E+02  0.00000000000E+00 0.  1.
</event>
<event>
 7    1  0.6090311E-013  0.5052886E+02  0.7816164E-02  0.1300439E+00
        -11   -1    0    0    0    0  0.00000000000E+00  0.00000000000E+00  0.45593999997E+02  0.45594000000E+02  0.51100000000E-03 0. -1.
         11   -1    0    0    0    0 -0.00000000000E+00 -0.00000000000E+00 -0.45593999997E+02  0.45594000000E+02  0.51100000000E-03 0.  1.
    9900012    2    1    2    0    0 -0.21783113532E+02  0.25015807969E+02  0.23513200663E+02  0.50528864631E+02  0.30000014533E+02 0.  0.
        -12    1    1    2    0    0  0.21783113532E+02 -0.25015807969E+02 -0.23513200663E+02  0.40659135369E+02  0.00000000000E+00 0.  1.
         11    1    3    3    0    0  0.10999117468E+00  0.14337994840E+02  0.17963399655E+02  0.22984210266E+02  0.51100000000E-03 0. -1.
        -11    1    3    3    0    0 -0.10303097404E+01  0.42677577118E+01  0.35160796427E+01  0.56247764723E+01  0.51100000000E-03 0.  1.
        -12    1    3    3    0    0 -0.20862794967E+02  0.64100554168E+01  0.20337213651E+01  0.21919877893E+02  0.00000000000E+00 0.  1.
</event>
<event>
 7    1  0.6090311E-013  0.5052886E+02  0.7816164E-02  0.1300439E+00
        -11   -1    0    0    0    0  0.00000000000E+00  0.00000000000E+00  0.45593999997E+02  0.45594000000E+02  0.51100000000E-03 0.  1.
         11   -1    0    0    0    0 -0.00000000000E+00 -0.00000000000E+00 -0.45593999997E+02  0.45594000000E+02  0.51100000000E-03 0. -1.
    9900012    2    1    2    0    0  0.89647635954E+01  0.22750694282E+02 -0.32483918973E+02  0.50528855045E+02  0.29999985396E+02 0.  0.
        -12    1    1    2    0    0 -0.89647635954E+01 -0.22750694282E+02  0.32483918973E+02  0.40659144955E+02  0.00000000000E+00 0.  1.
         11    1    3    3    0    0 -0.41286153185E+01 -0.10034166292E+01 -0.60261418581E+01  0.73733774714E+01  0.51100000000E-03 0. -1.
        -11    1    3    3    0    0 -0.18649360643E+00 -0.13220883488E+00  0.29790757769E+01  0.29878339624E+01  0.51100000000E-03 0.  1.
         12    1    3    3    0    0  0.13279872520E+02  0.23886319746E+02 -0.29436852892E+02  0.40167643612E+02  0.00000000000E+00 0. -1.
</event>
<event>
 7    1  0.6090311E-013  0.5052886E+02  0.7816164E-02  0.1300439E+00
        -11   -1    0    0    0    0  0.00000000000E+00  0.00000000000E+00  0.45593999997E+02  0.45594000000E+02  0.51100000000E-03 0. -1.
         11   -1    0    0    0    0 -0.00000000000E+00 -0.00000000000E+00 -0.45593999997E+02  0.45594000000E+02  0.51100000000E-03 0.  1.
    9900012    2    1    2    0    0  0.10075970771E+02 -0.22543597352E+02 -0.32302117425E+02  0.50528858854E+02  0.29999996974E+02 0.  0.
        -12    1    1    2    0    0 -0.10075970771E+02  0.22543597352E+02  0.32302117425E+02  0.40659141146E+02  0.00000000000E+00 0.  1.
         11    1    3    3    0    0  0.16114432882E+02 -0.22823911211E+02 -0.21561161960E+02  0.35291494377E+02  0.51100000000E-03 0. -1.
        -11    1    3    3    0    0  0.83306619154E+00 -0.30446490590E+01 -0.35446364197E+01  0.47464022986E+01  0.51100000000E-03 0.  1.
        -12    1    3    3    0    0 -0.68715283024E+01  0.33249629183E+01 -0.71963190459E+01  0.10490962178E+02  0.00000000000E+00 0.  1.
</event>
<event>
 7    1  0.6090311E-013  0.5052886E+02  0.7816164E-02  0.1300439E+00
        -11   -1    0    0    0    0  0.00000000000E+00  0.00000000000E+00  0.45593999997E+02  0.45594000000E+02  0.51100000000E-03 0.  1.
         11   -1    0    0    0    0 -0.00000000000E+00 -0.00000000000E+00 -0.45593999997E+02  0.45594000000E+02  0.51100000000E-03 0. -1.
    9900012    2    1    2    0    0  0.32858306070E+02 -0.10524808573E+02 -0.21511053391E+02  0.50528864603E+02  0.30000014447E+02 0.  0.
        -12    1    1    2    0    0 -0.32858306070E+02  0.10524808573E+02  0.21511053391E+02  0.40659135397E+02  0.00000000000E+00 0.  1.
         11    1    3    3    0    0  0.21444392701E+02  0.41929147890E+01 -0.10606073222E+02  0.24288501440E+02  0.51100000000E-03 0. -1.
        -11    1    3    3    0    0  0.15070364735E+02 -0.11600014426E+02 -0.93340244836E+01  0.21184905976E+02  0.51100000000E-03 0.  1.
        -12    1    3    3    0    0 -0.36564513659E+01 -0.31177089364E+01 -0.15709556852E+01  0.50554571869E+01  0.00000000000E+00 0.  1.
</event>
<event>
 7    1  0.6090311E-013  0.5052887E+02  0.7816164E-02  0.1300439E+00
        -11   -1    0    0    0    0  0.00000000000E+00  0.00000000000E+00  0.45593999997E+02  0.45594000000E+02  0.51100000000E-03 0.  1.
         11   -1    0    0    0    0 -0.00000000000E+00 -0.00000000000E+00 -0.45593999997E+02  0.45594000000E+02  0.51100000000E-03 0. -1.
    9900012    2    1    2    0    0  0.32655879575E+02  0.52204458903E+01 -0.23653865316E+02  0.50528869777E+02  0.30000030173E+02 0.  0.
        -12    1    1    2    0    0 -0.32655879575E+02 -0.52204458903E+01  0.23653865316E+02  0.40659130223E+02  0.00000000000E+00 0.  1.
         11    1    3    3    0    0  0.11428937249E+02 -0.94903620863E+00 -0.48060804217E+00  0.11478338761E+02  0.51100000000E-03 0.  1.
        -11    1    3    3    0    0  0.69985477070E+01 -0.86427564077E+00  0.36065702385E+01  0.79204792492E+01  0.51100000000E-03 0. -1.
         12    1    3    3    0    0  0.14228394620E+02  0.70337577397E+01 -0.26779827513E+02  0.31130051767E+02  0.00000000000E+00 0. -1.
</event>
<event>
 7    1  0.6090311E-013  0.5052886E+02  0.7816164E-02  0.1300439E+00
        -11   -1    0    0    0    0  0.00000000000E+00  0.00000000000E+00  0.45593999997E+02  0.45594000000E+02  0.51100000000E-03 0.  1.
         11   -1    0    0    0    0 -0.00000000000E+00 -0.00000000000E+00 -0.45593999997E+02  0.45594000000E+02  0.51100000000E-03 0. -1.
    9900012    2    1    2    0    0 -0.32885254243E+02 -0.70004804020E+01 -0.22863044941E+02  0.50528862079E+02  0.30000006776E+02 0.  0.
        -12    1    1    2    0    0  0.32885254243E+02  0.70004804020E+01  0.22863044941E+02  0.40659137921E+02  0.00000000000E+00 0.  1.
         11    1    3    3    0    0  0.28723174837E+01 -0.34027449611E+01 -0.29170408039E+01  0.53233455938E+01  0.51100000000E-03 0. -1.
        -11    1    3    3    0    0 -0.15444476521E+02  0.15322084384E+01 -0.18581085717E+02  0.24210251225E+02  0.51100000000E-03 0.  1.
         12    1    3    3    0    0 -0.20313095206E+02 -0.51299438792E+01 -0.13649184201E+01  0.20995265260E+02  0.00000000000E+00 0. -1.
</event>
<event>
 7    1  0.6351238E-013  0.5052886E+02  0.7816164E-02  0.1300439E+00
        -11   -1    0    0    0    0  0.00000000000E+00  0.00000000000E+00  0.45593999997E+02  0.45594000000E+02  0.51100000000E-03 0.  1.
         11   -1    0    0    0    0 -0.00000000000E+00 -0.00000000000E+00 -0.45593999997E+02  0.45594000000E+02  0.51100000000E-03 0. -1.
    9900012    2    1    2    0    0  0.98453287519E+00  0.38576095478E+02 -0.12809424492E+02  0.50528858308E+02  0.29999995314E+02 0.  0.
        -12    1    1    2    0    0 -0.98453287519E+00 -0.38576095478E+02  0.12809424492E+02  0.40659141692E+02  0.00000000000E+00 0.  1.
         11    1    3    3    0    0 -0.61020588671E+01  0.23155492113E+02 -0.85843942285E+01  0.25438234254E+02  0.51100000000E-03 0. -1.
        -11    1    3    3    0    0  0.85725708211E+01  0.18941654617E+02 -0.26595026193E+01  0.20960634641E+02  0.51100000000E-03 0.  1.
        -12    1    3    3    0    0 -0.14859790788E+01 -0.35210512527E+01 -0.15655276439E+01  0.41299894129E+01  0.00000000000E+00 0.  1.
</event>
<event>
 7    1  0.6090311E-013  0.5052886E+02  0.7816164E-02  0.1300439E+00
        -11   -1    0    0    0    0  0.00000000000E+00  0.00000000000E+00  0.45593999997E+02  0.45594000000E+02  0.51100000000E-03 0.  1.
         11   -1    0    0    0    0 -0.00000000000E+00 -0.00000000000E+00 -0.45593999997E+02  0.45594000000E+02  0.51100000000E-03 0. -1.
    9900012    2    1    2    0    0  0.46062081507E+01 -0.84843370209E+01 -0.39496381902E+02  0.50528864353E+02  0.30000013688E+02 0.  0.
        -12    1    1    2    0    0 -0.46062081507E+01  0.84843370209E+01  0.39496381902E+02  0.40659135647E+02  0.00000000000E+00 0.  1.
         11    1    3    3    0    0  0.67780802594E+01 -0.26798244918E+01 -0.18777458539E+02  0.20142412486E+02  0.51100000000E-03 0. -1.
        -11    1    3    3    0    0  0.37251992849E+01 -0.10911269019E+01 -0.22331937559E+02  0.22666784135E+02  0.51100000000E-03 0.  1.
        -12    1    3    3    0    0 -0.58970713935E+01 -0.47133856273E+01  0.16130141965E+01  0.77196677318E+01  0.00000000000E+00 0.  1.
</event>
<event>
 7    1  0.6090311E-013  0.5052887E+02  0.7816164E-02  0.1300439E+00
        -11   -1    0    0    0    0  0.00000000000E+00  0.00000000000E+00  0.45593999997E+02  0.45594000000E+02  0.51100000000E-03 0.  1.
         11   -1    0    0    0    0 -0.00000000000E+00 -0.00000000000E+00 -0.45593999997E+02  0.45594000000E+02  0.51100000000E-03 0. -1.
    9900012    2    1    2    0    0  0.26225752987E+02  0.17939552871E+02 -0.25368227186E+02  0.50528872765E+02  0.30000039258E+02 0.  0.
        -12    1    1    2    0    0 -0.26225752987E+02 -0.17939552871E+02  0.25368227186E+02  0.40659127235E+02  0.00000000000E+00 0.  1.
         11    1    3    3    0    0  0.61178260229E+01 -0.11234350018E+01 -0.12533460981E+02  0.13992052954E+02  0.51100000000E-03 0. -1.
        -11    1    3    3    0    0  0.11132086820E+02  0.43968096350E+01 -0.15017867742E+02  0.19203948649E+02  0.51100000000E-03 0.  1.
        -12    1    3    3    0    0  0.89758401435E+01  0.14666178238E+02  0.21831015378E+01  0.17332871162E+02  0.00000000000E+00 0.  1.
</event>
<event>
 7    1  0.6090311E-013  0.5052889E+02  0.7816164E-02  0.1300439E+00
        -11   -1    0    0    0    0  0.00000000000E+00  0.00000000000E+00  0.45593999997E+02  0.45594000000E+02  0.51100000000E-03 0.  1.
         11   -1    0    0    0    0 -0.00000000000E+00 -0.00000000000E+00 -0.45593999997E+02  0.45594000000E+02  0.51100000000E-03 0. -1.
    9900012    2    1    2    0    0 -0.12263064675E+02 -0.28072654554E+02 -0.26733999302E+02  0.50528887766E+02  0.30000084853E+02 0.  0.
        -12    1    1    2    0    0  0.12263064675E+02  0.28072654554E+02  0.26733999302E+02  0.40659112234E+02  0.00000000000E+00 0.  1.
         11    1    3    3    0    0 -0.15781133701E+01 -0.92756796235E+00  0.10121782084E+01  0.20917287397E+01  0.51100000000E-03 0. -1.
        -11    1    3    3    0    0 -0.80901114669E+01 -0.38893224488E+00  0.20013088584E+01  0.83430455618E+01  0.51100000000E-03 0.  1.
         12    1    3    3    0    0 -0.25948398384E+01 -0.26756154347E+02 -0.29747486369E+02  0.40094113465E+02  0.00000000000E+00 0. -1.
</event>
<event>
 7    1  0.6090311E-013  0.5052884E+02  0.7816164E-02  0.1300439E+00
        -11   -1    0    0    0    0  0.00000000000E+00  0.00000000000E+00  0.45593999997E+02  0.45594000000E+02  0.51100000000E-03 0.  1.
         11   -1    0    0    0    0 -0.00000000000E+00 -0.00000000000E+00 -0.45593999997E+02  0.45594000000E+02  0.51100000000E-03 0. -1.
    9900012    2    1    2    0    0  0.18751359601E+02 -0.24454653152E+02 -0.26524028651E+02  0.50528835675E+02  0.29999926519E+02 0.  0.
        -12    1    1    2    0    0 -0.18751359601E+02  0.24454653152E+02  0.26524028651E+02  0.40659164325E+02  0.00000000000E+00 0.  1.
         11    1    3    3    0    0  0.43632248175E+00 -0.41526852803E+01 -0.58736410354E+01  0.72065825201E+01  0.51100000000E-03 0. -1.
        -11    1    3    3    0    0 -0.68529100147E+01 -0.42191714708E+01 -0.27673332620E+01  0.85101067686E+01  0.51100000000E-03 0.  1.
         12    1    3    3    0    0  0.25167947134E+02 -0.16082796401E+02 -0.17883054353E+02  0.34812146387E+02  0.00000000000E+00 0. -1.
</event>
<event>
 7    1  0.6090311E-013  0.5052886E+02  0.7816164E-02  0.1300439E+00
        -11   -1    0    0    0    0  0.00000000000E+00  0.00000000000E+00  0.45593999997E+02  0.45594000000E+02  0.51100000000E-03 0. -1.
         11   -1    0    0    0    0 -0.00000000000E+00 -0.00000000000E+00 -0.45593999997E+02  0.45594000000E+02  0.51100000000E-03 0.  1.
    9900012    2    1    2    0    0 -0.13594603443E+02  0.37741747182E+02 -0.66266976899E+01  0.50528857788E+02  0.29999993733E+02 0.  0.
        -12    1    1    2    0    0  0.13594603443E+02 -0.37741747182E+02  0.66266976899E+01  0.40659142212E+02  0.00000000000E+00 0.  1.
         11    1    3    3    0    0  0.30397559344E+01  0.45033325333E+01  0.24174675614E+01  0.59467865035E+01  0.51100000000E-03 0. -1.
        -11    1    3    3    0    0  0.34166112486E+01  0.19790138655E+01  0.36079664127E+01  0.53485652468E+01  0.51100000000E-03 0.  1.
         12    1    3    3    0    0 -0.20050970626E+02  0.31259400783E+02 -0.12652131664E+02  0.39233506038E+02  0.00000000000E+00 0. -1.
</event>
<event>
 7    1  0.6090311E-013  0.5052888E+02  0.7816164E-02  0.1300439E+00
        -11   -1    0    0    0    0  0.00000000000E+00  0.00000000000E+00  0.45593999997E+02  0.45594000000E+02  0.51100000000E-03 0. -1.
         11   -1    0    0    0    0 -0.00000000000E+00 -0.00000000000E+00 -0.45593999997E+02  0.45594000000E+02  0.51100000000E-03 0.  1.
    9900012    2    1    2    0    0 -0.21877536098E+01  0.30940061179E+02  0.26288603679E+02  0.50528876362E+02  0.30000050190E+02 0.  0.
        -12    1    1    2    0    0  0.21877536098E+01 -0.30940061179E+02 -0.26288603679E+02  0.40659123638E+02  0.00000000000E+00 0.  1.
         11    1    3    3    0    0  0.48196831832E+01  0.16794359561E+02  0.17320409179E+02  0.24602366420E+02  0.51100000000E-03 0. -1.
        -11    1    3    3    0    0  0.53207863649E+01  0.73904664281E+01 -0.26038272226E+00  0.91102997200E+01  0.51100000000E-03 0.  1.
         12    1    3    3    0    0 -0.12328223158E+02  0.67552351895E+01  0.92285772220E+01  0.16816210222E+02  0.00000000000E+00 0. -1.
</event>
<event>
 7    1  0.6090311E-013  0.5052886E+02  0.7816164E-02  0.1300439E+00
        -11   -1    0    0    0    0  0.00000000000E+00  0.00000000000E+00  0.45593999997E+02  0.45594000000E+02  0.51100000000E-03 0.  1.
         11   -1    0    0    0    0 -0.00000000000E+00 -0.00000000000E+00 -0.45593999997E+02  0.45594000000E+02  0.51100000000E-03 0. -1.
    9900012    2    1    2    0    0 -0.16968566896E+02 -0.36664788722E+02  0.45745889117E+01  0.50528857630E+02  0.29999993254E+02 0.  0.
        -12    1    1    2    0    0  0.16968566896E+02  0.36664788722E+02 -0.45745889117E+01  0.40659142370E+02  0.00000000000E+00 0.  1.
         11    1    3    3    0    0 -0.12666056919E+02 -0.28309196804E+02  0.85530146560E+01  0.32171317684E+02  0.51100000000E-03 0. -1.
        -11    1    3    3    0    0  0.47083528074E+01 -0.37523264648E+01  0.23049035736E+01  0.64467915122E+01  0.51100000000E-03 0.  1.
        -12    1    3    3    0    0 -0.90108627843E+01 -0.46032654535E+01 -0.62833293180E+01  0.11910748435E+02  0.00000000000E+00 0.  1.
</event>
<event>
 7    1  0.6090311E-013  0.5052886E+02  0.7816164E-02  0.1300439E+00
        -11   -1    0    0    0    0  0.00000000000E+00  0.00000000000E+00  0.45593999997E+02  0.45594000000E+02  0.51100000000E-03 0. -1.
         11   -1    0    0    0    0 -0.00000000000E+00 -0.00000000000E+00 -0.45593999997E+02  0.45594000000E+02  0.51100000000E-03 0.  1.
    9900012    2    1    2    0    0  0.17220636712E+02  0.26477726111E+01  0.36736970506E+02  0.50528855511E+02  0.29999986813E+02 0.  0.
        -12    1    1    2    0    0 -0.17220636712E+02 -0.26477726111E+01 -0.36736970506E+02  0.40659144489E+02  0.00000000000E+00 0.  1.
         11    1    3    3    0    0  0.10507851577E+02  0.11724516536E+02  0.99785535428E+01  0.18640031218E+02  0.51100000000E-03 0. -1.
        -11    1    3    3    0    0  0.58707295317E+00 -0.14932611848E+00 -0.15051451882E+01  0.16224719537E+01  0.51100000000E-03 0.  1.
         12    1    3    3    0    0  0.61257121817E+01 -0.89274178062E+01  0.28263562152E+02  0.30266352339E+02  0.00000000000E+00 0. -1.
</event>
<event>
 7    1  0.6090311E-013  0.5052887E+02  0.7816164E-02  0.1300439E+00
        -11   -1    0    0    0    0  0.00000000000E+00  0.00000000000E+00  0.45593999997E+02  0.45594000000E+02  0.51100000000E-03 0. -1.
         11   -1    0    0    0    0 -0.00000000000E+00 -0.00000000000E+00 -0.45593999997E+02  0.45594000000E+02  0.51100000000E-03 0.  1.
    9900012    2    1    2    0    0  0.32309400682E+02  0.35151441925E+01  0.24431774315E+02  0.50528865635E+02  0.30000017584E+02 0.  0.
        -12    1    1    2    0    0 -0.32309400682E+02 -0.35151441925E+01 -0.24431774315E+02  0.40659134365E+02  0.00000000000E+00 0.  1.
         11    1    3    3    0    0  0.11860360980E+02 -0.15500877476E+01  0.61785227243E+01  0.13462729215E+02  0.51100000000E-03 0. -1.
        -11    1    3    3    0    0  0.21406334465E+02 -0.38600689090E+01  0.73869785481E+01  0.22971694312E+02  0.51100000000E-03 0.  1.
        -12    1    3    3    0    0 -0.95729476293E+00  0.89253008491E+01  0.10866273043E+02  0.14094442108E+02  0.00000000000E+00 0.  1.
</event>
<event>
 7    1  0.6090311E-013  0.5052887E+02  0.7816164E-02  0.1300439E+00
        -11   -1    0    0    0    0  0.00000000000E+00  0.00000000000E+00  0.45593999997E+02  0.45594000000E+02  0.51100000000E-03 0.  1.
         11   -1    0    0    0    0 -0.00000000000E+00 -0.00000000000E+00 -0.45593999997E+02  0.45594000000E+02  0.51100000000E-03 0. -1.
    9900012    2    1    2    0    0  0.30502183895E+02  0.12574399575E+02 -0.23762701047E+02  0.50528871774E+02  0.30000036245E+02 0.  0.
        -12    1    1    2    0    0 -0.30502183895E+02 -0.12574399575E+02  0.23762701047E+02  0.40659128226E+02  0.00000000000E+00 0.  1.
         11    1    3    3    0    0  0.50860340491E+01 -0.29306171405E+01 -0.92473957088E+01  0.10953108546E+02  0.51100000000E-03 0. -1.
        -11    1    3    3    0    0 -0.80646260134E-01 -0.43766043986E+01 -0.77636210746E+00  0.44456617352E+01  0.51100000000E-03 0.  1.
         12    1    3    3    0    0  0.25496796106E+02  0.19881621114E+02 -0.13738943231E+02  0.35130101493E+02  0.00000000000E+00 0. -1.
</event>
<event>
 7    1  0.6090311E-013  0.5052886E+02  0.7816164E-02  0.1300439E+00
        -11   -1    0    0    0    0  0.00000000000E+00  0.00000000000E+00  0.45593999997E+02  0.45594000000E+02  0.51100000000E-03 0.  1.
         11   -1    0    0    0    0 -0.00000000000E+00 -0.00000000000E+00 -0.45593999997E+02  0.45594000000E+02  0.51100000000E-03 0. -1.
    9900012    2    1    2    0    0 -0.21850803111E+02  0.34264263908E+02  0.12914654940E+01  0.50528864976E+02  0.30000015582E+02 0.  0.
        -12    1    1    2    0    0  0.21850803111E+02 -0.34264263908E+02 -0.12914654940E+01  0.40659135024E+02  0.00000000000E+00 0.  1.
         11    1    3    3    0    0 -0.93614708258E+01  0.62904484045E+01  0.15073008647E+01  0.11378876628E+02  0.51100000000E-03 0. -1.
        -11    1    3    3    0    0 -0.19088210263E+02  0.25936995477E+02 -0.84832032532E+00  0.32215014404E+02  0.51100000000E-03 0.  1.
        -12    1    3    3    0    0  0.65988779781E+01  0.20368200263E+01  0.63248495465E+00  0.69349739443E+01  0.00000000000E+00 0.  1.
</event>
<event>
 7    1  0.6090311E-013  0.5052885E+02  0.7816164E-02  0.1300439E+00
        -11   -1    0    0    0    0  0.00000000000E+00  0.00000000000E+00  0.45593999997E+02  0.45594000000E+02  0.51100000000E-03 0. -1.
         11   -1    0    0    0    0 -0.00000000000E+00 -0.00000000000E+00 -0.45593999997E+02  0.45594000000E+02  0.51100000000E-03 0.  1.
    9900012    2    1    2    0    0  0.25527985262E+02 -0.27699148399E+02  0.15305083253E+02  0.50528850637E+02  0.29999971995E+02 0.  0.
        -12    1    1    2    0    0 -0.25527985262E+02  0.27699148399E+02 -0.15305083253E+02  0.40659149363E+02  0.00000000000E+00 0.  1.
         11    1    3    3    0    0  0.41957694964E+01 -0.38679206655E+01  0.37498338138E+01  0.68283633349E+01  0.51100000000E-03 0. -1.
        -11    1    3    3    0    0  0.14517824989E+02 -0.87199724829E+01  0.19066289310E+02  0.25501540166E+02  0.51100000000E-03 0.  1.
         12    1    3    3    0    0  0.68143907766E+01 -0.15111255250E+02 -0.75110398713E+01  0.18198947136E+02  0.00000000000E+00 0. -1.
</event>
<event>
 7    1  0.6090311E-013  0.5052887E+02  0.7816164E-02  0.1300439E+00
        -11   -1    0    0    0    0  0.00000000000E+00  0.00000000000E+00  0.45593999997E+02  0.45594000000E+02  0.51100000000E-03 0.  1.
         11   -1    0    0    0    0 -0.00000000000E+00 -0.00000000000E+00 -0.45593999997E+02  0.45594000000E+02  0.51100000000E-03 0. -1.
    9900012    2    1    2    0    0  0.13073707103E+02  0.30563810115E+02 -0.23411468889E+02  0.50528865950E+02  0.30000018542E+02 0.  0.
        -12    1    1    2    0    0 -0.13073707103E+02 -0.30563810115E+02  0.23411468889E+02  0.40659134050E+02  0.00000000000E+00 0.  1.
         11    1    3    3    0    0  0.11507204141E+02  0.17227811407E+02 -0.23322654118E+02  0.31195503337E+02  0.51100000000E-03 0. -1.
        -11    1    3    3    0    0  0.36232239682E+01  0.88217999119E+01 -0.62657873522E+01  0.11411047148E+02  0.51100000000E-03 0.  1.
        -12    1    3    3    0    0 -0.20567210070E+01  0.45141987952E+01  0.61769725812E+01  0.79223154653E+01  0.00000000000E+00 0.  1.
</event>
<event>
 7    1  0.6090311E-013  0.5052884E+02  0.7816164E-02  0.1300439E+00
        -11   -1    0    0    0    0  0.00000000000E+00  0.00000000000E+00  0.45593999997E+02  0.45594000000E+02  0.51100000000E-03 0.  1.
         11   -1    0    0    0    0 -0.00000000000E+00 -0.00000000000E+00 -0.45593999997E+02  0.45594000000E+02  0.51100000000E-03 0. -1.
    9900012    2    1    2    0    0  0.83181635213E+00 -0.49538651746E+01 -0.40347668463E+02  0.50528842987E+02  0.29999948742E+02 0.  0.
        -12    1    1    2    0    0 -0.83181635213E+00  0.49538651746E+01  0.40347668463E+02  0.40659157013E+02  0.00000000000E+00 0.  1.
         11    1    3    3    0    0  0.15892213179E+01 -0.31238436949E-01 -0.21945924559E+01  0.27097668804E+01  0.51100000000E-03 0. -1.
        -11    1    3    3    0    0  0.66305550550E+01 -0.14580575938E+02 -0.16568192527E+02  0.23044792446E+02  0.51100000000E-03 0.  1.
         12    1    3    3    0    0 -0.73879600208E+01  0.96579492000E+01 -0.21584883480E+02  0.24774283660E+02  0.00000000000E+00 0. -1.
</event>
<event>
 7    1  0.6090311E-013  0.5052886E+02  0.7816164E-02  0.1300439E+00
        -11   -1    0    0    0    0  0.00000000000E+00  0.00000000000E+00  0.45593999997E+02  0.45594000000E+02  0.51100000000E-03 0. -1.
         11   -1    0    0    0    0 -0.00000000000E+00 -0.00000000000E+00 -0.45593999997E+02  0.45594000000E+02  0.51100000000E-03 0.  1.
    9900012    2    1    2    0    0 -0.31728057614E+02 -0.13626902665E+02  0.21466338995E+02  0.50528858026E+02  0.29999994455E+02 0.  0.
        -12    1    1    2    0    0  0.31728057614E+02  0.13626902665E+02 -0.21466338995E+02  0.40659141974E+02  0.00000000000E+00 0.  1.
         11    1    3    3    0    0 -0.60741939407E+01  0.14111356167E+01  0.32706295123E+01  0.70416016236E+01  0.51100000000E-03 0.  1.
        -11    1    3    3    0    0 -0.21423677130E+02 -0.12512041344E+02  0.24911265601E+02  0.35158160851E+02  0.51100000000E-03 0. -1.
         12    1    3    3    0    0 -0.42301865443E+01 -0.25259969372E+01 -0.67155561179E+01  0.83290955511E+01  0.00000000000E+00 0. -1.
</event>
<event>
 7    1  0.6090311E-013  0.5052886E+02  0.7816164E-02  0.1300439E+00
        -11   -1    0    0    0    0  0.00000000000E+00  0.00000000000E+00  0.45593999997E+02  0.45594000000E+02  0.51100000000E-03 0.  1.
         11   -1    0    0    0    0 -0.00000000000E+00 -0.00000000000E+00 -0.45593999997E+02  0.45594000000E+02  0.51100000000E-03 0. -1.
    9900012    2    1    2    0    0  0.16099934860E+02  0.37267553653E+02  0.22554441162E+01  0.50528862209E+02  0.30000007171E+02 0.  0.
        -12    1    1    2    0    0 -0.16099934860E+02 -0.37267553653E+02 -0.22554441162E+01  0.40659137791E+02  0.00000000000E+00 0.  1.
         11    1    3    3    0    0  0.16620092882E+01  0.74860293905E+00  0.23660397203E+01  0.29867750926E+01  0.51100000000E-03 0. -1.
        -11    1    3    3    0    0  0.38774154526E+01 -0.31760108050E+01 -0.38161666910E+01  0.62995653580E+01  0.51100000000E-03 0.  1.
         12    1    3    3    0    0  0.10560510119E+02  0.39694961518E+02  0.37055710869E+01  0.41242521759E+02  0.00000000000E+00 0. -1.
</event>
<event>
 7    1  0.6090311E-013  0.5052884E+02  0.7816164E-02  0.1300439E+00
        -11   -1    0    0    0    0  0.00000000000E+00  0.00000000000E+00  0.45593999997E+02  0.45594000000E+02  0.51100000000E-03 0. -1.
         11   -1    0    0    0    0 -0.00000000000E+00 -0.00000000000E+00 -0.45593999997E+02  0.45594000000E+02  0.51100000000E-03 0.  1.
    9900012    2    1    2    0    0 -0.25922054862E+01 -0.65511265644E+01  0.40044111002E+02  0.50528836033E+02  0.29999927606E+02 0.  0.
        -12    1    1    2    0    0  0.25922054862E+01  0.65511265644E+01 -0.40044111002E+02  0.40659163967E+02  0.00000000000E+00 0.  1.
         11    1    3    3    0    0 -0.75897255234E+01 -0.47857683839E+01  0.53805520981E+00  0.89887160493E+01  0.51100000000E-03 0.  1.
        -11    1    3    3    0    0 -0.97649561872E+00 -0.53535243995E+01  0.22768064997E+02  0.23409368876E+02  0.51100000000E-03 0. -1.
        -12    1    3    3    0    0  0.59740156559E+01  0.35881662190E+01  0.16737990795E+02  0.18130751108E+02  0.00000000000E+00 0.  1.
</event>
<event>
 7    1  0.6090311E-013  0.5052886E+02  0.7816164E-02  0.1300439E+00
        -11   -1    0    0    0    0  0.00000000000E+00  0.00000000000E+00  0.45593999997E+02  0.45594000000E+02  0.51100000000E-03 0.  1.
         11   -1    0    0    0    0 -0.00000000000E+00 -0.00000000000E+00 -0.45593999997E+02  0.45594000000E+02  0.51100000000E-03 0. -1.
    9900012    2    1    2    0    0 -0.32507127736E+02  0.23744641979E+02  0.57134882675E+01  0.50528864193E+02  0.30000013201E+02 0.  0.
        -12    1    1    2    0    0  0.32507127736E+02 -0.23744641979E+02 -0.57134882675E+01  0.40659135807E+02  0.00000000000E+00 0.  1.
         11    1    3    3    0    0 -0.28541497016E+00 -0.50165965488E+01 -0.70192324765E+00  0.50734996940E+01  0.51100000000E-03 0. -1.
        -11    1    3    3    0    0  0.37123783679E+00  0.24729825584E+01  0.22700763853E+01  0.33773817258E+01  0.51100000000E-03 0.  1.
         12    1    3    3    0    0 -0.32592950603E+02  0.26288255970E+02  0.41453351299E+01  0.42077982773E+02  0.00000000000E+00 0. -1.
</event>
<event>
 7    1  0.6090311E-013  0.5052879E+02  0.7816164E-02  0.1300439E+00
        -11   -1    0    0    0    0  0.00000000000E+00  0.00000000000E+00  0.45593999997E+02  0.45594000000E+02  0.51100000000E-03 0. -1.
         11   -1    0    0    0    0 -0.00000000000E+00 -0.00000000000E+00 -0.45593999997E+02  0.45594000000E+02  0.51100000000E-03 0.  1.
    9900012    2    1    2    0    0 -0.38595371446E+02  0.91596255963E+01 -0.89258157973E+01  0.50528786705E+02  0.29999777667E+02 0.  0.
        -12    1    1    2    0    0  0.38595371446E+02 -0.91596255963E+01  0.89258157973E+01  0.40659213295E+02  0.00000000000E+00 0.  1.
         11    1    3    3    0    0 -0.44533799961E+01 -0.46247309792E+01 -0.27439426141E+00  0.64261981366E+01  0.51100000000E-03 0. -1.
        -11    1    3    3    0    0  0.10465223379E+01 -0.37213523593E+01 -0.30770616467E-01  0.38658271402E+01  0.51100000000E-03 0.  1.
        -12    1    3    3    0    0 -0.35188513788E+02  0.17505708935E+02 -0.86206509195E+01  0.40236761428E+02  0.00000000000E+00 0.  1.
</event>
<event>
 7    1  0.6090311E-013  0.5052886E+02  0.7816164E-02  0.1300439E+00
        -11   -1    0    0    0    0  0.00000000000E+00  0.00000000000E+00  0.45593999997E+02  0.45594000000E+02  0.51100000000E-03 0.  1.
         11   -1    0    0    0    0 -0.00000000000E+00 -0.00000000000E+00 -0.45593999997E+02  0.45594000000E+02  0.51100000000E-03 0. -1.
    9900012    2    1    2    0    0 -0.24303740449E+02  0.28112606668E+01 -0.32474457826E+02  0.50528863297E+02  0.30000010477E+02 0.  0.
        -12    1    1    2    0    0  0.24303740449E+02 -0.28112606668E+01  0.32474457826E+02  0.40659136703E+02  0.00000000000E+00 0.  1.
         11    1    3    3    0    0 -0.21427242558E+01  0.98269526784E+01 -0.61914354832E+01  0.11810763726E+02  0.51100000000E-03 0. -1.
        -11    1    3    3    0    0 -0.39445483460E+01  0.20503906340E+01  0.11219723655E+01  0.45850175197E+01  0.51100000000E-03 0.  1.
         12    1    3    3    0    0 -0.18216467847E+02 -0.90660826456E+01 -0.27404994708E+02  0.34133082051E+02  0.00000000000E+00 0. -1.
</event>
<event>
 7    1  0.6090311E-013  0.5052888E+02  0.7816164E-02  0.1300439E+00
        -11   -1    0    0    0    0  0.00000000000E+00  0.00000000000E+00  0.45593999997E+02  0.45594000000E+02  0.51100000000E-03 0. -1.
         11   -1    0    0    0    0 -0.00000000000E+00 -0.00000000000E+00 -0.45593999997E+02  0.45594000000E+02  0.51100000000E-03 0.  1.
    9900012    2    1    2    0    0  0.18063809931E+02  0.35954267342E+02  0.58440966122E+01  0.50528880057E+02  0.30000061420E+02 0.  0.
        -12    1    1    2    0    0 -0.18063809931E+02 -0.35954267342E+02 -0.58440966122E+01  0.40659119943E+02  0.00000000000E+00 0.  1.
         11    1    3    3    0    0  0.68407425110E+01  0.18634092366E+02  0.99564944833E+01  0.22207137120E+02  0.51100000000E-03 0. -1.
        -11    1    3    3    0    0 -0.51720608417E+01  0.31206339919E+01 -0.26103428071E+01  0.65804604469E+01  0.51100000000E-03 0.  1.
         12    1    3    3    0    0  0.16395128262E+02  0.14199540984E+02 -0.15020550640E+01  0.21741282490E+02  0.00000000000E+00 0. -1.
</event>
<event>
 7    1  0.6090311E-013  0.5052886E+02  0.7816164E-02  0.1300439E+00
        -11   -1    0    0    0    0  0.00000000000E+00  0.00000000000E+00  0.45593999997E+02  0.45594000000E+02  0.51100000000E-03 0.  1.
         11   -1    0    0    0    0 -0.00000000000E+00 -0.00000000000E+00 -0.45593999997E+02  0.45594000000E+02  0.51100000000E-03 0. -1.
    9900012    2    1    2    0    0  0.31651300777E+01 -0.14961026771E+02 -0.37673797256E+02  0.50528863632E+02  0.30000011497E+02 0.  0.
        -12    1    1    2    0    0 -0.31651300777E+01  0.14961026771E+02  0.37673797256E+02  0.40659136368E+02  0.00000000000E+00 0.  1.
         11    1    3    3    0    0 -0.14471912843E+01  0.49526181878E+00 -0.20086822395E+02  0.20144976572E+02  0.51100000000E-03 0. -1.
        -11    1    3    3    0    0  0.70589972596E+01  0.37661889430E+00 -0.10969952150E+02  0.13050330821E+02  0.51100000000E-03 0.  1.
        -12    1    3    3    0    0 -0.24466758975E+01 -0.15832907484E+02 -0.66170227108E+01  0.17333556239E+02  0.00000000000E+00 0.  1.
</event>
<event>
 7    1  0.6090311E-013  0.5052887E+02  0.7816164E-02  0.1300439E+00
        -11   -1    0    0    0    0  0.00000000000E+00  0.00000000000E+00  0.45593999997E+02  0.45594000000E+02  0.51100000000E-03 0.  1.
         11   -1    0    0    0    0 -0.00000000000E+00 -0.00000000000E+00 -0.45593999997E+02  0.45594000000E+02  0.51100000000E-03 0. -1.
    9900012    2    1    2    0    0 -0.54706902733E+01 -0.30505110230E+02 -0.26318713701E+02  0.50528869500E+02  0.30000029331E+02 0.  0.
        -12    1    1    2    0    0  0.54706902733E+01  0.30505110230E+02  0.26318713701E+02  0.40659130500E+02  0.00000000000E+00 0.  1.
         11    1    3    3    0    0  0.52709692407E+01 -0.37067417248E+00 -0.86119879861E+01  0.10103803908E+02  0.51100000000E-03 0. -1.
        -11    1    3    3    0    0  0.43711195781E+01 -0.87635442589E+01 -0.23249117234E+01  0.10065366815E+02  0.51100000000E-03 0.  1.
         12    1    3    3    0    0 -0.15112779092E+02 -0.21370891798E+02 -0.15381813991E+02  0.30359698776E+02  0.00000000000E+00 0. -1.
</event>
<event>
 7    1  0.6090311E-013  0.5052887E+02  0.7816164E-02  0.1300439E+00
        -11   -1    0    0    0    0  0.00000000000E+00  0.00000000000E+00  0.45593999997E+02  0.45594000000E+02  0.51100000000E-03 0.  1.
         11   -1    0    0    0    0 -0.00000000000E+00 -0.00000000000E+00 -0.45593999997E+02  0.45594000000E+02  0.51100000000E-03 0. -1.
    9900012    2    1    2    0    0 -0.12123806111E+02  0.26538105070E+02 -0.28317967951E+02  0.50528868133E+02  0.30000025176E+02 0.  0.
        -12    1    1    2    0    0  0.12123806111E+02 -0.26538105070E+02  0.28317967951E+02  0.40659131867E+02  0.00000000000E+00 0.  1.
         11    1    3    3    0    0  0.54697147301E+01  0.10715408216E+01 -0.32049018693E+01  0.64294148423E+01  0.51100000000E-03 0. -1.
        -11    1    3    3    0    0 -0.64692252645E+01  0.67584428232E+01 -0.19490052273E+02  0.21619194314E+02  0.51100000000E-03 0.  1.
         12    1    3    3    0    0 -0.11124295576E+02  0.18708121425E+02 -0.56230138086E+01  0.22480258976E+02  0.00000000000E+00 0. -1.
</event>
<event>
 7    1  0.6090311E-013  0.5052886E+02  0.7816164E-02  0.1300439E+00
        -11   -1    0    0    0    0  0.00000000000E+00  0.00000000000E+00  0.45593999997E+02  0.45594000000E+02  0.51100000000E-03 0.  1.
         11   -1    0    0    0    0 -0.00000000000E+00 -0.00000000000E+00 -0.45593999997E+02  0.45594000000E+02  0.51100000000E-03 0. -1.
    9900012    2    1    2    0    0 -0.76025723552E+01  0.36471308286E+02 -0.16285275901E+02  0.50528860244E+02  0.30000001198E+02 0.  0.
        -12    1    1    2    0    0  0.76025723552E+01 -0.36471308286E+02  0.16285275901E+02  0.40659139756E+02  0.00000000000E+00 0.  1.
         11    1    3    3    0    0 -0.18192558813E+01 -0.38501320646E+00 -0.62604179136E+00  0.19621049198E+01  0.51100000000E-03 0. -1.
        -11    1    3    3    0    0  0.48616979735E+01 -0.18709106929E+01 -0.44946250704E+01  0.68802666221E+01  0.51100000000E-03 0.  1.
         12    1    3    3    0    0 -0.10645014447E+02  0.38727232185E+02 -0.11164609039E+02  0.41686488702E+02  0.00000000000E+00 0. -1.
</event>
<event>
 7    1  0.6090311E-013  0.5052885E+02  0.7816164E-02  0.1300439E+00
        -11   -1    0    0    0    0  0.00000000000E+00  0.00000000000E+00  0.45593999997E+02  0.45594000000E+02  0.51100000000E-03 0.  1.
         11   -1    0    0    0    0 -0.00000000000E+00 -0.00000000000E+00 -0.45593999997E+02  0.45594000000E+02  0.51100000000E-03 0. -1.
    9900012    2    1    2    0    0  0.94770728626E+01  0.39205136629E+02  0.51291997731E+01  0.50528851725E+02  0.29999975304E+02 0.  0.
        -12    1    1    2    0    0 -0.94770728626E+01 -0.39205136629E+02 -0.51291997731E+01  0.40659148275E+02  0.00000000000E+00 0.  1.
         11    1    3    3    0    0 -0.24405017832E+01  0.14542380803E+02 -0.45178884092E+01  0.15422328109E+02  0.51100000000E-03 0. -1.
        -11    1    3    3    0    0  0.22695503213E+01  0.56592162504E+01 -0.60868082665E+01  0.86154989620E+01  0.51100000000E-03 0.  1.
        -12    1    3    3    0    0  0.96480243245E+01  0.19003539575E+02  0.15733896449E+02  0.26491024654E+02  0.00000000000E+00 0.  1.
</event>
<event>
 7    1  0.6090311E-013  0.5052886E+02  0.7816164E-02  0.1300439E+00
        -11   -1    0    0    0    0  0.00000000000E+00  0.00000000000E+00  0.45593999997E+02  0.45594000000E+02  0.51100000000E-03 0.  1.
         11   -1    0    0    0    0 -0.00000000000E+00 -0.00000000000E+00 -0.45593999997E+02  0.45594000000E+02  0.51100000000E-03 0. -1.
    9900012    2    1    2    0    0 -0.62601672226E+01 -0.40173605033E+02  0.23923464887E+00  0.50528862426E+02  0.30000007830E+02 0.  0.
        -12    1    1    2    0    0  0.62601672226E+01  0.40173605033E+02 -0.23923464887E+00  0.40659137574E+02  0.00000000000E+00 0.  1.
         11    1    3    3    0    0 -0.21166352458E+01 -0.21296780558E+02 -0.43083318828E+01  0.21831049695E+02  0.51100000000E-03 0. -1.
        -11    1    3    3    0    0  0.52448050863E+01 -0.31931031593E+01 -0.51424213527E+01  0.80092687437E+01  0.51100000000E-03 0.  1.
        -12    1    3    3    0    0 -0.93883370631E+01 -0.15683721316E+02  0.96899878844E+01  0.20688543988E+02  0.00000000000E+00 0.  1.
</event>
<event>
 7    1  0.6090311E-013  0.5052887E+02  0.7816164E-02  0.1300439E+00
        -11   -1    0    0    0    0  0.00000000000E+00  0.00000000000E+00  0.45593999997E+02  0.45594000000E+02  0.51100000000E-03 0.  1.
         11   -1    0    0    0    0 -0.00000000000E+00 -0.00000000000E+00 -0.45593999997E+02  0.45594000000E+02  0.51100000000E-03 0. -1.
    9900012    2    1    2    0    0 -0.13142661109E+02 -0.14459639430E+02 -0.35656053329E+02  0.50528869999E+02  0.30000030848E+02 0.  0.
        -12    1    1    2    0    0  0.13142661109E+02  0.14459639430E+02  0.35656053329E+02  0.40659130001E+02  0.00000000000E+00 0.  1.
         11    1    3    3    0    0  0.37132712091E+01  0.23547394087E+01 -0.12757732830E+02  0.13494181264E+02  0.51100000000E-03 0. -1.
        -11    1    3    3    0    0 -0.33615751458E+01 -0.81946112553E-01 -0.12893201585E+02  0.13324471847E+02  0.51100000000E-03 0.  1.
        -12    1    3    3    0    0 -0.13494357172E+02 -0.16732432726E+02 -0.10005118915E+02  0.23710216889E+02  0.00000000000E+00 0.  1.
</event>
<event>
 7    1  0.6090311E-013  0.5052887E+02  0.7816164E-02  0.1300439E+00
        -11   -1    0    0    0    0  0.00000000000E+00  0.00000000000E+00  0.45593999997E+02  0.45594000000E+02  0.51100000000E-03 0.  1.
         11   -1    0    0    0    0 -0.00000000000E+00 -0.00000000000E+00 -0.45593999997E+02  0.45594000000E+02  0.51100000000E-03 0. -1.
    9900012    2    1    2    0    0 -0.21727087506E+02 -0.37391641077E+01 -0.34163093621E+02  0.50528872544E+02  0.30000038584E+02 0.  0.
        -12    1    1    2    0    0  0.21727087506E+02  0.37391641077E+01  0.34163093621E+02  0.40659127456E+02  0.00000000000E+00 0.  1.
         11    1    3    3    0    0 -0.82807755611E+01 -0.73047088756E+01 -0.10254259751E+02  0.15069169153E+02  0.51100000000E-03 0. -1.
        -11    1    3    3    0    0 -0.12459978176E+02 -0.63316356809E+01 -0.65091292521E+01  0.15417828330E+02  0.51100000000E-03 0.  1.
        -12    1    3    3    0    0 -0.98633376916E+00  0.98971804488E+01 -0.17399704618E+02  0.20041875060E+02  0.00000000000E+00 0.  1.
</event>
<event>
 7    1  0.6090311E-013  0.5052886E+02  0.7816164E-02  0.1300439E+00
        -11   -1    0    0    0    0  0.00000000000E+00  0.00000000000E+00  0.45593999997E+02  0.45594000000E+02  0.51100000000E-03 0. -1.
         11   -1    0    0    0    0 -0.00000000000E+00 -0.00000000000E+00 -0.45593999997E+02  0.45594000000E+02  0.51100000000E-03 0.  1.
    9900012    2    1    2    0    0 -0.37956571304E+02  0.40723568871E+01 -0.13995715553E+02  0.50528862655E+02  0.30000008527E+02 0.  0.
        -12    1    1    2    0    0  0.37956571304E+02 -0.40723568871E+01  0.13995715553E+02  0.40659137345E+02  0.00000000000E+00 0.  1.
         11    1    3    3    0    0 -0.29675984601E+02  0.36493566784E+01 -0.15215307986E+02  0.33548285553E+02  0.51100000000E-03 0. -1.
        -11    1    3    3    0    0 -0.83317248645E+00  0.34553173246E+01 -0.54681790972E+01  0.65218384759E+01  0.51100000000E-03 0.  1.
        -12    1    3    3    0    0 -0.74474142168E+01 -0.30323171158E+01  0.66877715300E+01  0.10458738626E+02  0.00000000000E+00 0.  1.
</event>
<event>
 7    1  0.6090311E-013  0.5052886E+02  0.7816164E-02  0.1300439E+00
        -11   -1    0    0    0    0  0.00000000000E+00  0.00000000000E+00  0.45593999997E+02  0.45594000000E+02  0.51100000000E-03 0.  1.
         11   -1    0    0    0    0 -0.00000000000E+00 -0.00000000000E+00 -0.45593999997E+02  0.45594000000E+02  0.51100000000E-03 0. -1.
    9900012    2    1    2    0    0  0.40403019661E+02  0.31071616394E+01  0.33327288609E+01  0.50528861632E+02  0.30000005416E+02 0.  0.
        -12    1    1    2    0    0 -0.40403019661E+02 -0.31071616394E+01 -0.33327288609E+01  0.40659138368E+02  0.00000000000E+00 0.  1.
         11    1    3    3    0    0  0.59937482864E+01 -0.98769738023E+01  0.20408627070E+01  0.11732209973E+02  0.51100000000E-03 0. -1.
        -11    1    3    3    0    0  0.14876353114E+02  0.25407610512E-01  0.34046123800E+01  0.15260993193E+02  0.51100000000E-03 0.  1.
        -12    1    3    3    0    0  0.19532918260E+02  0.12958727831E+02 -0.21127462261E+01  0.23535658465E+02  0.00000000000E+00 0.  1.
</event>
<event>
 7    1  0.6090311E-013  0.5052885E+02  0.7816164E-02  0.1300439E+00
        -11   -1    0    0    0    0  0.00000000000E+00  0.00000000000E+00  0.45593999997E+02  0.45594000000E+02  0.51100000000E-03 0. -1.
         11   -1    0    0    0    0 -0.00000000000E+00 -0.00000000000E+00 -0.45593999997E+02  0.45594000000E+02  0.51100000000E-03 0.  1.
    9900012    2    1    2    0    0  0.32506815841E+02 -0.24360374682E+02 -0.17450468994E+01  0.50528854418E+02  0.29999983488E+02 0.  0.
        -12    1    1    2    0    0 -0.32506815841E+02  0.24360374682E+02  0.17450468994E+01  0.40659145582E+02  0.00000000000E+00 0.  1.
         11    1    3    3    0    0  0.27186553156E+02 -0.14270582971E+02 -0.33096926346E+01  0.30882232375E+02  0.51100000000E-03 0. -1.
        -11    1    3    3    0    0  0.72929076012E+01 -0.48390705753E+00 -0.40404755349E+01  0.83514136605E+01  0.51100000000E-03 0.  1.
         12    1    3    3    0    0 -0.19726449164E+01 -0.96058846537E+01  0.56051212702E+01  0.11295208382E+02  0.00000000000E+00 0. -1.
</event>
<event>
 7    1  0.6090311E-013  0.5052893E+02  0.7816164E-02  0.1300439E+00
        -11   -1    0    0    0    0  0.00000000000E+00  0.00000000000E+00  0.45593999997E+02  0.45594000000E+02  0.51100000000E-03 0.  1.
         11   -1    0    0    0    0 -0.00000000000E+00 -0.00000000000E+00 -0.45593999997E+02  0.45594000000E+02  0.51100000000E-03 0. -1.
    9900012    2    1    2    0    0  0.10192554282E+02  0.30236218214E+02  0.25200050593E+02  0.50528934533E+02  0.30000227007E+02 0.  0.
        -12    1    1    2    0    0 -0.10192554282E+02 -0.30236218214E+02 -0.25200050593E+02  0.40659065467E+02  0.00000000000E+00 0.  1.
         11    1    3    3    0    0 -0.75893460380E+00 -0.70460275841E+00 -0.14228612053E+00  0.10453192724E+01  0.51100000000E-03 0. -1.
        -11    1    3    3    0    0 -0.64557176622E+01  0.27961023067E-01  0.70825416537E+01  0.95832911304E+01  0.51100000000E-03 0.  1.
         12    1    3    3    0    0  0.17407206548E+02  0.30912859950E+02  0.18259795060E+02  0.39900324131E+02  0.00000000000E+00 0. -1.
</event>
<event>
 7    1  0.6090311E-013  0.5052887E+02  0.7816164E-02  0.1300439E+00
        -11   -1    0    0    0    0  0.00000000000E+00  0.00000000000E+00  0.45593999997E+02  0.45594000000E+02  0.51100000000E-03 0.  1.
         11   -1    0    0    0    0 -0.00000000000E+00 -0.00000000000E+00 -0.45593999997E+02  0.45594000000E+02  0.51100000000E-03 0. -1.
    9900012    2    1    2    0    0  0.95174407645E+01 -0.27214572615E+02 -0.28669679848E+02  0.50528865923E+02  0.30000018461E+02 0.  0.
        -12    1    1    2    0    0 -0.95174407645E+01  0.27214572615E+02  0.28669679848E+02  0.40659134077E+02  0.00000000000E+00 0.  1.
         11    1    3    3    0    0  0.18871232398E+01  0.40734028039E+01  0.45081123097E+00  0.45118815978E+01  0.51100000000E-03 0. -1.
        -11    1    3    3    0    0  0.40111363664E+01 -0.98370931515E+01 -0.13025356642E+01  0.10703000329E+02  0.51100000000E-03 0.  1.
         12    1    3    3    0    0  0.36191811582E+01 -0.21450882267E+02 -0.27817955414E+02  0.35313983997E+02  0.00000000000E+00 0. -1.
</event>
<event>
 7    1  0.6090311E-013  0.5052887E+02  0.7816164E-02  0.1300439E+00
        -11   -1    0    0    0    0  0.00000000000E+00  0.00000000000E+00  0.45593999997E+02  0.45594000000E+02  0.51100000000E-03 0.  1.
         11   -1    0    0    0    0 -0.00000000000E+00 -0.00000000000E+00 -0.45593999997E+02  0.45594000000E+02  0.51100000000E-03 0. -1.
    9900012    2    1    2    0    0 -0.27037349986E+02  0.23329981815E+02 -0.19438592685E+02  0.50528865340E+02  0.30000016686E+02 0.  0.
        -12    1    1    2    0    0  0.27037349986E+02 -0.23329981815E+02  0.19438592685E+02  0.40659134660E+02  0.00000000000E+00 0.  1.
         11    1    3    3    0    0 -0.96037056657E+01  0.12126402602E+02 -0.11257920231E+02  0.19131690222E+02  0.51100000000E-03 0. -1.
        -11    1    3    3    0    0  0.39763306881E+01 -0.24769823099E+01  0.64709779369E-01  0.46851717921E+01  0.51100000000E-03 0.  1.
         12    1    3    3    0    0 -0.21409975009E+02  0.13680561523E+02 -0.82453822328E+01  0.26712003325E+02  0.00000000000E+00 0. -1.
</event>
<event>
 7    1  0.6090311E-013  0.5052885E+02  0.7816164E-02  0.1300439E+00
        -11   -1    0    0    0    0  0.00000000000E+00  0.00000000000E+00  0.45593999997E+02  0.45594000000E+02  0.51100000000E-03 0.  1.
         11   -1    0    0    0    0 -0.00000000000E+00 -0.00000000000E+00 -0.45593999997E+02  0.45594000000E+02  0.51100000000E-03 0. -1.
    9900012    2    1    2    0    0 -0.61037917034E+01 -0.16534522222E+02 -0.36640416881E+02  0.50528845465E+02  0.29999956275E+02 0.  0.
        -12    1    1    2    0    0  0.61037917034E+01  0.16534522222E+02  0.36640416881E+02  0.40659154535E+02  0.00000000000E+00 0.  1.
         11    1    3    3    0    0  0.38540045807E+00 -0.57934916144E+00 -0.21092887313E+01  0.22210984168E+01  0.51100000000E-03 0. -1.
        -11    1    3    3    0    0 -0.94629628731E+01 -0.11303298148E+01  0.11074342803E+01  0.95943589037E+01  0.51100000000E-03 0.  1.
        -12    1    3    3    0    0  0.29737707116E+01 -0.14824843246E+02 -0.35638562430E+02  0.38713388144E+02  0.00000000000E+00 0.  1.
</event>
<event>
 7    1  0.6090311E-013  0.5052886E+02  0.7816164E-02  0.1300439E+00
        -11   -1    0    0    0    0  0.00000000000E+00  0.00000000000E+00  0.45593999997E+02  0.45594000000E+02  0.51100000000E-03 0.  1.
         11   -1    0    0    0    0 -0.00000000000E+00 -0.00000000000E+00 -0.45593999997E+02  0.45594000000E+02  0.51100000000E-03 0. -1.
    9900012    2    1    2    0    0 -0.36238887011E+02  0.16802448457E+02 -0.75885888183E+01  0.50528857286E+02  0.29999992206E+02 0.  0.
        -12    1    1    2    0    0  0.36238887011E+02 -0.16802448457E+02  0.75885888183E+01  0.40659142714E+02  0.00000000000E+00 0.  1.
         11    1    3    3    0    0 -0.53724586431E+01 -0.21519977280E+00  0.70363140245E+01  0.88554693905E+01  0.51100000000E-03 0. -1.
        -11    1    3    3    0    0 -0.14546613324E+01 -0.13034045021E+01  0.23763569615E+01  0.30760324377E+01  0.51100000000E-03 0.  1.
         12    1    3    3    0    0 -0.29411767036E+02  0.18321052732E+02 -0.17001259804E+02  0.38597355458E+02  0.00000000000E+00 0. -1.
</event>
<event>
 7    1  0.6090311E-013  0.5052886E+02  0.7816164E-02  0.1300439E+00
        -11   -1    0    0    0    0  0.00000000000E+00  0.00000000000E+00  0.45593999997E+02  0.45594000000E+02  0.51100000000E-03 0.  1.
         11   -1    0    0    0    0 -0.00000000000E+00 -0.00000000000E+00 -0.45593999997E+02  0.45594000000E+02  0.51100000000E-03 0. -1.
    9900012    2    1    2    0    0  0.38999063259E+02 -0.96474514290E+01  0.62581960823E+01  0.50528864835E+02  0.30000015153E+02 0.  0.
        -12    1    1    2    0    0 -0.38999063259E+02  0.96474514290E+01 -0.62581960823E+01  0.40659135165E+02  0.00000000000E+00 0.  1.
         11    1    3    3    0    0  0.26952842685E+02 -0.43525408880E+01 -0.10300857944E+01  0.27321446118E+02  0.51100000000E-03 0. -1.
        -11    1    3    3    0    0  0.14368314551E+02  0.18278854558E+01  0.55914334818E+01  0.15525905993E+02  0.51100000000E-03 0.  1.
         12    1    3    3    0    0 -0.23220939767E+01 -0.71227959968E+01  0.16968483948E+01  0.76815127236E+01  0.00000000000E+00 0. -1.
</event>
<event>
 7    1  0.6090311E-013  0.5052885E+02  0.7816164E-02  0.1300439E+00
        -11   -1    0    0    0    0  0.00000000000E+00  0.00000000000E+00  0.45593999997E+02  0.45594000000E+02  0.51100000000E-03 0. -1.
         11   -1    0    0    0    0 -0.00000000000E+00 -0.00000000000E+00 -0.45593999997E+02  0.45594000000E+02  0.51100000000E-03 0.  1.
    9900012    2    1    2    0    0 -0.33548673852E+02  0.22053502091E+02 -0.64261662047E+01  0.50528854857E+02  0.29999984823E+02 0.  0.
        -12    1    1    2    0    0  0.33548673852E+02 -0.22053502091E+02  0.64261662047E+01  0.40659145143E+02  0.00000000000E+00 0.  1.
         11    1    3    3    0    0 -0.15466039979E+02  0.12364326302E+02 -0.56560977619E+01  0.20592872546E+02  0.51100000000E-03 0. -1.
        -11    1    3    3    0    0 -0.15964396029E+02  0.51467827234E+01 -0.99314650206E+01  0.19493211913E+02  0.51100000000E-03 0.  1.
        -12    1    3    3    0    0 -0.21182378432E+01  0.45423930657E+01  0.91613965779E+01  0.10442770398E+02  0.00000000000E+00 0.  1.
</event>
<event>
 7    1  0.6090311E-013  0.5052886E+02  0.7816164E-02  0.1300439E+00
        -11   -1    0    0    0    0  0.00000000000E+00  0.00000000000E+00  0.45593999997E+02  0.45594000000E+02  0.51100000000E-03 0.  1.
         11   -1    0    0    0    0 -0.00000000000E+00 -0.00000000000E+00 -0.45593999997E+02  0.45594000000E+02  0.51100000000E-03 0. -1.
    9900012    2    1    2    0    0  0.46775905504E+01  0.39077075519E+01 -0.40199698411E+02  0.50528858543E+02  0.29999996028E+02 0.  0.
        -12    1    1    2    0    0 -0.46775905504E+01 -0.39077075519E+01  0.40199698411E+02  0.40659141457E+02  0.00000000000E+00 0.  1.
         11    1    3    3    0    0  0.42352172766E+00  0.78888691705E+01 -0.17344258052E+02  0.19058775277E+02  0.51100000000E-03 0. -1.
        -11    1    3    3    0    0 -0.30112214623E+01  0.28849783179E+01 -0.20864708627E+02  0.21277373450E+02  0.51100000000E-03 0.  1.
        -12    1    3    3    0    0  0.72652902851E+01 -0.68661399365E+01 -0.19907317322E+01  0.10192709816E+02  0.00000000000E+00 0.  1.
</event>
<event>
 7    1  0.6090311E-013  0.5052886E+02  0.7816164E-02  0.1300439E+00
        -11   -1    0    0    0    0  0.00000000000E+00  0.00000000000E+00  0.45593999997E+02  0.45594000000E+02  0.51100000000E-03 0.  1.
         11   -1    0    0    0    0 -0.00000000000E+00 -0.00000000000E+00 -0.45593999997E+02  0.45594000000E+02  0.51100000000E-03 0. -1.
    9900012    2    1    2    0    0  0.16626799254E+02 -0.37065341418E+02  0.16958912572E+01  0.50528855456E+02  0.29999986644E+02 0.  0.
        -12    1    1    2    0    0 -0.16626799254E+02  0.37065341418E+02 -0.16958912572E+01  0.40659144544E+02  0.00000000000E+00 0.  1.
         11    1    3    3    0    0  0.42798628598E+01 -0.10233426882E+02 -0.44252457492E+01  0.11942489357E+02  0.51100000000E-03 0. -1.
        -11    1    3    3    0    0  0.30788510735E+01 -0.16098720824E+02  0.14696328708E+02  0.22014318383E+02  0.51100000000E-03 0.  1.
         12    1    3    3    0    0  0.92680853210E+01 -0.10733193713E+02 -0.85751917017E+01  0.16572047716E+02  0.00000000000E+00 0. -1.
</event>
<event>
 7    1  0.6090311E-013  0.5052886E+02  0.7816164E-02  0.1300439E+00
        -11   -1    0    0    0    0  0.00000000000E+00  0.00000000000E+00  0.45593999997E+02  0.45594000000E+02  0.51100000000E-03 0.  1.
         11   -1    0    0    0    0 -0.00000000000E+00 -0.00000000000E+00 -0.45593999997E+02  0.45594000000E+02  0.51100000000E-03 0. -1.
    9900012    2    1    2    0    0 -0.95928139786E+01 -0.30196247598E+02 -0.25481960126E+02  0.50528859074E+02  0.29999997641E+02 0.  0.
        -12    1    1    2    0    0  0.95928139786E+01  0.30196247598E+02  0.25481960126E+02  0.40659140926E+02  0.00000000000E+00 0.  1.
         11    1    3    3    0    0 -0.11219175717E+02 -0.16301662345E+02 -0.15582005762E+02  0.25187556507E+02  0.51100000000E-03 0.  1.
        -11    1    3    3    0    0 -0.25399388082E+01 -0.87372712046E+01 -0.14607831157E+02  0.17209878809E+02  0.51100000000E-03 0. -1.
        -12    1    3    3    0    0  0.41663005468E+01 -0.51573140482E+01  0.47078767927E+01  0.81314237581E+01  0.00000000000E+00 0.  1.
</event>
<event>
 7    1  0.6090311E-013  0.5052886E+02  0.7816164E-02  0.1300439E+00
        -11   -1    0    0    0    0  0.00000000000E+00  0.00000000000E+00  0.45593999997E+02  0.45594000000E+02  0.51100000000E-03 0. -1.
         11   -1    0    0    0    0 -0.00000000000E+00 -0.00000000000E+00 -0.45593999997E+02  0.45594000000E+02  0.51100000000E-03 0.  1.
    9900012    2    1    2    0    0  0.92229171095E+01  0.39115275794E+02  0.61724136264E+01  0.50528859694E+02  0.29999999526E+02 0.  0.
        -12    1    1    2    0    0 -0.92229171095E+01 -0.39115275794E+02 -0.61724136264E+01  0.40659140306E+02  0.00000000000E+00 0.  1.
         11    1    3    3    0    0  0.62307275833E+01  0.10168192153E+01 -0.18644484957E+01  0.65827088640E+01  0.51100000000E-03 0.  1.
        -11    1    3    3    0    0 -0.49557026754E+01  0.11137067900E+02  0.10003380558E+02  0.15768985169E+02  0.51100000000E-03 0. -1.
         12    1    3    3    0    0  0.79478922015E+01  0.26961388679E+02 -0.19665184359E+01  0.28177165661E+02  0.00000000000E+00 0. -1.
</event>
<event>
 7    1  0.6090311E-013  0.5052886E+02  0.7816164E-02  0.1300439E+00
        -11   -1    0    0    0    0  0.00000000000E+00  0.00000000000E+00  0.45593999997E+02  0.45594000000E+02  0.51100000000E-03 0.  1.
         11   -1    0    0    0    0 -0.00000000000E+00 -0.00000000000E+00 -0.45593999997E+02  0.45594000000E+02  0.51100000000E-03 0. -1.
    9900012    2    1    2    0    0 -0.10244927048E+02 -0.12860171093E+01 -0.39326238020E+02  0.50528863671E+02  0.30000011614E+02 0.  0.
        -12    1    1    2    0    0  0.10244927048E+02  0.12860171093E+01  0.39326238020E+02  0.40659136329E+02  0.00000000000E+00 0.  1.
         11    1    3    3    0    0 -0.67104785390E+01 -0.24708061255E+01 -0.20070250089E+02  0.21306110486E+02  0.51100000000E-03 0. -1.
        -11    1    3    3    0    0  0.31238165050E+01 -0.44552890695E+01 -0.19746990890E+02  0.20482955835E+02  0.51100000000E-03 0.  1.
        -12    1    3    3    0    0 -0.66582650138E+01  0.56400780857E+01  0.49100295975E+00  0.87397973497E+01  0.00000000000E+00 0.  1.
</event>
<event>
 7    1  0.6090311E-013  0.5052886E+02  0.7816164E-02  0.1300439E+00
        -11   -1    0    0    0    0  0.00000000000E+00  0.00000000000E+00  0.45593999997E+02  0.45594000000E+02  0.51100000000E-03 0.  1.
         11   -1    0    0    0    0 -0.00000000000E+00 -0.00000000000E+00 -0.45593999997E+02  0.45594000000E+02  0.51100000000E-03 0. -1.
    9900012    2    1    2    0    0  0.53858186008E+01 -0.29393393183E+02 -0.27571485974E+02  0.50528862729E+02  0.30000008750E+02 0.  0.
        -12    1    1    2    0    0 -0.53858186008E+01  0.29393393183E+02  0.27571485974E+02  0.40659137271E+02  0.00000000000E+00 0.  1.
         11    1    3    3    0    0  0.12787962796E+01  0.16048699751E+01 -0.84282839561E+01  0.86744970037E+01  0.51100000000E-03 0. -1.
        -11    1    3    3    0    0  0.99540037455E+01 -0.83805129842E+01 -0.11233652989E+02  0.17190408610E+02  0.51100000000E-03 0.  1.
        -12    1    3    3    0    0 -0.58469814244E+01 -0.22617750174E+02 -0.79095490292E+01  0.24663957115E+02  0.00000000000E+00 0.  1.
</event>
<event>
 7    1  0.6090311E-013  0.5052886E+02  0.7816164E-02  0.1300439E+00
        -11   -1    0    0    0    0  0.00000000000E+00  0.00000000000E+00  0.45593999997E+02  0.45594000000E+02  0.51100000000E-03 0.  1.
         11   -1    0    0    0    0 -0.00000000000E+00 -0.00000000000E+00 -0.45593999997E+02  0.45594000000E+02  0.51100000000E-03 0. -1.
    9900012    2    1    2    0    0 -0.18614262646E+02 -0.30351448586E+02 -0.19633257775E+02  0.50528855690E+02  0.29999987356E+02 0.  0.
        -12    1    1    2    0    0  0.18614262646E+02  0.30351448586E+02  0.19633257775E+02  0.40659144310E+02  0.00000000000E+00 0.  1.
         11    1    3    3    0    0 -0.11161081979E+02 -0.11488788132E+02 -0.10557166920E+01  0.16052306429E+02  0.51100000000E-03 0. -1.
        -11    1    3    3    0    0 -0.70477242529E+01 -0.14415666273E+02 -0.71267972668E+00  0.16062059765E+02  0.51100000000E-03 0.  1.
        -12    1    3    3    0    0 -0.40545641460E+00 -0.44469941810E+01 -0.17864861356E+02  0.18414489497E+02  0.00000000000E+00 0.  1.
</event>
<event>
 7    1  0.6090311E-013  0.5052885E+02  0.7816164E-02  0.1300439E+00
        -11   -1    0    0    0    0  0.00000000000E+00  0.00000000000E+00  0.45593999997E+02  0.45594000000E+02  0.51100000000E-03 0.  1.
         11   -1    0    0    0    0 -0.00000000000E+00 -0.00000000000E+00 -0.45593999997E+02  0.45594000000E+02  0.51100000000E-03 0. -1.
    9900012    2    1    2    0    0  0.40152410242E+02  0.46273249744E+01 -0.44201698427E+01  0.50528854828E+02  0.29999984736E+02 0.  0.
        -12    1    1    2    0    0 -0.40152410242E+02 -0.46273249744E+01  0.44201698427E+01  0.40659145172E+02  0.00000000000E+00 0.  1.
         11    1    3    3    0    0  0.30895502141E+02 -0.14090103753E+01 -0.11629489114E+02  0.33041827736E+02  0.51100000000E-03 0. -1.
        -11    1    3    3    0    0  0.78322247487E+01 -0.12518151848E+01  0.13901417739E+01  0.80525325323E+01  0.51100000000E-03 0.  1.
        -12    1    3    3    0    0  0.14246833517E+01  0.72881505345E+01  0.58191774972E+01  0.94344945604E+01  0.00000000000E+00 0.  1.
</event>
<event>
 7    1  0.6090311E-013  0.5052886E+02  0.7816164E-02  0.1300439E+00
        -11   -1    0    0    0    0  0.00000000000E+00  0.00000000000E+00  0.45593999997E+02  0.45594000000E+02  0.51100000000E-03 0. -1.
         11   -1    0    0    0    0 -0.00000000000E+00 -0.00000000000E+00 -0.45593999997E+02  0.45594000000E+02  0.51100000000E-03 0.  1.
    9900012    2    1    2    0    0 -0.31700567283E+02 -0.91010661421E+01  0.23778356637E+02  0.50528860617E+02  0.30000002332E+02 0.  0.
        -12    1    1    2    0    0  0.31700567283E+02  0.91010661421E+01 -0.23778356637E+02  0.40659139383E+02  0.00000000000E+00 0.  1.
         11    1    3    3    0    0  0.21874345745E+01  0.46303568061E+00  0.41010032169E+01  0.46709206486E+01  0.51100000000E-03 0. -1.
        -11    1    3    3    0    0 -0.53818798518E+01 -0.10643298169E+02  0.10504025313E+02  0.15892733393E+02  0.51100000000E-03 0.  1.
         12    1    3    3    0    0 -0.28506122006E+02  0.10791963463E+01  0.91733281068E+01  0.29965206576E+02  0.00000000000E+00 0. -1.
</event>
<event>
 7    1  0.6090311E-013  0.5052886E+02  0.7816164E-02  0.1300439E+00
        -11   -1    0    0    0    0  0.00000000000E+00  0.00000000000E+00  0.45593999997E+02  0.45594000000E+02  0.51100000000E-03 0.  1.
         11   -1    0    0    0    0 -0.00000000000E+00 -0.00000000000E+00 -0.45593999997E+02  0.45594000000E+02  0.51100000000E-03 0. -1.
    9900012    2    1    2    0    0 -0.24341733998E+02 -0.32514467276E+02 -0.18588714668E+01  0.50528855894E+02  0.29999987976E+02 0.  0.
        -12    1    1    2    0    0  0.24341733998E+02  0.32514467276E+02  0.18588714668E+01  0.40659144106E+02  0.00000000000E+00 0.  1.
         11    1    3    3    0    0 -0.19932645802E+02 -0.25462353795E+02 -0.79677800768E+01  0.33303563609E+02  0.51100000000E-03 0. -1.
        -11    1    3    3    0    0  0.86122520004E+00 -0.10002184094E+02  0.33318420894E+01  0.10577644704E+02  0.51100000000E-03 0.  1.
         12    1    3    3    0    0 -0.52703133960E+01  0.29500706129E+01  0.27770665206E+01  0.66476475819E+01  0.00000000000E+00 0. -1.
</event>
<event>
 7    1  0.6090311E-013  0.5052886E+02  0.7816164E-02  0.1300439E+00
        -11   -1    0    0    0    0  0.00000000000E+00  0.00000000000E+00  0.45593999997E+02  0.45594000000E+02  0.51100000000E-03 0.  1.
         11   -1    0    0    0    0 -0.00000000000E+00 -0.00000000000E+00 -0.45593999997E+02  0.45594000000E+02  0.51100000000E-03 0. -1.
    9900012    2    1    2    0    0 -0.15395252059E+02  0.29739068684E+02 -0.23059478028E+02  0.50528861801E+02  0.30000005931E+02 0.  0.
        -12    1    1    2    0    0  0.15395252059E+02 -0.29739068684E+02  0.23059478028E+02  0.40659138199E+02  0.00000000000E+00 0.  1.
         11    1    3    3    0    0  0.35469339517E+01 -0.59660702304E+00 -0.21576135265E+00  0.36032254467E+01  0.51100000000E-03 0. -1.
        -11    1    3    3    0    0 -0.15498330565E+02  0.68229452774E+01 -0.12292006156E+02  0.20924728150E+02  0.51100000000E-03 0.  1.
         12    1    3    3    0    0 -0.34438554459E+01  0.23512730430E+02 -0.10551710520E+02  0.26000908205E+02  0.00000000000E+00 0. -1.
</event>
<event>
 7    1  0.6090311E-013  0.5052886E+02  0.7816164E-02  0.1300439E+00
        -11   -1    0    0    0    0  0.00000000000E+00  0.00000000000E+00  0.45593999997E+02  0.45594000000E+02  0.51100000000E-03 0. -1.
         11   -1    0    0    0    0 -0.00000000000E+00 -0.00000000000E+00 -0.45593999997E+02  0.45594000000E+02  0.51100000000E-03 0.  1.
    9900012    2    1    2    0    0 -0.20533802985E+02  0.34759695597E+02  0.48261648290E+01  0.50528863635E+02  0.30000011504E+02 0.  0.
        -12    1    1    2    0    0  0.20533802985E+02 -0.34759695597E+02 -0.48261648290E+01  0.40659136365E+02  0.00000000000E+00 0.  1.
         11    1    3    3    0    0  0.24092879779E+01  0.13291541953E+01  0.78458329520E+01  0.83143499088E+01  0.51100000000E-03 0. -1.
        -11    1    3    3    0    0 -0.14299966019E+00  0.56272075119E+01  0.18601191996E+01  0.59284025658E+01  0.51100000000E-03 0.  1.
        -12    1    3    3    0    0 -0.22800091303E+02  0.27803333890E+02 -0.48797873226E+01  0.36286111160E+02  0.00000000000E+00 0.  1.
</event>
<event>
 7    1  0.6090311E-013  0.5052886E+02  0.7816164E-02  0.1300439E+00
        -11   -1    0    0    0    0  0.00000000000E+00  0.00000000000E+00  0.45593999997E+02  0.45594000000E+02  0.51100000000E-03 0. -1.
         11   -1    0    0    0    0 -0.00000000000E+00 -0.00000000000E+00 -0.45593999997E+02  0.45594000000E+02  0.51100000000E-03 0.  1.
    9900012    2    1    2    0    0  0.67182104510E+01  0.36942841473E+02  0.15596724265E+02  0.50528859631E+02  0.29999999334E+02 0.  0.
        -12    1    1    2    0    0 -0.67182104510E+01 -0.36942841473E+02 -0.15596724265E+02  0.40659140369E+02  0.00000000000E+00 0.  1.
         11    1    3    3    0    0 -0.40292898717E+01  0.19703482788E+02  0.82399606047E+01  0.21733829894E+02  0.51100000000E-03 0. -1.
        -11    1    3    3    0    0 -0.31836598276E+01  0.12331545093E+02  0.56275082645E+01  0.13923776205E+02  0.51100000000E-03 0.  1.
        -12    1    3    3    0    0  0.13931160150E+02  0.49078135924E+01  0.17292553954E+01  0.14871253532E+02  0.00000000000E+00 0.  1.
</event>
<event>
 7    1  0.6090311E-013  0.5052886E+02  0.7816164E-02  0.1300439E+00
        -11   -1    0    0    0    0  0.00000000000E+00  0.00000000000E+00  0.45593999997E+02  0.45594000000E+02  0.51100000000E-03 0.  1.
         11   -1    0    0    0    0 -0.00000000000E+00 -0.00000000000E+00 -0.45593999997E+02  0.45594000000E+02  0.51100000000E-03 0. -1.
    9900012    2    1    2    0    0  0.55318571260E+01 -0.40233948666E+02 -0.19476391949E+01  0.50528863672E+02  0.30000011616E+02 0.  0.
        -12    1    1    2    0    0 -0.55318571260E+01  0.40233948666E+02  0.19476391949E+01  0.40659136328E+02  0.00000000000E+00 0.  1.
         11    1    3    3    0    0  0.44407883472E+01  0.92996383610E+00 -0.50366975439E+01  0.67789199944E+01  0.51100000000E-03 0. -1.
        -11    1    3    3    0    0 -0.62866754582E+01 -0.12434262089E+02  0.19226152422E+01  0.14065191490E+02  0.51100000000E-03 0.  1.
         12    1    3    3    0    0  0.73777442370E+01 -0.28729650413E+02  0.11664431069E+01  0.29684752187E+02  0.00000000000E+00 0. -1.
</event>
<event>
 7    1  0.6090311E-013  0.5052886E+02  0.7816164E-02  0.1300439E+00
        -11   -1    0    0    0    0  0.00000000000E+00  0.00000000000E+00  0.45593999997E+02  0.45594000000E+02  0.51100000000E-03 0.  1.
         11   -1    0    0    0    0 -0.00000000000E+00 -0.00000000000E+00 -0.45593999997E+02  0.45594000000E+02  0.51100000000E-03 0. -1.
    9900012    2    1    2    0    0  0.19058904518E+02 -0.33070419490E+02 -0.14009692754E+02  0.50528856161E+02  0.29999988786E+02 0.  0.
        -12    1    1    2    0    0 -0.19058904518E+02  0.33070419490E+02  0.14009692754E+02  0.40659143839E+02  0.00000000000E+00 0.  1.
         11    1    3    3    0    0  0.71347953784E+01 -0.64902114935E+01 -0.76102590123E+01  0.12285934756E+02  0.51100000000E-03 0. -1.
        -11    1    3    3    0    0  0.13544815261E+02 -0.23839030247E+02 -0.13425589885E+02  0.30528803573E+02  0.51100000000E-03 0.  1.
        -12    1    3    3    0    0 -0.16207061211E+01 -0.27411777490E+01  0.70261561431E+01  0.77141178322E+01  0.00000000000E+00 0.  1.
</event>
<event>
 7    1  0.6090311E-013  0.5052886E+02  0.7816164E-02  0.1300439E+00
        -11   -1    0    0    0    0  0.00000000000E+00  0.00000000000E+00  0.45593999997E+02  0.45594000000E+02  0.51100000000E-03 0. -1.
         11   -1    0    0    0    0 -0.00000000000E+00 -0.00000000000E+00 -0.45593999997E+02  0.45594000000E+02  0.51100000000E-03 0.  1.
    9900012    2    1    2    0    0  0.23172961144E+02  0.24624387729E+02  0.22579178463E+02  0.50528857126E+02  0.29999991720E+02 0.  0.
        -12    1    1    2    0    0 -0.23172961144E+02 -0.24624387729E+02 -0.22579178463E+02  0.40659142874E+02  0.00000000000E+00 0.  1.
         11    1    3    3    0    0  0.19731597473E+02  0.25879605568E+02  0.14730896030E+02  0.35722391036E+02  0.51100000000E-03 0. -1.
        -11    1    3    3    0    0  0.75219609243E+01 -0.60492572855E+00  0.75325648541E+01  0.10662333930E+02  0.51100000000E-03 0.  1.
        -12    1    3    3    0    0 -0.40805972538E+01 -0.65029211054E+00  0.31571757877E+00  0.41441321608E+01  0.00000000000E+00 0.  1.
</event>
<event>
 7    1  0.6090311E-013  0.5052880E+02  0.7816164E-02  0.1300439E+00
        -11   -1    0    0    0    0  0.00000000000E+00  0.00000000000E+00  0.45593999997E+02  0.45594000000E+02  0.51100000000E-03 0. -1.
         11   -1    0    0    0    0 -0.00000000000E+00 -0.00000000000E+00 -0.45593999997E+02  0.45594000000E+02  0.51100000000E-03 0.  1.
    9900012    2    1    2    0    0 -0.76428966781E+01  0.38995979393E+01  0.39743552805E+02  0.50528797803E+02  0.29999811400E+02 0.  0.
        -12    1    1    2    0    0  0.76428966781E+01 -0.38995979393E+01 -0.39743552805E+02  0.40659202197E+02  0.00000000000E+00 0.  1.
         11    1    3    3    0    0 -0.57491168387E+01 -0.37430171991E+01 -0.15564557926E+01  0.70345630336E+01  0.51100000000E-03 0.  1.
        -11    1    3    3    0    0  0.23706850040E+01 -0.15232136467E+01  0.16053568091E+02  0.16298999230E+02  0.51100000000E-03 0. -1.
        -12    1    3    3    0    0 -0.42644648434E+01  0.91658287852E+01  0.25246440507E+02  0.27195235539E+02  0.00000000000E+00 0.  1.
</event>
<event>
 7    1  0.6090311E-013  0.5052888E+02  0.7816164E-02  0.1300439E+00
        -11   -1    0    0    0    0  0.00000000000E+00  0.00000000000E+00  0.45593999997E+02  0.45594000000E+02  0.51100000000E-03 0. -1.
         11   -1    0    0    0    0 -0.00000000000E+00 -0.00000000000E+00 -0.45593999997E+02  0.45594000000E+02  0.51100000000E-03 0.  1.
    9900012    2    1    2    0    0  0.30422033767E+02  0.26936708019E+02  0.14415281283E+01  0.50528875799E+02  0.30000048479E+02 0.  0.
        -12    1    1    2    0    0 -0.30422033767E+02 -0.26936708019E+02 -0.14415281283E+01  0.40659124201E+02  0.00000000000E+00 0.  1.
         11    1    3    3    0    0  0.14288165451E+02  0.15005661420E+02 -0.74396129883E+01  0.22015208114E+02  0.51100000000E-03 0. -1.
        -11    1    3    3    0    0  0.34605349134E+01  0.11218258242E+02 -0.18590881249E+01  0.11886161230E+02  0.51100000000E-03 0.  1.
        -12    1    3    3    0    0  0.12673333402E+02  0.71278835731E+00  0.10740229242E+02  0.16627506455E+02  0.00000000000E+00 0.  1.
</event>
<event>
 7    1  0.6090311E-013  0.5052886E+02  0.7816164E-02  0.1300439E+00
        -11   -1    0    0    0    0  0.00000000000E+00  0.00000000000E+00  0.45593999997E+02  0.45594000000E+02  0.51100000000E-03 0. -1.
         11   -1    0    0    0    0 -0.00000000000E+00 -0.00000000000E+00 -0.45593999997E+02  0.45594000000E+02  0.51100000000E-03 0.  1.
    9900012    2    1    2    0    0 -0.25719133522E+02  0.30794104186E+02  0.65890130190E+01  0.50528858662E+02  0.29999996390E+02 0.  0.
        -12    1    1    2    0    0  0.25719133522E+02 -0.30794104186E+02 -0.65890130190E+01  0.40659141338E+02  0.00000000000E+00 0.  1.
         11    1    3    3    0    0 -0.21762371131E+02  0.17881308667E+02  0.88052902675E+01  0.29510593587E+02  0.51100000000E-03 0. -1.
        -11    1    3    3    0    0  0.26294998394E+01  0.37788527285E+00  0.45932184313E+01  0.53061023834E+01  0.51100000000E-03 0.  1.
         12    1    3    3    0    0 -0.65862622303E+01  0.12534910246E+02 -0.68094956798E+01  0.15712162692E+02  0.00000000000E+00 0. -1.
</event>
<event>
 7    1  0.6090311E-013  0.5052886E+02  0.7816164E-02  0.1300439E+00
        -11   -1    0    0    0    0  0.00000000000E+00  0.00000000000E+00  0.45593999997E+02  0.45594000000E+02  0.51100000000E-03 0.  1.
         11   -1    0    0    0    0 -0.00000000000E+00 -0.00000000000E+00 -0.45593999997E+02  0.45594000000E+02  0.51100000000E-03 0. -1.
    9900012    2    1    2    0    0  0.13797199950E+02 -0.38121587132E+02 -0.30898466425E+01  0.50528864690E+02  0.30000014712E+02 0.  0.
        -12    1    1    2    0    0 -0.13797199950E+02  0.38121587132E+02  0.30898466425E+01  0.40659135310E+02  0.00000000000E+00 0.  1.
         11    1    3    3    0    0  0.29670335597E+00 -0.20285560269E+02 -0.50353096686E+01  0.20903261277E+02  0.51100000000E-03 0. -1.
        -11    1    3    3    0    0  0.16485197757E-01 -0.13529621266E+02 -0.42395750329E+01  0.14178325715E+02  0.51100000000E-03 0.  1.
        -12    1    3    3    0    0  0.13484011396E+02 -0.43064055970E+01  0.61850380590E+01  0.15447277698E+02  0.00000000000E+00 0.  1.
</event>
<event>
 7    1  0.6090311E-013  0.5052884E+02  0.7816164E-02  0.1300439E+00
        -11   -1    0    0    0    0  0.00000000000E+00  0.00000000000E+00  0.45593999997E+02  0.45594000000E+02  0.51100000000E-03 0.  1.
         11   -1    0    0    0    0 -0.00000000000E+00 -0.00000000000E+00 -0.45593999997E+02  0.45594000000E+02  0.51100000000E-03 0. -1.
    9900012    2    1    2    0    0 -0.40072595257E+02  0.67805177245E+01  0.11743550469E+01  0.50528838412E+02  0.29999934838E+02 0.  0.
        -12    1    1    2    0    0  0.40072595257E+02 -0.67805177245E+01 -0.11743550469E+01  0.40659161588E+02  0.00000000000E+00 0.  1.
         11    1    3    3    0    0 -0.14118049359E+00  0.22203180984E+01 -0.59796813116E+01  0.63801515059E+01  0.51100000000E-03 0.  1.
        -11    1    3    3    0    0 -0.68105267431E-01  0.54319981989E-01  0.38986931795E+01  0.38996663648E+01  0.51100000000E-03 0. -1.
         12    1    3    3    0    0 -0.39863309496E+02  0.45058796441E+01  0.32553431790E+01  0.40249020542E+02  0.00000000000E+00 0. -1.
</event>
<event>
 7    1  0.6090311E-013  0.5052887E+02  0.7816164E-02  0.1300439E+00
        -11   -1    0    0    0    0  0.00000000000E+00  0.00000000000E+00  0.45593999997E+02  0.45594000000E+02  0.51100000000E-03 0.  1.
         11   -1    0    0    0    0 -0.00000000000E+00 -0.00000000000E+00 -0.45593999997E+02  0.45594000000E+02  0.51100000000E-03 0. -1.
    9900012    2    1    2    0    0  0.16644249868E+02 -0.17357003162E+02 -0.32785177545E+02  0.50528874590E+02  0.30000044803E+02 0.  0.
        -12    1    1    2    0    0 -0.16644249868E+02  0.17357003162E+02  0.32785177545E+02  0.40659125410E+02  0.00000000000E+00 0.  1.
         11    1    3    3    0    0  0.42664268115E+01 -0.70632549470E+01 -0.60117586554E+01  0.10209466714E+02  0.51100000000E-03 0. -1.
        -11    1    3    3    0    0  0.18699589047E+02 -0.84018139638E+01 -0.26773389666E+02  0.33720609467E+02  0.51100000000E-03 0.  1.
        -12    1    3    3    0    0 -0.63217659899E+01 -0.18919342513E+01 -0.29224265615E-04  0.65987984090E+01  0.00000000000E+00 0.  1.
</event>
<event>
 7    1  0.6090311E-013  0.5052887E+02  0.7816164E-02  0.1300439E+00
        -11   -1    0    0    0    0  0.00000000000E+00  0.00000000000E+00  0.45593999997E+02  0.45594000000E+02  0.51100000000E-03 0. -1.
         11   -1    0    0    0    0 -0.00000000000E+00 -0.00000000000E+00 -0.45593999997E+02  0.45594000000E+02  0.51100000000E-03 0.  1.
    9900012    2    1    2    0    0  0.21324283269E+02  0.33768311060E+02  0.76250432783E+01  0.50528866047E+02  0.30000018837E+02 0.  0.
        -12    1    1    2    0    0 -0.21324283269E+02 -0.33768311060E+02 -0.76250432783E+01  0.40659133953E+02  0.00000000000E+00 0.  1.
         11    1    3    3    0    0  0.18153049916E+02  0.19700102478E+02  0.18401703346E+01  0.26851694285E+02  0.51100000000E-03 0. -1.
        -11    1    3    3    0    0  0.78632741614E+01  0.10624568140E+02 -0.25991495802E+01  0.13471009892E+02  0.51100000000E-03 0.  1.
         12    1    3    3    0    0 -0.46920408082E+01  0.34436404423E+01  0.83840225238E+01  0.10206161870E+02  0.00000000000E+00 0. -1.
</event>
<event>
 7    1  0.6090311E-013  0.5052886E+02  0.7816164E-02  0.1300439E+00
        -11   -1    0    0    0    0  0.00000000000E+00  0.00000000000E+00  0.45593999997E+02  0.45594000000E+02  0.51100000000E-03 0.  1.
         11   -1    0    0    0    0 -0.00000000000E+00 -0.00000000000E+00 -0.45593999997E+02  0.45594000000E+02  0.51100000000E-03 0. -1.
    9900012    2    1    2    0    0 -0.26147912246E+02 -0.94314604291E+01 -0.29673215708E+02  0.50528862145E+02  0.30000006977E+02 0.  0.
        -12    1    1    2    0    0  0.26147912246E+02  0.94314604291E+01  0.29673215708E+02  0.40659137855E+02  0.00000000000E+00 0.  1.
         11    1    3    3    0    0 -0.42827415360E+01 -0.15818916716E+00 -0.10223391445E+02  0.11085334085E+02  0.51100000000E-03 0. -1.
        -11    1    3    3    0    0 -0.14682081275E+02  0.73968486345E+00 -0.22380532659E+02  0.26776834889E+02  0.51100000000E-03 0.  1.
        -12    1    3    3    0    0 -0.71830894343E+01 -0.10012956125E+02  0.29307083969E+01  0.12666693171E+02  0.00000000000E+00 0.  1.
</event>
<event>
 7    1  0.6090311E-013  0.5052885E+02  0.7816164E-02  0.1300439E+00
        -11   -1    0    0    0    0  0.00000000000E+00  0.00000000000E+00  0.45593999997E+02  0.45594000000E+02  0.51100000000E-03 0. -1.
         11   -1    0    0    0    0 -0.00000000000E+00 -0.00000000000E+00 -0.45593999997E+02  0.45594000000E+02  0.51100000000E-03 0.  1.
    9900012    2    1    2    0    0  0.29495527882E+02  0.27440291273E+02  0.54963954378E+01  0.50528854497E+02  0.29999983729E+02 0.  0.
        -12    1    1    2    0    0 -0.29495527882E+02 -0.27440291273E+02 -0.54963954378E+01  0.40659145503E+02  0.00000000000E+00 0.  1.
         11    1    3    3    0    0  0.34695138389E+01  0.12762682682E+02  0.59003768685E+01  0.14482335550E+02  0.51100000000E-03 0. -1.
        -11    1    3    3    0    0  0.24358827778E+01 -0.48059092782E+01 -0.80704975205E+00  0.54480839256E+01  0.51100000000E-03 0.  1.
        -12    1    3    3    0    0  0.23590131266E+02  0.19483517869E+02  0.40306832132E+00  0.30598435021E+02  0.00000000000E+00 0.  1.
</event>
<event>
 7    1  0.6090311E-013  0.5052886E+02  0.7816164E-02  0.1300439E+00
        -11   -1    0    0    0    0  0.00000000000E+00  0.00000000000E+00  0.45593999997E+02  0.45594000000E+02  0.51100000000E-03 0.  1.
         11   -1    0    0    0    0 -0.00000000000E+00 -0.00000000000E+00 -0.45593999997E+02  0.45594000000E+02  0.51100000000E-03 0. -1.
    9900012    2    1    2    0    0 -0.25353084516E+02 -0.15406357996E+02 -0.27803435964E+02  0.50528858192E+02  0.29999994960E+02 0.  0.
        -12    1    1    2    0    0  0.25353084516E+02  0.15406357996E+02  0.27803435964E+02  0.40659141808E+02  0.00000000000E+00 0.  1.
         11    1    3    3    0    0 -0.10926764632E+02 -0.10118668962E+02 -0.81646878877E+01  0.16983632575E+02  0.51100000000E-03 0. -1.
        -11    1    3    3    0    0 -0.17868819891E+02  0.26648187371E+01 -0.10262300867E+02  0.20777651516E+02  0.51100000000E-03 0.  1.
        -12    1    3    3    0    0  0.34425000062E+01 -0.79525077707E+01 -0.93764472093E+01  0.12767574100E+02  0.00000000000E+00 0.  1.
</event>
<event>
 7    1  0.6090311E-013  0.5052886E+02  0.7816164E-02  0.1300439E+00
        -11   -1    0    0    0    0  0.00000000000E+00  0.00000000000E+00  0.45593999997E+02  0.45594000000E+02  0.51100000000E-03 0. -1.
         11   -1    0    0    0    0 -0.00000000000E+00 -0.00000000000E+00 -0.45593999997E+02  0.45594000000E+02  0.51100000000E-03 0.  1.
    9900012    2    1    2    0    0  0.33101266627E+02  0.13571709378E+02  0.19320468169E+02  0.50528860339E+02  0.30000001485E+02 0.  0.
        -12    1    1    2    0    0 -0.33101266627E+02 -0.13571709378E+02 -0.19320468169E+02  0.40659139661E+02  0.00000000000E+00 0.  1.
         11    1    3    3    0    0  0.44448742594E+01  0.25911721977E+01  0.69202907881E+01  0.86233117416E+01  0.51100000000E-03 0. -1.
        -11    1    3    3    0    0  0.13489478144E+02  0.96847725850E+01  0.19069471080E+02  0.25286470061E+02  0.51100000000E-03 0.  1.
        -12    1    3    3    0    0  0.15166914223E+02  0.12957645950E+01 -0.66692936986E+01  0.16619078536E+02  0.00000000000E+00 0.  1.
</event>
<event>
 7    1  0.6090311E-013  0.5052884E+02  0.7816164E-02  0.1300439E+00
        -11   -1    0    0    0    0  0.00000000000E+00  0.00000000000E+00  0.45593999997E+02  0.45594000000E+02  0.51100000000E-03 0. -1.
         11   -1    0    0    0    0 -0.00000000000E+00 -0.00000000000E+00 -0.45593999997E+02  0.45594000000E+02  0.51100000000E-03 0.  1.
    9900012    2    1    2    0    0 -0.38830915761E+02 -0.10348202054E+02  0.61840434064E+01  0.50528835012E+02  0.29999924504E+02 0.  0.
        -12    1    1    2    0    0  0.38830915761E+02  0.10348202054E+02 -0.61840434064E+01  0.40659164988E+02  0.00000000000E+00 0.  1.
         11    1    3    3    0    0 -0.11433972492E+02  0.49494102085E+01  0.76374033977E+01  0.14613771562E+02  0.51100000000E-03 0. -1.
        -11    1    3    3    0    0  0.12117328534E+01 -0.47957143435E+01  0.18062463912E+01  0.52658996248E+01  0.51100000000E-03 0.  1.
         12    1    3    3    0    0 -0.28608676123E+02 -0.10501897919E+02 -0.32596063825E+01  0.30649163825E+02  0.00000000000E+00 0. -1.
</event>
<event>
 7    1  0.6090311E-013  0.5052885E+02  0.7816164E-02  0.1300439E+00
        -11   -1    0    0    0    0  0.00000000000E+00  0.00000000000E+00  0.45593999997E+02  0.45594000000E+02  0.51100000000E-03 0.  1.
         11   -1    0    0    0    0 -0.00000000000E+00 -0.00000000000E+00 -0.45593999997E+02  0.45594000000E+02  0.51100000000E-03 0. -1.
    9900012    2    1    2    0    0 -0.10264550182E+02 -0.14852760077E+02 -0.36430770168E+02  0.50528849894E+02  0.29999969737E+02 0.  0.
        -12    1    1    2    0    0  0.10264550182E+02  0.14852760077E+02  0.36430770168E+02  0.40659150106E+02  0.00000000000E+00 0.  1.
         11    1    3    3    0    0 -0.14014315501E+02 -0.13878286420E+02 -0.36094431682E+02  0.41131689384E+02  0.51100000000E-03 0. -1.
        -11    1    3    3    0    0 -0.71264023530E+00 -0.35491498419E+01 -0.17980150326E+01  0.40419276371E+01  0.51100000000E-03 0.  1.
         12    1    3    3    0    0  0.44624055544E+01  0.25746761854E+01  0.14616765460E+01  0.53552328723E+01  0.00000000000E+00 0. -1.
</event>
<event>
 7    1  0.6090311E-013  0.5052888E+02  0.7816164E-02  0.1300439E+00
        -11   -1    0    0    0    0  0.00000000000E+00  0.00000000000E+00  0.45593999997E+02  0.45594000000E+02  0.51100000000E-03 0.  1.
         11   -1    0    0    0    0 -0.00000000000E+00 -0.00000000000E+00 -0.45593999997E+02  0.45594000000E+02  0.51100000000E-03 0. -1.
    9900012    2    1    2    0    0 -0.95788561338E+00  0.28607163211E+02 -0.28876917537E+02  0.50528884192E+02  0.30000073991E+02 0.  0.
        -12    1    1    2    0    0  0.95788561338E+00 -0.28607163211E+02  0.28876917537E+02  0.40659115808E+02  0.00000000000E+00 0.  1.
         11    1    3    3    0    0  0.10063604135E+02  0.15618851584E+02 -0.77045360225E+01  0.20114286678E+02  0.51100000000E-03 0. -1.
        -11    1    3    3    0    0  0.25543090088E+01  0.13157639940E+01 -0.26001736486E+00  0.28850197038E+01  0.51100000000E-03 0.  1.
         12    1    3    3    0    0 -0.13575798757E+02  0.11672547633E+02 -0.20912364149E+02  0.27529577811E+02  0.00000000000E+00 0. -1.
</event>
<event>
 7    1  0.6090311E-013  0.5052887E+02  0.7816164E-02  0.1300439E+00
        -11   -1    0    0    0    0  0.00000000000E+00  0.00000000000E+00  0.45593999997E+02  0.45594000000E+02  0.51100000000E-03 0. -1.
         11   -1    0    0    0    0 -0.00000000000E+00 -0.00000000000E+00 -0.45593999997E+02  0.45594000000E+02  0.51100000000E-03 0.  1.
    9900012    2    1    2    0    0 -0.38926786872E+02  0.94635247955E+01  0.69506820592E+01  0.50528867953E+02  0.30000024629E+02 0.  0.
        -12    1    1    2    0    0  0.38926786872E+02 -0.94635247955E+01 -0.69506820592E+01  0.40659132047E+02  0.00000000000E+00 0.  1.
         11    1    3    3    0    0 -0.15873765983E+02  0.46555254591E+01  0.10425966627E+00  0.16542709395E+02  0.51100000000E-03 0. -1.
        -11    1    3    3    0    0 -0.27047395230E+02  0.79543408760E+01  0.54715190551E+01  0.28718820459E+02  0.51100000000E-03 0.  1.
         12    1    3    3    0    0  0.39943743413E+01 -0.31463415396E+01  0.13749033379E+01  0.52673380991E+01  0.00000000000E+00 0. -1.
</event>
<event>
 7    1  0.6090311E-013  0.5052887E+02  0.7816164E-02  0.1300439E+00
        -11   -1    0    0    0    0  0.00000000000E+00  0.00000000000E+00  0.45593999997E+02  0.45594000000E+02  0.51100000000E-03 0. -1.
         11   -1    0    0    0    0 -0.00000000000E+00 -0.00000000000E+00 -0.45593999997E+02  0.45594000000E+02  0.51100000000E-03 0.  1.
    9900012    2    1    2    0    0  0.68430840400E+01 -0.37261636382E+02 -0.14761701166E+02  0.50528866139E+02  0.30000019115E+02 0.  0.
        -12    1    1    2    0    0 -0.68430840400E+01  0.37261636382E+02  0.14761701166E+02  0.40659133861E+02  0.00000000000E+00 0.  1.
         11    1    3    3    0    0 -0.22862145031E+01 -0.21250673040E+02 -0.89256317417E+01  0.23162141172E+02  0.51100000000E-03 0. -1.
        -11    1    3    3    0    0  0.31293674420E+01 -0.18322566837E+02 -0.84594289387E+01  0.20422324411E+02  0.51100000000E-03 0.  1.
        -12    1    3    3    0    0  0.59999311011E+01  0.23116034956E+01  0.26233595149E+01  0.69444005560E+01  0.00000000000E+00 0.  1.
</event>
<event>
 7    1  0.6090311E-013  0.5052885E+02  0.7816164E-02  0.1300439E+00
        -11   -1    0    0    0    0  0.00000000000E+00  0.00000000000E+00  0.45593999997E+02  0.45594000000E+02  0.51100000000E-03 0. -1.
         11   -1    0    0    0    0 -0.00000000000E+00 -0.00000000000E+00 -0.45593999997E+02  0.45594000000E+02  0.51100000000E-03 0.  1.
    9900012    2    1    2    0    0  0.36427303445E+02  0.18023687619E+02  0.11681346299E+01  0.50528852319E+02  0.29999977108E+02 0.  0.
        -12    1    1    2    0    0 -0.36427303445E+02 -0.18023687619E+02 -0.11681346299E+01  0.40659147681E+02  0.00000000000E+00 0.  1.
         11    1    3    3    0    0  0.69141532256E+01 -0.34943110396E+01  0.58536327816E+01  0.97098270567E+01  0.51100000000E-03 0. -1.
        -11    1    3    3    0    0  0.13000351394E+02  0.88670133772E+01 -0.10860141682E+02  0.19120035047E+02  0.51100000000E-03 0.  1.
         12    1    3    3    0    0  0.16512798825E+02  0.12650985281E+02  0.61746435298E+01  0.21698990215E+02  0.00000000000E+00 0. -1.
</event>
<event>
 7    1  0.6090311E-013  0.5052886E+02  0.7816164E-02  0.1300439E+00
        -11   -1    0    0    0    0  0.00000000000E+00  0.00000000000E+00  0.45593999997E+02  0.45594000000E+02  0.51100000000E-03 0.  1.
         11   -1    0    0    0    0 -0.00000000000E+00 -0.00000000000E+00 -0.45593999997E+02  0.45594000000E+02  0.51100000000E-03 0. -1.
    9900012    2    1    2    0    0 -0.21762637843E+02 -0.47627683715E+01 -0.34012785076E+02  0.50528856907E+02  0.29999991056E+02 0.  0.
        -12    1    1    2    0    0  0.21762637843E+02  0.47627683715E+01  0.34012785076E+02  0.40659143093E+02  0.00000000000E+00 0.  1.
         11    1    3    3    0    0 -0.17189748521E+02 -0.76937898358E+00 -0.85171078242E+01  0.19199492810E+02  0.51100000000E-03 0. -1.
        -11    1    3    3    0    0 -0.32653175996E+01  0.66497090891E+01 -0.11840941461E+02  0.13967420124E+02  0.51100000000E-03 0.  1.
         12    1    3    3    0    0 -0.13075717223E+01 -0.10643098477E+02 -0.13654735791E+02  0.17361943973E+02  0.00000000000E+00 0. -1.
</event>
<event>
 7    1  0.6090311E-013  0.5052884E+02  0.7816164E-02  0.1300439E+00
        -11   -1    0    0    0    0  0.00000000000E+00  0.00000000000E+00  0.45593999997E+02  0.45594000000E+02  0.51100000000E-03 0. -1.
         11   -1    0    0    0    0 -0.00000000000E+00 -0.00000000000E+00 -0.45593999997E+02  0.45594000000E+02  0.51100000000E-03 0.  1.
    9900012    2    1    2    0    0 -0.23613018672E+02 -0.32959672713E+02  0.30417712668E+01  0.50528842992E+02  0.29999948760E+02 0.  0.
        -12    1    1    2    0    0  0.23613018672E+02  0.32959672713E+02 -0.30417712668E+01  0.40659157008E+02  0.00000000000E+00 0.  1.
         11    1    3    3    0    0 -0.86864086870E+01 -0.17971095877E+02  0.14302668896E+02  0.24555657611E+02  0.51100000000E-03 0. -1.
        -11    1    3    3    0    0  0.14795715815E+01 -0.98098373750E+00 -0.39514159246E+00  0.18186803725E+01  0.51100000000E-03 0.  1.
         12    1    3    3    0    0 -0.16406181566E+02 -0.14007593098E+02 -0.10865756036E+02  0.24154505009E+02  0.00000000000E+00 0. -1.
</event>
<event>
 7    1  0.6090311E-013  0.5052881E+02  0.7816164E-02  0.1300439E+00
        -11   -1    0    0    0    0  0.00000000000E+00  0.00000000000E+00  0.45593999997E+02  0.45594000000E+02  0.51100000000E-03 0.  1.
         11   -1    0    0    0    0 -0.00000000000E+00 -0.00000000000E+00 -0.45593999997E+02  0.45594000000E+02  0.51100000000E-03 0. -1.
    9900012    2    1    2    0    0 -0.19117208056E+02 -0.14829054057E+02 -0.32677223757E+02  0.50528813578E+02  0.29999859351E+02 0.  0.
        -12    1    1    2    0    0  0.19117208056E+02  0.14829054057E+02  0.32677223757E+02  0.40659186422E+02  0.00000000000E+00 0.  1.
         11    1    3    3    0    0 -0.26438689650E+00 -0.94359310801E+01 -0.63956113050E+01  0.11402216451E+02  0.51100000000E-03 0. -1.
        -11    1    3    3    0    0 -0.73896570870E+01  0.62853145636E+01 -0.20960007538E+01  0.99249901989E+01  0.51100000000E-03 0.  1.
         12    1    3    3    0    0 -0.11463164072E+02 -0.11678437541E+02 -0.24185611698E+02  0.29201606927E+02  0.00000000000E+00 0. -1.
</event>
<event>
 7    1  0.6090311E-013  0.5052887E+02  0.7816164E-02  0.1300439E+00
        -11   -1    0    0    0    0  0.00000000000E+00  0.00000000000E+00  0.45593999997E+02  0.45594000000E+02  0.51100000000E-03 0.  1.
         11   -1    0    0    0    0 -0.00000000000E+00 -0.00000000000E+00 -0.45593999997E+02  0.45594000000E+02  0.51100000000E-03 0. -1.
    9900012    2    1    2    0    0 -0.26289718595E+02 -0.16971226939E+02 -0.25961379137E+02  0.50528867517E+02  0.30000023304E+02 0.  0.
        -12    1    1    2    0    0  0.26289718595E+02  0.16971226939E+02  0.25961379137E+02  0.40659132483E+02  0.00000000000E+00 0.  1.
         11    1    3    3    0    0 -0.30774379565E+02 -0.89605285049E+01 -0.18052893673E+02  0.36786688882E+02  0.51100000000E-03 0. -1.
        -11    1    3    3    0    0 -0.72928059426E+00  0.33790323911E+00  0.36609989762E+00  0.88320902414E+00  0.51100000000E-03 0.  1.
        -12    1    3    3    0    0  0.52139415643E+01 -0.83486016733E+01 -0.82745853616E+01  0.12858969610E+02  0.00000000000E+00 0.  1.
</event>
<event>
 7    1  0.6090311E-013  0.5052889E+02  0.7816164E-02  0.1300439E+00
        -11   -1    0    0    0    0  0.00000000000E+00  0.00000000000E+00  0.45593999997E+02  0.45594000000E+02  0.51100000000E-03 0. -1.
         11   -1    0    0    0    0 -0.00000000000E+00 -0.00000000000E+00 -0.45593999997E+02  0.45594000000E+02  0.51100000000E-03 0.  1.
    9900012    2    1    2    0    0 -0.13765605990E+02  0.18135172725E+02  0.33686599394E+02  0.50528888146E+02  0.30000086007E+02 0.  0.
        -12    1    1    2    0    0  0.13765605990E+02 -0.18135172725E+02 -0.33686599394E+02  0.40659111854E+02  0.00000000000E+00 0.  1.
         11    1    3    3    0    0  0.18656339558E+01  0.71959425738E+00  0.11338059582E+02  0.11513036146E+02  0.51100000000E-03 0. -1.
        -11    1    3    3    0    0 -0.84270797176E+01  0.66538801902E+01  0.23676565176E+02  0.25997490897E+02  0.51100000000E-03 0.  1.
        -12    1    3    3    0    0 -0.72041602285E+01  0.10761698278E+02 -0.13280253642E+01  0.13018361102E+02  0.00000000000E+00 0.  1.
</event>
<event>
 7    1  0.6090311E-013  0.5052886E+02  0.7816164E-02  0.1300439E+00
        -11   -1    0    0    0    0  0.00000000000E+00  0.00000000000E+00  0.45593999997E+02  0.45594000000E+02  0.51100000000E-03 0. -1.
         11   -1    0    0    0    0 -0.00000000000E+00 -0.00000000000E+00 -0.45593999997E+02  0.45594000000E+02  0.51100000000E-03 0.  1.
    9900012    2    1    2    0    0 -0.31782372928E+02 -0.22018251885E+02  0.12579452745E+02  0.50528864785E+02  0.30000015001E+02 0.  0.
        -12    1    1    2    0    0  0.31782372928E+02  0.22018251885E+02 -0.12579452745E+02  0.40659135215E+02  0.00000000000E+00 0.  1.
         11    1    3    3    0    0  0.17006440781E+01 -0.30604035621E+01 -0.27920181663E+01  0.44781275044E+01  0.51100000000E-03 0. -1.
        -11    1    3    3    0    0 -0.14561320642E+02 -0.18620279976E+02  0.13003464026E+02  0.26978453666E+02  0.51100000000E-03 0.  1.
        -12    1    3    3    0    0 -0.18921696364E+02 -0.33756834657E+00  0.23680068856E+01  0.19072283615E+02  0.00000000000E+00 0.  1.
</event>
<event>
 7    1  0.6090311E-013  0.5052886E+02  0.7816164E-02  0.1300439E+00
        -11   -1    0    0    0    0  0.00000000000E+00  0.00000000000E+00  0.45593999997E+02  0.45594000000E+02  0.51100000000E-03 0.  1.
         11   -1    0    0    0    0 -0.00000000000E+00 -0.00000000000E+00 -0.45593999997E+02  0.45594000000E+02  0.51100000000E-03 0. -1.
    9900012    2    1    2    0    0 -0.61317931050E+01 -0.37055718960E+02 -0.15570509230E+02  0.50528856477E+02  0.29999989747E+02 0.  0.
        -12    1    1    2    0    0  0.61317931050E+01  0.37055718960E+02  0.15570509230E+02  0.40659143523E+02  0.00000000000E+00 0.  1.
         11    1    3    3    0    0  0.44863246517E+01  0.60892521498E+00 -0.20100321415E+01  0.49535975077E+01  0.51100000000E-03 0. -1.
        -11    1    3    3    0    0 -0.13372170473E+01  0.15304358803E+01 -0.35187675932E+01  0.40635094501E+01  0.51100000000E-03 0.  1.
         12    1    3    3    0    0 -0.92809007094E+01 -0.39195080056E+02 -0.10041709495E+02  0.41511749519E+02  0.00000000000E+00 0. -1.
</event>
<event>
 7    1  0.6090311E-013  0.5052887E+02  0.7816164E-02  0.1300439E+00
        -11   -1    0    0    0    0  0.00000000000E+00  0.00000000000E+00  0.45593999997E+02  0.45594000000E+02  0.51100000000E-03 0. -1.
         11   -1    0    0    0    0 -0.00000000000E+00 -0.00000000000E+00 -0.45593999997E+02  0.45594000000E+02  0.51100000000E-03 0.  1.
    9900012    2    1    2    0    0 -0.10334547118E+02 -0.32293345316E+02 -0.22438849525E+02  0.50528868384E+02  0.30000025939E+02 0.  0.
        -12    1    1    2    0    0  0.10334547118E+02  0.32293345316E+02  0.22438849525E+02  0.40659131616E+02  0.00000000000E+00 0.  1.
         11    1    3    3    0    0 -0.25914434142E+01 -0.55770420167E+01 -0.66876803051E+01  0.90853753224E+01  0.51100000000E-03 0. -1.
        -11    1    3    3    0    0 -0.11327857155E+02 -0.19721713613E+01 -0.11158862126E+02  0.16022796629E+02  0.51100000000E-03 0.  1.
         12    1    3    3    0    0  0.35847534512E+01 -0.24744131938E+02 -0.45923070934E+01  0.25420696432E+02  0.00000000000E+00 0. -1.
</event>
<event>
 7    1  0.6090311E-013  0.5052890E+02  0.7816164E-02  0.1300439E+00
        -11   -1    0    0    0    0  0.00000000000E+00  0.00000000000E+00  0.45593999997E+02  0.45594000000E+02  0.51100000000E-03 0.  1.
         11   -1    0    0    0    0 -0.00000000000E+00 -0.00000000000E+00 -0.45593999997E+02  0.45594000000E+02  0.51100000000E-03 0. -1.
    9900012    2    1    2    0    0  0.19348087970E+02  0.14270308857E+02 -0.32789821889E+02  0.50528897176E+02  0.30000113455E+02 0.  0.
        -12    1    1    2    0    0 -0.19348087970E+02 -0.14270308857E+02  0.32789821889E+02  0.40659102824E+02  0.00000000000E+00 0.  1.
         11    1    3    3    0    0  0.63055439606E+01 -0.52075324136E+01 -0.16864995817E+02  0.18743168426E+02  0.51100000000E-03 0.  1.
        -11    1    3    3    0    0  0.31685039076E+01  0.17986124044E+01  0.24916084912E+01  0.44139026641E+01  0.51100000000E-03 0. -1.
         12    1    3    3    0    0  0.98740401019E+01  0.17679228867E+02 -0.18416434563E+02  0.27371826086E+02  0.00000000000E+00 0. -1.
</event>
<event>
 7    1  0.6090311E-013  0.5052886E+02  0.7816164E-02  0.1300439E+00
        -11   -1    0    0    0    0  0.00000000000E+00  0.00000000000E+00  0.45593999997E+02  0.45594000000E+02  0.51100000000E-03 0.  1.
         11   -1    0    0    0    0 -0.00000000000E+00 -0.00000000000E+00 -0.45593999997E+02  0.45594000000E+02  0.51100000000E-03 0. -1.
    9900012    2    1    2    0    0  0.39942225696E+02 -0.29745037406E+01 -0.69954870353E+01  0.50528857057E+02  0.29999991509E+02 0.  0.
        -12    1    1    2    0    0 -0.39942225696E+02  0.29745037406E+01  0.69954870353E+01  0.40659142943E+02  0.00000000000E+00 0.  1.
         11    1    3    3    0    0  0.11258504333E+02  0.10176121008E+02  0.25232292775E+01  0.15384214144E+02  0.51100000000E-03 0.  1.
        -11    1    3    3    0    0  0.11124675367E+02 -0.80485773029E+01 -0.97794622401E+01  0.16857517035E+02  0.51100000000E-03 0. -1.
        -12    1    3    3    0    0  0.17559045995E+02 -0.51020474459E+01  0.26074592729E+00  0.18287125877E+02  0.00000000000E+00 0.  1.
</event>
<event>
 7    1  0.6090311E-013  0.5052884E+02  0.7816164E-02  0.1300439E+00
        -11   -1    0    0    0    0  0.00000000000E+00  0.00000000000E+00  0.45593999997E+02  0.45594000000E+02  0.51100000000E-03 0.  1.
         11   -1    0    0    0    0 -0.00000000000E+00 -0.00000000000E+00 -0.45593999997E+02  0.45594000000E+02  0.51100000000E-03 0. -1.
    9900012    2    1    2    0    0 -0.21786458860E+02 -0.93396071905E+01 -0.33034663439E+02  0.50528843090E+02  0.29999949056E+02 0.  0.
        -12    1    1    2    0    0  0.21786458860E+02  0.93396071905E+01  0.33034663439E+02  0.40659156910E+02  0.00000000000E+00 0.  1.
         11    1    3    3    0    0 -0.38636711574E+00 -0.32632038127E+01 -0.99292314973E+01  0.10458843964E+02  0.51100000000E-03 0. -1.
        -11    1    3    3    0    0  0.45383747498E+01 -0.14169842294E+01  0.38072984921E+00  0.47696588091E+01  0.51100000000E-03 0.  1.
         12    1    3    3    0    0 -0.25938466494E+02 -0.46594191484E+01 -0.23486161790E+02  0.35300340317E+02  0.00000000000E+00 0. -1.
</event>
<event>
 7    1  0.6090311E-013  0.5052886E+02  0.7816164E-02  0.1300439E+00
        -11   -1    0    0    0    0  0.00000000000E+00  0.00000000000E+00  0.45593999997E+02  0.45594000000E+02  0.51100000000E-03 0. -1.
         11   -1    0    0    0    0 -0.00000000000E+00 -0.00000000000E+00 -0.45593999997E+02  0.45594000000E+02  0.51100000000E-03 0.  1.
    9900012    2    1    2    0    0 -0.49290281412E+01  0.26696144752E+02 -0.30268573141E+02  0.50528856096E+02  0.29999988589E+02 0.  0.
        -12    1    1    2    0    0  0.49290281412E+01 -0.26696144752E+02  0.30268573141E+02  0.40659143904E+02  0.00000000000E+00 0.  1.
         11    1    3    3    0    0 -0.30081758644E+01  0.33830677908E+01 -0.49324347359E+01  0.66950117545E+01  0.51100000000E-03 0. -1.
        -11    1    3    3    0    0 -0.92648200815E+01  0.10529148463E+02 -0.25485684881E+02  0.29089860650E+02  0.51100000000E-03 0.  1.
        -12    1    3    3    0    0  0.73439678048E+01  0.12783928498E+02  0.14954647576E+00  0.14743983692E+02  0.00000000000E+00 0.  1.
</event>
<event>
 7    1  0.6090311E-013  0.5052886E+02  0.7816164E-02  0.1300439E+00
        -11   -1    0    0    0    0  0.00000000000E+00  0.00000000000E+00  0.45593999997E+02  0.45594000000E+02  0.51100000000E-03 0.  1.
         11   -1    0    0    0    0 -0.00000000000E+00 -0.00000000000E+00 -0.45593999997E+02  0.45594000000E+02  0.51100000000E-03 0. -1.
    9900012    2    1    2    0    0  0.85187248464E+00 -0.47043795262E+01 -0.40377082634E+02  0.50528859878E+02  0.30000000085E+02 0.  0.
        -12    1    1    2    0    0 -0.85187248464E+00  0.47043795262E+01  0.40377082634E+02  0.40659140122E+02  0.00000000000E+00 0.  1.
         11    1    3    3    0    0  0.53113368383E+01 -0.61350159111E+01 -0.12316821975E+02  0.14749671964E+02  0.51100000000E-03 0. -1.
        -11    1    3    3    0    0 -0.18228346426E+01  0.81686020188E+00 -0.31409351591E+02  0.31472803408E+02  0.51100000000E-03 0.  1.
        -12    1    3    3    0    0 -0.26366297110E+01  0.61377618302E+00  0.33490909323E+01  0.43063845054E+01  0.00000000000E+00 0.  1.
</event>
<event>
 7    1  0.6090311E-013  0.5052886E+02  0.7816164E-02  0.1300439E+00
        -11   -1    0    0    0    0  0.00000000000E+00  0.00000000000E+00  0.45593999997E+02  0.45594000000E+02  0.51100000000E-03 0.  1.
         11   -1    0    0    0    0 -0.00000000000E+00 -0.00000000000E+00 -0.45593999997E+02  0.45594000000E+02  0.51100000000E-03 0. -1.
    9900012    2    1    2    0    0  0.39464981198E+02 -0.23167683425E+01 -0.95033611701E+01  0.50528855517E+02  0.29999986830E+02 0.  0.
        -12    1    1    2    0    0 -0.39464981198E+02  0.23167683425E+01  0.95033611701E+01  0.40659144483E+02  0.00000000000E+00 0.  1.
         11    1    3    3    0    0  0.99950720388E+01  0.59543779004E+01 -0.54868909578E+01  0.12863205428E+02  0.51100000000E-03 0. -1.
        -11    1    3    3    0    0  0.87124380933E+01  0.61972815594E+01  0.35342179606E+01  0.11260709263E+02  0.51100000000E-03 0.  1.
         12    1    3    3    0    0  0.20757471066E+02 -0.14468427802E+02 -0.75506881729E+01  0.26404940826E+02  0.00000000000E+00 0. -1.
</event>
<event>
 7    1  0.6090311E-013  0.5052886E+02  0.7816164E-02  0.1300439E+00
        -11   -1    0    0    0    0  0.00000000000E+00  0.00000000000E+00  0.45593999997E+02  0.45594000000E+02  0.51100000000E-03 0.  1.
         11   -1    0    0    0    0 -0.00000000000E+00 -0.00000000000E+00 -0.45593999997E+02  0.45594000000E+02  0.51100000000E-03 0. -1.
    9900012    2    1    2    0    0  0.21965789475E+02 -0.20602067946E+01 -0.34152974095E+02  0.50528855901E+02  0.29999987997E+02 0.  0.
        -12    1    1    2    0    0 -0.21965789475E+02  0.20602067946E+01  0.34152974095E+02  0.40659144099E+02  0.00000000000E+00 0.  1.
         11    1    3    3    0    0  0.14220147088E+02  0.63103430216E+01 -0.29664354460E+02  0.33496372014E+02  0.51100000000E-03 0. -1.
        -11    1    3    3    0    0  0.13894747917E+01 -0.28086116078E+01 -0.74501051425E+01  0.80822649211E+01  0.51100000000E-03 0.  1.
        -12    1    3    3    0    0  0.63561675953E+01 -0.55619382084E+01  0.29614855079E+01  0.89502189665E+01  0.00000000000E+00 0.  1.
</event>
<event>
 7    1  0.6090311E-013  0.5052886E+02  0.7816164E-02  0.1300439E+00
        -11   -1    0    0    0    0  0.00000000000E+00  0.00000000000E+00  0.45593999997E+02  0.45594000000E+02  0.51100000000E-03 0.  1.
         11   -1    0    0    0    0 -0.00000000000E+00 -0.00000000000E+00 -0.45593999997E+02  0.45594000000E+02  0.51100000000E-03 0. -1.
    9900012    2    1    2    0    0 -0.34288350320E+02  0.13226022147E+02 -0.17393872391E+02  0.50528862942E+02  0.30000009400E+02 0.  0.
        -12    1    1    2    0    0  0.34288350320E+02 -0.13226022147E+02  0.17393872391E+02  0.40659137058E+02  0.00000000000E+00 0.  1.
         11    1    3    3    0    0 -0.15138409971E+02  0.54833100693E+01 -0.84901526863E+00  0.16123243252E+02  0.51100000000E-03 0. -1.
        -11    1    3    3    0    0 -0.33931128289E+01  0.11279468306E+02 -0.72806569083E+00  0.11801258401E+02  0.51100000000E-03 0.  1.
         12    1    3    3    0    0 -0.15756827520E+02 -0.35367562286E+01 -0.15816791432E+02  0.22604361290E+02  0.00000000000E+00 0. -1.
</event>
<event>
 7    1  0.6090311E-013  0.5052886E+02  0.7816164E-02  0.1300439E+00
        -11   -1    0    0    0    0  0.00000000000E+00  0.00000000000E+00  0.45593999997E+02  0.45594000000E+02  0.51100000000E-03 0. -1.
         11   -1    0    0    0    0 -0.00000000000E+00 -0.00000000000E+00 -0.45593999997E+02  0.45594000000E+02  0.51100000000E-03 0.  1.
    9900012    2    1    2    0    0 -0.32713625511E+02 -0.21432358680E+02  0.11119296989E+02  0.50528855172E+02  0.29999985780E+02 0.  0.
        -12    1    1    2    0    0  0.32713625511E+02  0.21432358680E+02 -0.11119296989E+02  0.40659144828E+02  0.00000000000E+00 0.  1.
         11    1    3    3    0    0 -0.59675038139E+00 -0.84110883151E+01  0.72220540063E+01  0.11102278234E+02  0.51100000000E-03 0. -1.
        -11    1    3    3    0    0 -0.10857971845E+01  0.10621635165E+01 -0.41437056471E+01  0.44133256862E+01  0.51100000000E-03 0.  1.
         12    1    3    3    0    0 -0.31031077945E+02 -0.14083433881E+02  0.80409486293E+01  0.35013251251E+02  0.00000000000E+00 0. -1.
</event>
<event>
 7    1  0.6090311E-013  0.5052886E+02  0.7816164E-02  0.1300439E+00
        -11   -1    0    0    0    0  0.00000000000E+00  0.00000000000E+00  0.45593999997E+02  0.45594000000E+02  0.51100000000E-03 0.  1.
         11   -1    0    0    0    0 -0.00000000000E+00 -0.00000000000E+00 -0.45593999997E+02  0.45594000000E+02  0.51100000000E-03 0. -1.
    9900012    2    1    2    0    0  0.60506594955E+01  0.21676770936E+02 -0.33862558357E+02  0.50528859121E+02  0.29999997786E+02 0.  0.
        -12    1    1    2    0    0 -0.60506594955E+01 -0.21676770936E+02  0.33862558357E+02  0.40659140879E+02  0.00000000000E+00 0.  1.
         11    1    3    3    0    0  0.12996787543E+02  0.11881644932E+02 -0.31078887615E+02  0.35720963430E+02  0.51100000000E-03 0. -1.
        -11    1    3    3    0    0 -0.46747874819E+01  0.10889632188E+01 -0.32524942772E+01  0.57981202279E+01  0.51100000000E-03 0.  1.
        -12    1    3    3    0    0 -0.22713405654E+01  0.87061627851E+01  0.46882353525E+00  0.90097754640E+01  0.00000000000E+00 0.  1.
</event>
<event>
 7    1  0.6090311E-013  0.5052886E+02  0.7816164E-02  0.1300439E+00
        -11   -1    0    0    0    0  0.00000000000E+00  0.00000000000E+00  0.45593999997E+02  0.45594000000E+02  0.51100000000E-03 0.  1.
         11   -1    0    0    0    0 -0.00000000000E+00 -0.00000000000E+00 -0.45593999997E+02  0.45594000000E+02  0.51100000000E-03 0. -1.
    9900012    2    1    2    0    0  0.46843495905E+01 -0.12826525623E+02 -0.38297553928E+02  0.50528861697E+02  0.30000005615E+02 0.  0.
        -12    1    1    2    0    0 -0.46843495905E+01  0.12826525623E+02  0.38297553928E+02  0.40659138303E+02  0.00000000000E+00 0.  1.
         11    1    3    3    0    0  0.54182100170E+01 -0.61156563988E-01 -0.92929879378E+00  0.54976664525E+01  0.51100000000E-03 0. -1.
        -11    1    3    3    0    0  0.97570973306E+01 -0.92862683385E+01 -0.15547789886E+02  0.20571084040E+02  0.51100000000E-03 0.  1.
         12    1    3    3    0    0 -0.10490957757E+02 -0.34791007206E+01 -0.21820465249E+02  0.24460111205E+02  0.00000000000E+00 0. -1.
</event>
<event>
 7    1  0.6090311E-013  0.5052886E+02  0.7816164E-02  0.1300439E+00
        -11   -1    0    0    0    0  0.00000000000E+00  0.00000000000E+00  0.45593999997E+02  0.45594000000E+02  0.51100000000E-03 0.  1.
         11   -1    0    0    0    0 -0.00000000000E+00 -0.00000000000E+00 -0.45593999997E+02  0.45594000000E+02  0.51100000000E-03 0. -1.
    9900012    2    1    2    0    0 -0.15674073615E+02  0.37003443716E+02 -0.61833752546E+01  0.50528861297E+02  0.30000004400E+02 0.  0.
        -12    1    1    2    0    0  0.15674073615E+02 -0.37003443716E+02  0.61833752546E+01  0.40659138703E+02  0.00000000000E+00 0.  1.
         11    1    3    3    0    0 -0.72780563039E+01  0.28320081917E+01 -0.53289189161E+01  0.94545095609E+01  0.51100000000E-03 0. -1.
        -11    1    3    3    0    0 -0.25252954063E+00  0.50602870412E+01 -0.84984478249E+01  0.98941342118E+01  0.51100000000E-03 0.  1.
         12    1    3    3    0    0 -0.81434877703E+01  0.29111148483E+02  0.76439914864E+01  0.31180217525E+02  0.00000000000E+00 0. -1.
</event>
<event>
 7    1  0.6090311E-013  0.5052886E+02  0.7816164E-02  0.1300439E+00
        -11   -1    0    0    0    0  0.00000000000E+00  0.00000000000E+00  0.45593999997E+02  0.45594000000E+02  0.51100000000E-03 0. -1.
         11   -1    0    0    0    0 -0.00000000000E+00 -0.00000000000E+00 -0.45593999997E+02  0.45594000000E+02  0.51100000000E-03 0.  1.
    9900012    2    1    2    0    0 -0.74804437524E+01 -0.36687664686E+02  0.15850054247E+02  0.50528855906E+02  0.29999988011E+02 0.  0.
        -12    1    1    2    0    0  0.74804437524E+01  0.36687664686E+02 -0.15850054247E+02  0.40659144094E+02  0.00000000000E+00 0.  1.
         11    1    3    3    0    0 -0.30990692197E+01 -0.68776775355E+01 -0.78843869375E+01  0.10911930899E+02  0.51100000000E-03 0. -1.
        -11    1    3    3    0    0  0.20560384210E+01 -0.47982877233E+01  0.12353520656E+01  0.53644155368E+01  0.51100000000E-03 0.  1.
         12    1    3    3    0    0 -0.64374129538E+01 -0.25011699427E+02  0.22499089119E+02  0.34252509469E+02  0.00000000000E+00 0. -1.
</event>
<event>
 7    1  0.6090311E-013  0.5052892E+02  0.7816164E-02  0.1300439E+00
        -11   -1    0    0    0    0  0.00000000000E+00  0.00000000000E+00  0.45593999997E+02  0.45594000000E+02  0.51100000000E-03 0.  1.
         11   -1    0    0    0    0 -0.00000000000E+00 -0.00000000000E+00 -0.45593999997E+02  0.45594000000E+02  0.51100000000E-03 0. -1.
    9900012    2    1    2    0    0  0.34958864594E+02  0.89046021184E+01 -0.18754916695E+02  0.50528916724E+02  0.30000172874E+02 0.  0.
        -12    1    1    2    0    0 -0.34958864594E+02 -0.89046021184E+01  0.18754916695E+02  0.40659083276E+02  0.00000000000E+00 0.  1.
         11    1    3    3    0    0  0.19313446039E+01 -0.13922362539E+01 -0.42077618047E+01  0.48346327091E+01  0.51100000000E-03 0.  1.
        -11    1    3    3    0    0 -0.14818849048E+01  0.42735305898E+01  0.40159873926E+01  0.60487355349E+01  0.51100000000E-03 0. -1.
         12    1    3    3    0    0  0.34509404895E+02  0.60233077826E+01 -0.18563142283E+02  0.39645548480E+02  0.00000000000E+00 0. -1.
</event>
<event>
 7    1  0.6090311E-013  0.5052886E+02  0.7816164E-02  0.1300439E+00
        -11   -1    0    0    0    0  0.00000000000E+00  0.00000000000E+00  0.45593999997E+02  0.45594000000E+02  0.51100000000E-03 0. -1.
         11   -1    0    0    0    0 -0.00000000000E+00 -0.00000000000E+00 -0.45593999997E+02  0.45594000000E+02  0.51100000000E-03 0.  1.
    9900012    2    1    2    0    0 -0.38192672135E+02 -0.13032431903E+02  0.49639590021E+01  0.50528863572E+02  0.30000011313E+02 0.  0.
        -12    1    1    2    0    0  0.38192672135E+02  0.13032431903E+02 -0.49639590021E+01  0.40659136428E+02  0.00000000000E+00 0.  1.
         11    1    3    3    0    0 -0.26910385230E+02 -0.31610105980E+01  0.12789639669E+02  0.29962237973E+02  0.51100000000E-03 0. -1.
        -11    1    3    3    0    0 -0.46381354997E+01 -0.10646571382E+01  0.25699445644E+01  0.54083649156E+01  0.51100000000E-03 0.  1.
        -12    1    3    3    0    0 -0.66441514054E+01 -0.88067641666E+01 -0.10395625232E+02  0.15158260683E+02  0.00000000000E+00 0.  1.
</event>
<event>
 7    1  0.6090311E-013  0.5052893E+02  0.7816164E-02  0.1300439E+00
        -11   -1    0    0    0    0  0.00000000000E+00  0.00000000000E+00  0.45593999997E+02  0.45594000000E+02  0.51100000000E-03 0. -1.
         11   -1    0    0    0    0 -0.00000000000E+00 -0.00000000000E+00 -0.45593999997E+02  0.45594000000E+02  0.51100000000E-03 0.  1.
    9900012    2    1    2    0    0 -0.11030840979E+02 -0.31679776335E+02  0.22975468814E+02  0.50528931533E+02  0.30000217888E+02 0.  0.
        -12    1    1    2    0    0  0.11030840979E+02  0.31679776335E+02 -0.22975468814E+02  0.40659068467E+02  0.00000000000E+00 0.  1.
         11    1    3    3    0    0  0.37759034619E+00 -0.66622735559E+01  0.89792942347E+01  0.11187322674E+02  0.51100000000E-03 0. -1.
        -11    1    3    3    0    0  0.18057469564E+01 -0.10324102025E+02  0.16370508741E+02  0.19438141922E+02  0.51100000000E-03 0.  1.
        -12    1    3    3    0    0 -0.13214178282E+02 -0.14693400755E+02 -0.23743341620E+01  0.19903466937E+02  0.00000000000E+00 0.  1.
</event>
<event>
 7    1  0.6090311E-013  0.5052888E+02  0.7816164E-02  0.1300439E+00
        -11   -1    0    0    0    0  0.00000000000E+00  0.00000000000E+00  0.45593999997E+02  0.45594000000E+02  0.51100000000E-03 0.  1.
         11   -1    0    0    0    0 -0.00000000000E+00 -0.00000000000E+00 -0.45593999997E+02  0.45594000000E+02  0.51100000000E-03 0. -1.
    9900012    2    1    2    0    0  0.35548302044E+02 -0.13521625420E+02 -0.14375245772E+02  0.50528882656E+02  0.30000069320E+02 0.  0.
        -12    1    1    2    0    0 -0.35548302044E+02  0.13521625420E+02  0.14375245772E+02  0.40659117344E+02  0.00000000000E+00 0.  1.
         11    1    3    3    0    0  0.54222338473E+01  0.27013168797E+00  0.32135727073E+01  0.63087749073E+01  0.51100000000E-03 0. -1.
        -11    1    3    3    0    0 -0.21639008543E+01  0.50092666077E-01  0.28474949112E+01  0.35767588279E+01  0.51100000000E-03 0.  1.
         12    1    3    3    0    0  0.32289969051E+02 -0.13841849774E+02 -0.20436313391E+02  0.40643348921E+02  0.00000000000E+00 0. -1.
</event>
<event>
 7    1  0.6090311E-013  0.5052886E+02  0.7816164E-02  0.1300439E+00
        -11   -1    0    0    0    0  0.00000000000E+00  0.00000000000E+00  0.45593999997E+02  0.45594000000E+02  0.51100000000E-03 0. -1.
         11   -1    0    0    0    0 -0.00000000000E+00 -0.00000000000E+00 -0.45593999997E+02  0.45594000000E+02  0.51100000000E-03 0.  1.
    9900012    2    1    2    0    0  0.29247200557E+02 -0.27690928452E+02 -0.55659201470E+01  0.50528859256E+02  0.29999998195E+02 0.  0.
        -12    1    1    2    0    0 -0.29247200557E+02  0.27690928452E+02  0.55659201470E+01  0.40659140744E+02  0.00000000000E+00 0.  1.
         11    1    3    3    0    0  0.12727059987E+02 -0.12848816343E+02 -0.13660368063E+01  0.18136598197E+02  0.51100000000E-03 0. -1.
        -11    1    3    3    0    0  0.22067120881E+02 -0.87018716175E+01 -0.43484960478E+01  0.24116173240E+02  0.51100000000E-03 0.  1.
         12    1    3    3    0    0 -0.55469803107E+01 -0.61402404912E+01  0.14861270720E+00  0.82760878193E+01  0.00000000000E+00 0. -1.
</event>
<event>
 7    1  0.6090311E-013  0.5052886E+02  0.7816164E-02  0.1300439E+00
        -11   -1    0    0    0    0  0.00000000000E+00  0.00000000000E+00  0.45593999997E+02  0.45594000000E+02  0.51100000000E-03 0.  1.
         11   -1    0    0    0    0 -0.00000000000E+00 -0.00000000000E+00 -0.45593999997E+02  0.45594000000E+02  0.51100000000E-03 0. -1.
    9900012    2    1    2    0    0 -0.22987569672E+02  0.17388926729E+02 -0.28676858062E+02  0.50528864243E+02  0.30000013352E+02 0.  0.
        -12    1    1    2    0    0  0.22987569672E+02 -0.17388926729E+02  0.28676858062E+02  0.40659135757E+02  0.00000000000E+00 0.  1.
         11    1    3    3    0    0 -0.14678743597E+02  0.54663841227E+01 -0.23188742907E+02  0.27983292637E+02  0.51100000000E-03 0. -1.
        -11    1    3    3    0    0 -0.64719630030E+01  0.12205364123E+02 -0.10401124045E+02  0.17292790409E+02  0.51100000000E-03 0.  1.
        -12    1    3    3    0    0 -0.18368630725E+01 -0.28282151615E+00  0.49130088893E+01  0.52527811970E+01  0.00000000000E+00 0.  1.
</event>
<event>
 7    1  0.6090311E-013  0.5052886E+02  0.7816164E-02  0.1300439E+00
        -11   -1    0    0    0    0  0.00000000000E+00  0.00000000000E+00  0.45593999997E+02  0.45594000000E+02  0.51100000000E-03 0.  1.
         11   -1    0    0    0    0 -0.00000000000E+00 -0.00000000000E+00 -0.45593999997E+02  0.45594000000E+02  0.51100000000E-03 0. -1.
    9900012    2    1    2    0    0  0.12314495297E+02  0.38728530274E+02 -0.12726123949E+01  0.50528863340E+02  0.30000010608E+02 0.  0.
        -12    1    1    2    0    0 -0.12314495297E+02 -0.38728530274E+02  0.12726123949E+01  0.40659136660E+02  0.00000000000E+00 0.  1.
         11    1    3    3    0    0 -0.24430151882E+01  0.12060220351E+02 -0.81306179631E+01  0.14748701192E+02  0.51100000000E-03 0. -1.
        -11    1    3    3    0    0 -0.53564542902E+00  0.59402333974E+01 -0.46543676884E+01  0.75654760380E+01  0.51100000000E-03 0.  1.
        -12    1    3    3    0    0  0.15293155915E+02  0.20728076525E+02  0.11512373257E+02  0.28214686110E+02  0.00000000000E+00 0.  1.
</event>
<event>
 7    1  0.6090311E-013  0.5052887E+02  0.7816164E-02  0.1300439E+00
        -11   -1    0    0    0    0  0.00000000000E+00  0.00000000000E+00  0.45593999997E+02  0.45594000000E+02  0.51100000000E-03 0.  1.
         11   -1    0    0    0    0 -0.00000000000E+00 -0.00000000000E+00 -0.45593999997E+02  0.45594000000E+02  0.51100000000E-03 0. -1.
    9900012    2    1    2    0    0  0.73980820040E+01  0.24375844237E+02 -0.31689930895E+02  0.50528866712E+02  0.30000020858E+02 0.  0.
        -12    1    1    2    0    0 -0.73980820040E+01 -0.24375844237E+02  0.31689930895E+02  0.40659133288E+02  0.00000000000E+00 0.  1.
         11    1    3    3    0    0 -0.43720314460E+01 -0.36861732767E+01 -0.61792955080E+01  0.84193957994E+01  0.51100000000E-03 0. -1.
        -11    1    3    3    0    0  0.96699231517E+01  0.15070201537E+02 -0.66280665217E+01  0.19093183449E+02  0.51100000000E-03 0.  1.
         12    1    3    3    0    0  0.21001902983E+01  0.12991815976E+02 -0.18882568865E+02  0.23016287464E+02  0.00000000000E+00 0. -1.
</event>
<event>
 7    1  0.6090311E-013  0.5052887E+02  0.7816164E-02  0.1300439E+00
        -11   -1    0    0    0    0  0.00000000000E+00  0.00000000000E+00  0.45593999997E+02  0.45594000000E+02  0.51100000000E-03 0.  1.
         11   -1    0    0    0    0 -0.00000000000E+00 -0.00000000000E+00 -0.45593999997E+02  0.45594000000E+02  0.51100000000E-03 0. -1.
    9900012    2    1    2    0    0 -0.15190690590E+02 -0.70577381496E+00 -0.37708220337E+02  0.50528867222E+02  0.30000022409E+02 0.  0.
        -12    1    1    2    0    0  0.15190690590E+02  0.70577381496E+00  0.37708220337E+02  0.40659132778E+02  0.00000000000E+00 0.  1.
         11    1    3    3    0    0 -0.57811600696E+01 -0.29082424148E+01  0.13121907641E+01  0.66031455047E+01  0.51100000000E-03 0. -1.
        -11    1    3    3    0    0  0.29816195517E+01 -0.50238606756E+00 -0.13768352886E+00  0.30267811165E+01  0.51100000000E-03 0.  1.
         12    1    3    3    0    0 -0.12391150072E+02  0.27048546674E+01 -0.38882727572E+02  0.40898940601E+02  0.00000000000E+00 0. -1.
</event>
<event>
 7    1  0.6090311E-013  0.5052888E+02  0.7816164E-02  0.1300439E+00
        -11   -1    0    0    0    0  0.00000000000E+00  0.00000000000E+00  0.45593999997E+02  0.45594000000E+02  0.51100000000E-03 0. -1.
         11   -1    0    0    0    0 -0.00000000000E+00 -0.00000000000E+00 -0.45593999997E+02  0.45594000000E+02  0.51100000000E-03 0.  1.
    9900012    2    1    2    0    0  0.13413193974E+02  0.18070608570E+02  0.33863008458E+02  0.50528880377E+02  0.30000062394E+02 0.  0.
        -12    1    1    2    0    0 -0.13413193974E+02 -0.18070608570E+02 -0.33863008458E+02  0.40659119623E+02  0.00000000000E+00 0.  1.
         11    1    3    3    0    0 -0.50586190621E+01  0.41582392891E+01  0.71336613908E+01  0.96834759204E+01  0.51100000000E-03 0. -1.
        -11    1    3    3    0    0 -0.35975079070E+01  0.79214765948E+00 -0.13360112307E+00  0.36861104943E+01  0.51100000000E-03 0.  1.
         12    1    3    3    0    0  0.22069320943E+02  0.13120221622E+02  0.26862948190E+02  0.37159293962E+02  0.00000000000E+00 0. -1.
</event>
<event>
 7    1  0.6090311E-013  0.5052887E+02  0.7816164E-02  0.1300439E+00
        -11   -1    0    0    0    0  0.00000000000E+00  0.00000000000E+00  0.45593999997E+02  0.45594000000E+02  0.51100000000E-03 0.  1.
         11   -1    0    0    0    0 -0.00000000000E+00 -0.00000000000E+00 -0.45593999997E+02  0.45594000000E+02  0.51100000000E-03 0. -1.
    9900012    2    1    2    0    0  0.20917705327E+02 -0.16006263394E+02 -0.30974411008E+02  0.50528868169E+02  0.30000025285E+02 0.  0.
        -12    1    1    2    0    0 -0.20917705327E+02  0.16006263394E+02  0.30974411008E+02  0.40659131831E+02  0.00000000000E+00 0.  1.
         11    1    3    3    0    0  0.61040555677E+01 -0.75174281450E+01 -0.32424953216E+01  0.10212002569E+02  0.51100000000E-03 0. -1.
        -11    1    3    3    0    0  0.18897525555E+02 -0.92419732199E+01 -0.12370640863E+02  0.24404165561E+02  0.51100000000E-03 0.  1.
         12    1    3    3    0    0 -0.40838757962E+01  0.75313797103E+00 -0.15361274824E+02  0.15912700039E+02  0.00000000000E+00 0. -1.
</event>
<event>
 7    1  0.6090311E-013  0.5052882E+02  0.7816164E-02  0.1300439E+00
        -11   -1    0    0    0    0  0.00000000000E+00  0.00000000000E+00  0.45593999997E+02  0.45594000000E+02  0.51100000000E-03 0.  1.
         11   -1    0    0    0    0 -0.00000000000E+00 -0.00000000000E+00 -0.45593999997E+02  0.45594000000E+02  0.51100000000E-03 0. -1.
    9900012    2    1    2    0    0  0.16678110437E+02 -0.20323632959E+02 -0.31015466203E+02  0.50528824305E+02  0.29999891957E+02 0.  0.
        -12    1    1    2    0    0 -0.16678110437E+02  0.20323632959E+02  0.31015466203E+02  0.40659175695E+02  0.00000000000E+00 0.  1.
         11    1    3    3    0    0  0.10785349766E+02 -0.50033527911E+01 -0.14885655577E+02  0.19050985564E+02  0.51100000000E-03 0. -1.
        -11    1    3    3    0    0  0.65300826332E+01 -0.14369010987E+02 -0.21115488007E+02  0.26362365030E+02  0.51100000000E-03 0.  1.
        -12    1    3    3    0    0 -0.63732196235E+00 -0.95126918091E+00  0.49856773809E+01  0.51154737107E+01  0.00000000000E+00 0.  1.
</event>
<event>
 7    1  0.6090311E-013  0.5052887E+02  0.7816164E-02  0.1300439E+00
        -11   -1    0    0    0    0  0.00000000000E+00  0.00000000000E+00  0.45593999997E+02  0.45594000000E+02  0.51100000000E-03 0.  1.
         11   -1    0    0    0    0 -0.00000000000E+00 -0.00000000000E+00 -0.45593999997E+02  0.45594000000E+02  0.51100000000E-03 0. -1.
    9900012    2    1    2    0    0  0.85163360576E+01 -0.34222224885E+02 -0.20235519379E+02  0.50528869408E+02  0.30000029054E+02 0.  0.
        -12    1    1    2    0    0 -0.85163360576E+01  0.34222224885E+02  0.20235519379E+02  0.40659130592E+02  0.00000000000E+00 0.  1.
         11    1    3    3    0    0 -0.26443321393E+01 -0.13000654971E+01  0.29301060826E+00  0.29611683906E+01  0.51100000000E-03 0. -1.
        -11    1    3    3    0    0  0.13800480958E+01  0.24595043978E+00 -0.11826745151E+02  0.11909530868E+02  0.51100000000E-03 0.  1.
         12    1    3    3    0    0  0.97806201011E+01 -0.33168109828E+02 -0.87017848360E+01  0.35658170150E+02  0.00000000000E+00 0. -1.
</event>
<event>
 7    1  0.6090311E-013  0.5052885E+02  0.7816164E-02  0.1300439E+00
        -11   -1    0    0    0    0  0.00000000000E+00  0.00000000000E+00  0.45593999997E+02  0.45594000000E+02  0.51100000000E-03 0.  1.
         11   -1    0    0    0    0 -0.00000000000E+00 -0.00000000000E+00 -0.45593999997E+02  0.45594000000E+02  0.51100000000E-03 0. -1.
    9900012    2    1    2    0    0 -0.28895543508E+02  0.28065591458E+02 -0.55259716738E+01  0.50528853164E+02  0.29999979677E+02 0.  0.
        -12    1    1    2    0    0  0.28895543508E+02 -0.28065591458E+02  0.55259716738E+01  0.40659146836E+02  0.00000000000E+00 0.  1.
         11    1    3    3    0    0 -0.79764705521E+01  0.12567346759E+02 -0.29960915530E+01  0.15183505915E+02  0.51100000000E-03 0. -1.
        -11    1    3    3    0    0 -0.14804766141E+02 -0.22824679822E+01 -0.61577344977E+01  0.16195939460E+02  0.51100000000E-03 0.  1.
         12    1    3    3    0    0 -0.61143068150E+01  0.17780712681E+02  0.36278543770E+01  0.19149407789E+02  0.00000000000E+00 0. -1.
</event>
<event>
 7    1  0.6090311E-013  0.5052887E+02  0.7816164E-02  0.1300439E+00
        -11   -1    0    0    0    0  0.00000000000E+00  0.00000000000E+00  0.45593999997E+02  0.45594000000E+02  0.51100000000E-03 0. -1.
         11   -1    0    0    0    0 -0.00000000000E+00 -0.00000000000E+00 -0.45593999997E+02  0.45594000000E+02  0.51100000000E-03 0.  1.
    9900012    2    1    2    0    0 -0.21565943483E+02 -0.23497613036E+02  0.25217800143E+02  0.50528865962E+02  0.30000018577E+02 0.  0.
        -12    1    1    2    0    0  0.21565943483E+02  0.23497613036E+02 -0.25217800143E+02  0.40659134038E+02  0.00000000000E+00 0.  1.
         11    1    3    3    0    0 -0.93740414979E+01 -0.75432348861E+01  0.15638048585E+02  0.19731234385E+02  0.51100000000E-03 0. -1.
        -11    1    3    3    0    0  0.13253917444E+01  0.33290351919E+01  0.59849534374E+01  0.69755864624E+01  0.51100000000E-03 0.  1.
        -12    1    3    3    0    0 -0.13517293730E+02 -0.19283413342E+02  0.35947981199E+01  0.23822045114E+02  0.00000000000E+00 0.  1.
</event>
<event>
 7    1  0.6090311E-013  0.5052886E+02  0.7816164E-02  0.1300439E+00
        -11   -1    0    0    0    0  0.00000000000E+00  0.00000000000E+00  0.45593999997E+02  0.45594000000E+02  0.51100000000E-03 0.  1.
         11   -1    0    0    0    0 -0.00000000000E+00 -0.00000000000E+00 -0.45593999997E+02  0.45594000000E+02  0.51100000000E-03 0. -1.
    9900012    2    1    2    0    0 -0.17236221799E+02  0.24901599853E+02 -0.27129112083E+02  0.50528859089E+02  0.29999997688E+02 0.  0.
        -12    1    1    2    0    0  0.17236221799E+02 -0.24901599853E+02  0.27129112083E+02  0.40659140911E+02  0.00000000000E+00 0.  1.
         11    1    3    3    0    0 -0.13610194374E+02  0.24535344187E+02 -0.85013093177E+01  0.29317107048E+02  0.51100000000E-03 0. -1.
        -11    1    3    3    0    0 -0.27281531598E+01 -0.29228355198E+00 -0.20076302353E+00  0.27511007598E+01  0.51100000000E-03 0.  1.
        -12    1    3    3    0    0 -0.89787426491E+00  0.65853921850E+00 -0.18427039742E+02  0.18460651282E+02  0.00000000000E+00 0.  1.
</event>
<event>
 7    1  0.6090311E-013  0.5052886E+02  0.7816164E-02  0.1300439E+00
        -11   -1    0    0    0    0  0.00000000000E+00  0.00000000000E+00  0.45593999997E+02  0.45594000000E+02  0.51100000000E-03 0.  1.
         11   -1    0    0    0    0 -0.00000000000E+00 -0.00000000000E+00 -0.45593999997E+02  0.45594000000E+02  0.51100000000E-03 0. -1.
    9900012    2    1    2    0    0  0.36208296279E+02 -0.18495571510E+02 -0.19793402781E+00  0.50528855115E+02  0.29999985607E+02 0.  0.
        -12    1    1    2    0    0 -0.36208296279E+02  0.18495571510E+02  0.19793402781E+00  0.40659144885E+02  0.00000000000E+00 0.  1.
         11    1    3    3    0    0  0.21438716046E+01 -0.20997625637E+01  0.24081843548E+00  0.30105119267E+01  0.51100000000E-03 0.  1.
        -11    1    3    3    0    0 -0.37522716781E+01  0.31473094707E+01 -0.71536063519E+00  0.49494283256E+01  0.51100000000E-03 0. -1.
         12    1    3    3    0    0  0.37816696353E+02 -0.19543118417E+02  0.27660817190E+00  0.42568914862E+02  0.00000000000E+00 0. -1.
</event>
<event>
 7    1  0.6090311E-013  0.5052885E+02  0.7816164E-02  0.1300439E+00
        -11   -1    0    0    0    0  0.00000000000E+00  0.00000000000E+00  0.45593999997E+02  0.45594000000E+02  0.51100000000E-03 0. -1.
         11   -1    0    0    0    0 -0.00000000000E+00 -0.00000000000E+00 -0.45593999997E+02  0.45594000000E+02  0.51100000000E-03 0.  1.
    9900012    2    1    2    0    0 -0.20334537874E+02  0.83104449357E+01  0.34214171882E+02  0.50528849945E+02  0.29999969894E+02 0.  0.
        -12    1    1    2    0    0  0.20334537874E+02 -0.83104449357E+01 -0.34214171882E+02  0.40659150055E+02  0.00000000000E+00 0.  1.
         11    1    3    3    0    0 -0.35034756079E+01  0.24013954852E+01  0.71314151407E+01  0.83004893701E+01  0.51100000000E-03 0. -1.
        -11    1    3    3    0    0 -0.15967436069E+02  0.15560073930E+02  0.15638326704E+02  0.27232924516E+02  0.51100000000E-03 0.  1.
        -12    1    3    3    0    0 -0.86362619655E+00 -0.96510244797E+01  0.11444430038E+02  0.14995436059E+02  0.00000000000E+00 0.  1.
</event>
<event>
 7    1  0.6090311E-013  0.5052886E+02  0.7816164E-02  0.1300439E+00
        -11   -1    0    0    0    0  0.00000000000E+00  0.00000000000E+00  0.45593999997E+02  0.45594000000E+02  0.51100000000E-03 0.  1.
         11   -1    0    0    0    0 -0.00000000000E+00 -0.00000000000E+00 -0.45593999997E+02  0.45594000000E+02  0.51100000000E-03 0. -1.
    9900012    2    1    2    0    0  0.45715594252E+01 -0.46014596188E+01 -0.40138419524E+02  0.50528864396E+02  0.30000013818E+02 0.  0.
        -12    1    1    2    0    0 -0.45715594252E+01  0.46014596188E+01  0.40138419524E+02  0.40659135604E+02  0.00000000000E+00 0.  1.
         11    1    3    3    0    0  0.61671213844E+01  0.55253554777E+01 -0.14454780581E+02  0.16658439940E+02  0.51100000000E-03 0. -1.
        -11    1    3    3    0    0 -0.97962406299E+00  0.18392429031E+01 -0.20844213552E+02  0.20948119644E+02  0.51100000000E-03 0.  1.
         12    1    3    3    0    0 -0.61593789617E+00 -0.11966058000E+02 -0.48394253912E+01  0.12922304812E+02  0.00000000000E+00 0. -1.
</event>
<event>
 7    1  0.6090311E-013  0.5052885E+02  0.7816164E-02  0.1300439E+00
        -11   -1    0    0    0    0  0.00000000000E+00  0.00000000000E+00  0.45593999997E+02  0.45594000000E+02  0.51100000000E-03 0.  1.
         11   -1    0    0    0    0 -0.00000000000E+00 -0.00000000000E+00 -0.45593999997E+02  0.45594000000E+02  0.51100000000E-03 0. -1.
    9900012    2    1    2    0    0 -0.22101450751E+02  0.27461683715E+02 -0.20261999160E+02  0.50528845954E+02  0.29999957762E+02 0.  0.
        -12    1    1    2    0    0  0.22101450751E+02 -0.27461683715E+02  0.20261999160E+02  0.40659154046E+02  0.00000000000E+00 0.  1.
         11    1    3    3    0    0 -0.12664611482E+02  0.88345908516E+01 -0.94183251627E+01  0.18087211743E+02  0.51100000000E-03 0. -1.
        -11    1    3    3    0    0 -0.43798665365E-01  0.15915955968E+01 -0.12792125364E+02  0.12890832651E+02  0.51100000000E-03 0.  1.
         12    1    3    3    0    0 -0.93930406033E+01  0.17035497267E+02  0.19484513664E+01  0.19550801560E+02  0.00000000000E+00 0. -1.
</event>
<event>
 7    1  0.6090311E-013  0.5052888E+02  0.7816164E-02  0.1300439E+00
        -11   -1    0    0    0    0  0.00000000000E+00  0.00000000000E+00  0.45593999997E+02  0.45594000000E+02  0.51100000000E-03 0.  1.
         11   -1    0    0    0    0 -0.00000000000E+00 -0.00000000000E+00 -0.45593999997E+02  0.45594000000E+02  0.51100000000E-03 0. -1.
    9900012    2    1    2    0    0 -0.17820228442E+02 -0.31407413341E+02 -0.18686311814E+02  0.50528875517E+02  0.30000047622E+02 0.  0.
        -12    1    1    2    0    0  0.17820228442E+02  0.31407413341E+02  0.18686311814E+02  0.40659124483E+02  0.00000000000E+00 0.  1.
         11    1    3    3    0    0 -0.10915434127E+02 -0.21002742833E+02 -0.18017608428E+02  0.29747203606E+02  0.51100000000E-03 0. -1.
        -11    1    3    3    0    0 -0.45074558568E+01 -0.12095212420E+02 -0.63519179359E+01  0.14386041273E+02  0.51100000000E-03 0.  1.
        -12    1    3    3    0    0 -0.23973384585E+01  0.16905419110E+01  0.56832145501E+01  0.63956306381E+01  0.00000000000E+00 0.  1.
</event>
<event>
 7    1  0.6090311E-013  0.5052886E+02  0.7816164E-02  0.1300439E+00
        -11   -1    0    0    0    0  0.00000000000E+00  0.00000000000E+00  0.45593999997E+02  0.45594000000E+02  0.51100000000E-03 0.  1.
         11   -1    0    0    0    0 -0.00000000000E+00 -0.00000000000E+00 -0.45593999997E+02  0.45594000000E+02  0.51100000000E-03 0. -1.
    9900012    2    1    2    0    0 -0.82623359554E+01 -0.40717264043E+01 -0.39602030329E+02  0.50528856409E+02  0.29999989542E+02 0.  0.
        -12    1    1    2    0    0  0.82623359554E+01  0.40717264043E+01  0.39602030329E+02  0.40659143591E+02  0.00000000000E+00 0.  1.
         11    1    3    3    0    0 -0.44376877748E+01 -0.65143516961E+01 -0.28148631165E+02  0.29231409263E+02  0.51100000000E-03 0. -1.
        -11    1    3    3    0    0  0.12066770031E+01 -0.66985861449E+01 -0.75289033089E+01  0.10149458657E+02  0.51100000000E-03 0.  1.
        -12    1    3    3    0    0 -0.50313251837E+01  0.91412114367E+01 -0.39244958551E+01  0.11147988489E+02  0.00000000000E+00 0.  1.
</event>
<event>
 7    1  0.6090311E-013  0.5052887E+02  0.7816164E-02  0.1300439E+00
        -11   -1    0    0    0    0  0.00000000000E+00  0.00000000000E+00  0.45593999997E+02  0.45594000000E+02  0.51100000000E-03 0.  1.
         11   -1    0    0    0    0 -0.00000000000E+00 -0.00000000000E+00 -0.45593999997E+02  0.45594000000E+02  0.51100000000E-03 0. -1.
    9900012    2    1    2    0    0  0.15802761263E+02 -0.36530884078E+02  0.83025457716E+01  0.50528867922E+02  0.30000024536E+02 0.  0.
        -12    1    1    2    0    0 -0.15802761263E+02  0.36530884078E+02 -0.83025457716E+01  0.40659132078E+02  0.00000000000E+00 0.  1.
         11    1    3    3    0    0 -0.33290674205E+01 -0.19491776864E+01  0.36569310181E+01  0.53155553121E+01  0.51100000000E-03 0.  1.
        -11    1    3    3    0    0  0.12242104478E+01 -0.46686256447E+01  0.88665412077E+01  0.10095063639E+02  0.51100000000E-03 0. -1.
         12    1    3    3    0    0  0.17907618236E+02 -0.29913080747E+02 -0.42209264542E+01  0.35118248971E+02  0.00000000000E+00 0. -1.
</event>
<event>
 7    1  0.6090311E-013  0.5052885E+02  0.7816164E-02  0.1300439E+00
        -11   -1    0    0    0    0  0.00000000000E+00  0.00000000000E+00  0.45593999997E+02  0.45594000000E+02  0.51100000000E-03 0.  1.
         11   -1    0    0    0    0 -0.00000000000E+00 -0.00000000000E+00 -0.45593999997E+02  0.45594000000E+02  0.51100000000E-03 0. -1.
    9900012    2    1    2    0    0  0.11661412759E+02  0.35770625768E+02 -0.15415575493E+02  0.50528853635E+02  0.29999981109E+02 0.  0.
        -12    1    1    2    0    0 -0.11661412759E+02 -0.35770625768E+02  0.15415575493E+02  0.40659146365E+02  0.00000000000E+00 0.  1.
         11    1    3    3    0    0  0.27883443734E+01  0.25411933518E+02 -0.14422452105E+02  0.29352143950E+02  0.51100000000E-03 0. -1.
        -11    1    3    3    0    0 -0.28234374761E+01  0.84700698409E+01 -0.24006960890E+01  0.92453893517E+01  0.51100000000E-03 0.  1.
         12    1    3    3    0    0  0.11696505862E+02  0.18886224089E+01  0.14075727015E+01  0.11931320333E+02  0.00000000000E+00 0. -1.
</event>
<event>
 7    1  0.6090311E-013  0.5052885E+02  0.7816164E-02  0.1300439E+00
        -11   -1    0    0    0    0  0.00000000000E+00  0.00000000000E+00  0.45593999997E+02  0.45594000000E+02  0.51100000000E-03 0.  1.
         11   -1    0    0    0    0 -0.00000000000E+00 -0.00000000000E+00 -0.45593999997E+02  0.45594000000E+02  0.51100000000E-03 0. -1.
    9900012    2    1    2    0    0  0.37143269829E+02  0.16275501930E+02 -0.29413979725E+01  0.50528852460E+02  0.29999977536E+02 0.  0.
        -12    1    1    2    0    0 -0.37143269829E+02 -0.16275501930E+02  0.29413979725E+01  0.40659147540E+02  0.00000000000E+00 0.  1.
         11    1    3    3    0    0  0.49913511962E+01 -0.15963826970E+01  0.69094592044E+01  0.86719462197E+01  0.51100000000E-03 0. -1.
        -11    1    3    3    0    0  0.30306462862E+02  0.92190043075E+01 -0.61629153469E+01  0.32271554928E+02  0.51100000000E-03 0.  1.
        -12    1    3    3    0    0  0.18454557707E+01  0.86528803197E+01 -0.36879418300E+01  0.95853513118E+01  0.00000000000E+00 0.  1.
</event>
<event>
 7    1  0.6090311E-013  0.5052885E+02  0.7816164E-02  0.1300439E+00
        -11   -1    0    0    0    0  0.00000000000E+00  0.00000000000E+00  0.45593999997E+02  0.45594000000E+02  0.51100000000E-03 0.  1.
         11   -1    0    0    0    0 -0.00000000000E+00 -0.00000000000E+00 -0.45593999997E+02  0.45594000000E+02  0.51100000000E-03 0. -1.
    9900012    2    1    2    0    0  0.16688285353E+02  0.34047880713E+01 -0.36919840626E+02  0.50528854883E+02  0.29999984901E+02 0.  0.
        -12    1    1    2    0    0 -0.16688285353E+02 -0.34047880713E+01  0.36919840626E+02  0.40659145117E+02  0.00000000000E+00 0.  1.
         11    1    3    3    0    0 -0.31894444076E+01 -0.11850772931E+01 -0.18609516932E+01  0.38781574601E+01  0.51100000000E-03 0. -1.
        -11    1    3    3    0    0  0.84899383664E+00 -0.63471937324E+01 -0.15414803198E+01  0.65866395566E+01  0.51100000000E-03 0.  1.
         12    1    3    3    0    0  0.19028735924E+02  0.10937059097E+02 -0.33517408613E+02  0.40064057866E+02  0.00000000000E+00 0. -1.
</event>
<event>
 7    1  0.6090311E-013  0.5052886E+02  0.7816164E-02  0.1300439E+00
        -11   -1    0    0    0    0  0.00000000000E+00  0.00000000000E+00  0.45593999997E+02  0.45594000000E+02  0.51100000000E-03 0.  1.
         11   -1    0    0    0    0 -0.00000000000E+00 -0.00000000000E+00 -0.45593999997E+02  0.45594000000E+02  0.51100000000E-03 0. -1.
    9900012    2    1    2    0    0 -0.19610691780E+02 -0.99269184545E+01 -0.34205883677E+02  0.50528863016E+02  0.30000009625E+02 0.  0.
        -12    1    1    2    0    0  0.19610691780E+02  0.99269184545E+01  0.34205883677E+02  0.40659136984E+02  0.00000000000E+00 0.  1.
         11    1    3    3    0    0  0.22006074517E+01 -0.10479636506E+02 -0.15085441334E+02  0.18499621481E+02  0.51100000000E-03 0. -1.
        -11    1    3    3    0    0 -0.10815366876E+01 -0.41326527326E+01 -0.18985198320E+01  0.46747104753E+01  0.51100000000E-03 0.  1.
        -12    1    3    3    0    0 -0.20729762544E+02  0.46853707836E+01 -0.17221922511E+02  0.27354531060E+02  0.00000000000E+00 0.  1.
</event>
<event>
 7    1  0.6090311E-013  0.5052886E+02  0.7816164E-02  0.1300439E+00
        -11   -1    0    0    0    0  0.00000000000E+00  0.00000000000E+00  0.45593999997E+02  0.45594000000E+02  0.51100000000E-03 0. -1.
         11   -1    0    0    0    0 -0.00000000000E+00 -0.00000000000E+00 -0.45593999997E+02  0.45594000000E+02  0.51100000000E-03 0.  1.
    9900012    2    1    2    0    0 -0.13799542062E+02  0.17786105839E+02  0.33858427961E+02  0.50528855075E+02  0.29999985487E+02 0.  0.
        -12    1    1    2    0    0  0.13799542062E+02 -0.17786105839E+02 -0.33858427961E+02  0.40659144925E+02  0.00000000000E+00 0.  1.
         11    1    3    3    0    0 -0.51511776574E+01  0.34655580277E+01  0.41592284765E+00  0.62223561275E+01  0.51100000000E-03 0. -1.
        -11    1    3    3    0    0 -0.93634012704E+01  0.60754677339E+01  0.14436364010E+01  0.11254718026E+02  0.51100000000E-03 0.  1.
         12    1    3    3    0    0  0.71503686605E+00  0.82450800773E+01  0.31998868712E+02  0.33051780921E+02  0.00000000000E+00 0. -1.
</event>
<event>
 7    1  0.6090311E-013  0.5052887E+02  0.7816164E-02  0.1300439E+00
        -11   -1    0    0    0    0  0.00000000000E+00  0.00000000000E+00  0.45593999997E+02  0.45594000000E+02  0.51100000000E-03 0.  1.
         11   -1    0    0    0    0 -0.00000000000E+00 -0.00000000000E+00 -0.45593999997E+02  0.45594000000E+02  0.51100000000E-03 0. -1.
    9900012    2    1    2    0    0  0.17596410318E+02  0.22099750928E+02 -0.29242643079E+02  0.50528870380E+02  0.30000032008E+02 0.  0.
        -12    1    1    2    0    0 -0.17596410318E+02 -0.22099750928E+02  0.29242643079E+02  0.40659129620E+02  0.00000000000E+00 0.  1.
         11    1    3    3    0    0 -0.25848350598E+00 -0.44003084284E+00  0.41886489381E+00  0.66021884697E+00  0.51100000000E-03 0. -1.
        -11    1    3    3    0    0 -0.10479270908E+00 -0.58250984861E+01 -0.80666296010E+01  0.99505410539E+01  0.51100000000E-03 0.  1.
         12    1    3    3    0    0  0.17959686533E+02  0.28364880257E+02 -0.21594878372E+02  0.39918110480E+02  0.00000000000E+00 0. -1.
</event>
<event>
 7    1  0.6090311E-013  0.5052887E+02  0.7816164E-02  0.1300439E+00
        -11   -1    0    0    0    0  0.00000000000E+00  0.00000000000E+00  0.45593999997E+02  0.45594000000E+02  0.51100000000E-03 0.  1.
         11   -1    0    0    0    0 -0.00000000000E+00 -0.00000000000E+00 -0.45593999997E+02  0.45594000000E+02  0.51100000000E-03 0. -1.
    9900012    2    1    2    0    0 -0.24058354566E+02 -0.21604247189E+02 -0.24649888909E+02  0.50528868870E+02  0.30000027417E+02 0.  0.
        -12    1    1    2    0    0  0.24058354566E+02  0.21604247189E+02  0.24649888909E+02  0.40659131130E+02  0.00000000000E+00 0.  1.
         11    1    3    3    0    0  0.16348111024E+01 -0.30034236670E+01 -0.41916856198E+01  0.54095646461E+01  0.51100000000E-03 0. -1.
        -11    1    3    3    0    0 -0.23139026366E+01 -0.10476654060E+02  0.28712912587E+01  0.11106697955E+02  0.51100000000E-03 0.  1.
         12    1    3    3    0    0 -0.23379263032E+02 -0.81241694623E+01 -0.23329494547E+02  0.34012606269E+02  0.00000000000E+00 0. -1.
</event>
<event>
 7    1  0.6090311E-013  0.5052883E+02  0.7816164E-02  0.1300439E+00
        -11   -1    0    0    0    0  0.00000000000E+00  0.00000000000E+00  0.45593999997E+02  0.45594000000E+02  0.51100000000E-03 0.  1.
         11   -1    0    0    0    0 -0.00000000000E+00 -0.00000000000E+00 -0.45593999997E+02  0.45594000000E+02  0.51100000000E-03 0. -1.
    9900012    2    1    2    0    0  0.34421223171E+02 -0.16507386488E+02 -0.13994787467E+02  0.50528825273E+02  0.29999894898E+02 0.  0.
        -12    1    1    2    0    0 -0.34421223171E+02  0.16507386488E+02  0.13994787467E+02  0.40659174727E+02  0.00000000000E+00 0.  1.
         11    1    3    3    0    0  0.88191012783E+01 -0.32236476524E+01 -0.12373533203E+02  0.15532957726E+02  0.51100000000E-03 0. -1.
        -11    1    3    3    0    0 -0.24869021793E+01 -0.10459640090E-01 -0.30015777317E+01  0.38979816564E+01  0.51100000000E-03 0.  1.
         12    1    3    3    0    0  0.28089024072E+02 -0.13273279196E+02  0.13803234676E+01  0.31097885890E+02  0.00000000000E+00 0. -1.
</event>
<event>
 7    1  0.6090311E-013  0.5052886E+02  0.7816164E-02  0.1300439E+00
        -11   -1    0    0    0    0  0.00000000000E+00  0.00000000000E+00  0.45593999997E+02  0.45594000000E+02  0.51100000000E-03 0. -1.
         11   -1    0    0    0    0 -0.00000000000E+00 -0.00000000000E+00 -0.45593999997E+02  0.45594000000E+02  0.51100000000E-03 0.  1.
    9900012    2    1    2    0    0  0.31918798731E+02  0.72354071134E+01  0.24124773491E+02  0.50528861734E+02  0.30000005727E+02 0.  0.
        -12    1    1    2    0    0 -0.31918798731E+02 -0.72354071134E+01 -0.24124773491E+02  0.40659138266E+02  0.00000000000E+00 0.  1.
         11    1    3    3    0    0  0.16806273286E+01  0.40744046915E+01  0.35631303568E+01  0.56675550292E+01  0.51100000000E-03 0. -1.
        -11    1    3    3    0    0  0.12379482529E+02  0.11797834602E+02  0.18051523779E+02  0.24865598726E+02  0.51100000000E-03 0.  1.
        -12    1    3    3    0    0  0.17858688874E+02 -0.86368321805E+01  0.25101193552E+01  0.19995707979E+02  0.00000000000E+00 0.  1.
</event>
<event>
 7    1  0.6090311E-013  0.5052885E+02  0.7816164E-02  0.1300439E+00
        -11   -1    0    0    0    0  0.00000000000E+00  0.00000000000E+00  0.45593999997E+02  0.45594000000E+02  0.51100000000E-03 0. -1.
         11   -1    0    0    0    0 -0.00000000000E+00 -0.00000000000E+00 -0.45593999997E+02  0.45594000000E+02  0.51100000000E-03 0.  1.
    9900012    2    1    2    0    0 -0.29096135728E+02 -0.71212084067E+01  0.27493079137E+02  0.50528854363E+02  0.29999983323E+02 0.  0.
        -12    1    1    2    0    0  0.29096135728E+02  0.71212084067E+01 -0.27493079137E+02  0.40659145637E+02  0.00000000000E+00 0.  1.
         11    1    3    3    0    0 -0.50768201772E+00 -0.50003690093E+01  0.14573044576E+01  0.52330839668E+01  0.51100000000E-03 0. -1.
        -11    1    3    3    0    0 -0.84495890672E+01 -0.94630147184E+01  0.15941184961E+01  0.12786141600E+02  0.51100000000E-03 0.  1.
        -12    1    3    3    0    0 -0.20138864643E+02  0.73421753210E+01  0.24441656183E+02  0.32509628797E+02  0.00000000000E+00 0.  1.
</event>
<event>
 7    1  0.6090311E-013  0.5052886E+02  0.7816164E-02  0.1300439E+00
        -11   -1    0    0    0    0  0.00000000000E+00  0.00000000000E+00  0.45593999997E+02  0.45594000000E+02  0.51100000000E-03 0. -1.
         11   -1    0    0    0    0 -0.00000000000E+00 -0.00000000000E+00 -0.45593999997E+02  0.45594000000E+02  0.51100000000E-03 0.  1.
    9900012    2    1    2    0    0  0.23378979318E+02  0.11678134349E+02  0.31148198048E+02  0.50528859115E+02  0.29999997767E+02 0.  0.
        -12    1    1    2    0    0 -0.23378979318E+02 -0.11678134349E+02 -0.31148198048E+02  0.40659140885E+02  0.00000000000E+00 0.  1.
         11    1    3    3    0    0  0.13548136791E+02  0.63599836603E+01  0.10795344098E+02  0.18453749134E+02  0.51100000000E-03 0. -1.
        -11    1    3    3    0    0  0.83542567135E+01 -0.41308547320E+01 -0.29023728798E+00  0.93242588980E+01  0.51100000000E-03 0.  1.
         12    1    3    3    0    0  0.14765858135E+01  0.94490054204E+01  0.20643091239E+02  0.22750851083E+02  0.00000000000E+00 0. -1.
</event>
<event>
 7    1  0.6090311E-013  0.5052886E+02  0.7816164E-02  0.1300439E+00
        -11   -1    0    0    0    0  0.00000000000E+00  0.00000000000E+00  0.45593999997E+02  0.45594000000E+02  0.51100000000E-03 0.  1.
         11   -1    0    0    0    0 -0.00000000000E+00 -0.00000000000E+00 -0.45593999997E+02  0.45594000000E+02  0.51100000000E-03 0. -1.
    9900012    2    1    2    0    0 -0.17611369186E+01  0.24319875511E+02 -0.32536257717E+02  0.50528855710E+02  0.29999987417E+02 0.  0.
        -12    1    1    2    0    0  0.17611369186E+01 -0.24319875511E+02  0.32536257717E+02  0.40659144290E+02  0.00000000000E+00 0.  1.
         11    1    3    3    0    0 -0.74755849717E+01  0.11253425169E+01 -0.72488094228E+00  0.75944860979E+01  0.51100000000E-03 0. -1.
        -11    1    3    3    0    0 -0.18920823006E+01  0.11450296263E+02 -0.24583943024E+02  0.27185649060E+02  0.51100000000E-03 0.  1.
         12    1    3    3    0    0  0.76065303537E+01  0.11744236731E+02 -0.72274337505E+01  0.15748720552E+02  0.00000000000E+00 0. -1.
</event>
<event>
 7    1  0.6090311E-013  0.5052886E+02  0.7816164E-02  0.1300439E+00
        -11   -1    0    0    0    0  0.00000000000E+00  0.00000000000E+00  0.45593999997E+02  0.45594000000E+02  0.51100000000E-03 0. -1.
         11   -1    0    0    0    0 -0.00000000000E+00 -0.00000000000E+00 -0.45593999997E+02  0.45594000000E+02  0.51100000000E-03 0.  1.
    9900012    2    1    2    0    0 -0.36683882527E+02 -0.10015442812E+02  0.14392672644E+02  0.50528863784E+02  0.30000011958E+02 0.  0.
        -12    1    1    2    0    0  0.36683882527E+02  0.10015442812E+02 -0.14392672644E+02  0.40659136216E+02  0.00000000000E+00 0.  1.
         11    1    3    3    0    0 -0.11373594783E+02  0.61630796744E+01 -0.16183308035E+01  0.13036916975E+02  0.51100000000E-03 0. -1.
        -11    1    3    3    0    0 -0.41405597689E+01  0.24035428601E+01  0.58216335073E+01  0.75374180218E+01  0.51100000000E-03 0.  1.
         12    1    3    3    0    0 -0.21169727975E+02 -0.18582065346E+02  0.10189369940E+02  0.29954528787E+02  0.00000000000E+00 0. -1.
</event>
<event>
 7    1  0.6090311E-013  0.5052894E+02  0.7816164E-02  0.1300439E+00
        -11   -1    0    0    0    0  0.00000000000E+00  0.00000000000E+00  0.45593999997E+02  0.45594000000E+02  0.51100000000E-03 0.  1.
         11   -1    0    0    0    0 -0.00000000000E+00 -0.00000000000E+00 -0.45593999997E+02  0.45594000000E+02  0.51100000000E-03 0. -1.
    9900012    2    1    2    0    0 -0.38617958640E+01  0.11233583325E+02 -0.38885118324E+02  0.50528938418E+02  0.30000238816E+02 0.  0.
        -12    1    1    2    0    0  0.38617958640E+01 -0.11233583325E+02  0.38885118324E+02  0.40659061582E+02  0.00000000000E+00 0.  1.
         11    1    3    3    0    0 -0.11606814439E+01  0.19380927844E+01  0.93054166962E+00  0.24432136859E+01  0.51100000000E-03 0. -1.
        -11    1    3    3    0    0 -0.11943526346E+02  0.11963838370E+01 -0.92871295953E+01  0.15176624534E+02  0.51100000000E-03 0.  1.
         12    1    3    3    0    0  0.92424119258E+01  0.80991067033E+01 -0.30528530399E+02  0.32909100199E+02  0.00000000000E+00 0. -1.
</event>
<event>
 7    1  0.6090311E-013  0.5052886E+02  0.7816164E-02  0.1300439E+00
        -11   -1    0    0    0    0  0.00000000000E+00  0.00000000000E+00  0.45593999997E+02  0.45594000000E+02  0.51100000000E-03 0.  1.
         11   -1    0    0    0    0 -0.00000000000E+00 -0.00000000000E+00 -0.45593999997E+02  0.45594000000E+02  0.51100000000E-03 0. -1.
    9900012    2    1    2    0    0 -0.32941910492E+02  0.22394055685E+02 -0.81549015102E+01  0.50528860615E+02  0.30000002327E+02 0.  0.
        -12    1    1    2    0    0  0.32941910492E+02 -0.22394055685E+02  0.81549015102E+01  0.40659139385E+02  0.00000000000E+00 0.  1.
         11    1    3    3    0    0 -0.20491071416E+01  0.90915444000E+01 -0.17679089997E+01  0.94858063520E+01  0.51100000000E-03 0. -1.
        -11    1    3    3    0    0 -0.22933849664E+02  0.14303959785E+02  0.46222432029E+01  0.27421339471E+02  0.51100000000E-03 0.  1.
         12    1    3    3    0    0 -0.79589536866E+01 -0.10014485002E+01 -0.11009235713E+02  0.13621714792E+02  0.00000000000E+00 0. -1.
</event>
<event>
 7    1  0.6090311E-013  0.5052885E+02  0.7816164E-02  0.1300439E+00
        -11   -1    0    0    0    0  0.00000000000E+00  0.00000000000E+00  0.45593999997E+02  0.45594000000E+02  0.51100000000E-03 0.  1.
         11   -1    0    0    0    0 -0.00000000000E+00 -0.00000000000E+00 -0.45593999997E+02  0.45594000000E+02  0.51100000000E-03 0. -1.
    9900012    2    1    2    0    0  0.11555612984E+02 -0.96519524289E+01 -0.37768689705E+02  0.50528852208E+02  0.29999976772E+02 0.  0.
        -12    1    1    2    0    0 -0.11555612984E+02  0.96519524289E+01  0.37768689705E+02  0.40659147792E+02  0.00000000000E+00 0.  1.
         11    1    3    3    0    0  0.34368343297E+01 -0.12000309979E+02 -0.24036507087E+01  0.12712073269E+02  0.51100000000E-03 0.  1.
        -11    1    3    3    0    0  0.46816347782E+01 -0.25688680627E+01 -0.68930260680E+01  0.87195525089E+01  0.51100000000E-03 0. -1.
         12    1    3    3    0    0  0.34371438756E+01  0.49172256126E+01 -0.28472012929E+02  0.29097226431E+02  0.00000000000E+00 0. -1.
</event>
<event>
 7    1  0.6090311E-013  0.5052887E+02  0.7816164E-02  0.1300439E+00
        -11   -1    0    0    0    0  0.00000000000E+00  0.00000000000E+00  0.45593999997E+02  0.45594000000E+02  0.51100000000E-03 0.  1.
         11   -1    0    0    0    0 -0.00000000000E+00 -0.00000000000E+00 -0.45593999997E+02  0.45594000000E+02  0.51100000000E-03 0. -1.
    9900012    2    1    2    0    0 -0.12200976438E+02  0.32776454734E+01 -0.38646580001E+02  0.50528869025E+02  0.30000027887E+02 0.  0.
        -12    1    1    2    0    0  0.12200976438E+02 -0.32776454734E+01  0.38646580001E+02  0.40659130975E+02  0.00000000000E+00 0.  1.
         11    1    3    3    0    0 -0.12893139863E+02 -0.15648066103E+01 -0.75861592367E+01  0.15040993567E+02  0.51100000000E-03 0. -1.
        -11    1    3    3    0    0 -0.44723205437E+01 -0.32454959788E+00 -0.26498105650E+02  0.26874831846E+02  0.51100000000E-03 0.  1.
        -12    1    3    3    0    0  0.51644839689E+01  0.51670016816E+01 -0.45623151149E+01  0.86130436113E+01  0.00000000000E+00 0.  1.
</event>
<event>
 7    1  0.6090311E-013  0.5052886E+02  0.7816164E-02  0.1300439E+00
        -11   -1    0    0    0    0  0.00000000000E+00  0.00000000000E+00  0.45593999997E+02  0.45594000000E+02  0.51100000000E-03 0.  1.
         11   -1    0    0    0    0 -0.00000000000E+00 -0.00000000000E+00 -0.45593999997E+02  0.45594000000E+02  0.51100000000E-03 0. -1.
    9900012    2    1    2    0    0  0.31700864981E+02 -0.29630460405E+01 -0.25287180317E+02  0.50528856246E+02  0.29999989046E+02 0.  0.
        -12    1    1    2    0    0 -0.31700864981E+02  0.29630460405E+01  0.25287180317E+02  0.40659143754E+02  0.00000000000E+00 0.  1.
         11    1    3    3    0    0 -0.27696029834E+01 -0.32203050921E+00 -0.37592724760E+01  0.46804416612E+01  0.51100000000E-03 0. -1.
        -11    1    3    3    0    0  0.32024304691E+00  0.47000656327E+01 -0.59834928223E+01  0.76154684147E+01  0.51100000000E-03 0.  1.
        -12    1    3    3    0    0  0.34150224918E+02 -0.73410811639E+01 -0.15544415018E+02  0.38232946170E+02  0.00000000000E+00 0.  1.
</event>
<event>
 7    1  0.6090311E-013  0.5052886E+02  0.7816164E-02  0.1300439E+00
        -11   -1    0    0    0    0  0.00000000000E+00  0.00000000000E+00  0.45593999997E+02  0.45594000000E+02  0.51100000000E-03 0.  1.
         11   -1    0    0    0    0 -0.00000000000E+00 -0.00000000000E+00 -0.45593999997E+02  0.45594000000E+02  0.51100000000E-03 0. -1.
    9900012    2    1    2    0    0  0.98481892602E+00 -0.34464760528E+02 -0.21549387309E+02  0.50528859823E+02  0.29999999917E+02 0.  0.
        -12    1    1    2    0    0 -0.98481892602E+00  0.34464760528E+02  0.21549387309E+02  0.40659140177E+02  0.00000000000E+00 0.  1.
         11    1    3    3    0    0 -0.29898020095E+00 -0.98723492106E+01  0.19136698296E+01  0.10060556673E+02  0.51100000000E-03 0.  1.
        -11    1    3    3    0    0  0.22595278408E+01 -0.95275216655E+01 -0.23406112552E+02  0.25371740977E+02  0.51100000000E-03 0. -1.
         12    1    3    3    0    0 -0.97572871384E+00 -0.15064889652E+02 -0.56944586905E-01  0.15096562172E+02  0.00000000000E+00 0. -1.
</event>
<event>
 7    1  0.6090311E-013  0.5052886E+02  0.7816164E-02  0.1300439E+00
        -11   -1    0    0    0    0  0.00000000000E+00  0.00000000000E+00  0.45593999997E+02  0.45594000000E+02  0.51100000000E-03 0.  1.
         11   -1    0    0    0    0 -0.00000000000E+00 -0.00000000000E+00 -0.45593999997E+02  0.45594000000E+02  0.51100000000E-03 0. -1.
    9900012    2    1    2    0    0 -0.74295915215E+01 -0.22812184518E+02 -0.32826376383E+02  0.50528861063E+02  0.30000003686E+02 0.  0.
        -12    1    1    2    0    0  0.74295915215E+01  0.22812184518E+02  0.32826376383E+02  0.40659138937E+02  0.00000000000E+00 0.  1.
         11    1    3    3    0    0 -0.53961841121E+01 -0.90396149629E+01 -0.11724432416E+02  0.15757403256E+02  0.51100000000E-03 0.  1.
        -11    1    3    3    0    0  0.22009049344E+01 -0.13824586298E+02 -0.25232740553E+02  0.28855750985E+02  0.51100000000E-03 0. -1.
         12    1    3    3    0    0 -0.42343123438E+01  0.52016742778E-01  0.41307965853E+01  0.59157068214E+01  0.00000000000E+00 0. -1.
</event>
<event>
 7    1  0.6090311E-013  0.5052885E+02  0.7816164E-02  0.1300439E+00
        -11   -1    0    0    0    0  0.00000000000E+00  0.00000000000E+00  0.45593999997E+02  0.45594000000E+02  0.51100000000E-03 0.  1.
         11   -1    0    0    0    0 -0.00000000000E+00 -0.00000000000E+00 -0.45593999997E+02  0.45594000000E+02  0.51100000000E-03 0. -1.
    9900012    2    1    2    0    0 -0.16222701267E+02 -0.97328531046E+01 -0.35989744335E+02  0.50528853879E+02  0.29999981852E+02 0.  0.
        -12    1    1    2    0    0  0.16222701267E+02  0.97328531046E+01  0.35989744335E+02  0.40659146121E+02  0.00000000000E+00 0.  1.
         11    1    3    3    0    0 -0.51794716909E+01  0.14739487363E+01 -0.12967145631E+02  0.14040880241E+02  0.51100000000E-03 0. -1.
        -11    1    3    3    0    0 -0.59726343514E+01  0.25149295387E+01  0.26006886696E+01  0.69828943496E+01  0.51100000000E-03 0.  1.
         12    1    3    3    0    0 -0.50705952247E+01 -0.13721731380E+02 -0.25623287374E+02  0.29505079289E+02  0.00000000000E+00 0. -1.
</event>
<event>
 7    1  0.6090311E-013  0.5052887E+02  0.7816164E-02  0.1300439E+00
        -11   -1    0    0    0    0  0.00000000000E+00  0.00000000000E+00  0.45593999997E+02  0.45594000000E+02  0.51100000000E-03 0. -1.
         11   -1    0    0    0    0 -0.00000000000E+00 -0.00000000000E+00 -0.45593999997E+02  0.45594000000E+02  0.51100000000E-03 0.  1.
    9900012    2    1    2    0    0  0.14630667392E+02 -0.37647623731E+02  0.46652806234E+01  0.50528870100E+02  0.30000031155E+02 0.  0.
        -12    1    1    2    0    0 -0.14630667392E+02  0.37647623731E+02 -0.46652806234E+01  0.40659129900E+02  0.00000000000E+00 0.  1.
         11    1    3    3    0    0  0.78356716545E+01 -0.13599663851E+02  0.73456351440E+01  0.17329367071E+02  0.51100000000E-03 0. -1.
        -11    1    3    3    0    0 -0.59661254295E+01 -0.31092740381E+01  0.39453246892E+01  0.77992195025E+01  0.51100000000E-03 0.  1.
        -12    1    3    3    0    0  0.12761121167E+02 -0.20938685842E+02 -0.66256792098E+01  0.25400283526E+02  0.00000000000E+00 0.  1.
</event>
<event>
 7    1  0.6090311E-013  0.5052886E+02  0.7816164E-02  0.1300439E+00
        -11   -1    0    0    0    0  0.00000000000E+00  0.00000000000E+00  0.45593999997E+02  0.45594000000E+02  0.51100000000E-03 0.  1.
         11   -1    0    0    0    0 -0.00000000000E+00 -0.00000000000E+00 -0.45593999997E+02  0.45594000000E+02  0.51100000000E-03 0. -1.
    9900012    2    1    2    0    0 -0.57745699307E+01  0.37345675546E+02 -0.15004014075E+02  0.50528861074E+02  0.30000003720E+02 0.  0.
        -12    1    1    2    0    0  0.57745699307E+01 -0.37345675546E+02  0.15004014075E+02  0.40659138926E+02  0.00000000000E+00 0.  1.
         11    1    3    3    0    0  0.10392493158E+02  0.81366626129E+01 -0.60589163514E+01  0.14523073371E+02  0.51100000000E-03 0. -1.
        -11    1    3    3    0    0 -0.12358054009E+01  0.27871526820E+01 -0.43483715125E+01  0.53107221857E+01  0.51100000000E-03 0.  1.
        -12    1    3    3    0    0 -0.14931257688E+02  0.26421860251E+02 -0.45967262113E+01  0.30695065517E+02  0.00000000000E+00 0.  1.
</event>
<event>
 7    1  0.6090311E-013  0.5052886E+02  0.7816164E-02  0.1300439E+00
        -11   -1    0    0    0    0  0.00000000000E+00  0.00000000000E+00  0.45593999997E+02  0.45594000000E+02  0.51100000000E-03 0.  1.
         11   -1    0    0    0    0 -0.00000000000E+00 -0.00000000000E+00 -0.45593999997E+02  0.45594000000E+02  0.51100000000E-03 0. -1.
    9900012    2    1    2    0    0  0.59221207948E+01  0.40149388673E+02 -0.24739337594E+01  0.50528864818E+02  0.30000015101E+02 0.  0.
        -12    1    1    2    0    0 -0.59221207948E+01 -0.40149388673E+02  0.24739337594E+01  0.40659135182E+02  0.00000000000E+00 0.  1.
         11    1    3    3    0    0 -0.55241347043E+01  0.10747893488E+02  0.69839434340E+01  0.13957390330E+02  0.51100000000E-03 0. -1.
        -11    1    3    3    0    0  0.99560608521E+01  0.56323740600E+01 -0.41739671770E+01  0.12176567148E+02  0.51100000000E-03 0.  1.
         12    1    3    3    0    0  0.14901946470E+01  0.23769121124E+02 -0.52839100164E+01  0.24394907341E+02  0.00000000000E+00 0. -1.
</event>
<event>
 7    1  0.6090311E-013  0.5052887E+02  0.7816164E-02  0.1300439E+00
        -11   -1    0    0    0    0  0.00000000000E+00  0.00000000000E+00  0.45593999997E+02  0.45594000000E+02  0.51100000000E-03 0. -1.
         11   -1    0    0    0    0 -0.00000000000E+00 -0.00000000000E+00 -0.45593999997E+02  0.45594000000E+02  0.51100000000E-03 0.  1.
    9900012    2    1    2    0    0  0.31176862479E+02  0.17335630782E+02  0.19510101141E+02  0.50528869473E+02  0.30000029251E+02 0.  0.
        -12    1    1    2    0    0 -0.31176862479E+02 -0.17335630782E+02 -0.19510101141E+02  0.40659130527E+02  0.00000000000E+00 0.  1.
         11    1    3    3    0    0  0.15960077148E+02  0.75685843785E+01  0.77425412146E+01  0.19286121352E+02  0.51100000000E-03 0. -1.
        -11    1    3    3    0    0  0.16481364741E+02 -0.10854680890E+01  0.11830116898E+02  0.20316625970E+02  0.51100000000E-03 0.  1.
        -12    1    3    3    0    0 -0.12645794100E+01  0.10852514493E+02 -0.62556972255E-01  0.10926122152E+02  0.00000000000E+00 0.  1.
</event>
<event>
 7    1  0.6090311E-013  0.5052881E+02  0.7816164E-02  0.1300439E+00
        -11   -1    0    0    0    0  0.00000000000E+00  0.00000000000E+00  0.45593999997E+02  0.45594000000E+02  0.51100000000E-03 0. -1.
         11   -1    0    0    0    0 -0.00000000000E+00 -0.00000000000E+00 -0.45593999997E+02  0.45594000000E+02  0.51100000000E-03 0.  1.
    9900012    2    1    2    0    0  0.38949890399E+01 -0.40452765068E+02 -0.12538696315E+01  0.50528814933E+02  0.29999863470E+02 0.  0.
        -12    1    1    2    0    0 -0.38949890399E+01  0.40452765068E+02  0.12538696315E+01  0.40659185067E+02  0.00000000000E+00 0.  1.
         11    1    3    3    0    0 -0.58872027191E+01 -0.10276415594E+02 -0.26710062368E+00  0.11846316572E+02  0.51100000000E-03 0. -1.
        -11    1    3    3    0    0 -0.56862935669E+01 -0.21975051669E+01  0.23613866904E+01  0.65375156482E+01  0.51100000000E-03 0.  1.
        -12    1    3    3    0    0  0.15468485326E+02 -0.27978844307E+02 -0.33481556983E+01  0.32144982713E+02  0.00000000000E+00 0.  1.
</event>
<event>
 7    1  0.6090311E-013  0.5052885E+02  0.7816164E-02  0.1300439E+00
        -11   -1    0    0    0    0  0.00000000000E+00  0.00000000000E+00  0.45593999997E+02  0.45594000000E+02  0.51100000000E-03 0. -1.
         11   -1    0    0    0    0 -0.00000000000E+00 -0.00000000000E+00 -0.45593999997E+02  0.45594000000E+02  0.51100000000E-03 0.  1.
    9900012    2    1    2    0    0 -0.36873862369E+02 -0.13234555879E+02  0.10878003396E+02  0.50528854003E+02  0.29999982229E+02 0.  0.
        -12    1    1    2    0    0  0.36873862369E+02  0.13234555879E+02 -0.10878003396E+02  0.40659145997E+02  0.00000000000E+00 0.  1.
         11    1    3    3    0    0 -0.16291913965E+02 -0.10959541781E+02  0.47881793805E+01  0.20210509116E+02  0.51100000000E-03 0. -1.
        -11    1    3    3    0    0 -0.14123491294E+02 -0.76526420175E+01 -0.46106297421E+01  0.16712086736E+02  0.51100000000E-03 0.  1.
        -12    1    3    3    0    0 -0.64584571096E+01  0.53776279195E+01  0.10700453757E+02  0.13606258152E+02  0.00000000000E+00 0.  1.
</event>
<event>
 7    1  0.6090311E-013  0.5052886E+02  0.7816164E-02  0.1300439E+00
        -11   -1    0    0    0    0  0.00000000000E+00  0.00000000000E+00  0.45593999997E+02  0.45594000000E+02  0.51100000000E-03 0.  1.
         11   -1    0    0    0    0 -0.00000000000E+00 -0.00000000000E+00 -0.45593999997E+02  0.45594000000E+02  0.51100000000E-03 0. -1.
    9900012    2    1    2    0    0  0.31369171174E+02  0.21808258765E+02 -0.13911875614E+02  0.50528864082E+02  0.30000012864E+02 0.  0.
        -12    1    1    2    0    0 -0.31369171174E+02 -0.21808258765E+02  0.13911875614E+02  0.40659135918E+02  0.00000000000E+00 0.  1.
         11    1    3    3    0    0  0.79933379326E+01  0.69555699901E+01 -0.66817503363E+01  0.12526739121E+02  0.51100000000E-03 0. -1.
        -11    1    3    3    0    0  0.14606793498E+02  0.20813921901E+02 -0.95247968315E+01  0.27153259770E+02  0.51100000000E-03 0.  1.
        -12    1    3    3    0    0  0.87690397433E+01 -0.59612331257E+01  0.22946715538E+01  0.10848865191E+02  0.00000000000E+00 0.  1.
</event>
<event>
 7    1  0.6090311E-013  0.5052886E+02  0.7816164E-02  0.1300439E+00
        -11   -1    0    0    0    0  0.00000000000E+00  0.00000000000E+00  0.45593999997E+02  0.45594000000E+02  0.51100000000E-03 0. -1.
         11   -1    0    0    0    0 -0.00000000000E+00 -0.00000000000E+00 -0.45593999997E+02  0.45594000000E+02  0.51100000000E-03 0.  1.
    9900012    2    1    2    0    0 -0.32627371366E+02  0.73341687068E+01  0.23126397786E+02  0.50528859976E+02  0.30000000384E+02 0.  0.
        -12    1    1    2    0    0  0.32627371366E+02 -0.73341687068E+01 -0.23126397786E+02  0.40659140024E+02  0.00000000000E+00 0.  1.
         11    1    3    3    0    0 -0.31154863398E+01  0.93181548832E+00  0.52494106247E+01  0.61750180085E+01  0.51100000000E-03 0. -1.
        -11    1    3    3    0    0 -0.82123297341E+01 -0.28255459309E+01  0.19231673454E+02  0.21101737691E+02  0.51100000000E-03 0.  1.
        -12    1    3    3    0    0 -0.21299555293E+02  0.92278991494E+01 -0.13546862924E+01  0.23252104277E+02  0.00000000000E+00 0.  1.
</event>
<event>
 7    1  0.6090311E-013  0.5052886E+02  0.7816164E-02  0.1300439E+00
        -11   -1    0    0    0    0  0.00000000000E+00  0.00000000000E+00  0.45593999997E+02  0.45594000000E+02  0.51100000000E-03 0. -1.
         11   -1    0    0    0    0 -0.00000000000E+00 -0.00000000000E+00 -0.45593999997E+02  0.45594000000E+02  0.51100000000E-03 0.  1.
    9900012    2    1    2    0    0 -0.64237071234E+01 -0.21484589477E+01  0.40090971721E+02  0.50528857085E+02  0.29999991594E+02 0.  0.
        -12    1    1    2    0    0  0.64237071234E+01  0.21484589477E+01 -0.40090971721E+02  0.40659142915E+02  0.00000000000E+00 0.  1.
         11    1    3    3    0    0 -0.43633630913E+01 -0.17168273484E+01  0.40264170078E+01  0.61804909022E+01  0.51100000000E-03 0. -1.
        -11    1    3    3    0    0 -0.13077179818E+02 -0.35792435421E+01  0.14016413661E+02  0.19500858148E+02  0.51100000000E-03 0.  1.
         12    1    3    3    0    0  0.11016835786E+02  0.31476119427E+01  0.22048141052E+02  0.24847508035E+02  0.00000000000E+00 0. -1.
</event>
<event>
 7    1  0.6090311E-013  0.5052886E+02  0.7816164E-02  0.1300439E+00
        -11   -1    0    0    0    0  0.00000000000E+00  0.00000000000E+00  0.45593999997E+02  0.45594000000E+02  0.51100000000E-03 0.  1.
         11   -1    0    0    0    0 -0.00000000000E+00 -0.00000000000E+00 -0.45593999997E+02  0.45594000000E+02  0.51100000000E-03 0. -1.
    9900012    2    1    2    0    0 -0.15909101526E+02  0.35585593788E+02 -0.11564248564E+02  0.50528857836E+02  0.29999993880E+02 0.  0.
        -12    1    1    2    0    0  0.15909101526E+02 -0.35585593788E+02  0.11564248564E+02  0.40659142164E+02  0.00000000000E+00 0.  1.
         11    1    3    3    0    0 -0.24762420885E+01  0.92128969606E+01  0.27145776398E+01  0.99185773835E+01  0.51100000000E-03 0. -1.
        -11    1    3    3    0    0 -0.41146306796E+01  0.81866218123E+01  0.66796284532E+01  0.11338800592E+02  0.51100000000E-03 0.  1.
         12    1    3    3    0    0 -0.93182287580E+01  0.18186075015E+02 -0.20958454657E+02  0.29271479861E+02  0.00000000000E+00 0. -1.
</event>
<event>
 7    1  0.6090311E-013  0.5052885E+02  0.7816164E-02  0.1300439E+00
        -11   -1    0    0    0    0  0.00000000000E+00  0.00000000000E+00  0.45593999997E+02  0.45594000000E+02  0.51100000000E-03 0.  1.
         11   -1    0    0    0    0 -0.00000000000E+00 -0.00000000000E+00 -0.45593999997E+02  0.45594000000E+02  0.51100000000E-03 0. -1.
    9900012    2    1    2    0    0 -0.21616906326E+02  0.13007703919E+02 -0.31885348012E+02  0.50528850744E+02  0.29999972322E+02 0.  0.
        -12    1    1    2    0    0  0.21616906326E+02 -0.13007703919E+02  0.31885348012E+02  0.40659149256E+02  0.00000000000E+00 0.  1.
         11    1    3    3    0    0 -0.11425780278E+02  0.11754805550E+02 -0.25545168902E+02  0.30352587418E+02  0.51100000000E-03 0. -1.
        -11    1    3    3    0    0 -0.35142303351E+01  0.32156275827E+01 -0.10873148007E+02  0.11870780237E+02  0.51100000000E-03 0.  1.
        -12    1    3    3    0    0 -0.66768957125E+01 -0.19627292136E+01  0.45329688968E+01  0.83054830889E+01  0.00000000000E+00 0.  1.
</event>
<event>
 7    1  0.6090311E-013  0.5052887E+02  0.7816164E-02  0.1300439E+00
        -11   -1    0    0    0    0  0.00000000000E+00  0.00000000000E+00  0.45593999997E+02  0.45594000000E+02  0.51100000000E-03 0.  1.
         11   -1    0    0    0    0 -0.00000000000E+00 -0.00000000000E+00 -0.45593999997E+02  0.45594000000E+02  0.51100000000E-03 0. -1.
    9900012    2    1    2    0    0 -0.10258478329E+01  0.11958181999E+02 -0.38847319444E+02  0.50528871769E+02  0.30000036230E+02 0.  0.
        -12    1    1    2    0    0  0.10258478329E+01 -0.11958181999E+02  0.38847319444E+02  0.40659128231E+02  0.00000000000E+00 0.  1.
         11    1    3    3    0    0 -0.17982507733E+01  0.14870627497E+02 -0.27681062366E+02  0.31473965145E+02  0.51100000000E-03 0. -1.
        -11    1    3    3    0    0 -0.30628337270E+01  0.45757012610E+01 -0.58582483960E+00  0.55372541456E+01  0.51100000000E-03 0.  1.
         12    1    3    3    0    0  0.38352366674E+01 -0.74881467590E+01 -0.10580432239E+02  0.13517652479E+02  0.00000000000E+00 0. -1.
</event>
<event>
 7    1  0.6090311E-013  0.5052886E+02  0.7816164E-02  0.1300439E+00
        -11   -1    0    0    0    0  0.00000000000E+00  0.00000000000E+00  0.45593999997E+02  0.45594000000E+02  0.51100000000E-03 0. -1.
         11   -1    0    0    0    0 -0.00000000000E+00 -0.00000000000E+00 -0.45593999997E+02  0.45594000000E+02  0.51100000000E-03 0.  1.
    9900012    2    1    2    0    0  0.21940333433E+02  0.85662325627E+01  0.33142224499E+02  0.50528860607E+02  0.30000002301E+02 0.  0.
        -12    1    1    2    0    0 -0.21940333433E+02 -0.85662325627E+01 -0.33142224499E+02  0.40659139393E+02  0.00000000000E+00 0.  1.
         11    1    3    3    0    0 -0.37832610580E+01  0.88050117826E+00  0.89485855820E+01  0.97552821967E+01  0.51100000000E-03 0. -1.
        -11    1    3    3    0    0  0.13904529594E+02  0.83246791142E+01  0.23970967950E+02  0.28935160796E+02  0.51100000000E-03 0.  1.
         12    1    3    3    0    0  0.11819064897E+02 -0.63894772972E+00  0.22267096662E+00  0.11838417614E+02  0.00000000000E+00 0. -1.
</event>
<event>
 7    1  0.6090311E-013  0.5052886E+02  0.7816164E-02  0.1300439E+00
        -11   -1    0    0    0    0  0.00000000000E+00  0.00000000000E+00  0.45593999997E+02  0.45594000000E+02  0.51100000000E-03 0. -1.
         11   -1    0    0    0    0 -0.00000000000E+00 -0.00000000000E+00 -0.45593999997E+02  0.45594000000E+02  0.51100000000E-03 0.  1.
    9900012    2    1    2    0    0 -0.14425936676E+02  0.22979200843E+02  0.30282243181E+02  0.50528861145E+02  0.30000003936E+02 0.  0.
        -12    1    1    2    0    0  0.14425936676E+02 -0.22979200843E+02 -0.30282243181E+02  0.40659138855E+02  0.00000000000E+00 0.  1.
         11    1    3    3    0    0 -0.21681134182E+01  0.94305965346E+01  0.18105407707E+02  0.20529068544E+02  0.51100000000E-03 0. -1.
        -11    1    3    3    0    0  0.29729467213E+01 -0.12726062224E+01  0.76016836532E+01  0.82609644370E+01  0.51100000000E-03 0.  1.
        -12    1    3    3    0    0 -0.15230769979E+02  0.14821210531E+02  0.45751518210E+01  0.21738828164E+02  0.00000000000E+00 0.  1.
</event>
<event>
 7    1  0.6090311E-013  0.5052886E+02  0.7816164E-02  0.1300439E+00
        -11   -1    0    0    0    0  0.00000000000E+00  0.00000000000E+00  0.45593999997E+02  0.45594000000E+02  0.51100000000E-03 0.  1.
         11   -1    0    0    0    0 -0.00000000000E+00 -0.00000000000E+00 -0.45593999997E+02  0.45594000000E+02  0.51100000000E-03 0. -1.
    9900012    2    1    2    0    0  0.20148647518E+02 -0.26684036592E+02  0.23133526125E+02  0.50528857896E+02  0.29999994060E+02 0.  0.
        -12    1    1    2    0    0 -0.20148647518E+02  0.26684036592E+02 -0.23133526125E+02  0.40659142104E+02  0.00000000000E+00 0.  1.
         11    1    3    3    0    0 -0.36030657500E+01  0.20692428595E+01  0.13132544243E+01  0.43575780262E+01  0.51100000000E-03 0. -1.
        -11    1    3    3    0    0 -0.21113614357E+01 -0.13767340804E+00  0.10198433209E+01  0.23488043213E+01  0.51100000000E-03 0.  1.
        -12    1    3    3    0    0  0.25863074704E+02 -0.28615606044E+02  0.20800428380E+02  0.43822475548E+02  0.00000000000E+00 0.  1.
</event>
<event>
 7    1  0.6090311E-013  0.5052886E+02  0.7816164E-02  0.1300439E+00
        -11   -1    0    0    0    0  0.00000000000E+00  0.00000000000E+00  0.45593999997E+02  0.45594000000E+02  0.51100000000E-03 0.  1.
         11   -1    0    0    0    0 -0.00000000000E+00 -0.00000000000E+00 -0.45593999997E+02  0.45594000000E+02  0.51100000000E-03 0. -1.
    9900012    2    1    2    0    0  0.39592803812E+02  0.76459337929E+01  0.52071985988E+01  0.50528864071E+02  0.30000012831E+02 0.  0.
        -12    1    1    2    0    0 -0.39592803812E+02 -0.76459337929E+01 -0.52071985988E+01  0.40659135929E+02  0.00000000000E+00 0.  1.
         11    1    3    3    0    0  0.26125123431E+02 -0.25056255197E+01 -0.44123325986E+01  0.26613322092E+02  0.51100000000E-03 0. -1.
        -11    1    3    3    0    0  0.14670332683E+02  0.11539861240E+02  0.55853522671E+01  0.19482895541E+02  0.51100000000E-03 0.  1.
        -12    1    3    3    0    0 -0.12026523022E+01 -0.13883019278E+01  0.40341789303E+01  0.44326464380E+01  0.00000000000E+00 0.  1.
</event>
<event>
 7    1  0.6090311E-013  0.5052888E+02  0.7816164E-02  0.1300439E+00
        -11   -1    0    0    0    0  0.00000000000E+00  0.00000000000E+00  0.45593999997E+02  0.45594000000E+02  0.51100000000E-03 0.  1.
         11   -1    0    0    0    0 -0.00000000000E+00 -0.00000000000E+00 -0.45593999997E+02  0.45594000000E+02  0.51100000000E-03 0. -1.
    9900012    2    1    2    0    0 -0.19808882995E+02  0.31983127606E+02  0.15422451961E+02  0.50528876529E+02  0.30000050696E+02 0.  0.
        -12    1    1    2    0    0  0.19808882995E+02 -0.31983127606E+02 -0.15422451961E+02  0.40659123471E+02  0.00000000000E+00 0.  1.
         11    1    3    3    0    0 -0.10861798255E+02  0.45905074404E+01  0.14087987439E+02  0.18371793876E+02  0.51100000000E-03 0. -1.
        -11    1    3    3    0    0 -0.48395824848E+01  0.48295786280E+00  0.81054341941E+00  0.49306985124E+01  0.51100000000E-03 0.  1.
        -12    1    3    3    0    0 -0.41075022558E+01  0.26909662303E+02  0.52392110273E+00  0.27226384140E+02  0.00000000000E+00 0.  1.
</event>
<event>
 7    1  0.6090311E-013  0.5052890E+02  0.7816164E-02  0.1300439E+00
        -11   -1    0    0    0    0  0.00000000000E+00  0.00000000000E+00  0.45593999997E+02  0.45594000000E+02  0.51100000000E-03 0.  1.
         11   -1    0    0    0    0 -0.00000000000E+00 -0.00000000000E+00 -0.45593999997E+02  0.45594000000E+02  0.51100000000E-03 0. -1.
    9900012    2    1    2    0    0 -0.36771892634E+02  0.11821551769E+02 -0.12698077123E+02  0.50528900935E+02  0.30000124882E+02 0.  0.
        -12    1    1    2    0    0  0.36771892634E+02 -0.11821551769E+02  0.12698077123E+02  0.40659099065E+02  0.00000000000E+00 0.  1.
         11    1    3    3    0    0 -0.30635660363E+01  0.29798824175E+01 -0.26028639258E+01  0.50040020942E+01  0.51100000000E-03 0. -1.
        -11    1    3    3    0    0 -0.10962265614E+02  0.47755161887E+01  0.94656464057E+01  0.15250419155E+02  0.51100000000E-03 0.  1.
         12    1    3    3    0    0 -0.22746060984E+02  0.40661531631E+01 -0.19560859603E+02  0.30274479686E+02  0.00000000000E+00 0. -1.
</event>
<event>
 7    1  0.6090311E-013  0.5052886E+02  0.7816164E-02  0.1300439E+00
        -11   -1    0    0    0    0  0.00000000000E+00  0.00000000000E+00  0.45593999997E+02  0.45594000000E+02  0.51100000000E-03 0. -1.
         11   -1    0    0    0    0 -0.00000000000E+00 -0.00000000000E+00 -0.45593999997E+02  0.45594000000E+02  0.51100000000E-03 0.  1.
    9900012    2    1    2    0    0  0.10198951018E+02 -0.39306965940E+02 -0.20271933632E+01  0.50528859746E+02  0.29999999683E+02 0.  0.
        -12    1    1    2    0    0 -0.10198951018E+02  0.39306965940E+02  0.20271933632E+01  0.40659140254E+02  0.00000000000E+00 0.  1.
         11    1    3    3    0    0  0.95030649546E+01 -0.30857470345E+01  0.91743744887E+00  0.10033532281E+02  0.51100000000E-03 0. -1.
        -11    1    3    3    0    0  0.24423987839E+01 -0.10413174688E+01 -0.45142051104E+01  0.52371463538E+01  0.51100000000E-03 0.  1.
        -12    1    3    3    0    0 -0.17465127201E+01 -0.35179901437E+02  0.15695742983E+01  0.35258181111E+02  0.00000000000E+00 0.  1.
</event>
<event>
 7    1  0.6090311E-013  0.5052886E+02  0.7816164E-02  0.1300439E+00
        -11   -1    0    0    0    0  0.00000000000E+00  0.00000000000E+00  0.45593999997E+02  0.45594000000E+02  0.51100000000E-03 0.  1.
         11   -1    0    0    0    0 -0.00000000000E+00 -0.00000000000E+00 -0.45593999997E+02  0.45594000000E+02  0.51100000000E-03 0. -1.
    9900012    2    1    2    0    0  0.39331687897E+02 -0.31590470014E+01 -0.98084023391E+01  0.50528855798E+02  0.29999987684E+02 0.  0.
        -12    1    1    2    0    0 -0.39331687897E+02  0.31590470014E+01  0.98084023391E+01  0.40659144202E+02  0.00000000000E+00 0.  1.
         11    1    3    3    0    0  0.90055488184E+01 -0.28909247551E+01 -0.14734246165E+02  0.17508722563E+02  0.51100000000E-03 0.  1.
        -11    1    3    3    0    0  0.21804933070E+02  0.12488050457E+00 -0.21853517151E+01  0.21914526317E+02  0.51100000000E-03 0. -1.
        -12    1    3    3    0    0  0.85212060090E+01 -0.39300275091E+00  0.71111955412E+01  0.11105606919E+02  0.00000000000E+00 0.  1.
</event>
<event>
 7    1  0.6090311E-013  0.5052886E+02  0.7816164E-02  0.1300439E+00
        -11   -1    0    0    0    0  0.00000000000E+00  0.00000000000E+00  0.45593999997E+02  0.45594000000E+02  0.51100000000E-03 0. -1.
         11   -1    0    0    0    0 -0.00000000000E+00 -0.00000000000E+00 -0.45593999997E+02  0.45594000000E+02  0.51100000000E-03 0.  1.
    9900012    2    1    2    0    0 -0.21699995543E+02  0.23109354435E+02  0.25460425709E+02  0.50528863926E+02  0.30000012390E+02 0.  0.
        -12    1    1    2    0    0  0.21699995543E+02 -0.23109354435E+02 -0.25460425709E+02  0.40659136074E+02  0.00000000000E+00 0.  1.
         11    1    3    3    0    0 -0.10216638688E+02  0.13040640327E+02  0.24376756090E+02  0.29473110524E+02  0.51100000000E-03 0. -1.
        -11    1    3    3    0    0  0.19110104035E+01  0.67290489050E+01 -0.10953911699E+01  0.70803913737E+01  0.51100000000E-03 0.  1.
        -12    1    3    3    0    0 -0.13394367258E+02  0.33396652029E+01  0.21790607892E+01  0.13975362029E+02  0.00000000000E+00 0.  1.
</event>
<event>
 7    1  0.6090311E-013  0.5052886E+02  0.7816164E-02  0.1300439E+00
        -11   -1    0    0    0    0  0.00000000000E+00  0.00000000000E+00  0.45593999997E+02  0.45594000000E+02  0.51100000000E-03 0. -1.
         11   -1    0    0    0    0 -0.00000000000E+00 -0.00000000000E+00 -0.45593999997E+02  0.45594000000E+02  0.51100000000E-03 0.  1.
    9900012    2    1    2    0    0  0.19880774518E+02  0.33791364023E+02  0.10773316516E+02  0.50528858017E+02  0.29999994430E+02 0.  0.
        -12    1    1    2    0    0 -0.19880774518E+02 -0.33791364023E+02 -0.10773316516E+02  0.40659141983E+02  0.00000000000E+00 0.  1.
         11    1    3    3    0    0  0.11210384176E+01  0.11569436046E+02  0.29955272549E+01  0.12003406239E+02  0.51100000000E-03 0. -1.
        -11    1    3    3    0    0 -0.28057505131E+01  0.13740486692E+02  0.60944346125E+01  0.15291021679E+02  0.51100000000E-03 0.  1.
         12    1    3    3    0    0  0.21565486614E+02  0.84814412855E+01  0.16833546487E+01  0.23234430099E+02  0.00000000000E+00 0. -1.
</event>
<event>
 7    1  0.6090311E-013  0.5052886E+02  0.7816164E-02  0.1300439E+00
        -11   -1    0    0    0    0  0.00000000000E+00  0.00000000000E+00  0.45593999997E+02  0.45594000000E+02  0.51100000000E-03 0.  1.
         11   -1    0    0    0    0 -0.00000000000E+00 -0.00000000000E+00 -0.45593999997E+02  0.45594000000E+02  0.51100000000E-03 0. -1.
    9900012    2    1    2    0    0  0.18719427863E+02  0.20517996425E+02 -0.29694448067E+02  0.50528863231E+02  0.30000010276E+02 0.  0.
        -12    1    1    2    0    0 -0.18719427863E+02 -0.20517996425E+02  0.29694448067E+02  0.40659136769E+02  0.00000000000E+00 0.  1.
         11    1    3    3    0    0 -0.37173370562E+01  0.84037915185E+00 -0.71086529644E+01  0.80658402623E+01  0.51100000000E-03 0. -1.
        -11    1    3    3    0    0  0.11528173658E+02  0.20103788537E+02 -0.85952313739E+01  0.24717182365E+02  0.51100000000E-03 0.  1.
         12    1    3    3    0    0  0.10908591261E+02 -0.42617126420E+00 -0.13990563729E+02  0.17745840603E+02  0.00000000000E+00 0. -1.
</event>
<event>
 7    1  0.6090311E-013  0.5052886E+02  0.7816164E-02  0.1300439E+00
        -11   -1    0    0    0    0  0.00000000000E+00  0.00000000000E+00  0.45593999997E+02  0.45594000000E+02  0.51100000000E-03 0.  1.
         11   -1    0    0    0    0 -0.00000000000E+00 -0.00000000000E+00 -0.45593999997E+02  0.45594000000E+02  0.51100000000E-03 0. -1.
    9900012    2    1    2    0    0  0.67548944949E+01  0.10083273487E+02 -0.38805472243E+02  0.50528859824E+02  0.29999999922E+02 0.  0.
        -12    1    1    2    0    0 -0.67548944949E+01 -0.10083273487E+02  0.38805472243E+02  0.40659140176E+02  0.00000000000E+00 0.  1.
         11    1    3    3    0    0  0.79017583418E+00  0.35060840089E+01 -0.26042905905E+02  0.26289730907E+02  0.51100000000E-03 0. -1.
        -11    1    3    3    0    0 -0.18304894280E+01  0.25612259173E+00 -0.14005074276E+02  0.14126513939E+02  0.51100000000E-03 0.  1.
        -12    1    3    3    0    0  0.77952080886E+01  0.63210668864E+01  0.12425079383E+01  0.10112614979E+02  0.00000000000E+00 0.  1.
</event>
<event>
 7    1  0.6090311E-013  0.5052887E+02  0.7816164E-02  0.1300439E+00
        -11   -1    0    0    0    0  0.00000000000E+00  0.00000000000E+00  0.45593999997E+02  0.45594000000E+02  0.51100000000E-03 0. -1.
         11   -1    0    0    0    0 -0.00000000000E+00 -0.00000000000E+00 -0.45593999997E+02  0.45594000000E+02  0.51100000000E-03 0.  1.
    9900012    2    1    2    0    0  0.30361771949E+02 -0.21766055737E+02  0.16048877182E+02  0.50528870188E+02  0.30000031425E+02 0.  0.
        -12    1    1    2    0    0 -0.30361771949E+02  0.21766055737E+02 -0.16048877182E+02  0.40659129812E+02  0.00000000000E+00 0.  1.
         11    1    3    3    0    0  0.23845621123E+02 -0.60176305895E+01  0.94965535624E+01  0.26363043346E+02  0.51100000000E-03 0. -1.
        -11    1    3    3    0    0  0.76472281535E+01 -0.15305401976E+01  0.60909349810E+01  0.98955616784E+01  0.51100000000E-03 0.  1.
        -12    1    3    3    0    0 -0.11310773270E+01 -0.14217884950E+02  0.46138863828E+00  0.14270265164E+02  0.00000000000E+00 0.  1.
</event>
<event>
 7    1  0.6090311E-013  0.5052886E+02  0.7816164E-02  0.1300439E+00
        -11   -1    0    0    0    0  0.00000000000E+00  0.00000000000E+00  0.45593999997E+02  0.45594000000E+02  0.51100000000E-03 0.  1.
         11   -1    0    0    0    0 -0.00000000000E+00 -0.00000000000E+00 -0.45593999997E+02  0.45594000000E+02  0.51100000000E-03 0. -1.
    9900012    2    1    2    0    0  0.19935272016E+02  0.15962789468E+02 -0.31637639292E+02  0.50528856651E+02  0.29999990275E+02 0.  0.
        -12    1    1    2    0    0 -0.19935272016E+02 -0.15962789468E+02  0.31637639292E+02  0.40659143349E+02  0.00000000000E+00 0.  1.
         11    1    3    3    0    0  0.13012324208E+02  0.75057708369E+01 -0.25111688023E+02  0.29261819027E+02  0.51100000000E-03 0. -1.
        -11    1    3    3    0    0 -0.88312589863E+00  0.10416369197E+02 -0.78990772982E+01  0.13102521934E+02  0.51100000000E-03 0.  1.
        -12    1    3    3    0    0  0.78060737066E+01 -0.19593505659E+01  0.13731260296E+01  0.81645156896E+01  0.00000000000E+00 0.  1.
</event>
<event>
 7    1  0.6090311E-013  0.5052885E+02  0.7816164E-02  0.1300439E+00
        -11   -1    0    0    0    0  0.00000000000E+00  0.00000000000E+00  0.45593999997E+02  0.45594000000E+02  0.51100000000E-03 0.  1.
         11   -1    0    0    0    0 -0.00000000000E+00 -0.00000000000E+00 -0.45593999997E+02  0.45594000000E+02  0.51100000000E-03 0. -1.
    9900012    2    1    2    0    0  0.10500552039E+02  0.31003730111E+02 -0.24117909386E+02  0.50528850635E+02  0.29999971990E+02 0.  0.
        -12    1    1    2    0    0 -0.10500552039E+02 -0.31003730111E+02  0.24117909386E+02  0.40659149365E+02  0.00000000000E+00 0.  1.
         11    1    3    3    0    0 -0.71025092748E+01  0.12591000508E+02 -0.57203533862E+01  0.15546748050E+02  0.51100000000E-03 0. -1.
        -11    1    3    3    0    0 -0.10197384180E+01  0.18188177930E+01 -0.74603896532E+01  0.77463138746E+01  0.51100000000E-03 0.  1.
        -12    1    3    3    0    0  0.18622799732E+02  0.16593911810E+02 -0.10937166347E+02  0.27235788711E+02  0.00000000000E+00 0.  1.
</event>
<event>
 7    1  0.6090311E-013  0.5052886E+02  0.7816164E-02  0.1300439E+00
        -11   -1    0    0    0    0  0.00000000000E+00  0.00000000000E+00  0.45593999997E+02  0.45594000000E+02  0.51100000000E-03 0.  1.
         11   -1    0    0    0    0 -0.00000000000E+00 -0.00000000000E+00 -0.45593999997E+02  0.45594000000E+02  0.51100000000E-03 0. -1.
    9900012    2    1    2    0    0 -0.17978910823E+02  0.43888215822E+01 -0.36203075076E+02  0.50528860385E+02  0.30000001627E+02 0.  0.
        -12    1    1    2    0    0  0.17978910823E+02 -0.43888215822E+01  0.36203075076E+02  0.40659139615E+02  0.00000000000E+00 0.  1.
         11    1    3    3    0    0 -0.11480202807E+02  0.59945675107E+01 -0.17806017577E+02  0.22017814568E+02  0.51100000000E-03 0. -1.
        -11    1    3    3    0    0 -0.10003360721E+02 -0.21198991740E+00 -0.21443361587E+02  0.23662838415E+02  0.51100000000E-03 0.  1.
        -12    1    3    3    0    0  0.35046527063E+01 -0.13937560111E+01  0.30463040885E+01  0.48482074017E+01  0.00000000000E+00 0.  1.
</event>
<event>
 7    1  0.6090311E-013  0.5052887E+02  0.7816164E-02  0.1300439E+00
        -11   -1    0    0    0    0  0.00000000000E+00  0.00000000000E+00  0.45593999997E+02  0.45594000000E+02  0.51100000000E-03 0. -1.
         11   -1    0    0    0    0 -0.00000000000E+00 -0.00000000000E+00 -0.45593999997E+02  0.45594000000E+02  0.51100000000E-03 0.  1.
    9900012    2    1    2    0    0 -0.32557071165E+02  0.10148680247E+02 -0.22140594460E+02  0.50528874129E+02  0.30000043402E+02 0.  0.
        -12    1    1    2    0    0  0.32557071165E+02 -0.10148680247E+02  0.22140594460E+02  0.40659125871E+02  0.00000000000E+00 0.  1.
         11    1    3    3    0    0 -0.15616487413E+02  0.62516858278E+01 -0.27954669068E+01  0.17052064106E+02  0.51100000000E-03 0. -1.
        -11    1    3    3    0    0 -0.19784807879E+02 -0.16353938277E+01 -0.99429716718E+01  0.22203058836E+02  0.51100000000E-03 0.  1.
        -12    1    3    3    0    0  0.28442241266E+01  0.55323882465E+01 -0.94021558813E+01  0.11273751186E+02  0.00000000000E+00 0.  1.
</event>
<event>
 7    1  0.6090311E-013  0.5052886E+02  0.7816164E-02  0.1300439E+00
        -11   -1    0    0    0    0  0.00000000000E+00  0.00000000000E+00  0.45593999997E+02  0.45594000000E+02  0.51100000000E-03 0.  1.
         11   -1    0    0    0    0 -0.00000000000E+00 -0.00000000000E+00 -0.45593999997E+02  0.45594000000E+02  0.51100000000E-03 0. -1.
    9900012    2    1    2    0    0  0.36448959797E+02 -0.17416651865E+02  0.46150968603E+01  0.50528861402E+02  0.30000004718E+02 0.  0.
        -12    1    1    2    0    0 -0.36448959797E+02  0.17416651865E+02 -0.46150968603E+01  0.40659138598E+02  0.00000000000E+00 0.  1.
         11    1    3    3    0    0  0.16657612983E+02 -0.73118445876E+00 -0.79774371915E+01  0.18483782227E+02  0.51100000000E-03 0. -1.
        -11    1    3    3    0    0  0.14609730005E+02 -0.38844580356E+01  0.96205809228E+01  0.17918950935E+02  0.51100000000E-03 0.  1.
        -12    1    3    3    0    0  0.51816168096E+01 -0.12801009371E+02  0.29719531291E+01  0.14126128241E+02  0.00000000000E+00 0.  1.
</event>
<event>
 7    1  0.6090311E-013  0.5052887E+02  0.7816164E-02  0.1300439E+00
        -11   -1    0    0    0    0  0.00000000000E+00  0.00000000000E+00  0.45593999997E+02  0.45594000000E+02  0.51100000000E-03 0.  1.
         11   -1    0    0    0    0 -0.00000000000E+00 -0.00000000000E+00 -0.45593999997E+02  0.45594000000E+02  0.51100000000E-03 0. -1.
    9900012    2    1    2    0    0  0.83796121226E+01  0.92294900629E+01 -0.38700946777E+02  0.50528872272E+02  0.30000037759E+02 0.  0.
        -12    1    1    2    0    0 -0.83796121226E+01 -0.92294900629E+01  0.38700946777E+02  0.40659127728E+02  0.00000000000E+00 0.  1.
         11    1    3    3    0    0 -0.20226284083E+01  0.10120109617E+02 -0.26132070285E+02  0.28096133933E+02  0.51100000000E-03 0. -1.
        -11    1    3    3    0    0  0.23564506528E+00 -0.31575873171E+01  0.25551744439E+01  0.40687593886E+01  0.51100000000E-03 0.  1.
         12    1    3    3    0    0  0.10166595466E+02  0.22669677629E+01 -0.15124050936E+02  0.18363978951E+02  0.00000000000E+00 0. -1.
</event>
<event>
 7    1  0.6090311E-013  0.5052886E+02  0.7816164E-02  0.1300439E+00
        -11   -1    0    0    0    0  0.00000000000E+00  0.00000000000E+00  0.45593999997E+02  0.45594000000E+02  0.51100000000E-03 0.  1.
         11   -1    0    0    0    0 -0.00000000000E+00 -0.00000000000E+00 -0.45593999997E+02  0.45594000000E+02  0.51100000000E-03 0. -1.
    9900012    2    1    2    0    0  0.41662397095E+01 -0.14152301208E+02 -0.37888267672E+02  0.50528855765E+02  0.29999987582E+02 0.  0.
        -12    1    1    2    0    0 -0.41662397095E+01  0.14152301208E+02  0.37888267672E+02  0.40659144235E+02  0.00000000000E+00 0.  1.
         11    1    3    3    0    0  0.42236398080E+01 -0.57206087695E+01 -0.18077803261E+02  0.19426051295E+02  0.51100000000E-03 0. -1.
        -11    1    3    3    0    0  0.59393563246E+01 -0.14096026572E+02 -0.15574491152E+02  0.21829766228E+02  0.51100000000E-03 0.  1.
        -12    1    3    3    0    0 -0.59967564232E+01  0.56643341334E+01 -0.42359732591E+01  0.92730382414E+01  0.00000000000E+00 0.  1.
</event>
<event>
 7    1  0.6090311E-013  0.5052882E+02  0.7816164E-02  0.1300439E+00
        -11   -1    0    0    0    0  0.00000000000E+00  0.00000000000E+00  0.45593999997E+02  0.45594000000E+02  0.51100000000E-03 0.  1.
         11   -1    0    0    0    0 -0.00000000000E+00 -0.00000000000E+00 -0.45593999997E+02  0.45594000000E+02  0.51100000000E-03 0. -1.
    9900012    2    1    2    0    0  0.28844803016E+02  0.23095870695E+02 -0.16962511190E+02  0.50528822807E+02  0.29999887403E+02 0.  0.
        -12    1    1    2    0    0 -0.28844803016E+02 -0.23095870695E+02  0.16962511190E+02  0.40659177193E+02  0.00000000000E+00 0.  1.
         11    1    3    3    0    0  0.17850691642E+02  0.13984428990E+02 -0.83852265417E+01  0.24176920207E+02  0.51100000000E-03 0. -1.
        -11    1    3    3    0    0 -0.57858053764E+00  0.10049436479E+02 -0.10542229458E+02  0.14576163116E+02  0.51100000000E-03 0.  1.
         12    1    3    3    0    0  0.11572691911E+02 -0.93799477395E+00  0.19649448105E+01  0.11775739483E+02  0.00000000000E+00 0. -1.
</event>
<event>
 7    1  0.6090311E-013  0.5052885E+02  0.7816164E-02  0.1300439E+00
        -11   -1    0    0    0    0  0.00000000000E+00  0.00000000000E+00  0.45593999997E+02  0.45594000000E+02  0.51100000000E-03 0. -1.
         11   -1    0    0    0    0 -0.00000000000E+00 -0.00000000000E+00 -0.45593999997E+02  0.45594000000E+02  0.51100000000E-03 0.  1.
    9900012    2    1    2    0    0  0.93900737056E+01  0.38718502469E+02 -0.81160520550E+01  0.50528853199E+02  0.29999979783E+02 0.  0.
        -12    1    1    2    0    0 -0.93900737056E+01 -0.38718502469E+02  0.81160520550E+01  0.40659146801E+02  0.00000000000E+00 0.  1.
         11    1    3    3    0    0  0.39633362744E+01  0.21482361254E+02  0.37369172299E+01  0.22162229809E+02  0.51100000000E-03 0. -1.
        -11    1    3    3    0    0 -0.49563466583E+01  0.13578466481E+02 -0.88771062548E+01  0.16962993246E+02  0.51100000000E-03 0.  1.
        -12    1    3    3    0    0  0.10383084090E+02  0.36576747348E+01 -0.29758630301E+01  0.11403630144E+02  0.00000000000E+00 0.  1.
</event>
<event>
 7    1  0.6090311E-013  0.5052885E+02  0.7816164E-02  0.1300439E+00
        -11   -1    0    0    0    0  0.00000000000E+00  0.00000000000E+00  0.45593999997E+02  0.45594000000E+02  0.51100000000E-03 0. -1.
         11   -1    0    0    0    0 -0.00000000000E+00 -0.00000000000E+00 -0.45593999997E+02  0.45594000000E+02  0.51100000000E-03 0.  1.
    9900012    2    1    2    0    0  0.23852333598E+02 -0.12736022545E+02  0.30364884215E+02  0.50528852422E+02  0.29999977423E+02 0.  0.
        -12    1    1    2    0    0 -0.23852333598E+02  0.12736022545E+02 -0.30364884215E+02  0.40659147578E+02  0.00000000000E+00 0.  1.
         11    1    3    3    0    0  0.11833909149E+02  0.69327290937E+01  0.47267039141E+01  0.14506752517E+02  0.51100000000E-03 0. -1.
        -11    1    3    3    0    0 -0.14308086209E+01  0.35038459036E-01  0.17637814276E+01  0.22714238241E+01  0.51100000000E-03 0.  1.
         12    1    3    3    0    0  0.13449233070E+02 -0.19703790098E+02  0.23874398873E+02  0.33750676081E+02  0.00000000000E+00 0. -1.
</event>
<event>
 7    1  0.6090311E-013  0.5052887E+02  0.7816164E-02  0.1300439E+00
        -11   -1    0    0    0    0  0.00000000000E+00  0.00000000000E+00  0.45593999997E+02  0.45594000000E+02  0.51100000000E-03 0.  1.
         11   -1    0    0    0    0 -0.00000000000E+00 -0.00000000000E+00 -0.45593999997E+02  0.45594000000E+02  0.51100000000E-03 0. -1.
    9900012    2    1    2    0    0  0.46070047988E+01 -0.86411382676E+01 -0.39462278931E+02  0.50528865452E+02  0.30000017027E+02 0.  0.
        -12    1    1    2    0    0 -0.46070047988E+01  0.86411382676E+01  0.39462278931E+02  0.40659134548E+02  0.00000000000E+00 0.  1.
         11    1    3    3    0    0  0.43058723502E+01 -0.89280683216E+01 -0.25423539021E+01  0.10233010519E+02  0.51100000000E-03 0. -1.
        -11    1    3    3    0    0  0.61565978215E+01 -0.10954155367E+01 -0.55713879081E+01  0.83752012166E+01  0.51100000000E-03 0.  1.
         12    1    3    3    0    0 -0.58554653730E+01  0.13823455907E+01 -0.31348537121E+02  0.31920653716E+02  0.00000000000E+00 0. -1.
</event>
<event>
 7    1  0.6090311E-013  0.5052886E+02  0.7816164E-02  0.1300439E+00
        -11   -1    0    0    0    0  0.00000000000E+00  0.00000000000E+00  0.45593999997E+02  0.45594000000E+02  0.51100000000E-03 0.  1.
         11   -1    0    0    0    0 -0.00000000000E+00 -0.00000000000E+00 -0.45593999997E+02  0.45594000000E+02  0.51100000000E-03 0. -1.
    9900012    2    1    2    0    0 -0.18094421989E+02  0.15131442671E+02 -0.33117926651E+02  0.50528859206E+02  0.29999998044E+02 0.  0.
        -12    1    1    2    0    0  0.18094421989E+02 -0.15131442671E+02  0.33117926651E+02  0.40659140794E+02  0.00000000000E+00 0.  1.
         11    1    3    3    0    0 -0.67866797248E+01  0.37990594469E+01 -0.92987529583E+01  0.12122651575E+02  0.51100000000E-03 0. -1.
        -11    1    3    3    0    0 -0.16583367791E+02  0.13972847912E+01 -0.67395531504E+01  0.17955001226E+02  0.51100000000E-03 0.  1.
        -12    1    3    3    0    0  0.52756255271E+01  0.99350984331E+01 -0.17079620542E+02  0.20451206406E+02  0.00000000000E+00 0.  1.
</event>
<event>
 7    1  0.6090311E-013  0.5052885E+02  0.7816164E-02  0.1300439E+00
        -11   -1    0    0    0    0  0.00000000000E+00  0.00000000000E+00  0.45593999997E+02  0.45594000000E+02  0.51100000000E-03 0. -1.
         11   -1    0    0    0    0 -0.00000000000E+00 -0.00000000000E+00 -0.45593999997E+02  0.45594000000E+02  0.51100000000E-03 0.  1.
    9900012    2    1    2    0    0 -0.87164641281E+01  0.30732806488E+01  0.39594756166E+02  0.50528849533E+02  0.29999968640E+02 0.  0.
        -12    1    1    2    0    0  0.87164641281E+01 -0.30732806488E+01 -0.39594756166E+02  0.40659150467E+02  0.00000000000E+00 0.  1.
         11    1    3    3    0    0 -0.12542002938E+01 -0.82082155008E+01  0.11073226989E+02  0.13840671093E+02  0.51100000000E-03 0. -1.
        -11    1    3    3    0    0 -0.25920788583E+01  0.41199628429E+01 -0.17727034450E+01  0.51802938526E+01  0.51100000000E-03 0.  1.
         12    1    3    3    0    0 -0.48701849760E+01  0.71615333067E+01  0.30294232622E+02  0.31507884587E+02  0.00000000000E+00 0. -1.
</event>
<event>
 7    1  0.6090311E-013  0.5052888E+02  0.7816164E-02  0.1300439E+00
        -11   -1    0    0    0    0  0.00000000000E+00  0.00000000000E+00  0.45593999997E+02  0.45594000000E+02  0.51100000000E-03 0.  1.
         11   -1    0    0    0    0 -0.00000000000E+00 -0.00000000000E+00 -0.45593999997E+02  0.45594000000E+02  0.51100000000E-03 0. -1.
    9900012    2    1    2    0    0  0.27781317819E+02 -0.21330701007E+02 -0.20648575820E+02  0.50528879146E+02  0.30000058652E+02 0.  0.
        -12    1    1    2    0    0 -0.27781317819E+02  0.21330701007E+02  0.20648575820E+02  0.40659120854E+02  0.00000000000E+00 0.  1.
         11    1    3    3    0    0 -0.36822328012E+01 -0.44491252388E+01 -0.59930175569E+01  0.83228488807E+01  0.51100000000E-03 0. -1.
        -11    1    3    3    0    0  0.80496148764E+00 -0.50484644962E+01 -0.66394385660E+01  0.83795645173E+01  0.51100000000E-03 0.  1.
         12    1    3    3    0    0  0.30658589133E+02 -0.11833111272E+02 -0.80161196973E+01  0.33826465748E+02  0.00000000000E+00 0. -1.
</event>
<event>
 7    1  0.6090311E-013  0.5052885E+02  0.7816164E-02  0.1300439E+00
        -11   -1    0    0    0    0  0.00000000000E+00  0.00000000000E+00  0.45593999997E+02  0.45594000000E+02  0.51100000000E-03 0.  1.
         11   -1    0    0    0    0 -0.00000000000E+00 -0.00000000000E+00 -0.45593999997E+02  0.45594000000E+02  0.51100000000E-03 0. -1.
    9900012    2    1    2    0    0  0.41434229208E+01 -0.66343683714E+01 -0.39899672436E+02  0.50528847799E+02  0.29999963370E+02 0.  0.
        -12    1    1    2    0    0 -0.41434229208E+01  0.66343683714E+01  0.39899672436E+02  0.40659152201E+02  0.00000000000E+00 0.  1.
         11    1    3    3    0    0 -0.20509329175E+01  0.96857113091E+00 -0.37157539557E+02  0.37226700123E+02  0.51100000000E-03 0. -1.
        -11    1    3    3    0    0  0.46925397009E+01 -0.19999651671E+01 -0.49381222583E+01  0.70996366958E+01  0.51100000000E-03 0.  1.
        -12    1    3    3    0    0  0.15018161375E+01 -0.56029743352E+01  0.21959893785E+01  0.62025109804E+01  0.00000000000E+00 0.  1.
</event>
<event>
 7    1  0.6090311E-013  0.5052882E+02  0.7816164E-02  0.1300439E+00
        -11   -1    0    0    0    0  0.00000000000E+00  0.00000000000E+00  0.45593999997E+02  0.45594000000E+02  0.51100000000E-03 0. -1.
         11   -1    0    0    0    0 -0.00000000000E+00 -0.00000000000E+00 -0.45593999997E+02  0.45594000000E+02  0.51100000000E-03 0.  1.
    9900012    2    1    2    0    0 -0.38737216087E+02 -0.12007912140E+02 -0.28994592848E+01  0.50528822337E+02  0.29999885975E+02 0.  0.
        -12    1    1    2    0    0  0.38737216087E+02  0.12007912140E+02  0.28994592848E+01  0.40659177663E+02  0.00000000000E+00 0.  1.
         11    1    3    3    0    0 -0.17308586626E+02 -0.17601583077E+02  0.44337999642E+01  0.25081098066E+02  0.51100000000E-03 0. -1.
        -11    1    3    3    0    0 -0.14276583146E+02  0.11052537206E+01 -0.84913147183E-01  0.14319553856E+02  0.51100000000E-03 0.  1.
        -12    1    3    3    0    0 -0.71520463141E+01  0.44884172160E+01 -0.72483461019E+01  0.11128170416E+02  0.00000000000E+00 0.  1.
</event>
<event>
 7    1  0.6090311E-013  0.5052886E+02  0.7816164E-02  0.1300439E+00
        -11   -1    0    0    0    0  0.00000000000E+00  0.00000000000E+00  0.45593999997E+02  0.45594000000E+02  0.51100000000E-03 0.  1.
         11   -1    0    0    0    0 -0.00000000000E+00 -0.00000000000E+00 -0.45593999997E+02  0.45594000000E+02  0.51100000000E-03 0. -1.
    9900012    2    1    2    0    0 -0.31333938578E+02  0.18550139567E+02 -0.18089835966E+02  0.50528861420E+02  0.30000004772E+02 0.  0.
        -12    1    1    2    0    0  0.31333938578E+02 -0.18550139567E+02  0.18089835966E+02  0.40659138580E+02  0.00000000000E+00 0.  1.
         11    1    3    3    0    0 -0.31401067977E+02  0.19394731356E+02 -0.14233134160E+02  0.39557107867E+02  0.51100000000E-03 0. -1.
        -11    1    3    3    0    0 -0.38860056953E+01  0.31291465535E+00 -0.53242815023E+01  0.65990097455E+01  0.51100000000E-03 0.  1.
        -12    1    3    3    0    0  0.39531350942E+01 -0.11575064444E+01  0.14675796961E+01  0.43727438076E+01  0.00000000000E+00 0.  1.
</event>
<event>
 7    1  0.6090311E-013  0.5052886E+02  0.7816164E-02  0.1300439E+00
        -11   -1    0    0    0    0  0.00000000000E+00  0.00000000000E+00  0.45593999997E+02  0.45594000000E+02  0.51100000000E-03 0.  1.
         11   -1    0    0    0    0 -0.00000000000E+00 -0.00000000000E+00 -0.45593999997E+02  0.45594000000E+02  0.51100000000E-03 0. -1.
    9900012    2    1    2    0    0 -0.39914556545E+02 -0.28850443801E+01  0.71882347471E+01  0.50528855592E+02  0.29999987056E+02 0.  0.
        -12    1    1    2    0    0  0.39914556545E+02  0.28850443801E+01 -0.71882347471E+01  0.40659144408E+02  0.00000000000E+00 0.  1.
         11    1    3    3    0    0 -0.32875487692E+01  0.67234834173E+01  0.48637891047E+01  0.89257857295E+01  0.51100000000E-03 0. -1.
        -11    1    3    3    0    0 -0.27692598238E+01 -0.31340896999E+01 -0.48384977473E+01  0.63954967696E+01  0.51100000000E-03 0.  1.
         12    1    3    3    0    0 -0.33857747952E+02 -0.64744380976E+01  0.71629433897E+01  0.35207573092E+02  0.00000000000E+00 0. -1.
</event>
<event>
 7    1  0.6090311E-013  0.5052884E+02  0.7816164E-02  0.1300439E+00
        -11   -1    0    0    0    0  0.00000000000E+00  0.00000000000E+00  0.45593999997E+02  0.45594000000E+02  0.51100000000E-03 0.  1.
         11   -1    0    0    0    0 -0.00000000000E+00 -0.00000000000E+00 -0.45593999997E+02  0.45594000000E+02  0.51100000000E-03 0. -1.
    9900012    2    1    2    0    0  0.32487672590E+02 -0.15573564103E+02 -0.18846285063E+02  0.50528840763E+02  0.29999941983E+02 0.  0.
        -12    1    1    2    0    0 -0.32487672590E+02  0.15573564103E+02  0.18846285063E+02  0.40659159237E+02  0.00000000000E+00 0.  1.
         11    1    3    3    0    0  0.19211007028E+02  0.99267718198E+00 -0.11489765101E+01  0.19270919706E+02  0.51100000000E-03 0. -1.
        -11    1    3    3    0    0  0.11892096420E+02 -0.59361702758E+01 -0.40315744171E+01  0.13889336462E+02  0.51100000000E-03 0.  1.
         12    1    3    3    0    0  0.13845691415E+01 -0.10630071009E+02 -0.13665734136E+02  0.17368584595E+02  0.00000000000E+00 0. -1.
</event>
<event>
 7    1  0.6090311E-013  0.5052886E+02  0.7816164E-02  0.1300439E+00
        -11   -1    0    0    0    0  0.00000000000E+00  0.00000000000E+00  0.45593999997E+02  0.45594000000E+02  0.51100000000E-03 0. -1.
         11   -1    0    0    0    0 -0.00000000000E+00 -0.00000000000E+00 -0.45593999997E+02  0.45594000000E+02  0.51100000000E-03 0.  1.
    9900012    2    1    2    0    0  0.20058726848E+02  0.25204070940E+02  0.24810649460E+02  0.50528855379E+02  0.29999986410E+02 0.  0.
        -12    1    1    2    0    0 -0.20058726848E+02 -0.25204070940E+02 -0.24810649460E+02  0.40659144621E+02  0.00000000000E+00 0.  1.
         11    1    3    3    0    0  0.36359758787E+01  0.81706920906E+01  0.33569336944E+01  0.95524621915E+01  0.51100000000E-03 0. -1.
        -11    1    3    3    0    0  0.97511675433E+01  0.82384410176E+01 -0.38799424484E+01  0.13342081267E+02  0.51100000000E-03 0.  1.
        -12    1    3    3    0    0  0.66715834255E+01  0.87949378319E+01  0.25333658214E+02  0.27634311921E+02  0.00000000000E+00 0.  1.
</event>
<event>
 7    1  0.6090311E-013  0.5052887E+02  0.7816164E-02  0.1300439E+00
        -11   -1    0    0    0    0  0.00000000000E+00  0.00000000000E+00  0.45593999997E+02  0.45594000000E+02  0.51100000000E-03 0.  1.
         11   -1    0    0    0    0 -0.00000000000E+00 -0.00000000000E+00 -0.45593999997E+02  0.45594000000E+02  0.51100000000E-03 0. -1.
    9900012    2    1    2    0    0 -0.11068386892E+02  0.23171158614E+02 -0.31523844200E+02  0.50528873926E+02  0.30000042787E+02 0.  0.
        -12    1    1    2    0    0  0.11068386892E+02 -0.23171158614E+02  0.31523844200E+02  0.40659126074E+02  0.00000000000E+00 0.  1.
         11    1    3    3    0    0 -0.56938664745E+01  0.45523251997E+01 -0.44744605762E+01  0.85536295139E+01  0.51100000000E-03 0. -1.
        -11    1    3    3    0    0 -0.22546477193E+01 -0.26768679560E+01  0.32722751196E+01  0.47913299940E+01  0.51100000000E-03 0.  1.
         12    1    3    3    0    0 -0.31198726983E+01  0.21295701370E+02 -0.30321658744E+02  0.37183914418E+02  0.00000000000E+00 0. -1.
</event>
<event>
 7    1  0.6090311E-013  0.5052885E+02  0.7816164E-02  0.1300439E+00
        -11   -1    0    0    0    0  0.00000000000E+00  0.00000000000E+00  0.45593999997E+02  0.45594000000E+02  0.51100000000E-03 0. -1.
         11   -1    0    0    0    0 -0.00000000000E+00 -0.00000000000E+00 -0.45593999997E+02  0.45594000000E+02  0.51100000000E-03 0.  1.
    9900012    2    1    2    0    0  0.13000417109E+02 -0.37701685277E+02  0.79207458611E+01  0.50528854255E+02  0.29999982994E+02 0.  0.
        -12    1    1    2    0    0 -0.13000417109E+02  0.37701685277E+02 -0.79207458611E+01  0.40659145745E+02  0.00000000000E+00 0.  1.
         11    1    3    3    0    0  0.10676299053E+02 -0.59118557400E+01 -0.24575434994E+01  0.12448811994E+02  0.51100000000E-03 0. -1.
        -11    1    3    3    0    0  0.54016312349E+01 -0.25920868933E+01  0.58494284464E+01  0.83733116430E+01  0.51100000000E-03 0.  1.
         12    1    3    3    0    0 -0.30775131789E+01 -0.29197742643E+02  0.45288609141E+01  0.29706730618E+02  0.00000000000E+00 0. -1.
</event>
<event>
 7    1 -0.6582633E-013  0.5052885E+02  0.7816164E-02  0.1300439E+00
        -11   -1    0    0    0    0  0.00000000000E+00  0.00000000000E+00  0.45593999997E+02  0.45594000000E+02  0.51100000000E-03 0.  1.
         11   -1    0    0    0    0 -0.00000000000E+00 -0.00000000000E+00 -0.45593999997E+02  0.45594000000E+02  0.51100000000E-03 0. -1.
    9900012    2    1    2    0    0  0.61635314476E+01 -0.32600145248E+02 -0.23503360901E+02  0.50528848954E+02  0.29999966882E+02 0.  0.
        -12    1    1    2    0    0 -0.61635314476E+01  0.32600145248E+02  0.23503360901E+02  0.40659151046E+02  0.00000000000E+00 0.  1.
         11    1    3    3    0    0 -0.20104541179E+01  0.46441595161E+01 -0.53745141121E+01  0.73821098321E+01  0.51100000000E-03 0. -1.
        -11    1    3    3    0    0  0.23822170775E+01 -0.28212591802E+01  0.24281862026E+00  0.37004624994E+01  0.51100000000E-03 0.  1.
         12    1    3    3    0    0  0.57917684879E+01 -0.34423045584E+02 -0.18371665409E+02  0.39446276623E+02  0.00000000000E+00 0. -1.
</event>
<event>
 7    1  0.6090311E-013  0.5052886E+02  0.7816164E-02  0.1300439E+00
        -11   -1    0    0    0    0  0.00000000000E+00  0.00000000000E+00  0.45593999997E+02  0.45594000000E+02  0.51100000000E-03 0. -1.
         11   -1    0    0    0    0 -0.00000000000E+00 -0.00000000000E+00 -0.45593999997E+02  0.45594000000E+02  0.51100000000E-03 0.  1.
    9900012    2    1    2    0    0 -0.29682283326E+02  0.10749796285E+02  0.25623613961E+02  0.50528860117E+02  0.30000000811E+02 0.  0.
        -12    1    1    2    0    0  0.29682283326E+02 -0.10749796285E+02 -0.25623613961E+02  0.40659139883E+02  0.00000000000E+00 0.  1.
         11    1    3    3    0    0 -0.26821756962E+01  0.11796172621E+01  0.12982324213E+02  0.13308880704E+02  0.51100000000E-03 0. -1.
        -11    1    3    3    0    0  0.24575043725E+01  0.35171225528E+01  0.41543616164E+01  0.59722859521E+01  0.51100000000E-03 0.  1.
         12    1    3    3    0    0 -0.29457612002E+02  0.60530564704E+01  0.84869281313E+01  0.31247693461E+02  0.00000000000E+00 0. -1.
</event>
<event>
 7    1  0.6090311E-013  0.5052887E+02  0.7816164E-02  0.1300439E+00
        -11   -1    0    0    0    0  0.00000000000E+00  0.00000000000E+00  0.45593999997E+02  0.45594000000E+02  0.51100000000E-03 0. -1.
         11   -1    0    0    0    0 -0.00000000000E+00 -0.00000000000E+00 -0.45593999997E+02  0.45594000000E+02  0.51100000000E-03 0.  1.
    9900012    2    1    2    0    0  0.37225832356E+02  0.52532042360E+01  0.15485683920E+02  0.50528866269E+02  0.30000019510E+02 0.  0.
        -12    1    1    2    0    0 -0.37225832356E+02 -0.52532042360E+01 -0.15485683920E+02  0.40659133731E+02  0.00000000000E+00 0.  1.
         11    1    3    3    0    0  0.11084932950E+02 -0.43576876525E+00 -0.41073812373E+00  0.11101096297E+02  0.51100000000E-03 0. -1.
        -11    1    3    3    0    0  0.24733603092E+02  0.71538954992E+01  0.24891199737E+01  0.25867451773E+02  0.51100000000E-03 0.  1.
         12    1    3    3    0    0  0.14072963130E+01 -0.14649224979E+01  0.13407302070E+02  0.13560318198E+02  0.00000000000E+00 0. -1.
</event>
<event>
 7    1  0.6090311E-013  0.5052884E+02  0.7816164E-02  0.1300439E+00
        -11   -1    0    0    0    0  0.00000000000E+00  0.00000000000E+00  0.45593999997E+02  0.45594000000E+02  0.51100000000E-03 0.  1.
         11   -1    0    0    0    0 -0.00000000000E+00 -0.00000000000E+00 -0.45593999997E+02  0.45594000000E+02  0.51100000000E-03 0. -1.
    9900012    2    1    2    0    0  0.13963543356E+01  0.40425555464E+02  0.41220935801E+01  0.50528843645E+02  0.29999950743E+02 0.  0.
        -12    1    1    2    0    0 -0.13963543356E+01 -0.40425555464E+02 -0.41220935801E+01  0.40659156355E+02  0.00000000000E+00 0.  1.
         11    1    3    3    0    0 -0.26534288058E+01 -0.11667174412E+01  0.47285913911E+01  0.55463042488E+01  0.51100000000E-03 0. -1.
        -11    1    3    3    0    0 -0.14621984637E+01  0.92983706397E+01 -0.68379645928E+01  0.11634237445E+02  0.51100000000E-03 0.  1.
        -12    1    3    3    0    0  0.55119816051E+01  0.32293902266E+02  0.62314667818E+01  0.33348301951E+02  0.00000000000E+00 0.  1.
</event>
<event>
 7    1  0.6090311E-013  0.5052886E+02  0.7816164E-02  0.1300439E+00
        -11   -1    0    0    0    0  0.00000000000E+00  0.00000000000E+00  0.45593999997E+02  0.45594000000E+02  0.51100000000E-03 0. -1.
         11   -1    0    0    0    0 -0.00000000000E+00 -0.00000000000E+00 -0.45593999997E+02  0.45594000000E+02  0.51100000000E-03 0.  1.
    9900012    2    1    2    0    0 -0.34244324420E+01  0.35032108622E+02  0.20351659891E+02  0.50528862867E+02  0.30000009170E+02 0.  0.
        -12    1    1    2    0    0  0.34244324420E+01 -0.35032108622E+02 -0.20351659891E+02  0.40659137133E+02  0.00000000000E+00 0.  1.
         11    1    3    3    0    0 -0.11215360982E+01  0.10027728427E+02  0.71714548285E+01  0.12379133461E+02  0.51100000000E-03 0. -1.
        -11    1    3    3    0    0 -0.28076805041E+01 -0.19796167865E+01  0.10477137342E+02  0.11025985651E+02  0.51100000000E-03 0.  1.
         12    1    3    3    0    0  0.50478416026E+00  0.26983996982E+02  0.27030677205E+01  0.27123743754E+02  0.00000000000E+00 0. -1.
</event>
<event>
 7    1  0.6090311E-013  0.5052886E+02  0.7816164E-02  0.1300439E+00
        -11   -1    0    0    0    0  0.00000000000E+00  0.00000000000E+00  0.45593999997E+02  0.45594000000E+02  0.51100000000E-03 0.  1.
         11   -1    0    0    0    0 -0.00000000000E+00 -0.00000000000E+00 -0.45593999997E+02  0.45594000000E+02  0.51100000000E-03 0. -1.
    9900012    2    1    2    0    0  0.20087167600E+02  0.37074095795E+01 -0.35155747583E+02  0.50528858641E+02  0.29999996324E+02 0.  0.
        -12    1    1    2    0    0 -0.20087167600E+02 -0.37074095795E+01  0.35155747583E+02  0.40659141359E+02  0.00000000000E+00 0.  1.
         11    1    3    3    0    0  0.12772910821E+02 -0.55279635060E+01 -0.14627086254E+02  0.20190524607E+02  0.51100000000E-03 0. -1.
        -11    1    3    3    0    0  0.23203581262E+01 -0.59296817244E+01 -0.55829897801E+01  0.84684687124E+01  0.51100000000E-03 0.  1.
         12    1    3    3    0    0  0.49938986531E+01  0.15165054810E+02 -0.14945671548E+02  0.21869865321E+02  0.00000000000E+00 0. -1.
</event>
<event>
 7    1  0.6090311E-013  0.5052886E+02  0.7816164E-02  0.1300439E+00
        -11   -1    0    0    0    0  0.00000000000E+00  0.00000000000E+00  0.45593999997E+02  0.45594000000E+02  0.51100000000E-03 0. -1.
         11   -1    0    0    0    0 -0.00000000000E+00 -0.00000000000E+00 -0.45593999997E+02  0.45594000000E+02  0.51100000000E-03 0.  1.
    9900012    2    1    2    0    0 -0.38151360961E-01  0.21740800785E+02 -0.34358430222E+02  0.50528860786E+02  0.30000002845E+02 0.  0.
        -12    1    1    2    0    0  0.38151360961E-01 -0.21740800785E+02  0.34358430222E+02  0.40659139214E+02  0.00000000000E+00 0.  1.
         11    1    3    3    0    0 -0.59898659197E+01  0.19068434745E+02 -0.96174818891E+01  0.22180614408E+02  0.51100000000E-03 0. -1.
        -11    1    3    3    0    0 -0.53875213855E+00  0.43718478687E+01 -0.19043289021E+02  0.19546103567E+02  0.51100000000E-03 0.  1.
         12    1    3    3    0    0  0.64904666973E+01 -0.16994818285E+01 -0.56976593117E+01  0.88021428111E+01  0.00000000000E+00 0. -1.
</event>
<event>
 7    1  0.6090311E-013  0.5052884E+02  0.7816164E-02  0.1300439E+00
        -11   -1    0    0    0    0  0.00000000000E+00  0.00000000000E+00  0.45593999997E+02  0.45594000000E+02  0.51100000000E-03 0.  1.
         11   -1    0    0    0    0 -0.00000000000E+00 -0.00000000000E+00 -0.45593999997E+02  0.45594000000E+02  0.51100000000E-03 0. -1.
    9900012    2    1    2    0    0 -0.12625899549E+01  0.66833316798E+01 -0.40086239862E+02  0.50528835203E+02  0.29999925082E+02 0.  0.
        -12    1    1    2    0    0  0.12625899549E+01 -0.66833316798E+01  0.40086239862E+02  0.40659164797E+02  0.00000000000E+00 0.  1.
         11    1    3    3    0    0 -0.10478969008E+02 -0.78054426306E+00 -0.10605138579E+02  0.14929400703E+02  0.51100000000E-03 0. -1.
        -11    1    3    3    0    0 -0.35899295961E+01 -0.11179920877E+01 -0.24697279268E+01  0.44985616709E+01  0.51100000000E-03 0.  1.
         12    1    3    3    0    0  0.12806308649E+02  0.85818680305E+01 -0.27011373356E+02  0.31100872829E+02  0.00000000000E+00 0. -1.
</event>
<event>
 7    1  0.6090311E-013  0.5052885E+02  0.7816164E-02  0.1300439E+00
        -11   -1    0    0    0    0  0.00000000000E+00  0.00000000000E+00  0.45593999997E+02  0.45594000000E+02  0.51100000000E-03 0. -1.
         11   -1    0    0    0    0 -0.00000000000E+00 -0.00000000000E+00 -0.45593999997E+02  0.45594000000E+02  0.51100000000E-03 0.  1.
    9900012    2    1    2    0    0 -0.17917527946E+02 -0.33668918195E+02 -0.14090147780E+02  0.50528854355E+02  0.29999983296E+02 0.  0.
        -12    1    1    2    0    0  0.17917527946E+02  0.33668918195E+02  0.14090147780E+02  0.40659145645E+02  0.00000000000E+00 0.  1.
         11    1    3    3    0    0  0.29888075664E+01  0.87795063309E+00 -0.31500825565E+01  0.44302131277E+01  0.51100000000E-03 0.  1.
        -11    1    3    3    0    0 -0.14453666543E+02 -0.35270137010E+02 -0.10746181399E+02  0.39602669811E+02  0.51100000000E-03 0. -1.
         12    1    3    3    0    0 -0.64526689698E+01  0.72326818179E+00 -0.19388382519E+00  0.64959714157E+01  0.00000000000E+00 0. -1.
</event>
<event>
 7    1  0.6090311E-013  0.5052886E+02  0.7816164E-02  0.1300439E+00
        -11   -1    0    0    0    0  0.00000000000E+00  0.00000000000E+00  0.45593999997E+02  0.45594000000E+02  0.51100000000E-03 0. -1.
         11   -1    0    0    0    0 -0.00000000000E+00 -0.00000000000E+00 -0.45593999997E+02  0.45594000000E+02  0.51100000000E-03 0.  1.
    9900012    2    1    2    0    0 -0.23370961521E+02 -0.77129490672E+01  0.32364705441E+02  0.50528861002E+02  0.30000003503E+02 0.  0.
        -12    1    1    2    0    0  0.23370961521E+02  0.77129490672E+01 -0.32364705441E+02  0.40659138998E+02  0.00000000000E+00 0.  1.
         11    1    3    3    0    0 -0.50049384656E+00  0.19743562497E+01  0.54338437818E+01  0.58030367221E+01  0.51100000000E-03 0. -1.
        -11    1    3    3    0    0 -0.12526715054E+02  0.78911829224E+01  0.15099102838E+02  0.21146448040E+02  0.51100000000E-03 0.  1.
         12    1    3    3    0    0 -0.10343752620E+02 -0.17578488239E+02  0.11831758821E+02  0.23579376240E+02  0.00000000000E+00 0. -1.
</event>
<event>
 7    1  0.6090311E-013  0.5052886E+02  0.7816164E-02  0.1300439E+00
        -11   -1    0    0    0    0  0.00000000000E+00  0.00000000000E+00  0.45593999997E+02  0.45594000000E+02  0.51100000000E-03 0. -1.
         11   -1    0    0    0    0 -0.00000000000E+00 -0.00000000000E+00 -0.45593999997E+02  0.45594000000E+02  0.51100000000E-03 0.  1.
    9900012    2    1    2    0    0  0.28318419513E+02 -0.81969428354E+01  0.28000761776E+02  0.50528863074E+02  0.30000009800E+02 0.  0.
        -12    1    1    2    0    0 -0.28318419513E+02  0.81969428354E+01 -0.28000761776E+02  0.40659136926E+02  0.00000000000E+00 0.  1.
         11    1    3    3    0    0  0.43812928085E+01 -0.70664113886E+01  0.42444439324E+01  0.93351594064E+01  0.51100000000E-03 0.  1.
        -11    1    3    3    0    0 -0.30310131639E+01 -0.47902128932E+01  0.78112620992E+01  0.96513727628E+01  0.51100000000E-03 0. -1.
         12    1    3    3    0    0  0.26968139868E+02  0.36596814464E+01  0.15945055744E+02  0.31542330905E+02  0.00000000000E+00 0. -1.
</event>
<event>
 7    1  0.6090311E-013  0.5052887E+02  0.7816164E-02  0.1300439E+00
        -11   -1    0    0    0    0  0.00000000000E+00  0.00000000000E+00  0.45593999997E+02  0.45594000000E+02  0.51100000000E-03 0.  1.
         11   -1    0    0    0    0 -0.00000000000E+00 -0.00000000000E+00 -0.45593999997E+02  0.45594000000E+02  0.51100000000E-03 0. -1.
    9900012    2    1    2    0    0 -0.29597067596E+02 -0.60336312050E+00 -0.27871396842E+02  0.50528865488E+02  0.30000017137E+02 0.  0.
        -12    1    1    2    0    0  0.29597067596E+02  0.60336312050E+00  0.27871396842E+02  0.40659134512E+02  0.00000000000E+00 0.  1.
         11    1    3    3    0    0 -0.14675868373E+02 -0.23792642320E+01 -0.24798884016E+02  0.28914125605E+02  0.51100000000E-03 0. -1.
        -11    1    3    3    0    0 -0.29519695083E+01  0.23321539431E+01 -0.78581383975E+01  0.87122560413E+01  0.51100000000E-03 0.  1.
        -12    1    3    3    0    0 -0.11969229715E+02 -0.55625283168E+00  0.47856255714E+01  0.12902483842E+02  0.00000000000E+00 0.  1.
</event>
<event>
 7    1  0.6090311E-013  0.5052886E+02  0.7816164E-02  0.1300439E+00
        -11   -1    0    0    0    0  0.00000000000E+00  0.00000000000E+00  0.45593999997E+02  0.45594000000E+02  0.51100000000E-03 0.  1.
         11   -1    0    0    0    0 -0.00000000000E+00 -0.00000000000E+00 -0.45593999997E+02  0.45594000000E+02  0.51100000000E-03 0. -1.
    9900012    2    1    2    0    0  0.77305882458E+01 -0.17986434770E+02 -0.35635541953E+02  0.50528859814E+02  0.29999999892E+02 0.  0.
        -12    1    1    2    0    0 -0.77305882458E+01  0.17986434770E+02  0.35635541953E+02  0.40659140186E+02  0.00000000000E+00 0.  1.
         11    1    3    3    0    0  0.10028258433E+02 -0.49427965310E+01 -0.63828068024E+01  0.12873904912E+02  0.51100000000E-03 0. -1.
        -11    1    3    3    0    0  0.31211242450E+01  0.30573833787E+01 -0.69191753392E+00  0.44235460675E+01  0.51100000000E-03 0.  1.
        -12    1    3    3    0    0 -0.54187944321E+01 -0.16101021617E+02 -0.28560817617E+02  0.33231408835E+02  0.00000000000E+00 0.  1.
</event>
<event>
 7    1  0.6090311E-013  0.5052887E+02  0.7816164E-02  0.1300439E+00
        -11   -1    0    0    0    0  0.00000000000E+00  0.00000000000E+00  0.45593999997E+02  0.45594000000E+02  0.51100000000E-03 0.  1.
         11   -1    0    0    0    0 -0.00000000000E+00 -0.00000000000E+00 -0.45593999997E+02  0.45594000000E+02  0.51100000000E-03 0. -1.
    9900012    2    1    2    0    0 -0.81755770013E+01  0.90942741866E+01 -0.38776530713E+02  0.50528865523E+02  0.30000017244E+02 0.  0.
        -12    1    1    2    0    0  0.81755770013E+01 -0.90942741866E+01  0.38776530713E+02  0.40659134477E+02  0.00000000000E+00 0.  1.
         11    1    3    3    0    0  0.23591849459E+01 -0.29854075934E+01 -0.13164472648E+02  0.13703348221E+02  0.51100000000E-03 0. -1.
        -11    1    3    3    0    0 -0.99230873449E+00  0.33001079439E+01 -0.23423050003E+02  0.23675190828E+02  0.51100000000E-03 0.  1.
        -12    1    3    3    0    0 -0.95424532127E+01  0.87795738361E+01 -0.21890080621E+01  0.13150326473E+02  0.00000000000E+00 0.  1.
</event>
<event>
 7    1  0.6090311E-013  0.5052885E+02  0.7816164E-02  0.1300439E+00
        -11   -1    0    0    0    0  0.00000000000E+00  0.00000000000E+00  0.45593999997E+02  0.45594000000E+02  0.51100000000E-03 0.  1.
         11   -1    0    0    0    0 -0.00000000000E+00 -0.00000000000E+00 -0.45593999997E+02  0.45594000000E+02  0.51100000000E-03 0. -1.
    9900012    2    1    2    0    0 -0.20230142153E+02 -0.35264249773E+02  0.58345733071E+00  0.50528851139E+02  0.29999973524E+02 0.  0.
        -12    1    1    2    0    0  0.20230142153E+02  0.35264249773E+02 -0.58345733071E+00  0.40659148861E+02  0.00000000000E+00 0.  1.
         11    1    3    3    0    0 -0.83920990815E+01 -0.11189329348E+02 -0.58569213634E+01  0.15163507060E+02  0.51100000000E-03 0. -1.
        -11    1    3    3    0    0  0.62902282919E+00 -0.10551904060E+01 -0.61815990555E+01  0.63024807542E+01  0.51100000000E-03 0.  1.
        -12    1    3    3    0    0 -0.12467065900E+02 -0.23019730020E+02  0.12621977750E+02  0.29062863325E+02  0.00000000000E+00 0.  1.
</event>
<event>
 7    1  0.6090311E-013  0.5052885E+02  0.7816164E-02  0.1300439E+00
        -11   -1    0    0    0    0  0.00000000000E+00  0.00000000000E+00  0.45593999997E+02  0.45594000000E+02  0.51100000000E-03 0.  1.
         11   -1    0    0    0    0 -0.00000000000E+00 -0.00000000000E+00 -0.45593999997E+02  0.45594000000E+02  0.51100000000E-03 0. -1.
    9900012    2    1    2    0    0  0.15238791419E+02 -0.37674931674E+02 -0.12429342124E+01  0.50528854337E+02  0.29999983243E+02 0.  0.
        -12    1    1    2    0    0 -0.15238791419E+02  0.37674931674E+02  0.12429342124E+01  0.40659145663E+02  0.00000000000E+00 0.  1.
         11    1    3    3    0    0  0.23384227345E+00  0.96200738080E+00  0.33028127045E+01  0.34480012227E+01  0.51100000000E-03 0. -1.
        -11    1    3    3    0    0  0.18911580507E+01 -0.21677672493E+02  0.68363607241E+01  0.22808634148E+02  0.51100000000E-03 0.  1.
         12    1    3    3    0    0  0.13113791095E+02 -0.16959266562E+02 -0.11382107641E+02  0.24272218966E+02  0.00000000000E+00 0. -1.
</event>
<event>
 7    1  0.6090311E-013  0.5052888E+02  0.7816164E-02  0.1300439E+00
        -11   -1    0    0    0    0  0.00000000000E+00  0.00000000000E+00  0.45593999997E+02  0.45594000000E+02  0.51100000000E-03 0.  1.
         11   -1    0    0    0    0 -0.00000000000E+00 -0.00000000000E+00 -0.45593999997E+02  0.45594000000E+02  0.51100000000E-03 0. -1.
    9900012    2    1    2    0    0 -0.15921172085E+02 -0.37136563840E+02  0.45338430199E+01  0.50528882610E+02  0.30000069182E+02 0.  0.
        -12    1    1    2    0    0  0.15921172085E+02  0.37136563840E+02 -0.45338430199E+01  0.40659117390E+02  0.00000000000E+00 0.  1.
         11    1    3    3    0    0 -0.17153729958E+02 -0.25747463542E+02  0.88595694586E+01  0.32181894002E+02  0.51100000000E-03 0. -1.
        -11    1    3    3    0    0  0.41331628932E+01 -0.49044682911E+01  0.38779836538E+01  0.74950385056E+01  0.51100000000E-03 0.  1.
        -12    1    3    3    0    0 -0.29006050200E+01 -0.64846320066E+01 -0.82037100925E+01  0.10851950102E+02  0.00000000000E+00 0.  1.
</event>
<event>
 7    1  0.6090311E-013  0.5052886E+02  0.7816164E-02  0.1300439E+00
        -11   -1    0    0    0    0  0.00000000000E+00  0.00000000000E+00  0.45593999997E+02  0.45594000000E+02  0.51100000000E-03 0.  1.
         11   -1    0    0    0    0 -0.00000000000E+00 -0.00000000000E+00 -0.45593999997E+02  0.45594000000E+02  0.51100000000E-03 0. -1.
    9900012    2    1    2    0    0 -0.33680820584E+02 -0.19692434972E+02  0.11444463517E+02  0.50528863075E+02  0.30000009801E+02 0.  0.
        -12    1    1    2    0    0  0.33680820584E+02  0.19692434972E+02 -0.11444463517E+02  0.40659136925E+02  0.00000000000E+00 0.  1.
         11    1    3    3    0    0 -0.27585637218E+02 -0.77020814257E+01 -0.13623203620E+00  0.28641019507E+02  0.51100000000E-03 0. -1.
        -11    1    3    3    0    0 -0.31428689642E+01 -0.97736230676E+01  0.57856510430E+00  0.10282804629E+02  0.51100000000E-03 0.  1.
        -12    1    3    3    0    0 -0.29523144020E+01 -0.22167304785E+01  0.11002130449E+02  0.11605038938E+02  0.00000000000E+00 0.  1.
</event>
<event>
 7    1  0.6090311E-013  0.5052887E+02  0.7816164E-02  0.1300439E+00
        -11   -1    0    0    0    0  0.00000000000E+00  0.00000000000E+00  0.45593999997E+02  0.45594000000E+02  0.51100000000E-03 0.  1.
         11   -1    0    0    0    0 -0.00000000000E+00 -0.00000000000E+00 -0.45593999997E+02  0.45594000000E+02  0.51100000000E-03 0. -1.
    9900012    2    1    2    0    0 -0.23338516286E+02  0.21089683234E+02 -0.25762453045E+02  0.50528867345E+02  0.30000022783E+02 0.  0.
        -12    1    1    2    0    0  0.23338516286E+02 -0.21089683234E+02  0.25762453045E+02  0.40659132655E+02  0.00000000000E+00 0.  1.
         11    1    3    3    0    0 -0.59815857762E+01  0.30946817088E+01 -0.15230830633E+02  0.16653366786E+02  0.51100000000E-03 0. -1.
        -11    1    3    3    0    0  0.31190583823E+01  0.17923372281E+01  0.27992819139E+01  0.45581769849E+01  0.51100000000E-03 0.  1.
         12    1    3    3    0    0 -0.20475988892E+02  0.16202664297E+02 -0.13330904326E+02  0.29317323575E+02  0.00000000000E+00 0. -1.
</event>
<event>
 7    1  0.6090311E-013  0.5052883E+02  0.7816164E-02  0.1300439E+00
        -11   -1    0    0    0    0  0.00000000000E+00  0.00000000000E+00  0.45593999997E+02  0.45594000000E+02  0.51100000000E-03 0.  1.
         11   -1    0    0    0    0 -0.00000000000E+00 -0.00000000000E+00 -0.45593999997E+02  0.45594000000E+02  0.51100000000E-03 0. -1.
    9900012    2    1    2    0    0 -0.31311103315E+02  0.13100777411E+02 -0.22386430717E+02  0.50528833262E+02  0.29999919183E+02 0.  0.
        -12    1    1    2    0    0  0.31311103315E+02 -0.13100777411E+02  0.22386430717E+02  0.40659166738E+02  0.00000000000E+00 0.  1.
         11    1    3    3    0    0 -0.24040124899E+02  0.69532190427E+01 -0.20294345152E+02  0.32220107164E+02  0.51100000000E-03 0. -1.
        -11    1    3    3    0    0 -0.91741989330E+01 -0.20636077503E+01 -0.29020456014E+01  0.98410503476E+01  0.51100000000E-03 0.  1.
        -12    1    3    3    0    0  0.19032205168E+01  0.82111661184E+01  0.80996003626E+00  0.84676757507E+01  0.00000000000E+00 0.  1.
</event>
<event>
 7    1  0.6090311E-013  0.5052885E+02  0.7816164E-02  0.1300439E+00
        -11   -1    0    0    0    0  0.00000000000E+00  0.00000000000E+00  0.45593999997E+02  0.45594000000E+02  0.51100000000E-03 0.  1.
         11   -1    0    0    0    0 -0.00000000000E+00 -0.00000000000E+00 -0.45593999997E+02  0.45594000000E+02  0.51100000000E-03 0. -1.
    9900012    2    1    2    0    0 -0.23340614085E+02  0.18206135173E+02 -0.27873259202E+02  0.50528853399E+02  0.29999980391E+02 0.  0.
        -12    1    1    2    0    0  0.23340614085E+02 -0.18206135173E+02  0.27873259202E+02  0.40659146601E+02  0.00000000000E+00 0.  1.
         11    1    3    3    0    0  0.67905056400E+00 -0.35332615885E+00  0.28866683948E+01  0.29864366268E+01  0.51100000000E-03 0. -1.
        -11    1    3    3    0    0 -0.76261488526E+01  0.18303368505E+02 -0.17741190510E+02  0.26606790223E+02  0.51100000000E-03 0.  1.
         12    1    3    3    0    0 -0.16393515796E+02  0.25609282641E+00 -0.13018737086E+02  0.20935626550E+02  0.00000000000E+00 0. -1.
</event>
<event>
 7    1  0.6090311E-013  0.5052885E+02  0.7816164E-02  0.1300439E+00
        -11   -1    0    0    0    0  0.00000000000E+00  0.00000000000E+00  0.45593999997E+02  0.45594000000E+02  0.51100000000E-03 0. -1.
         11   -1    0    0    0    0 -0.00000000000E+00 -0.00000000000E+00 -0.45593999997E+02  0.45594000000E+02  0.51100000000E-03 0.  1.
    9900012    2    1    2    0    0 -0.27143746443E+02  0.23464435446E+02  0.19126002260E+02  0.50528847718E+02  0.29999963125E+02 0.  0.
        -12    1    1    2    0    0  0.27143746443E+02 -0.23464435446E+02 -0.19126002260E+02  0.40659152282E+02  0.00000000000E+00 0.  1.
         11    1    3    3    0    0 -0.24546298690E+01  0.92803246999E+01 -0.21249854466E+01  0.98318461002E+01  0.51100000000E-03 0. -1.
        -11    1    3    3    0    0 -0.94742538722E+00  0.95136030303E+00 -0.36162418918E+01  0.38574482462E+01  0.51100000000E-03 0.  1.
         12    1    3    3    0    0 -0.23741691187E+02  0.13232750443E+02  0.24867229599E+02  0.36839553372E+02  0.00000000000E+00 0. -1.
</event>
<event>
 7    1  0.6090311E-013  0.5052886E+02  0.7816164E-02  0.1300439E+00
        -11   -1    0    0    0    0  0.00000000000E+00  0.00000000000E+00  0.45593999997E+02  0.45594000000E+02  0.51100000000E-03 0.  1.
         11   -1    0    0    0    0 -0.00000000000E+00 -0.00000000000E+00 -0.45593999997E+02  0.45594000000E+02  0.51100000000E-03 0. -1.
    9900012    2    1    2    0    0 -0.21384985811E+01  0.39980378860E+02 -0.70824821612E+01  0.50528862976E+02  0.30000009503E+02 0.  0.
        -12    1    1    2    0    0  0.21384985811E+01 -0.39980378860E+02  0.70824821612E+01  0.40659137024E+02  0.00000000000E+00 0.  1.
         11    1    3    3    0    0  0.17716090504E+01  0.11281892566E+02  0.11893656843E+00  0.11420763751E+02  0.51100000000E-03 0. -1.
        -11    1    3    3    0    0 -0.51386628972E+01  0.27116648973E+02  0.38590584497E+01  0.27867738342E+02  0.51100000000E-03 0.  1.
         12    1    3    3    0    0  0.12285552657E+01  0.15818373205E+01 -0.11060477179E+02  0.11240360883E+02  0.00000000000E+00 0. -1.
</event>
<event>
 7    1  0.6090311E-013  0.5052888E+02  0.7816164E-02  0.1300439E+00
        -11   -1    0    0    0    0  0.00000000000E+00  0.00000000000E+00  0.45593999997E+02  0.45594000000E+02  0.51100000000E-03 0.  1.
         11   -1    0    0    0    0 -0.00000000000E+00 -0.00000000000E+00 -0.45593999997E+02  0.45594000000E+02  0.51100000000E-03 0. -1.
    9900012    2    1    2    0    0 -0.19913875276E+02  0.21449466811E+02 -0.28222727516E+02  0.50528875520E+02  0.30000047632E+02 0.  0.
        -12    1    1    2    0    0  0.19913875276E+02 -0.21449466811E+02  0.28222727516E+02  0.40659124480E+02  0.00000000000E+00 0.  1.
         11    1    3    3    0    0 -0.23900032182E+01  0.67216120833E+00  0.17417642568E+01  0.30327642606E+01  0.51100000000E-03 0. -1.
        -11    1    3    3    0    0 -0.11879580369E+02  0.82834119901E+01  0.67832897689E-01  0.14482539332E+02  0.51100000000E-03 0.  1.
         12    1    3    3    0    0 -0.56442916884E+01  0.12493893613E+02 -0.30032324671E+02  0.33013571927E+02  0.00000000000E+00 0. -1.
</event>
<event>
 7    1  0.6090311E-013  0.5052885E+02  0.7816164E-02  0.1300439E+00
        -11   -1    0    0    0    0  0.00000000000E+00  0.00000000000E+00  0.45593999997E+02  0.45594000000E+02  0.51100000000E-03 0.  1.
         11   -1    0    0    0    0 -0.00000000000E+00 -0.00000000000E+00 -0.45593999997E+02  0.45594000000E+02  0.51100000000E-03 0. -1.
    9900012    2    1    2    0    0 -0.67304684165E+01 -0.22115767722E+02 -0.33447873738E+02  0.50528847960E+02  0.29999963859E+02 0.  0.
        -12    1    1    2    0    0  0.67304684165E+01  0.22115767722E+02  0.33447873738E+02  0.40659152040E+02  0.00000000000E+00 0.  1.
         11    1    3    3    0    0  0.13303644979E+01 -0.10901163892E+02 -0.28102504752E+02  0.30172106613E+02  0.51100000000E-03 0. -1.
        -11    1    3    3    0    0 -0.57726812009E+01 -0.57805135846E+01 -0.99511236592E+01  0.12874899918E+02  0.51100000000E-03 0.  1.
        -12    1    3    3    0    0 -0.22881517135E+01 -0.54340902455E+01  0.46057546732E+01  0.74818414291E+01  0.00000000000E+00 0.  1.
</event>
<event>
 7    1  0.6090311E-013  0.5052886E+02  0.7816164E-02  0.1300439E+00
        -11   -1    0    0    0    0  0.00000000000E+00  0.00000000000E+00  0.45593999997E+02  0.45594000000E+02  0.51100000000E-03 0. -1.
         11   -1    0    0    0    0 -0.00000000000E+00 -0.00000000000E+00 -0.45593999997E+02  0.45594000000E+02  0.51100000000E-03 0.  1.
    9900012    2    1    2    0    0 -0.89257000938E+01  0.38948118631E+02 -0.75194148082E+01  0.50528859993E+02  0.30000000435E+02 0.  0.
        -12    1    1    2    0    0  0.89257000938E+01 -0.38948118631E+02  0.75194148082E+01  0.40659140007E+02  0.00000000000E+00 0.  1.
         11    1    3    3    0    0  0.14301795378E+01 -0.21037217597E+01  0.85231399513E+00  0.26828153421E+01  0.51100000000E-03 0. -1.
        -11    1    3    3    0    0  0.29693058505E+01  0.22266073676E+01  0.35146128760E+01  0.51114637368E+01  0.51100000000E-03 0.  1.
         12    1    3    3    0    0 -0.13325185482E+02  0.38825233023E+02 -0.11886341679E+02  0.42734580914E+02  0.00000000000E+00 0. -1.
</event>
<event>
 7    1  0.6090311E-013  0.5052892E+02  0.7816164E-02  0.1300439E+00
        -11   -1    0    0    0    0  0.00000000000E+00  0.00000000000E+00  0.45593999997E+02  0.45594000000E+02  0.51100000000E-03 0.  1.
         11   -1    0    0    0    0 -0.00000000000E+00 -0.00000000000E+00 -0.45593999997E+02  0.45594000000E+02  0.51100000000E-03 0. -1.
    9900012    2    1    2    0    0 -0.35078016354E+01  0.27495209757E+02 -0.29746752180E+02  0.50528923558E+02  0.30000193645E+02 0.  0.
        -12    1    1    2    0    0  0.35078016354E+01 -0.27495209757E+02  0.29746752180E+02  0.40659076442E+02  0.00000000000E+00 0.  1.
         11    1    3    3    0    0  0.51887241775E+01  0.82497803788E+01  0.40809589623E+01  0.10565792029E+02  0.51100000000E-03 0.  1.
        -11    1    3    3    0    0 -0.51969072941E+01  0.11415392930E+02 -0.17652010200E+02  0.21654387674E+02  0.51100000000E-03 0. -1.
        -12    1    3    3    0    0 -0.34996185188E+01  0.78300364479E+01 -0.16175700942E+02  0.18308743854E+02  0.00000000000E+00 0.  1.
</event>
<event>
 7    1  0.6090311E-013  0.5052887E+02  0.7816164E-02  0.1300439E+00
        -11   -1    0    0    0    0  0.00000000000E+00  0.00000000000E+00  0.45593999997E+02  0.45594000000E+02  0.51100000000E-03 0.  1.
         11   -1    0    0    0    0 -0.00000000000E+00 -0.00000000000E+00 -0.45593999997E+02  0.45594000000E+02  0.51100000000E-03 0. -1.
    9900012    2    1    2    0    0 -0.19627766438E+02 -0.61287092788E+01 -0.35076413822E+02  0.50528866962E+02  0.30000021619E+02 0.  0.
        -12    1    1    2    0    0  0.19627766438E+02  0.61287092788E+01  0.35076413822E+02  0.40659133038E+02  0.00000000000E+00 0.  1.
         11    1    3    3    0    0 -0.76313604830E+01  0.57575375452E+01 -0.15446734244E+02  0.18165585608E+02  0.51100000000E-03 0. -1.
        -11    1    3    3    0    0 -0.11003511304E+02 -0.86959372432E+00 -0.18095289256E+02  0.21196059723E+02  0.51100000000E-03 0.  1.
        -12    1    3    3    0    0 -0.99289465050E+00 -0.11016653100E+02 -0.15343903219E+01  0.11167221631E+02  0.00000000000E+00 0.  1.
</event>
<event>
 7    1  0.6090311E-013  0.5052886E+02  0.7816164E-02  0.1300439E+00
        -11   -1    0    0    0    0  0.00000000000E+00  0.00000000000E+00  0.45593999997E+02  0.45594000000E+02  0.51100000000E-03 0.  1.
         11   -1    0    0    0    0 -0.00000000000E+00 -0.00000000000E+00 -0.45593999997E+02  0.45594000000E+02  0.51100000000E-03 0. -1.
    9900012    2    1    2    0    0 -0.67125460876E+01  0.51971764902E+01 -0.39763012302E+02  0.50528855078E+02  0.29999985495E+02 0.  0.
        -12    1    1    2    0    0  0.67125460876E+01 -0.51971764902E+01  0.39763012302E+02  0.40659144922E+02  0.00000000000E+00 0.  1.
         11    1    3    3    0    0 -0.33027136845E+01 -0.29244386240E+01 -0.20524958687E+02  0.20993670196E+02  0.51100000000E-03 0. -1.
        -11    1    3    3    0    0 -0.11514102417E+01  0.20745674931E+01 -0.22275304391E+02  0.22401311609E+02  0.51100000000E-03 0.  1.
        -12    1    3    3    0    0 -0.22584221615E+01  0.60470476211E+01  0.30372507760E+01  0.71338732725E+01  0.00000000000E+00 0.  1.
</event>
<event>
 7    1  0.6090311E-013  0.5052885E+02  0.7816164E-02  0.1300439E+00
        -11   -1    0    0    0    0  0.00000000000E+00  0.00000000000E+00  0.45593999997E+02  0.45594000000E+02  0.51100000000E-03 0.  1.
         11   -1    0    0    0    0 -0.00000000000E+00 -0.00000000000E+00 -0.45593999997E+02  0.45594000000E+02  0.51100000000E-03 0. -1.
    9900012    2    1    2    0    0  0.13980610858E+01 -0.27125122528E+02 -0.30256230318E+02  0.50528851952E+02  0.29999975993E+02 0.  0.
        -12    1    1    2    0    0 -0.13980610858E+01  0.27125122528E+02  0.30256230318E+02  0.40659148048E+02  0.00000000000E+00 0.  1.
         11    1    3    3    0    0 -0.23352447878E+01 -0.55535048657E+01 -0.23514650098E+02  0.24274133435E+02  0.51100000000E-03 0. -1.
        -11    1    3    3    0    0 -0.14764674921E+01 -0.62470467096E+01 -0.77189507332E+01  0.10039310212E+02  0.51100000000E-03 0.  1.
        -12    1    3    3    0    0  0.52097733657E+01 -0.15324570952E+02  0.97737051316E+00  0.16215408305E+02  0.00000000000E+00 0.  1.
</event>
<event>
 7    1  0.6090311E-013  0.5052887E+02  0.7816164E-02  0.1300439E+00
        -11   -1    0    0    0    0  0.00000000000E+00  0.00000000000E+00  0.45593999997E+02  0.45594000000E+02  0.51100000000E-03 0. -1.
         11   -1    0    0    0    0 -0.00000000000E+00 -0.00000000000E+00 -0.45593999997E+02  0.45594000000E+02  0.51100000000E-03 0.  1.
    9900012    2    1    2    0    0 -0.47376397224E+00  0.17785416110E+02  0.36559803492E+02  0.50528871752E+02  0.30000036177E+02 0.  0.
        -12    1    1    2    0    0  0.47376397224E+00 -0.17785416110E+02 -0.36559803492E+02  0.40659128248E+02  0.00000000000E+00 0.  1.
         11    1    3    3    0    0 -0.24773013041E+01  0.64923963547E+01  0.74109692133E+01  0.10159266564E+02  0.51100000000E-03 0. -1.
        -11    1    3    3    0    0 -0.11311184334E+02  0.36424755427E+01  0.83825536851E+01  0.14542273744E+02  0.51100000000E-03 0.  1.
        -12    1    3    3    0    0  0.13314721666E+02  0.76505442122E+01  0.20766280594E+02  0.25827331443E+02  0.00000000000E+00 0.  1.
</event>
<event>
 7    1  0.6090311E-013  0.5052886E+02  0.7816164E-02  0.1300439E+00
        -11   -1    0    0    0    0  0.00000000000E+00  0.00000000000E+00  0.45593999997E+02  0.45594000000E+02  0.51100000000E-03 0. -1.
         11   -1    0    0    0    0 -0.00000000000E+00 -0.00000000000E+00 -0.45593999997E+02  0.45594000000E+02  0.51100000000E-03 0.  1.
    9900012    2    1    2    0    0  0.22641934974E+02 -0.10832080010E+02 -0.31987103615E+02  0.50528856202E+02  0.29999988910E+02 0.  0.
        -12    1    1    2    0    0 -0.22641934974E+02  0.10832080010E+02  0.31987103615E+02  0.40659143798E+02  0.00000000000E+00 0.  1.
         11    1    3    3    0    0  0.14481251467E+02 -0.10892259153E+01 -0.58114229540E+01  0.15641793189E+02  0.51100000000E-03 0. -1.
        -11    1    3    3    0    0  0.60646139004E+01  0.25391969412E+01 -0.19856296167E+02  0.20916490160E+02  0.51100000000E-03 0.  1.
         12    1    3    3    0    0  0.20960696069E+01 -0.12282051036E+02 -0.63193844938E+01  0.13970572853E+02  0.00000000000E+00 0. -1.
</event>
<event>
 7    1  0.6090311E-013  0.5052886E+02  0.7816164E-02  0.1300439E+00
        -11   -1    0    0    0    0  0.00000000000E+00  0.00000000000E+00  0.45593999997E+02  0.45594000000E+02  0.51100000000E-03 0.  1.
         11   -1    0    0    0    0 -0.00000000000E+00 -0.00000000000E+00 -0.45593999997E+02  0.45594000000E+02  0.51100000000E-03 0. -1.
    9900012    2    1    2    0    0 -0.37888765703E+02 -0.52646416017E+01  0.13780071382E+02  0.50528863450E+02  0.30000010944E+02 0.  0.
        -12    1    1    2    0    0  0.37888765703E+02  0.52646416017E+01 -0.13780071382E+02  0.40659136550E+02  0.00000000000E+00 0.  1.
         11    1    3    3    0    0 -0.24780742371E+02  0.42371554421E+01  0.47360638750E+01  0.25582591346E+02  0.51100000000E-03 0. -1.
        -11    1    3    3    0    0 -0.42251001602E+01  0.27961746017E+01 -0.27185281462E+01  0.57498225459E+01  0.51100000000E-03 0.  1.
         12    1    3    3    0    0 -0.88829231716E+01 -0.12297971645E+02  0.11762535653E+02  0.19196449558E+02  0.00000000000E+00 0. -1.
</event>
<event>
 7    1  0.6090311E-013  0.5052886E+02  0.7816164E-02  0.1300439E+00
        -11   -1    0    0    0    0  0.00000000000E+00  0.00000000000E+00  0.45593999997E+02  0.45594000000E+02  0.51100000000E-03 0. -1.
         11   -1    0    0    0    0 -0.00000000000E+00 -0.00000000000E+00 -0.45593999997E+02  0.45594000000E+02  0.51100000000E-03 0.  1.
    9900012    2    1    2    0    0  0.39757648634E+02 -0.83443511162E+01 -0.16931669013E+01  0.50528860381E+02  0.30000001613E+02 0.  0.
        -12    1    1    2    0    0 -0.39757648634E+02  0.83443511162E+01  0.16931669013E+01  0.40659139619E+02  0.00000000000E+00 0.  1.
         11    1    3    3    0    0  0.15722016946E+02  0.66352548267E+00  0.91684099753E+00  0.15762699027E+02  0.51100000000E-03 0. -1.
        -11    1    3    3    0    0  0.19231249538E+01  0.35716714997E+01  0.65690390997E+01  0.77205907704E+01  0.51100000000E-03 0.  1.
         12    1    3    3    0    0  0.22112506734E+02 -0.12579548099E+02 -0.91790469985E+01  0.27045570584E+02  0.00000000000E+00 0. -1.
</event>
<event>
 7    1  0.6090311E-013  0.5052886E+02  0.7816164E-02  0.1300439E+00
        -11   -1    0    0    0    0  0.00000000000E+00  0.00000000000E+00  0.45593999997E+02  0.45594000000E+02  0.51100000000E-03 0. -1.
         11   -1    0    0    0    0 -0.00000000000E+00 -0.00000000000E+00 -0.45593999997E+02  0.45594000000E+02  0.51100000000E-03 0.  1.
    9900012    2    1    2    0    0  0.19005725449E+02  0.22278253799E+02  0.28206865966E+02  0.50528862284E+02  0.30000007399E+02 0.  0.
        -12    1    1    2    0    0 -0.19005725449E+02 -0.22278253799E+02 -0.28206865966E+02  0.40659137716E+02  0.00000000000E+00 0.  1.
         11    1    3    3    0    0  0.14952104910E+02  0.11089239823E+02  0.30375860638E+02  0.35626248622E+02  0.51100000000E-03 0. -1.
        -11    1    3    3    0    0  0.39874822166E+01  0.12942498990E+01  0.13441407254E+01  0.44024779136E+01  0.51100000000E-03 0.  1.
        -12    1    3    3    0    0  0.66138322362E-01  0.98947640768E+01 -0.35131353978E+01  0.10500135748E+02  0.00000000000E+00 0.  1.
</event>
<event>
 7    1  0.6090311E-013  0.5052887E+02  0.7816164E-02  0.1300439E+00
        -11   -1    0    0    0    0  0.00000000000E+00  0.00000000000E+00  0.45593999997E+02  0.45594000000E+02  0.51100000000E-03 0. -1.
         11   -1    0    0    0    0 -0.00000000000E+00 -0.00000000000E+00 -0.45593999997E+02  0.45594000000E+02  0.51100000000E-03 0.  1.
    9900012    2    1    2    0    0  0.22320179022E+02  0.77210031546E+01  0.33096233282E+02  0.50528868937E+02  0.30000027622E+02 0.  0.
        -12    1    1    2    0    0 -0.22320179022E+02 -0.77210031546E+01 -0.33096233282E+02  0.40659131063E+02  0.00000000000E+00 0.  1.
         11    1    3    3    0    0  0.97904229869E+01  0.15040195330E+01  0.72492417217E+01  0.12274606422E+02  0.51100000000E-03 0. -1.
        -11    1    3    3    0    0  0.18360007512E+02  0.83656996268E+00  0.10996814909E+02  0.21417741794E+02  0.51100000000E-03 0.  1.
        -12    1    3    3    0    0 -0.58302514768E+01  0.53804136589E+01  0.14850176652E+02  0.16836520721E+02  0.00000000000E+00 0.  1.
</event>
<event>
 7    1  0.6090311E-013  0.5052890E+02  0.7816164E-02  0.1300439E+00
        -11   -1    0    0    0    0  0.00000000000E+00  0.00000000000E+00  0.45593999997E+02  0.45594000000E+02  0.51100000000E-03 0.  1.
         11   -1    0    0    0    0 -0.00000000000E+00 -0.00000000000E+00 -0.45593999997E+02  0.45594000000E+02  0.51100000000E-03 0. -1.
    9900012    2    1    2    0    0  0.43045574509E+01 -0.11340406713E+02 -0.38807582270E+02  0.50528899163E+02  0.30000119495E+02 0.  0.
        -12    1    1    2    0    0 -0.43045574509E+01  0.11340406713E+02  0.38807582270E+02  0.40659100837E+02  0.00000000000E+00 0.  1.
         11    1    3    3    0    0 -0.17678932942E+01  0.35528239843E+00 -0.12507075702E+02  0.12636400404E+02  0.51100000000E-03 0. -1.
        -11    1    3    3    0    0  0.14906652104E+02 -0.81148914189E+01 -0.20946413973E+02  0.26959451001E+02  0.51100000000E-03 0.  1.
        -12    1    3    3    0    0 -0.88342013592E+01 -0.35807976923E+01 -0.53540925947E+01  0.10933047758E+02  0.00000000000E+00 0.  1.
</event>
<event>
 7    1  0.6090311E-013  0.5052885E+02  0.7816164E-02  0.1300439E+00
        -11   -1    0    0    0    0  0.00000000000E+00  0.00000000000E+00  0.45593999997E+02  0.45594000000E+02  0.51100000000E-03 0.  1.
         11   -1    0    0    0    0 -0.00000000000E+00 -0.00000000000E+00 -0.45593999997E+02  0.45594000000E+02  0.51100000000E-03 0. -1.
    9900012    2    1    2    0    0  0.39184676690E+02 -0.20496314693E+01  0.10654881826E+02  0.50528851175E+02  0.29999973632E+02 0.  0.
        -12    1    1    2    0    0 -0.39184676690E+02  0.20496314693E+01 -0.10654881826E+02  0.40659148825E+02  0.00000000000E+00 0.  1.
         11    1    3    3    0    0  0.84465858452E+01  0.64087759682E+01  0.76891901711E+00  0.10630543663E+02  0.51100000000E-03 0. -1.
        -11    1    3    3    0    0  0.58116123687E+01  0.71322593674E+01  0.14706884003E+01  0.93170213394E+01  0.51100000000E-03 0.  1.
         12    1    3    3    0    0  0.24926478476E+02 -0.15590666805E+02  0.84152744087E+01  0.30581286173E+02  0.00000000000E+00 0. -1.
</event>
<event>
 7    1  0.6090311E-013  0.5052886E+02  0.7816164E-02  0.1300439E+00
        -11   -1    0    0    0    0  0.00000000000E+00  0.00000000000E+00  0.45593999997E+02  0.45594000000E+02  0.51100000000E-03 0.  1.
         11   -1    0    0    0    0 -0.00000000000E+00 -0.00000000000E+00 -0.45593999997E+02  0.45594000000E+02  0.51100000000E-03 0. -1.
    9900012    2    1    2    0    0  0.34252044655E+02 -0.37253978830E+01 -0.21588999871E+02  0.50528855053E+02  0.29999985418E+02 0.  0.
        -12    1    1    2    0    0 -0.34252044655E+02  0.37253978830E+01  0.21588999871E+02  0.40659144947E+02  0.00000000000E+00 0.  1.
         11    1    3    3    0    0  0.24284810576E+02 -0.46199998861E+01 -0.17986418285E+02  0.30571353694E+02  0.51100000000E-03 0. -1.
        -11    1    3    3    0    0  0.10172643002E+02  0.98772935107E+00 -0.95606577187E+01  0.13995158134E+02  0.51100000000E-03 0.  1.
         12    1    3    3    0    0 -0.20540892284E+00 -0.93127347981E-01  0.59580761331E+01  0.59623432253E+01  0.00000000000E+00 0. -1.
</event>
<event>
 7    1  0.6090311E-013  0.5052886E+02  0.7816164E-02  0.1300439E+00
        -11   -1    0    0    0    0  0.00000000000E+00  0.00000000000E+00  0.45593999997E+02  0.45594000000E+02  0.51100000000E-03 0.  1.
         11   -1    0    0    0    0 -0.00000000000E+00 -0.00000000000E+00 -0.45593999997E+02  0.45594000000E+02  0.51100000000E-03 0. -1.
    9900012    2    1    2    0    0 -0.56937795852E+01  0.26813152035E+02  0.30030014480E+02  0.50528855670E+02  0.29999987293E+02 0.  0.
        -12    1    1    2    0    0  0.56937795852E+01 -0.26813152035E+02 -0.30030014480E+02  0.40659144330E+02  0.00000000000E+00 0.  1.
         11    1    3    3    0    0 -0.21066068227E+01  0.27407388794E+02  0.16681465723E+02  0.32153911920E+02  0.51100000000E-03 0. -1.
        -11    1    3    3    0    0  0.15389382617E+01  0.46211120595E+01  0.30592763097E+01  0.57517110011E+01  0.51100000000E-03 0.  1.
        -12    1    3    3    0    0 -0.51261110243E+01 -0.52153488184E+01  0.10289272447E+02  0.12623232749E+02  0.00000000000E+00 0.  1.
</event>
<event>
 7    1  0.6090311E-013  0.5052889E+02  0.7816164E-02  0.1300439E+00
        -11   -1    0    0    0    0  0.00000000000E+00  0.00000000000E+00  0.45593999997E+02  0.45594000000E+02  0.51100000000E-03 0.  1.
         11   -1    0    0    0    0 -0.00000000000E+00 -0.00000000000E+00 -0.45593999997E+02  0.45594000000E+02  0.51100000000E-03 0. -1.
    9900012    2    1    2    0    0 -0.85839177837E+01 -0.23385414164E+02 -0.32134120339E+02  0.50528893638E+02  0.30000102703E+02 0.  0.
        -12    1    1    2    0    0  0.85839177837E+01  0.23385414164E+02  0.32134120339E+02  0.40659106362E+02  0.00000000000E+00 0.  1.
         11    1    3    3    0    0 -0.46644688594E+01 -0.16639058617E+02 -0.25836549763E+02  0.31082838437E+02  0.51100000000E-03 0. -1.
        -11    1    3    3    0    0 -0.10275615954E+02 -0.52680481294E+01 -0.22427567241E+01  0.11763102155E+02  0.51100000000E-03 0.  1.
        -12    1    3    3    0    0  0.63561670299E+01 -0.14783074179E+01 -0.40548138526E+01  0.76829530464E+01  0.00000000000E+00 0.  1.
</event>
<event>
 7    1  0.6090311E-013  0.5052885E+02  0.7816164E-02  0.1300439E+00
        -11   -1    0    0    0    0  0.00000000000E+00  0.00000000000E+00  0.45593999997E+02  0.45594000000E+02  0.51100000000E-03 0.  1.
         11   -1    0    0    0    0 -0.00000000000E+00 -0.00000000000E+00 -0.45593999997E+02  0.45594000000E+02  0.51100000000E-03 0. -1.
    9900012    2    1    2    0    0 -0.13362516158E+02  0.97777578302E+01 -0.37134959234E+02  0.50528848710E+02  0.29999966140E+02 0.  0.
        -12    1    1    2    0    0  0.13362516158E+02 -0.97777578302E+01  0.37134959234E+02  0.40659151290E+02  0.00000000000E+00 0.  1.
         11    1    3    3    0    0 -0.58871587507E+01  0.89350196077E+01 -0.19282089648E+02  0.22052033806E+02  0.51100000000E-03 0. -1.
        -11    1    3    3    0    0  0.29744497346E+01  0.85016143170E+01 -0.93340940506E+01  0.12971125981E+02  0.51100000000E-03 0.  1.
        -12    1    3    3    0    0 -0.10449807142E+02 -0.76588760946E+01 -0.85187755357E+01  0.15505688923E+02  0.00000000000E+00 0.  1.
</event>
<event>
 7    1  0.6090311E-013  0.5052885E+02  0.7816164E-02  0.1300439E+00
        -11   -1    0    0    0    0  0.00000000000E+00  0.00000000000E+00  0.45593999997E+02  0.45594000000E+02  0.51100000000E-03 0. -1.
         11   -1    0    0    0    0 -0.00000000000E+00 -0.00000000000E+00 -0.45593999997E+02  0.45594000000E+02  0.51100000000E-03 0.  1.
    9900012    2    1    2    0    0  0.15439255843E+02 -0.32809388581E+02  0.18394016989E+02  0.50528850217E+02  0.29999970721E+02 0.  0.
        -12    1    1    2    0    0 -0.15439255843E+02  0.32809388581E+02 -0.18394016989E+02  0.40659149783E+02  0.00000000000E+00 0.  1.
         11    1    3    3    0    0  0.10612601476E+02 -0.15602596859E+02  0.19797100813E+02  0.27349470556E+02  0.51100000000E-03 0. -1.
        -11    1    3    3    0    0  0.85709098021E+01 -0.16507107350E+02  0.10824920554E+01  0.18631072895E+02  0.51100000000E-03 0.  1.
        -12    1    3    3    0    0 -0.37442554352E+01 -0.69968437212E+00 -0.24855758802E+01  0.45483067663E+01  0.00000000000E+00 0.  1.
</event>
<event>
 7    1  0.6090311E-013  0.5052886E+02  0.7816164E-02  0.1300439E+00
        -11   -1    0    0    0    0  0.00000000000E+00  0.00000000000E+00  0.45593999997E+02  0.45594000000E+02  0.51100000000E-03 0. -1.
         11   -1    0    0    0    0 -0.00000000000E+00 -0.00000000000E+00 -0.45593999997E+02  0.45594000000E+02  0.51100000000E-03 0.  1.
    9900012    2    1    2    0    0 -0.19430368228E+02 -0.90947311545E+01  0.34538561776E+02  0.50528860882E+02  0.30000003137E+02 0.  0.
        -12    1    1    2    0    0  0.19430368228E+02  0.90947311545E+01 -0.34538561776E+02  0.40659139118E+02  0.00000000000E+00 0.  1.
         11    1    3    3    0    0 -0.55522367442E+01 -0.21664315918E+01  0.97343987838E+01  0.11413994859E+02  0.51100000000E-03 0. -1.
        -11    1    3    3    0    0 -0.13579112179E+02 -0.16031172865E+02  0.18910133503E+02  0.28266303974E+02  0.51100000000E-03 0.  1.
        -12    1    3    3    0    0 -0.29901930469E+00  0.91028733023E+01  0.58940294895E+01  0.10848562049E+02  0.00000000000E+00 0.  1.
</event>
<event>
 7    1  0.6090311E-013  0.5052891E+02  0.7816164E-02  0.1300439E+00
        -11   -1    0    0    0    0  0.00000000000E+00  0.00000000000E+00  0.45593999997E+02  0.45594000000E+02  0.51100000000E-03 0.  1.
         11   -1    0    0    0    0 -0.00000000000E+00 -0.00000000000E+00 -0.45593999997E+02  0.45594000000E+02  0.51100000000E-03 0. -1.
    9900012    2    1    2    0    0 -0.29351519912E+02 -0.22752862961E+01 -0.28044129069E+02  0.50528907239E+02  0.30000144045E+02 0.  0.
        -12    1    1    2    0    0  0.29351519912E+02  0.22752862961E+01  0.28044129069E+02  0.40659092761E+02  0.00000000000E+00 0.  1.
         11    1    3    3    0    0  0.22211356748E+00  0.23537628057E+01  0.19169820053E+00  0.23719785504E+01  0.51100000000E-03 0. -1.
        -11    1    3    3    0    0 -0.83553449943E+01 -0.13355750646E+02 -0.14533202910E+02  0.21433661665E+02  0.51100000000E-03 0.  1.
         12    1    3    3    0    0 -0.21218288486E+02  0.87267015443E+01 -0.13702624359E+02  0.26723267024E+02  0.00000000000E+00 0. -1.
</event>
<event>
 7    1  0.6090311E-013  0.5052886E+02  0.7816164E-02  0.1300439E+00
        -11   -1    0    0    0    0  0.00000000000E+00  0.00000000000E+00  0.45593999997E+02  0.45594000000E+02  0.51100000000E-03 0.  1.
         11   -1    0    0    0    0 -0.00000000000E+00 -0.00000000000E+00 -0.45593999997E+02  0.45594000000E+02  0.51100000000E-03 0. -1.
    9900012    2    1    2    0    0 -0.22673458953E+02 -0.34996870729E+01 -0.33568323496E+02  0.50528857205E+02  0.29999991960E+02 0.  0.
        -12    1    1    2    0    0  0.22673458953E+02  0.34996870729E+01  0.33568323496E+02  0.40659142795E+02  0.00000000000E+00 0.  1.
         11    1    3    3    0    0 -0.11469159110E+02  0.49933012040E+01 -0.34432011428E+01  0.12974216816E+02  0.51100000000E-03 0.  1.
        -11    1    3    3    0    0 -0.52431801393E+01  0.10943385322E+01  0.29227733452E-01  0.53562458231E+01  0.51100000000E-03 0. -1.
         12    1    3    3    0    0 -0.59611197029E+01 -0.95873268090E+01 -0.30154350087E+02  0.32198394566E+02  0.00000000000E+00 0. -1.
</event>
<event>
 7    1  0.6090311E-013  0.5052884E+02  0.7816164E-02  0.1300439E+00
        -11   -1    0    0    0    0  0.00000000000E+00  0.00000000000E+00  0.45593999997E+02  0.45594000000E+02  0.51100000000E-03 0.  1.
         11   -1    0    0    0    0 -0.00000000000E+00 -0.00000000000E+00 -0.45593999997E+02  0.45594000000E+02  0.51100000000E-03 0. -1.
    9900012    2    1    2    0    0 -0.20409361867E+02  0.91844405206E+01 -0.33945120131E+02  0.50528841374E+02  0.29999943840E+02 0.  0.
        -12    1    1    2    0    0  0.20409361867E+02 -0.91844405206E+01  0.33945120131E+02  0.40659158626E+02  0.00000000000E+00 0.  1.
         11    1    3    3    0    0 -0.73922656173E+01  0.16148974586E+01 -0.12112738837E+02  0.14281874077E+02  0.51100000000E-03 0. -1.
        -11    1    3    3    0    0 -0.94955053900E+00 -0.83888423547E+01 -0.35988476665E+01  0.91774738935E+01  0.51100000000E-03 0.  1.
         12    1    3    3    0    0 -0.12067545711E+02  0.15958385417E+02 -0.18233533628E+02  0.27069493404E+02  0.00000000000E+00 0. -1.
</event>
<event>
 7    1  0.6090311E-013  0.5052890E+02  0.7816164E-02  0.1300439E+00
        -11   -1    0    0    0    0  0.00000000000E+00  0.00000000000E+00  0.45593999997E+02  0.45594000000E+02  0.51100000000E-03 0. -1.
         11   -1    0    0    0    0 -0.00000000000E+00 -0.00000000000E+00 -0.45593999997E+02  0.45594000000E+02  0.51100000000E-03 0.  1.
    9900012    2    1    2    0    0  0.40345947117E+02  0.49804271895E+01 -0.74992742385E+00  0.50528898990E+02  0.30000118971E+02 0.  0.
        -12    1    1    2    0    0 -0.40345947117E+02 -0.49804271895E+01  0.74992742385E+00  0.40659101010E+02  0.00000000000E+00 0.  1.
         11    1    3    3    0    0  0.16672814966E+02  0.52486091191E+01  0.59206200091E+01  0.18454928830E+02  0.51100000000E-03 0. -1.
        -11    1    3    3    0    0  0.31372420063E+01 -0.73351867602E+01  0.26977302404E+01  0.84216982209E+01  0.51100000000E-03 0.  1.
        -12    1    3    3    0    0  0.20535890145E+02  0.70670048306E+01 -0.93682776733E+01  0.23652271939E+02  0.00000000000E+00 0.  1.
</event>
<event>
 7    1  0.6090311E-013  0.5052886E+02  0.7816164E-02  0.1300439E+00
        -11   -1    0    0    0    0  0.00000000000E+00  0.00000000000E+00  0.45593999997E+02  0.45594000000E+02  0.51100000000E-03 0. -1.
         11   -1    0    0    0    0 -0.00000000000E+00 -0.00000000000E+00 -0.45593999997E+02  0.45594000000E+02  0.51100000000E-03 0.  1.
    9900012    2    1    2    0    0  0.37906039085E+02  0.14509150714E+02  0.24047116605E+01  0.50528857219E+02  0.29999992003E+02 0.  0.
        -12    1    1    2    0    0 -0.37906039085E+02 -0.14509150714E+02 -0.24047116605E+01  0.40659142781E+02  0.00000000000E+00 0.  1.
         11    1    3    3    0    0  0.93922592677E+01  0.58095294143E+01 -0.96727214619E+01  0.14680827869E+02  0.51100000000E-03 0. -1.
        -11    1    3    3    0    0  0.23549849427E+01  0.57224811938E+01  0.64250658630E+01  0.89204381450E+01  0.51100000000E-03 0.  1.
         12    1    3    3    0    0  0.26158794874E+02  0.29771401054E+01  0.56523672594E+01  0.26927591205E+02  0.00000000000E+00 0. -1.
</event>
<event>
 7    1  0.6090311E-013  0.5052886E+02  0.7816164E-02  0.1300439E+00
        -11   -1    0    0    0    0  0.00000000000E+00  0.00000000000E+00  0.45593999997E+02  0.45594000000E+02  0.51100000000E-03 0.  1.
         11   -1    0    0    0    0 -0.00000000000E+00 -0.00000000000E+00 -0.45593999997E+02  0.45594000000E+02  0.51100000000E-03 0. -1.
    9900012    2    1    2    0    0  0.91326166998E+01  0.31028600271E+01 -0.39498519258E+02  0.50528862630E+02  0.30000008449E+02 0.  0.
        -12    1    1    2    0    0 -0.91326166998E+01 -0.31028600271E+01  0.39498519258E+02  0.40659137370E+02  0.00000000000E+00 0.  1.
         11    1    3    3    0    0 -0.26383462798E+01  0.99729015373E+01 -0.20623335597E+02  0.23059523143E+02  0.51100000000E-03 0. -1.
        -11    1    3    3    0    0 -0.30542492429E+01  0.75595040864E+00 -0.18953728905E+01  0.36731918155E+01  0.51100000000E-03 0.  1.
         12    1    3    3    0    0  0.14825212223E+02 -0.76259919189E+01 -0.16979810770E+02  0.23796147671E+02  0.00000000000E+00 0. -1.
</event>
<event>
 7    1  0.6090311E-013  0.5052886E+02  0.7816164E-02  0.1300439E+00
        -11   -1    0    0    0    0  0.00000000000E+00  0.00000000000E+00  0.45593999997E+02  0.45594000000E+02  0.51100000000E-03 0. -1.
         11   -1    0    0    0    0 -0.00000000000E+00 -0.00000000000E+00 -0.45593999997E+02  0.45594000000E+02  0.51100000000E-03 0.  1.
    9900012    2    1    2    0    0 -0.65092096411E+00  0.32177347096E+02 -0.24846739053E+02  0.50528858275E+02  0.29999995214E+02 0.  0.
        -12    1    1    2    0    0  0.65092096411E+00 -0.32177347096E+02  0.24846739053E+02  0.40659141725E+02  0.00000000000E+00 0.  1.
         11    1    3    3    0    0 -0.41653236222E+01  0.15096722319E+02 -0.69267321505E+00  0.15676120122E+02  0.51100000000E-03 0. -1.
        -11    1    3    3    0    0 -0.41416978819E+01  0.12349656283E+02 -0.54963429498E+01  0.14137802437E+02  0.51100000000E-03 0.  1.
        -12    1    3    3    0    0  0.76561005400E+01  0.47309684941E+01 -0.18657722888E+02  0.20714935716E+02  0.00000000000E+00 0.  1.
</event>
<event>
 7    1  0.6090311E-013  0.5052886E+02  0.7816164E-02  0.1300439E+00
        -11   -1    0    0    0    0  0.00000000000E+00  0.00000000000E+00  0.45593999997E+02  0.45594000000E+02  0.51100000000E-03 0.  1.
         11   -1    0    0    0    0 -0.00000000000E+00 -0.00000000000E+00 -0.45593999997E+02  0.45594000000E+02  0.51100000000E-03 0. -1.
    9900012    2    1    2    0    0  0.31916790984E+01  0.27079147684E+02 -0.30161209908E+02  0.50528860341E+02  0.30000001491E+02 0.  0.
        -12    1    1    2    0    0 -0.31916790984E+01 -0.27079147684E+02  0.30161209908E+02  0.40659139659E+02  0.00000000000E+00 0.  1.
         11    1    3    3    0    0  0.97938827045E+00  0.32362333112E+01 -0.21562401942E+02  0.21825892541E+02  0.51100000000E-03 0. -1.
        -11    1    3    3    0    0 -0.49632537931E+01  0.97931440351E+01 -0.65758828294E+01  0.12797726109E+02  0.51100000000E-03 0.  1.
        -12    1    3    3    0    0  0.71755446211E+01  0.14049770338E+02 -0.20229251363E+01  0.15905241691E+02  0.00000000000E+00 0.  1.
</event>
<event>
 7    1  0.6090311E-013  0.5052884E+02  0.7816164E-02  0.1300439E+00
        -11   -1    0    0    0    0  0.00000000000E+00  0.00000000000E+00  0.45593999997E+02  0.45594000000E+02  0.51100000000E-03 0. -1.
         11   -1    0    0    0    0 -0.00000000000E+00 -0.00000000000E+00 -0.45593999997E+02  0.45594000000E+02  0.51100000000E-03 0.  1.
    9900012    2    1    2    0    0 -0.37715003270E+02  0.14951045992E+02  0.26855635741E+01  0.50528837446E+02  0.29999931900E+02 0.  0.
        -12    1    1    2    0    0  0.37715003270E+02 -0.14951045992E+02 -0.26855635741E+01  0.40659162554E+02  0.00000000000E+00 0.  1.
         11    1    3    3    0    0 -0.16623160957E+02  0.19432642908E+02 -0.73803340925E+01  0.26616281148E+02  0.51100000000E-03 0.  1.
        -11    1    3    3    0    0 -0.51272852808E+01 -0.50692096360E+00  0.15107345151E+01  0.53692031299E+01  0.51100000000E-03 0. -1.
        -12    1    3    3    0    0 -0.15964557032E+02 -0.39746759520E+01  0.85551631515E+01  0.18543353168E+02  0.00000000000E+00 0.  1.
</event>
<event>
 7    1  0.6090311E-013  0.5052886E+02  0.7816164E-02  0.1300439E+00
        -11   -1    0    0    0    0  0.00000000000E+00  0.00000000000E+00  0.45593999997E+02  0.45594000000E+02  0.51100000000E-03 0.  1.
         11   -1    0    0    0    0 -0.00000000000E+00 -0.00000000000E+00 -0.45593999997E+02  0.45594000000E+02  0.51100000000E-03 0. -1.
    9900012    2    1    2    0    0 -0.13303640422E+02 -0.36220234343E+02 -0.12816924961E+02  0.50528858472E+02  0.29999995812E+02 0.  0.
        -12    1    1    2    0    0  0.13303640422E+02  0.36220234343E+02  0.12816924961E+02  0.40659141528E+02  0.00000000000E+00 0.  1.
         11    1    3    3    0    0 -0.10166728707E+01 -0.12071939580E+02  0.38076688117E+01  0.12698964170E+02  0.51100000000E-03 0. -1.
        -11    1    3    3    0    0  0.39683909185E+01 -0.30493294344E+00  0.88317729547E+00  0.40768999226E+01  0.51100000000E-03 0.  1.
         12    1    3    3    0    0 -0.16255358470E+02 -0.23843361819E+02 -0.17507771068E+02  0.33752994379E+02  0.00000000000E+00 0. -1.
</event>
<event>
 7    1  0.6090311E-013  0.5052886E+02  0.7816164E-02  0.1300439E+00
        -11   -1    0    0    0    0  0.00000000000E+00  0.00000000000E+00  0.45593999997E+02  0.45594000000E+02  0.51100000000E-03 0. -1.
         11   -1    0    0    0    0 -0.00000000000E+00 -0.00000000000E+00 -0.45593999997E+02  0.45594000000E+02  0.51100000000E-03 0.  1.
    9900012    2    1    2    0    0  0.11104262947E+02 -0.95725972003E+01  0.37923952014E+02  0.50528863154E+02  0.30000010042E+02 0.  0.
        -12    1    1    2    0    0 -0.11104262947E+02  0.95725972003E+01 -0.37923952014E+02  0.40659136846E+02  0.00000000000E+00 0.  1.
         11    1    3    3    0    0 -0.56040353786E+01  0.10833241156E+01  0.11367680720E+02  0.12720179593E+02  0.51100000000E-03 0. -1.
        -11    1    3    3    0    0 -0.24202549688E+01 -0.63394137286E+00 -0.10890876704E+01  0.27286678055E+01  0.51100000000E-03 0.  1.
        -12    1    3    3    0    0  0.19128553295E+02 -0.10021979943E+02  0.27645358963E+02  0.35080015755E+02  0.00000000000E+00 0.  1.
</event>
<event>
 7    1  0.6090311E-013  0.5052886E+02  0.7816164E-02  0.1300439E+00
        -11   -1    0    0    0    0  0.00000000000E+00  0.00000000000E+00  0.45593999997E+02  0.45594000000E+02  0.51100000000E-03 0.  1.
         11   -1    0    0    0    0 -0.00000000000E+00 -0.00000000000E+00 -0.45593999997E+02  0.45594000000E+02  0.51100000000E-03 0. -1.
    9900012    2    1    2    0    0 -0.24698315687E+01  0.37785297722E+02 -0.14810026451E+02  0.50528859879E+02  0.30000000087E+02 0.  0.
        -12    1    1    2    0    0  0.24698315687E+01 -0.37785297722E+02  0.14810026451E+02  0.40659140121E+02  0.00000000000E+00 0.  1.
         11    1    3    3    0    0  0.60159851878E+01  0.36073595346E+02 -0.80676088656E+01  0.37451070372E+02  0.51100000000E-03 0. -1.
        -11    1    3    3    0    0  0.62903813754E+00  0.47229549376E+00  0.84439245277E+00  0.11540151157E+01  0.51100000000E-03 0.  1.
        -12    1    3    3    0    0 -0.91148548940E+01  0.12394068827E+01 -0.75868100385E+01  0.11923774391E+02  0.00000000000E+00 0.  1.
</event>
<event>
 7    1  0.6090311E-013  0.5052886E+02  0.7816164E-02  0.1300439E+00
        -11   -1    0    0    0    0  0.00000000000E+00  0.00000000000E+00  0.45593999997E+02  0.45594000000E+02  0.51100000000E-03 0. -1.
         11   -1    0    0    0    0 -0.00000000000E+00 -0.00000000000E+00 -0.45593999997E+02  0.45594000000E+02  0.51100000000E-03 0.  1.
    9900012    2    1    2    0    0  0.26471260362E+02 -0.31756800275E+01 -0.30697772216E+02  0.50528858496E+02  0.29999995885E+02 0.  0.
        -12    1    1    2    0    0 -0.26471260362E+02  0.31756800275E+01  0.30697772216E+02  0.40659141504E+02  0.00000000000E+00 0.  1.
         11    1    3    3    0    0  0.26412250993E+01 -0.31947610466E+01 -0.70992380444E+01  0.82208119576E+01  0.51100000000E-03 0. -1.
        -11    1    3    3    0    0  0.10927531768E+02  0.45179784452E+01 -0.25881032556E+02  0.28454365679E+02  0.51100000000E-03 0.  1.
         12    1    3    3    0    0  0.12902503495E+02 -0.44988974261E+01  0.22824983838E+01  0.13853680860E+02  0.00000000000E+00 0. -1.
</event>
<event>
 7    1  0.6090311E-013  0.5052886E+02  0.7816164E-02  0.1300439E+00
        -11   -1    0    0    0    0  0.00000000000E+00  0.00000000000E+00  0.45593999997E+02  0.45594000000E+02  0.51100000000E-03 0.  1.
         11   -1    0    0    0    0 -0.00000000000E+00 -0.00000000000E+00 -0.45593999997E+02  0.45594000000E+02  0.51100000000E-03 0. -1.
    9900012    2    1    2    0    0  0.22818057932E+02 -0.13888786882E+02 -0.30652956928E+02  0.50528856659E+02  0.29999990300E+02 0.  0.
        -12    1    1    2    0    0 -0.22818057932E+02  0.13888786882E+02  0.30652956928E+02  0.40659143341E+02  0.00000000000E+00 0.  1.
         11    1    3    3    0    0  0.14538058373E+02 -0.69537933242E+00 -0.57587331186E+01  0.15652530181E+02  0.51100000000E-03 0. -1.
        -11    1    3    3    0    0  0.11080827097E+02 -0.61811770770E+00 -0.14857201841E+02  0.18544628480E+02  0.51100000000E-03 0.  1.
        -12    1    3    3    0    0 -0.28008275384E+01 -0.12575289842E+02 -0.10037021969E+02  0.16331697998E+02  0.00000000000E+00 0.  1.
</event>
<event>
 7    1  0.6090311E-013  0.5052888E+02  0.7816164E-02  0.1300439E+00
        -11   -1    0    0    0    0  0.00000000000E+00  0.00000000000E+00  0.45593999997E+02  0.45594000000E+02  0.51100000000E-03 0.  1.
         11   -1    0    0    0    0 -0.00000000000E+00 -0.00000000000E+00 -0.45593999997E+02  0.45594000000E+02  0.51100000000E-03 0. -1.
    9900012    2    1    2    0    0  0.75002019889E+01  0.11545572890E+02 -0.38257164589E+02  0.50528881397E+02  0.30000065493E+02 0.  0.
        -12    1    1    2    0    0 -0.75002019889E+01 -0.11545572890E+02  0.38257164589E+02  0.40659118603E+02  0.00000000000E+00 0.  1.
         11    1    3    3    0    0  0.47230676416E+00  0.62794525932E+01 -0.17891011203E+02  0.18966889061E+02  0.51100000000E-03 0. -1.
        -11    1    3    3    0    0 -0.48896398754E+01 -0.21727100268E+01  0.15133434706E+01  0.55605265662E+01  0.51100000000E-03 0.  1.
         12    1    3    3    0    0  0.11917535100E+02  0.74388303235E+01 -0.21879496857E+02  0.26001465769E+02  0.00000000000E+00 0. -1.
</event>
<event>
 7    1  0.6090311E-013  0.5052886E+02  0.7816164E-02  0.1300439E+00
        -11   -1    0    0    0    0  0.00000000000E+00  0.00000000000E+00  0.45593999997E+02  0.45594000000E+02  0.51100000000E-03 0.  1.
         11   -1    0    0    0    0 -0.00000000000E+00 -0.00000000000E+00 -0.45593999997E+02  0.45594000000E+02  0.51100000000E-03 0. -1.
    9900012    2    1    2    0    0  0.11920806634E+02 -0.24896747403E+02 -0.29853171860E+02  0.50528861641E+02  0.30000005443E+02 0.  0.
        -12    1    1    2    0    0 -0.11920806634E+02  0.24896747403E+02  0.29853171860E+02  0.40659138359E+02  0.00000000000E+00 0.  1.
         11    1    3    3    0    0 -0.52191232988E+01 -0.13958569875E+02 -0.17476382608E+02  0.22967474181E+02  0.51100000000E-03 0. -1.
        -11    1    3    3    0    0 -0.11533422774E+01 -0.35818255701E+01  0.79953186724E+00  0.38469370013E+01  0.51100000000E-03 0.  1.
         12    1    3    3    0    0  0.18293272210E+02 -0.73563519575E+01 -0.13176321119E+02  0.23714450458E+02  0.00000000000E+00 0. -1.
</event>
<event>
 7    1  0.6090311E-013  0.5052886E+02  0.7816164E-02  0.1300439E+00
        -11   -1    0    0    0    0  0.00000000000E+00  0.00000000000E+00  0.45593999997E+02  0.45594000000E+02  0.51100000000E-03 0.  1.
         11   -1    0    0    0    0 -0.00000000000E+00 -0.00000000000E+00 -0.45593999997E+02  0.45594000000E+02  0.51100000000E-03 0. -1.
    9900012    2    1    2    0    0  0.37216619952E+02  0.43686207034E+01  0.15779851848E+02  0.50528863612E+02  0.30000011435E+02 0.  0.
        -12    1    1    2    0    0 -0.37216619952E+02 -0.43686207034E+01 -0.15779851848E+02  0.40659136388E+02  0.00000000000E+00 0.  1.
         11    1    3    3    0    0  0.25419338063E+02 -0.28106052850E+00 -0.59307819055E+00  0.25427809276E+02  0.51100000000E-03 0. -1.
        -11    1    3    3    0    0 -0.31131821006E+01  0.19780670094E+01  0.18937525780E+01  0.41461971700E+01  0.51100000000E-03 0.  1.
         12    1    3    3    0    0  0.14910463990E+02  0.26716142225E+01  0.14479177460E+02  0.20954857166E+02  0.00000000000E+00 0. -1.
</event>
<event>
 7    1  0.6090311E-013  0.5052886E+02  0.7816164E-02  0.1300439E+00
        -11   -1    0    0    0    0  0.00000000000E+00  0.00000000000E+00  0.45593999997E+02  0.45594000000E+02  0.51100000000E-03 0. -1.
         11   -1    0    0    0    0 -0.00000000000E+00 -0.00000000000E+00 -0.45593999997E+02  0.45594000000E+02  0.51100000000E-03 0.  1.
    9900012    2    1    2    0    0  0.11975198281E+02  0.11594702420E+02  0.37085347635E+02  0.50528861946E+02  0.30000006370E+02 0.  0.
        -12    1    1    2    0    0 -0.11975198281E+02 -0.11594702420E+02 -0.37085347635E+02  0.40659138054E+02  0.00000000000E+00 0.  1.
         11    1    3    3    0    0  0.12386548160E+02  0.13288223617E+02  0.11086899727E+02  0.21281983179E+02  0.51100000000E-03 0. -1.
        -11    1    3    3    0    0 -0.34140375324E+01  0.15070654364E+01  0.99642426868E+00  0.38626105275E+01  0.51100000000E-03 0.  1.
         12    1    3    3    0    0  0.30026876532E+01 -0.32005866333E+01  0.25002023640E+02  0.25384268239E+02  0.00000000000E+00 0. -1.
</event>
<event>
 7    1  0.6090311E-013  0.5052887E+02  0.7816164E-02  0.1300439E+00
        -11   -1    0    0    0    0  0.00000000000E+00  0.00000000000E+00  0.45593999997E+02  0.45594000000E+02  0.51100000000E-03 0.  1.
         11   -1    0    0    0    0 -0.00000000000E+00 -0.00000000000E+00 -0.45593999997E+02  0.45594000000E+02  0.51100000000E-03 0. -1.
    9900012    2    1    2    0    0 -0.25856944841E+02 -0.77939812110E+01 -0.30394693856E+02  0.50528866288E+02  0.30000019569E+02 0.  0.
        -12    1    1    2    0    0  0.25856944841E+02  0.77939812110E+01  0.30394693856E+02  0.40659133712E+02  0.00000000000E+00 0.  1.
         11    1    3    3    0    0 -0.71265322605E+00 -0.26328401935E+00 -0.22677049399E+01  0.23915850499E+01  0.51100000000E-03 0. -1.
        -11    1    3    3    0    0 -0.10956009267E+01  0.92954676360E+01 -0.97115545505E+01  0.13487785289E+02  0.51100000000E-03 0.  1.
         12    1    3    3    0    0 -0.24048690688E+02 -0.16826164828E+02 -0.18415434365E+02  0.34649495949E+02  0.00000000000E+00 0. -1.
</event>
<event>
 7    1  0.6090311E-013  0.5052886E+02  0.7816164E-02  0.1300439E+00
        -11   -1    0    0    0    0  0.00000000000E+00  0.00000000000E+00  0.45593999997E+02  0.45594000000E+02  0.51100000000E-03 0. -1.
         11   -1    0    0    0    0 -0.00000000000E+00 -0.00000000000E+00 -0.45593999997E+02  0.45594000000E+02  0.51100000000E-03 0.  1.
    9900012    2    1    2    0    0  0.22228359823E+02 -0.40556857793E+01  0.33802620532E+02  0.50528859301E+02  0.29999998330E+02 0.  0.
        -12    1    1    2    0    0 -0.22228359823E+02  0.40556857793E+01 -0.33802620532E+02  0.40659140699E+02  0.00000000000E+00 0.  1.
         11    1    3    3    0    0  0.43653871113E+01 -0.19767108107E+01  0.19395756631E+02  0.19978973092E+02  0.51100000000E-03 0. -1.
        -11    1    3    3    0    0 -0.35865314103E+00  0.15830300304E+01  0.11647682070E+02  0.11760234437E+02  0.51100000000E-03 0.  1.
        -12    1    3    3    0    0  0.18221625853E+02 -0.36620049990E+01  0.27591818314E+01  0.18789651772E+02  0.00000000000E+00 0.  1.
</event>
<event>
 7    1  0.6090311E-013  0.5052887E+02  0.7816164E-02  0.1300439E+00
        -11   -1    0    0    0    0  0.00000000000E+00  0.00000000000E+00  0.45593999997E+02  0.45594000000E+02  0.51100000000E-03 0.  1.
         11   -1    0    0    0    0 -0.00000000000E+00 -0.00000000000E+00 -0.45593999997E+02  0.45594000000E+02  0.51100000000E-03 0. -1.
    9900012    2    1    2    0    0  0.83563928395E+01 -0.19741415796E+02 -0.34548693655E+02  0.50528867788E+02  0.30000024128E+02 0.  0.
        -12    1    1    2    0    0 -0.83563928395E+01  0.19741415796E+02  0.34548693655E+02  0.40659132212E+02  0.00000000000E+00 0.  1.
         11    1    3    3    0    0  0.27021749284E+01 -0.13984230417E+02 -0.24951694368E+02  0.28730602183E+02  0.51100000000E-03 0.  1.
        -11    1    3    3    0    0  0.63724794964E+01 -0.93201697864E+01 -0.12718705627E+02  0.17007043625E+02  0.51100000000E-03 0. -1.
        -12    1    3    3    0    0 -0.71826158535E+00  0.35629844066E+01  0.31217063399E+01  0.47912219798E+01  0.00000000000E+00 0.  1.
</event>
<event>
 7    1  0.6090311E-013  0.5052887E+02  0.7816164E-02  0.1300439E+00
        -11   -1    0    0    0    0  0.00000000000E+00  0.00000000000E+00  0.45593999997E+02  0.45594000000E+02  0.51100000000E-03 0.  1.
         11   -1    0    0    0    0 -0.00000000000E+00 -0.00000000000E+00 -0.45593999997E+02  0.45594000000E+02  0.51100000000E-03 0. -1.
    9900012    2    1    2    0    0  0.20768405373E+02 -0.26158115614E+02 -0.23186016201E+02  0.50528867920E+02  0.30000024530E+02 0.  0.
        -12    1    1    2    0    0 -0.20768405373E+02  0.26158115614E+02  0.23186016201E+02  0.40659132080E+02  0.00000000000E+00 0.  1.
         11    1    3    3    0    0  0.26407359653E+01 -0.67538751365E+01 -0.88354982033E+01  0.11430413140E+02  0.51100000000E-03 0. -1.
        -11    1    3    3    0    0  0.16691472705E+01 -0.18536589182E+02 -0.12706154938E+02  0.22535251600E+02  0.51100000000E-03 0.  1.
         12    1    3    3    0    0  0.16458522137E+02 -0.86765129586E+00 -0.16443630592E+01  0.16563203180E+02  0.00000000000E+00 0. -1.
</event>
<event>
 7    1  0.6090311E-013  0.5052887E+02  0.7816164E-02  0.1300439E+00
        -11   -1    0    0    0    0  0.00000000000E+00  0.00000000000E+00  0.45593999997E+02  0.45594000000E+02  0.51100000000E-03 0.  1.
         11   -1    0    0    0    0 -0.00000000000E+00 -0.00000000000E+00 -0.45593999997E+02  0.45594000000E+02  0.51100000000E-03 0. -1.
    9900012    2    1    2    0    0  0.39007099798E+02 -0.10590325776E+02 -0.44108816886E+01  0.50528871726E+02  0.30000036100E+02 0.  0.
        -12    1    1    2    0    0 -0.39007099798E+02  0.10590325776E+02  0.44108816886E+01  0.40659128274E+02  0.00000000000E+00 0.  1.
         11    1    3    3    0    0  0.10085456979E+02 -0.48777623216E+01  0.24062721932E+01  0.11458584288E+02  0.51100000000E-03 0. -1.
        -11    1    3    3    0    0  0.66820763922E+01 -0.13083658246E+02 -0.52033966321E+01  0.15585493088E+02  0.51100000000E-03 0.  1.
        -12    1    3    3    0    0  0.22239566426E+02  0.73710947915E+01 -0.16137572497E+01  0.23484794351E+02  0.00000000000E+00 0.  1.
</event>
<event>
 7    1  0.6090311E-013  0.5052886E+02  0.7816164E-02  0.1300439E+00
        -11   -1    0    0    0    0  0.00000000000E+00  0.00000000000E+00  0.45593999997E+02  0.45594000000E+02  0.51100000000E-03 0.  1.
         11   -1    0    0    0    0 -0.00000000000E+00 -0.00000000000E+00 -0.45593999997E+02  0.45594000000E+02  0.51100000000E-03 0. -1.
    9900012    2    1    2    0    0 -0.31651731981E+02 -0.94909478977E+01 -0.23690825169E+02  0.50528862939E+02  0.30000009389E+02 0.  0.
        -12    1    1    2    0    0  0.31651731981E+02  0.94909478977E+01  0.23690825169E+02  0.40659137061E+02  0.00000000000E+00 0.  1.
         11    1    3    3    0    0 -0.18490945173E+02 -0.65103088603E+00 -0.11509989807E+02  0.21790336396E+02  0.51100000000E-03 0. -1.
        -11    1    3    3    0    0 -0.91218978068E+01  0.46072826054E+00 -0.15566734557E+02  0.18048393700E+02  0.51100000000E-03 0.  1.
        -12    1    3    3    0    0 -0.40388890009E+01 -0.93006452722E+01  0.33858991959E+01  0.10690132843E+02  0.00000000000E+00 0.  1.
</event>
<event>
 7    1  0.6090311E-013  0.5052886E+02  0.7816164E-02  0.1300439E+00
        -11   -1    0    0    0    0  0.00000000000E+00  0.00000000000E+00  0.45593999997E+02  0.45594000000E+02  0.51100000000E-03 0.  1.
         11   -1    0    0    0    0 -0.00000000000E+00 -0.00000000000E+00 -0.45593999997E+02  0.45594000000E+02  0.51100000000E-03 0. -1.
    9900012    2    1    2    0    0  0.26598476279E+02  0.24900642215E+02 -0.18045626632E+02  0.50528861253E+02  0.30000004264E+02 0.  0.
        -12    1    1    2    0    0 -0.26598476279E+02 -0.24900642215E+02  0.18045626632E+02  0.40659138747E+02  0.00000000000E+00 0.  1.
         11    1    3    3    0    0  0.22023283927E+02  0.13859527144E+02 -0.17806558300E+02  0.31530700061E+02  0.51100000000E-03 0. -1.
        -11    1    3    3    0    0  0.77842713197E+01  0.33938511646E+01  0.43271820628E+01  0.95308766948E+01  0.51100000000E-03 0.  1.
         12    1    3    3    0    0 -0.32090789674E+01  0.76472639068E+01 -0.45662503952E+01  0.94672844972E+01  0.00000000000E+00 0. -1.
</event>
<event>
 7    1  0.6456990E-013  0.5052889E+02  0.7816164E-02  0.1300439E+00
        -11   -1    0    0    0    0  0.00000000000E+00  0.00000000000E+00  0.45593999997E+02  0.45594000000E+02  0.51100000000E-03 0. -1.
         11   -1    0    0    0    0 -0.00000000000E+00 -0.00000000000E+00 -0.45593999997E+02  0.45594000000E+02  0.51100000000E-03 0.  1.
    9900012    2    1    2    0    0 -0.52446641603E+01  0.18356505880E+02  0.35898400285E+02  0.50528893354E+02  0.30000101837E+02 0.  0.
        -12    1    1    2    0    0  0.52446641603E+01 -0.18356505880E+02 -0.35898400285E+02  0.40659106646E+02  0.00000000000E+00 0.  1.
         11    1    3    3    0    0  0.51444799349E+01  0.32033695317E+01  0.15349682507E+02  0.16502727153E+02  0.51100000000E-03 0. -1.
        -11    1    3    3    0    0  0.17070264209E+00  0.11496118576E+02  0.10411758017E+01  0.11544432814E+02  0.51100000000E-03 0.  1.
         12    1    3    3    0    0 -0.10559846737E+02  0.36570177732E+01  0.19507541975E+02  0.22481733386E+02  0.00000000000E+00 0. -1.
</event>
<event>
 7    1  0.6090311E-013  0.5052887E+02  0.7816164E-02  0.1300439E+00
        -11   -1    0    0    0    0  0.00000000000E+00  0.00000000000E+00  0.45593999997E+02  0.45594000000E+02  0.51100000000E-03 0.  1.
         11   -1    0    0    0    0 -0.00000000000E+00 -0.00000000000E+00 -0.45593999997E+02  0.45594000000E+02  0.51100000000E-03 0. -1.
    9900012    2    1    2    0    0 -0.70809100811E+01  0.30779460213E+02 -0.25605678681E+02  0.50528865242E+02  0.30000016388E+02 0.  0.
        -12    1    1    2    0    0  0.70809100811E+01 -0.30779460213E+02  0.25605678681E+02  0.40659134758E+02  0.00000000000E+00 0.  1.
         11    1    3    3    0    0 -0.10298395348E+02  0.42659382145E+01 -0.86323933536E+01  0.14098701744E+02  0.51100000000E-03 0. -1.
        -11    1    3    3    0    0  0.51643267004E+01  0.80389527853E+00  0.55063749367E+00  0.52554466792E+01  0.51100000000E-03 0.  1.
         12    1    3    3    0    0 -0.19468414332E+01  0.25709626720E+02 -0.17523922822E+02  0.31174716818E+02  0.00000000000E+00 0. -1.
</event>
<event>
 7    1  0.6090311E-013  0.5052884E+02  0.7816164E-02  0.1300439E+00
        -11   -1    0    0    0    0  0.00000000000E+00  0.00000000000E+00  0.45593999997E+02  0.45594000000E+02  0.51100000000E-03 0. -1.
         11   -1    0    0    0    0 -0.00000000000E+00 -0.00000000000E+00 -0.45593999997E+02  0.45594000000E+02  0.51100000000E-03 0.  1.
    9900012    2    1    2    0    0  0.34495579410E+02  0.21091226772E+02 -0.42874987405E+01  0.50528837551E+02  0.29999932220E+02 0.  0.
        -12    1    1    2    0    0 -0.34495579410E+02 -0.21091226772E+02  0.42874987405E+01  0.40659162449E+02  0.00000000000E+00 0.  1.
         11    1    3    3    0    0  0.54487336398E+01  0.66769576728E+01  0.79782459655E+01  0.11744056837E+02  0.51100000000E-03 0. -1.
        -11    1    3    3    0    0  0.55853141800E-01  0.31093252550E+01 -0.64056125430E+01  0.71205965640E+01  0.51100000000E-03 0.  1.
        -12    1    3    3    0    0  0.28990992629E+02  0.11304943844E+02 -0.58601321630E+01  0.31664184150E+02  0.00000000000E+00 0.  1.
</event>
<event>
 7    1  0.6090311E-013  0.5052887E+02  0.7816164E-02  0.1300439E+00
        -11   -1    0    0    0    0  0.00000000000E+00  0.00000000000E+00  0.45593999997E+02  0.45594000000E+02  0.51100000000E-03 0.  1.
         11   -1    0    0    0    0 -0.00000000000E+00 -0.00000000000E+00 -0.45593999997E+02  0.45594000000E+02  0.51100000000E-03 0. -1.
    9900012    2    1    2    0    0  0.32283643765E+02  0.22579976348E+02 -0.10053636017E+02  0.50528873303E+02  0.30000040891E+02 0.  0.
        -12    1    1    2    0    0 -0.32283643765E+02 -0.22579976348E+02  0.10053636017E+02  0.40659126697E+02  0.00000000000E+00 0.  1.
         11    1    3    3    0    0  0.11013805403E+02  0.18106171708E+02 -0.37221528307E+01  0.21517243906E+02  0.51100000000E-03 0. -1.
        -11    1    3    3    0    0  0.32578841609E+00  0.71816662762E+01 -0.13739267573E+01  0.73191627656E+01  0.51100000000E-03 0.  1.
         12    1    3    3    0    0  0.20944049946E+02 -0.27078616355E+01 -0.49575564292E+01  0.21692466631E+02  0.00000000000E+00 0. -1.
</event>
<event>
 7    1  0.6090311E-013  0.5052894E+02  0.7816164E-02  0.1300439E+00
        -11   -1    0    0    0    0  0.00000000000E+00  0.00000000000E+00  0.45593999997E+02  0.45594000000E+02  0.51100000000E-03 0.  1.
         11   -1    0    0    0    0 -0.00000000000E+00 -0.00000000000E+00 -0.45593999997E+02  0.45594000000E+02  0.51100000000E-03 0. -1.
    9900012    2    1    2    0    0 -0.12808743503E+02  0.28816174497E+02 -0.25665610728E+02  0.50528937089E+02  0.30000234774E+02 0.  0.
        -12    1    1    2    0    0  0.12808743503E+02 -0.28816174497E+02  0.25665610728E+02  0.40659062911E+02  0.00000000000E+00 0.  1.
         11    1    3    3    0    0 -0.14482710121E+02  0.43384342787E+01 -0.84528093035E+01  0.17321111102E+02  0.51100000000E-03 0. -1.
        -11    1    3    3    0    0 -0.42900677711E+01  0.17015782173E+01 -0.13147099604E+01  0.47988032311E+01  0.51100000000E-03 0.  1.
        -12    1    3    3    0    0  0.59640343888E+01  0.22776162001E+02 -0.15898091464E+02  0.28409022755E+02  0.00000000000E+00 0.  1.
</event>
<event>
 7    1  0.6090311E-013  0.5052887E+02  0.7816164E-02  0.1300439E+00
        -11   -1    0    0    0    0  0.00000000000E+00  0.00000000000E+00  0.45593999997E+02  0.45594000000E+02  0.51100000000E-03 0.  1.
         11   -1    0    0    0    0 -0.00000000000E+00 -0.00000000000E+00 -0.45593999997E+02  0.45594000000E+02  0.51100000000E-03 0. -1.
    9900012    2    1    2    0    0  0.18720047060E+02  0.32648395438E+02 -0.15388530512E+02  0.50528871162E+02  0.30000034383E+02 0.  0.
        -12    1    1    2    0    0 -0.18720047060E+02 -0.32648395438E+02  0.15388530512E+02  0.40659128838E+02  0.00000000000E+00 0.  1.
         11    1    3    3    0    0  0.16477954764E+02  0.20420850131E+02 -0.15232504814E+02  0.30340786352E+02  0.51100000000E-03 0. -1.
        -11    1    3    3    0    0  0.81941484904E+01  0.11596102159E+02 -0.26745084153E+00  0.14201590931E+02  0.51100000000E-03 0.  1.
         12    1    3    3    0    0 -0.59520561945E+01  0.63144314712E+00  0.11142514395E+00  0.59864938781E+01  0.00000000000E+00 0. -1.
</event>
<event>
 7    1  0.6090311E-013  0.5052886E+02  0.7816164E-02  0.1300439E+00
        -11   -1    0    0    0    0  0.00000000000E+00  0.00000000000E+00  0.45593999997E+02  0.45594000000E+02  0.51100000000E-03 0.  1.
         11   -1    0    0    0    0 -0.00000000000E+00 -0.00000000000E+00 -0.45593999997E+02  0.45594000000E+02  0.51100000000E-03 0. -1.
    9900012    2    1    2    0    0  0.28727305338E+02  0.28650223677E+02  0.26593695191E+01  0.50528860376E+02  0.30000001600E+02 0.  0.
        -12    1    1    2    0    0 -0.28727305338E+02 -0.28650223677E+02 -0.26593695191E+01  0.40659139624E+02  0.00000000000E+00 0.  1.
         11    1    3    3    0    0  0.16132000903E+02  0.18585479704E+02 -0.22621021689E+01  0.24713935653E+02  0.51100000000E-03 0. -1.
        -11    1    3    3    0    0  0.11440485442E+02  0.72973141659E+01 -0.57444519452E+01  0.14735475207E+02  0.51100000000E-03 0.  1.
        -12    1    3    3    0    0  0.11548189936E+01  0.27674298066E+01  0.10665923633E+02  0.11079449517E+02  0.00000000000E+00 0.  1.
</event>
<event>
 7    1  0.6090311E-013  0.5052886E+02  0.7816164E-02  0.1300439E+00
        -11   -1    0    0    0    0  0.00000000000E+00  0.00000000000E+00  0.45593999997E+02  0.45594000000E+02  0.51100000000E-03 0.  1.
         11   -1    0    0    0    0 -0.00000000000E+00 -0.00000000000E+00 -0.45593999997E+02  0.45594000000E+02  0.51100000000E-03 0. -1.
    9900012    2    1    2    0    0  0.13335780461E+02 -0.18766297256E+01 -0.38364056803E+02  0.50528860387E+02  0.30000001633E+02 0.  0.
        -12    1    1    2    0    0 -0.13335780461E+02  0.18766297256E+01  0.38364056803E+02  0.40659139613E+02  0.00000000000E+00 0.  1.
         11    1    3    3    0    0  0.41722730266E+01 -0.77970089958E+01 -0.21738981043E+02  0.23468798618E+02  0.51100000000E-03 0. -1.
        -11    1    3    3    0    0 -0.51446431777E+01  0.44082034603E+00 -0.78724939493E+01  0.94147669778E+01  0.51100000000E-03 0.  1.
        -12    1    3    3    0    0  0.14308150612E+02  0.54795589242E+01 -0.87525818107E+01  0.17645294792E+02  0.00000000000E+00 0.  1.
</event>
<event>
 7    1  0.6090311E-013  0.5052885E+02  0.7816164E-02  0.1300439E+00
        -11   -1    0    0    0    0  0.00000000000E+00  0.00000000000E+00  0.45593999997E+02  0.45594000000E+02  0.51100000000E-03 0.  1.
         11   -1    0    0    0    0 -0.00000000000E+00 -0.00000000000E+00 -0.45593999997E+02  0.45594000000E+02  0.51100000000E-03 0. -1.
    9900012    2    1    2    0    0  0.29160459770E+00  0.38547404692E+02 -0.12929763582E+02  0.50528853083E+02  0.29999979431E+02 0.  0.
        -12    1    1    2    0    0 -0.29160459770E+00 -0.38547404692E+02  0.12929763582E+02  0.40659146917E+02  0.00000000000E+00 0.  1.
         11    1    3    3    0    0  0.10609899616E+01 -0.78449592987E+00 -0.57311558815E+01  0.58810952689E+01  0.51100000000E-03 0. -1.
        -11    1    3    3    0    0  0.61567545018E+01  0.98188230280E+01  0.41036221882E+01  0.12294495800E+02  0.51100000000E-03 0.  1.
         12    1    3    3    0    0 -0.69261398657E+01  0.29513077594E+02 -0.11302229889E+02  0.32353262014E+02  0.00000000000E+00 0. -1.
</event>
<event>
 7    1  0.6090311E-013  0.5052886E+02  0.7816164E-02  0.1300439E+00
        -11   -1    0    0    0    0  0.00000000000E+00  0.00000000000E+00  0.45593999997E+02  0.45594000000E+02  0.51100000000E-03 0.  1.
         11   -1    0    0    0    0 -0.00000000000E+00 -0.00000000000E+00 -0.45593999997E+02  0.45594000000E+02  0.51100000000E-03 0. -1.
    9900012    2    1    2    0    0  0.10244606824E+02  0.19146048637E+02 -0.34375028054E+02  0.50528859563E+02  0.29999999128E+02 0.  0.
        -12    1    1    2    0    0 -0.10244606824E+02 -0.19146048637E+02  0.34375028054E+02  0.40659140437E+02  0.00000000000E+00 0.  1.
         11    1    3    3    0    0  0.35224481835E+01  0.10163829754E+02 -0.21377625088E+02  0.23931442312E+02  0.51100000000E-03 0. -1.
        -11    1    3    3    0    0 -0.21655205244E+01 -0.48648622140E+01 -0.76018373082E+01  0.92813950581E+01  0.51100000000E-03 0.  1.
         12    1    3    3    0    0  0.88876791647E+01  0.13847081097E+02 -0.53955656575E+01  0.17316022193E+02  0.00000000000E+00 0. -1.
</event>
<event>
 7    1  0.6090311E-013  0.5052885E+02  0.7816164E-02  0.1300439E+00
        -11   -1    0    0    0    0  0.00000000000E+00  0.00000000000E+00  0.45593999997E+02  0.45594000000E+02  0.51100000000E-03 0. -1.
         11   -1    0    0    0    0 -0.00000000000E+00 -0.00000000000E+00 -0.45593999997E+02  0.45594000000E+02  0.51100000000E-03 0.  1.
    9900012    2    1    2    0    0  0.35269365361E+02  0.13138026923E+02  0.15382788880E+02  0.50528854926E+02  0.29999985033E+02 0.  0.
        -12    1    1    2    0    0 -0.35269365361E+02 -0.13138026923E+02 -0.15382788880E+02  0.40659145074E+02  0.00000000000E+00 0.  1.
         11    1    3    3    0    0  0.97806243007E+01  0.72725508569E+01  0.33386185614E+00  0.12192705675E+02  0.51100000000E-03 0. -1.
        -11    1    3    3    0    0  0.29115719527E+02  0.19235179316E+01  0.15351173255E+02  0.32970950325E+02  0.51100000000E-03 0.  1.
        -12    1    3    3    0    0 -0.36269784662E+01  0.39419581344E+01 -0.30224623094E+00  0.53651989257E+01  0.00000000000E+00 0.  1.
</event>
<event>
 7    1  0.6090311E-013  0.5052886E+02  0.7816164E-02  0.1300439E+00
        -11   -1    0    0    0    0  0.00000000000E+00  0.00000000000E+00  0.45593999997E+02  0.45594000000E+02  0.51100000000E-03 0. -1.
         11   -1    0    0    0    0 -0.00000000000E+00 -0.00000000000E+00 -0.45593999997E+02  0.45594000000E+02  0.51100000000E-03 0.  1.
    9900012    2    1    2    0    0 -0.11249031298E+02 -0.47315762819E+01  0.38784500213E+02  0.50528856182E+02  0.29999988850E+02 0.  0.
        -12    1    1    2    0    0  0.11249031298E+02  0.47315762819E+01 -0.38784500213E+02  0.40659143818E+02  0.00000000000E+00 0.  1.
         11    1    3    3    0    0 -0.80329756890E+01 -0.14576702215E+01  0.41515659881E+02  0.42310796690E+02  0.51100000000E-03 0. -1.
        -11    1    3    3    0    0 -0.23222825917E+01  0.34904115638E+00  0.13332581259E+01  0.27004450848E+01  0.51100000000E-03 0.  1.
        -12    1    3    3    0    0 -0.89377301687E+00 -0.36229472167E+01 -0.40644177938E+01  0.55176144069E+01  0.00000000000E+00 0.  1.
</event>
<event>
 7    1  0.6090311E-013  0.5052879E+02  0.7816164E-02  0.1300439E+00
        -11   -1    0    0    0    0  0.00000000000E+00  0.00000000000E+00  0.45593999997E+02  0.45594000000E+02  0.51100000000E-03 0. -1.
         11   -1    0    0    0    0 -0.00000000000E+00 -0.00000000000E+00 -0.45593999997E+02  0.45594000000E+02  0.51100000000E-03 0.  1.
    9900012    2    1    2    0    0  0.18668482405E+02  0.33824621699E+02  0.12670978869E+02  0.50528794721E+02  0.29999802034E+02 0.  0.
        -12    1    1    2    0    0 -0.18668482405E+02 -0.33824621699E+02 -0.12670978869E+02  0.40659205279E+02  0.00000000000E+00 0.  1.
         11    1    3    3    0    0  0.10205230422E+02  0.47166707990E+01  0.39442217460E+01  0.11914302197E+02  0.51100000000E-03 0. -1.
        -11    1    3    3    0    0  0.45708427397E+01 -0.77276661332E+00  0.70463488267E+01  0.84345007936E+01  0.51100000000E-03 0.  1.
         12    1    3    3    0    0  0.38924092427E+01  0.29880717514E+02  0.16804082966E+01  0.30179991731E+02  0.00000000000E+00 0. -1.
</event>
<event>
 7    1  0.6090311E-013  0.5052886E+02  0.7816164E-02  0.1300439E+00
        -11   -1    0    0    0    0  0.00000000000E+00  0.00000000000E+00  0.45593999997E+02  0.45594000000E+02  0.51100000000E-03 0.  1.
         11   -1    0    0    0    0 -0.00000000000E+00 -0.00000000000E+00 -0.45593999997E+02  0.45594000000E+02  0.51100000000E-03 0. -1.
    9900012    2    1    2    0    0  0.21746242565E+02  0.32142869013E+02 -0.12128597957E+02  0.50528856102E+02  0.29999988609E+02 0.  0.
        -12    1    1    2    0    0 -0.21746242565E+02 -0.32142869013E+02  0.12128597957E+02  0.40659143898E+02  0.00000000000E+00 0.  1.
         11    1    3    3    0    0  0.74468682720E+01  0.98355435156E+01 -0.99213173016E+01  0.15831181275E+02  0.51100000000E-03 0. -1.
        -11    1    3    3    0    0  0.16570717778E+02  0.16957839652E+02  0.61721817081E+01  0.24500057972E+02  0.51100000000E-03 0.  1.
         12    1    3    3    0    0 -0.22713434844E+01  0.53494858457E+01 -0.83794623632E+01  0.10197616856E+02  0.00000000000E+00 0. -1.
</event>
<event>
 7    1  0.6090311E-013  0.5052885E+02  0.7816164E-02  0.1300439E+00
        -11   -1    0    0    0    0  0.00000000000E+00  0.00000000000E+00  0.45593999997E+02  0.45594000000E+02  0.51100000000E-03 0. -1.
         11   -1    0    0    0    0 -0.00000000000E+00 -0.00000000000E+00 -0.45593999997E+02  0.45594000000E+02  0.51100000000E-03 0.  1.
    9900012    2    1    2    0    0 -0.13509344891E+02 -0.30391342613E+02  0.23388674726E+02  0.50528853296E+02  0.29999980079E+02 0.  0.
        -12    1    1    2    0    0  0.13509344891E+02  0.30391342613E+02 -0.23388674726E+02  0.40659146704E+02  0.00000000000E+00 0.  1.
         11    1    3    3    0    0 -0.77016257443E+01 -0.74770094835E+01  0.15337704841E+02  0.18720734494E+02  0.51100000000E-03 0. -1.
        -11    1    3    3    0    0 -0.81092138695E+01 -0.14704309370E+02  0.13622330981E+02  0.21622764977E+02  0.51100000000E-03 0.  1.
        -12    1    3    3    0    0  0.23014947232E+01 -0.82100237601E+01 -0.55713610957E+01  0.10185353826E+02  0.00000000000E+00 0.  1.
</event>
<event>
 7    1  0.6090311E-013  0.5052886E+02  0.7816164E-02  0.1300439E+00
        -11   -1    0    0    0    0  0.00000000000E+00  0.00000000000E+00  0.45593999997E+02  0.45594000000E+02  0.51100000000E-03 0.  1.
         11   -1    0    0    0    0 -0.00000000000E+00 -0.00000000000E+00 -0.45593999997E+02  0.45594000000E+02  0.51100000000E-03 0. -1.
    9900012    2    1    2    0    0 -0.18359560971E+02  0.15747710497E+02 -0.32681822341E+02  0.50528863555E+02  0.30000011262E+02 0.  0.
        -12    1    1    2    0    0  0.18359560971E+02 -0.15747710497E+02  0.32681822341E+02  0.40659136445E+02  0.00000000000E+00 0.  1.
         11    1    3    3    0    0 -0.23921263245E+01  0.56670044934E+01 -0.18463961828E+02  0.19461631353E+02  0.51100000000E-03 0. -1.
        -11    1    3    3    0    0 -0.30336695861E+01  0.20266580691E+01 -0.15360645469E+02  0.15787967684E+02  0.51100000000E-03 0.  1.
        -12    1    3    3    0    0 -0.12933765060E+02  0.80540479341E+01  0.11427849566E+01  0.15279264518E+02  0.00000000000E+00 0.  1.
</event>
<event>
 7    1  0.6090311E-013  0.5052887E+02  0.7816164E-02  0.1300439E+00
        -11   -1    0    0    0    0  0.00000000000E+00  0.00000000000E+00  0.45593999997E+02  0.45594000000E+02  0.51100000000E-03 0. -1.
         11   -1    0    0    0    0 -0.00000000000E+00 -0.00000000000E+00 -0.45593999997E+02  0.45594000000E+02  0.51100000000E-03 0.  1.
    9900012    2    1    2    0    0  0.34727446781E+01 -0.37071005803E+02  0.16335410887E+02  0.50528867254E+02  0.30000022504E+02 0.  0.
        -12    1    1    2    0    0 -0.34727446781E+01  0.37071005803E+02 -0.16335410887E+02  0.40659132746E+02  0.00000000000E+00 0.  1.
         11    1    3    3    0    0 -0.44027534670E+00 -0.22991383427E+01 -0.29453194417E+01  0.37622847280E+01  0.51100000000E-03 0. -1.
        -11    1    3    3    0    0 -0.42876158941E+01  0.21396810877E+01  0.23652001271E+01  0.53437867767E+01  0.51100000000E-03 0.  1.
         12    1    3    3    0    0  0.82006359189E+01 -0.36911548548E+02  0.16915530202E+02  0.41422795749E+02  0.00000000000E+00 0. -1.
</event>
<event>
 7    1  0.6090311E-013  0.5052886E+02  0.7816164E-02  0.1300439E+00
        -11   -1    0    0    0    0  0.00000000000E+00  0.00000000000E+00  0.45593999997E+02  0.45594000000E+02  0.51100000000E-03 0. -1.
         11   -1    0    0    0    0 -0.00000000000E+00 -0.00000000000E+00 -0.45593999997E+02  0.45594000000E+02  0.51100000000E-03 0.  1.
    9900012    2    1    2    0    0 -0.90363832829E+01  0.30671202073E+01  0.39523441628E+02  0.50528857273E+02  0.29999992166E+02 0.  0.
        -12    1    1    2    0    0  0.90363832829E+01 -0.30671202073E+01 -0.39523441628E+02  0.40659142727E+02  0.00000000000E+00 0.  1.
         11    1    3    3    0    0 -0.11872019621E+02  0.10509480692E+02  0.30248396127E+02  0.34152005839E+02  0.51100000000E-03 0. -1.
        -11    1    3    3    0    0 -0.22093201680E+01  0.17911691309E+01  0.10885741673E+01  0.30453860903E+01  0.51100000000E-03 0.  1.
        -12    1    3    3    0    0  0.50449565057E+01 -0.92335296157E+01  0.81864713336E+01  0.13331465343E+02  0.00000000000E+00 0.  1.
</event>
<event>
 7    1  0.6090311E-013  0.5052887E+02  0.7816164E-02  0.1300439E+00
        -11   -1    0    0    0    0  0.00000000000E+00  0.00000000000E+00  0.45593999997E+02  0.45594000000E+02  0.51100000000E-03 0. -1.
         11   -1    0    0    0    0 -0.00000000000E+00 -0.00000000000E+00 -0.45593999997E+02  0.45594000000E+02  0.51100000000E-03 0.  1.
    9900012    2    1    2    0    0  0.39854187321E+02  0.80482066456E+01 -0.18742951217E+00  0.50528868098E+02  0.30000025071E+02 0.  0.
        -12    1    1    2    0    0 -0.39854187321E+02 -0.80482066456E+01  0.18742951217E+00  0.40659131902E+02  0.00000000000E+00 0.  1.
         11    1    3    3    0    0  0.15880200151E+02  0.99709882635E+00 -0.30146046848E+01  0.16194530082E+02  0.51100000000E-03 0. -1.
        -11    1    3    3    0    0  0.23473241632E+02  0.36924348028E+01 -0.63109387808E+01  0.24585668509E+02  0.51100000000E-03 0.  1.
        -12    1    3    3    0    0  0.50074553723E+00  0.33586730164E+01  0.91381139534E+01  0.97486695067E+01  0.00000000000E+00 0.  1.
</event>
<event>
 7    1  0.6090311E-013  0.5052886E+02  0.7816164E-02  0.1300439E+00
        -11   -1    0    0    0    0  0.00000000000E+00  0.00000000000E+00  0.45593999997E+02  0.45594000000E+02  0.51100000000E-03 0.  1.
         11   -1    0    0    0    0 -0.00000000000E+00 -0.00000000000E+00 -0.45593999997E+02  0.45594000000E+02  0.51100000000E-03 0. -1.
    9900012    2    1    2    0    0  0.28560155949E+02 -0.25063391863E+02 -0.14467533317E+02  0.50528860317E+02  0.30000001419E+02 0.  0.
        -12    1    1    2    0    0 -0.28560155949E+02  0.25063391863E+02  0.14467533317E+02  0.40659139683E+02  0.00000000000E+00 0.  1.
         11    1    3    3    0    0  0.16648323226E+02 -0.75817810632E+01 -0.73944027544E+01  0.19731377617E+02  0.51100000000E-03 0. -1.
        -11    1    3    3    0    0  0.15589386768E+02 -0.97683451547E+01  0.17925340064E+01  0.18484120895E+02  0.51100000000E-03 0.  1.
         12    1    3    3    0    0 -0.36775540446E+01 -0.77132656447E+01 -0.88656645694E+01  0.12313361804E+02  0.00000000000E+00 0. -1.
</event>
<event>
 7    1  0.6090311E-013  0.5052887E+02  0.7816164E-02  0.1300439E+00
        -11   -1    0    0    0    0  0.00000000000E+00  0.00000000000E+00  0.45593999997E+02  0.45594000000E+02  0.51100000000E-03 0.  1.
         11   -1    0    0    0    0 -0.00000000000E+00 -0.00000000000E+00 -0.45593999997E+02  0.45594000000E+02  0.51100000000E-03 0. -1.
    9900012    2    1    2    0    0  0.59349352659E+01 -0.32474656546E+02 -0.23734750622E+02  0.50528866199E+02  0.30000019298E+02 0.  0.
        -12    1    1    2    0    0 -0.59349352659E+01  0.32474656546E+02  0.23734750622E+02  0.40659133801E+02  0.00000000000E+00 0.  1.
         11    1    3    3    0    0  0.45381903362E+01 -0.14057200705E+02 -0.66673227903E+01  0.16206580658E+02  0.51100000000E-03 0. -1.
        -11    1    3    3    0    0  0.28948081955E+01 -0.17464979813E+02 -0.55214590763E+00  0.17711868894E+02  0.51100000000E-03 0.  1.
         12    1    3    3    0    0 -0.14980632658E+01 -0.95247602816E+00 -0.16515281924E+02  0.16610416647E+02  0.00000000000E+00 0. -1.
</event>
<event>
 7    1  0.6090311E-013  0.5052887E+02  0.7816164E-02  0.1300439E+00
        -11   -1    0    0    0    0  0.00000000000E+00  0.00000000000E+00  0.45593999997E+02  0.45594000000E+02  0.51100000000E-03 0. -1.
         11   -1    0    0    0    0 -0.00000000000E+00 -0.00000000000E+00 -0.45593999997E+02  0.45594000000E+02  0.51100000000E-03 0.  1.
    9900012    2    1    2    0    0 -0.14827919873E+02 -0.18547653458E+02 -0.33004279956E+02  0.50528866316E+02  0.30000019655E+02 0.  0.
        -12    1    1    2    0    0  0.14827919873E+02  0.18547653458E+02  0.33004279956E+02  0.40659133684E+02  0.00000000000E+00 0.  1.
         11    1    3    3    0    0 -0.16237760964E+01 -0.14712405205E+02 -0.11234031962E+02  0.18582114791E+02  0.51100000000E-03 0. -1.
        -11    1    3    3    0    0 -0.66778186436E+01  0.36975143968E+01 -0.20530079204E+02  0.21903173901E+02  0.51100000000E-03 0.  1.
         12    1    3    3    0    0 -0.65263251328E+01 -0.75327626493E+01 -0.12401687899E+01  0.10043577624E+02  0.00000000000E+00 0. -1.
</event>
<event>
 7    1  0.6090311E-013  0.5052887E+02  0.7816164E-02  0.1300439E+00
        -11   -1    0    0    0    0  0.00000000000E+00  0.00000000000E+00  0.45593999997E+02  0.45594000000E+02  0.51100000000E-03 0.  1.
         11   -1    0    0    0    0 -0.00000000000E+00 -0.00000000000E+00 -0.45593999997E+02  0.45594000000E+02  0.51100000000E-03 0. -1.
    9900012    2    1    2    0    0  0.40290470633E+02 -0.53778732922E+01 -0.95994682293E+00  0.50528867657E+02  0.30000023730E+02 0.  0.
        -12    1    1    2    0    0 -0.40290470633E+02  0.53778732922E+01  0.95994682293E+00  0.40659132343E+02  0.00000000000E+00 0.  1.
         11    1    3    3    0    0  0.25064689629E+02  0.54517581842E+01  0.81631663624E+01  0.26918350968E+02  0.51100000000E-03 0. -1.
        -11    1    3    3    0    0  0.17410523734E+00 -0.96237833164E+00 -0.50682329499E+01  0.51617313164E+01  0.51100000000E-03 0.  1.
        -12    1    3    3    0    0  0.15051675767E+02 -0.98672531448E+01 -0.40548802354E+01  0.18448785373E+02  0.00000000000E+00 0.  1.
</event>
<event>
 7    1  0.6090311E-013  0.5052886E+02  0.7816164E-02  0.1300439E+00
        -11   -1    0    0    0    0  0.00000000000E+00  0.00000000000E+00  0.45593999997E+02  0.45594000000E+02  0.51100000000E-03 0.  1.
         11   -1    0    0    0    0 -0.00000000000E+00 -0.00000000000E+00 -0.45593999997E+02  0.45594000000E+02  0.51100000000E-03 0. -1.
    9900012    2    1    2    0    0 -0.11750497719E+02  0.38761772516E+02 -0.35519650701E+01  0.50528860055E+02  0.30000000622E+02 0.  0.
        -12    1    1    2    0    0  0.11750497719E+02 -0.38761772516E+02  0.35519650701E+01  0.40659139945E+02  0.00000000000E+00 0.  1.
         11    1    3    3    0    0 -0.11085635142E+01 -0.13856222223E+01  0.34407530672E+01  0.38713878569E+01  0.51100000000E-03 0. -1.
        -11    1    3    3    0    0  0.27884449927E+01  0.19903644940E+02  0.31278882155E+01  0.20339965397E+02  0.51100000000E-03 0.  1.
         12    1    3    3    0    0 -0.13430379198E+02  0.20243749798E+02 -0.10120606353E+02  0.26317506801E+02  0.00000000000E+00 0. -1.
</event>
<event>
 7    1  0.6090311E-013  0.5052885E+02  0.7816164E-02  0.1300439E+00
        -11   -1    0    0    0    0  0.00000000000E+00  0.00000000000E+00  0.45593999997E+02  0.45594000000E+02  0.51100000000E-03 0.  1.
         11   -1    0    0    0    0 -0.00000000000E+00 -0.00000000000E+00 -0.45593999997E+02  0.45594000000E+02  0.51100000000E-03 0. -1.
    9900012    2    1    2    0    0 -0.22954526331E+02  0.14949289244E+02 -0.30046209790E+02  0.50528852804E+02  0.29999978583E+02 0.  0.
        -12    1    1    2    0    0  0.22954526331E+02 -0.14949289244E+02  0.30046209790E+02  0.40659147196E+02  0.00000000000E+00 0.  1.
         11    1    3    3    0    0 -0.68862224372E+01  0.60530634595E+01 -0.86263629511E+01  0.12588636730E+02  0.51100000000E-03 0. -1.
        -11    1    3    3    0    0 -0.17418308632E+02  0.10626066960E+02 -0.25888148727E+02  0.32962205924E+02  0.51100000000E-03 0.  1.
        -12    1    3    3    0    0  0.13500047386E+01 -0.17298411752E+01  0.44683018880E+01  0.49780101495E+01  0.00000000000E+00 0.  1.
</event>
<event>
 7    1  0.6090311E-013  0.5052886E+02  0.7816164E-02  0.1300439E+00
        -11   -1    0    0    0    0  0.00000000000E+00  0.00000000000E+00  0.45593999997E+02  0.45594000000E+02  0.51100000000E-03 0. -1.
         11   -1    0    0    0    0 -0.00000000000E+00 -0.00000000000E+00 -0.45593999997E+02  0.45594000000E+02  0.51100000000E-03 0.  1.
    9900012    2    1    2    0    0  0.89533778621E+01  0.39645883988E+02 -0.10984505716E+01  0.50528859749E+02  0.29999999692E+02 0.  0.
        -12    1    1    2    0    0 -0.89533778621E+01 -0.39645883988E+02  0.10984505716E+01  0.40659140251E+02  0.00000000000E+00 0.  1.
         11    1    3    3    0    0 -0.42369117659E+01  0.12972655083E+01 -0.34674056887E+01  0.56264750584E+01  0.51100000000E-03 0. -1.
        -11    1    3    3    0    0  0.28527670595E+01  0.19665502846E+01 -0.52791393701E+01  0.63146585551E+01  0.51100000000E-03 0.  1.
         12    1    3    3    0    0  0.10337522568E+02  0.36382068195E+02  0.76480944872E+01  0.38587726135E+02  0.00000000000E+00 0. -1.
</event>
<event>
 7    1  0.6090311E-013  0.5052887E+02  0.7816164E-02  0.1300439E+00
        -11   -1    0    0    0    0  0.00000000000E+00  0.00000000000E+00  0.45593999997E+02  0.45594000000E+02  0.51100000000E-03 0.  1.
         11   -1    0    0    0    0 -0.00000000000E+00 -0.00000000000E+00 -0.45593999997E+02  0.45594000000E+02  0.51100000000E-03 0. -1.
    9900012    2    1    2    0    0  0.26737872914E+02 -0.14121133858E+02 -0.27181697305E+02  0.50528868950E+02  0.30000027659E+02 0.  0.
        -12    1    1    2    0    0 -0.26737872914E+02  0.14121133858E+02  0.27181697305E+02  0.40659131050E+02  0.00000000000E+00 0.  1.
         11    1    3    3    0    0  0.14318966611E+02 -0.11001782919E+02 -0.89804757899E+01  0.20167324509E+02  0.51100000000E-03 0. -1.
        -11    1    3    3    0    0  0.23530541827E+01 -0.10676537794E+02 -0.46915637579E+01  0.11896894301E+02  0.51100000000E-03 0.  1.
        -12    1    3    3    0    0  0.10065852121E+02  0.75571868543E+01 -0.13509657757E+02  0.18464650139E+02  0.00000000000E+00 0.  1.
</event>
<event>
 7    1  0.6090311E-013  0.5052886E+02  0.7816164E-02  0.1300439E+00
        -11   -1    0    0    0    0  0.00000000000E+00  0.00000000000E+00  0.45593999997E+02  0.45594000000E+02  0.51100000000E-03 0. -1.
         11   -1    0    0    0    0 -0.00000000000E+00 -0.00000000000E+00 -0.45593999997E+02  0.45594000000E+02  0.51100000000E-03 0.  1.
    9900012    2    1    2    0    0  0.38599327240E+02 -0.12304748014E+02 -0.34424691665E+01  0.50528862268E+02  0.30000007351E+02 0.  0.
        -12    1    1    2    0    0 -0.38599327240E+02  0.12304748014E+02  0.34424691665E+01  0.40659137732E+02  0.00000000000E+00 0.  1.
         11    1    3    3    0    0 -0.13587618876E+01  0.15818455813E+00  0.47828765433E+01  0.49746522000E+01  0.51100000000E-03 0. -1.
        -11    1    3    3    0    0  0.64704822230E+01 -0.51790270888E+01 -0.76499050584E+01  0.11278763649E+02  0.51100000000E-03 0.  1.
         12    1    3    3    0    0  0.33487606905E+02 -0.72839054834E+01 -0.57544065129E+00  0.34275446420E+02  0.00000000000E+00 0. -1.
</event>
<event>
 7    1  0.6090311E-013  0.5052886E+02  0.7816164E-02  0.1300439E+00
        -11   -1    0    0    0    0  0.00000000000E+00  0.00000000000E+00  0.45593999997E+02  0.45594000000E+02  0.51100000000E-03 0.  1.
         11   -1    0    0    0    0 -0.00000000000E+00 -0.00000000000E+00 -0.45593999997E+02  0.45594000000E+02  0.51100000000E-03 0. -1.
    9900012    2    1    2    0    0  0.23488218151E+02 -0.23351711759E+02 -0.23583188451E+02  0.50528860665E+02  0.30000002477E+02 0.  0.
        -12    1    1    2    0    0 -0.23488218151E+02  0.23351711759E+02  0.23583188451E+02  0.40659139335E+02  0.00000000000E+00 0.  1.
         11    1    3    3    0    0 -0.12778603352E+01 -0.32686513917E+01 -0.20549357900E+01  0.40669116439E+01  0.51100000000E-03 0. -1.
        -11    1    3    3    0    0 -0.26048079298E+01 -0.16377700595E+01 -0.11591084772E+02  0.11992521068E+02  0.51100000000E-03 0.  1.
         12    1    3    3    0    0  0.27370886416E+02 -0.18445290308E+02 -0.99371678885E+01  0.34469427953E+02  0.00000000000E+00 0. -1.
</event>
<event>
 7    1  0.6090311E-013  0.5052893E+02  0.7816164E-02  0.1300439E+00
        -11   -1    0    0    0    0  0.00000000000E+00  0.00000000000E+00  0.45593999997E+02  0.45594000000E+02  0.51100000000E-03 0.  1.
         11   -1    0    0    0    0 -0.00000000000E+00 -0.00000000000E+00 -0.45593999997E+02  0.45594000000E+02  0.51100000000E-03 0. -1.
    9900012    2    1    2    0    0 -0.48963387891E+00 -0.50229597727E+01 -0.40344641284E+02  0.50528930329E+02  0.30000214227E+02 0.  0.
        -12    1    1    2    0    0  0.48963387891E+00  0.50229597727E+01  0.40344641284E+02  0.40659069671E+02  0.00000000000E+00 0.  1.
         11    1    3    3    0    0 -0.24771013793E+01 -0.83375508758E+01 -0.12011957520E+02  0.14830303759E+02  0.51100000000E-03 0. -1.
        -11    1    3    3    0    0 -0.25717030333E+00 -0.48758060695E+01  0.11508559032E+01  0.50163822585E+01  0.51100000000E-03 0.  1.
        -12    1    3    3    0    0  0.22446378037E+01  0.81903971727E+01 -0.29483539667E+02  0.30682244311E+02  0.00000000000E+00 0.  1.
</event>
<event>
 7    1  0.6090311E-013  0.5052886E+02  0.7816164E-02  0.1300439E+00
        -11   -1    0    0    0    0  0.00000000000E+00  0.00000000000E+00  0.45593999997E+02  0.45594000000E+02  0.51100000000E-03 0.  1.
         11   -1    0    0    0    0 -0.00000000000E+00 -0.00000000000E+00 -0.45593999997E+02  0.45594000000E+02  0.51100000000E-03 0. -1.
    9900012    2    1    2    0    0  0.14581921559E+02  0.18616788467E+02 -0.33074887695E+02  0.50528862709E+02  0.30000008691E+02 0.  0.
        -12    1    1    2    0    0 -0.14581921559E+02 -0.18616788467E+02  0.33074887695E+02  0.40659137291E+02  0.00000000000E+00 0.  1.
         11    1    3    3    0    0  0.23558597275E+01  0.53354892255E+01 -0.15177236898E+02  0.16259337024E+02  0.51100000000E-03 0. -1.
        -11    1    3    3    0    0  0.25132543542E+01  0.17179884913E+02 -0.16044172759E+02  0.23640650855E+02  0.51100000000E-03 0.  1.
        -12    1    3    3    0    0  0.97128074778E+01 -0.38985856707E+01 -0.18534780375E+01  0.10628874831E+02  0.00000000000E+00 0.  1.
</event>
<event>
 7    1  0.6090311E-013  0.5052885E+02  0.7816164E-02  0.1300439E+00
        -11   -1    0    0    0    0  0.00000000000E+00  0.00000000000E+00  0.45593999997E+02  0.45594000000E+02  0.51100000000E-03 0.  1.
         11   -1    0    0    0    0 -0.00000000000E+00 -0.00000000000E+00 -0.45593999997E+02  0.45594000000E+02  0.51100000000E-03 0. -1.
    9900012    2    1    2    0    0  0.30691256285E+02 -0.26644094425E+02 -0.11424482690E+01  0.50528853820E+02  0.29999981671E+02 0.  0.
        -12    1    1    2    0    0 -0.30691256285E+02  0.26644094425E+02  0.11424482690E+01  0.40659146180E+02  0.00000000000E+00 0.  1.
         11    1    3    3    0    0  0.21026913823E+02 -0.23052460029E+02 -0.10038861251E+02  0.32776908850E+02  0.51100000000E-03 0. -1.
        -11    1    3    3    0    0 -0.17899381319E+00  0.11867350568E+01 -0.19855737274E+01  0.23201039132E+01  0.51100000000E-03 0.  1.
         12    1    3    3    0    0  0.98433362748E+01 -0.47783694530E+01  0.10881986710E+02  0.15431841057E+02  0.00000000000E+00 0. -1.
</event>
<event>
 7    1  0.6090311E-013  0.5052885E+02  0.7816164E-02  0.1300439E+00
        -11   -1    0    0    0    0  0.00000000000E+00  0.00000000000E+00  0.45593999997E+02  0.45594000000E+02  0.51100000000E-03 0.  1.
         11   -1    0    0    0    0 -0.00000000000E+00 -0.00000000000E+00 -0.45593999997E+02  0.45594000000E+02  0.51100000000E-03 0. -1.
    9900012    2    1    2    0    0  0.10750999780E+02  0.22628859756E+02 -0.32023699368E+02  0.50528848369E+02  0.29999965104E+02 0.  0.
        -12    1    1    2    0    0 -0.10750999780E+02 -0.22628859756E+02  0.32023699368E+02  0.40659151631E+02  0.00000000000E+00 0.  1.
         11    1    3    3    0    0  0.15402246244E+01  0.23984918946E+02 -0.15827528919E+02  0.28777757047E+02  0.51100000000E-03 0.  1.
        -11    1    3    3    0    0  0.53129703776E+01  0.30545850248E+01 -0.14314947043E+02  0.15571636170E+02  0.51100000000E-03 0. -1.
        -12    1    3    3    0    0  0.38978047784E+01 -0.44106442145E+01 -0.18812234056E+01  0.61794551523E+01  0.00000000000E+00 0.  1.
</event>
<event>
 7    1  0.6090311E-013  0.5052887E+02  0.7816164E-02  0.1300439E+00
        -11   -1    0    0    0    0  0.00000000000E+00  0.00000000000E+00  0.45593999997E+02  0.45594000000E+02  0.51100000000E-03 0. -1.
         11   -1    0    0    0    0 -0.00000000000E+00 -0.00000000000E+00 -0.45593999997E+02  0.45594000000E+02  0.51100000000E-03 0.  1.
    9900012    2    1    2    0    0  0.23712941981E+02 -0.32370991813E+02  0.65559397748E+01  0.50528867267E+02  0.30000022543E+02 0.  0.
        -12    1    1    2    0    0 -0.23712941981E+02  0.32370991813E+02 -0.65559397748E+01  0.40659132733E+02  0.00000000000E+00 0.  1.
         11    1    3    3    0    0 -0.25856412277E+00 -0.85868399891E+01  0.67289328040E+01  0.10912342248E+02  0.51100000000E-03 0. -1.
        -11    1    3    3    0    0 -0.11207133515E+01 -0.10669541166E+02  0.29649289858E+01  0.11130404811E+02  0.51100000000E-03 0.  1.
         12    1    3    3    0    0  0.25092219455E+02 -0.13114610657E+02 -0.31379220149E+01  0.28486120207E+02  0.00000000000E+00 0. -1.
</event>
<event>
 7    1  0.6090311E-013  0.5052885E+02  0.7816164E-02  0.1300439E+00
        -11   -1    0    0    0    0  0.00000000000E+00  0.00000000000E+00  0.45593999997E+02  0.45594000000E+02  0.51100000000E-03 0.  1.
         11   -1    0    0    0    0 -0.00000000000E+00 -0.00000000000E+00 -0.45593999997E+02  0.45594000000E+02  0.51100000000E-03 0. -1.
    9900012    2    1    2    0    0  0.15036942227E+02 -0.10349362111E+02 -0.36331079588E+02  0.50528852546E+02  0.29999977799E+02 0.  0.
        -12    1    1    2    0    0 -0.15036942227E+02  0.10349362111E+02  0.36331079588E+02  0.40659147454E+02  0.00000000000E+00 0.  1.
         11    1    3    3    0    0  0.27725021178E+01 -0.19643827015E+01 -0.26838588248E+02  0.27052825856E+02  0.51100000000E-03 0.  1.
        -11    1    3    3    0    0  0.50296429906E+01 -0.10764183651E+02 -0.10420750303E+02  0.15803701953E+02  0.51100000000E-03 0. -1.
        -12    1    3    3    0    0  0.72347971188E+01  0.23792042419E+01  0.92825896207E+00  0.76723247374E+01  0.00000000000E+00 0.  1.
</event>
<event>
 7    1  0.6090311E-013  0.5052886E+02  0.7816164E-02  0.1300439E+00
        -11   -1    0    0    0    0  0.00000000000E+00  0.00000000000E+00  0.45593999997E+02  0.45594000000E+02  0.51100000000E-03 0.  1.
         11   -1    0    0    0    0 -0.00000000000E+00 -0.00000000000E+00 -0.45593999997E+02  0.45594000000E+02  0.51100000000E-03 0. -1.
    9900012    2    1    2    0    0 -0.39058065444E+02 -0.48086609412E+01 -0.10223001788E+02  0.50528862505E+02  0.30000008069E+02 0.  0.
        -12    1    1    2    0    0  0.39058065444E+02  0.48086609412E+01  0.10223001788E+02  0.40659137495E+02  0.00000000000E+00 0.  1.
         11    1    3    3    0    0 -0.17276162187E+02  0.34532803237E+01 -0.32589393947E+01  0.17916796900E+02  0.51100000000E-03 0. -1.
        -11    1    3    3    0    0 -0.17319948173E+02 -0.11043341470E+02  0.35603499314E+01  0.20847352049E+02  0.51100000000E-03 0.  1.
         12    1    3    3    0    0 -0.44619550840E+01  0.27814002056E+01 -0.10524412324E+02  0.11764713556E+02  0.00000000000E+00 0. -1.
</event>
<event>
 7    1  0.6090311E-013  0.5052887E+02  0.7816164E-02  0.1300439E+00
        -11   -1    0    0    0    0  0.00000000000E+00  0.00000000000E+00  0.45593999997E+02  0.45594000000E+02  0.51100000000E-03 0.  1.
         11   -1    0    0    0    0 -0.00000000000E+00 -0.00000000000E+00 -0.45593999997E+02  0.45594000000E+02  0.51100000000E-03 0. -1.
    9900012    2    1    2    0    0  0.23846295961E+02  0.75705976967E+01 -0.32050040442E+02  0.50528869747E+02  0.30000030084E+02 0.  0.
        -12    1    1    2    0    0 -0.23846295961E+02 -0.75705976967E+01  0.32050040442E+02  0.40659130253E+02  0.00000000000E+00 0.  1.
         11    1    3    3    0    0  0.59967151486E+00  0.10592618061E+02 -0.86673720932E+01  0.13699872356E+02  0.51100000000E-03 0. -1.
        -11    1    3    3    0    0  0.17871265956E+00 -0.52225179750E+01 -0.34377321792E+01  0.62549688257E+01  0.51100000000E-03 0.  1.
        -12    1    3    3    0    0  0.23067911787E+02  0.22004976112E+01 -0.19944936170E+02  0.30574028566E+02  0.00000000000E+00 0.  1.
</event>
<event>
 7    1  0.6090311E-013  0.5052886E+02  0.7816164E-02  0.1300439E+00
        -11   -1    0    0    0    0  0.00000000000E+00  0.00000000000E+00  0.45593999997E+02  0.45594000000E+02  0.51100000000E-03 0. -1.
         11   -1    0    0    0    0 -0.00000000000E+00 -0.00000000000E+00 -0.45593999997E+02  0.45594000000E+02  0.51100000000E-03 0.  1.
    9900012    2    1    2    0    0  0.16324965085E+02 -0.90954975583E+01  0.36110018733E+02  0.50528855718E+02  0.29999987439E+02 0.  0.
        -12    1    1    2    0    0 -0.16324965085E+02  0.90954975583E+01 -0.36110018733E+02  0.40659144282E+02  0.00000000000E+00 0.  1.
         11    1    3    3    0    0  0.12842359669E+02 -0.44797481188E+01  0.58144017625E+01  0.14791944199E+02  0.51100000000E-03 0. -1.
        -11    1    3    3    0    0 -0.51829698739E+00 -0.50622334042E+00 -0.24180590371E+01  0.25242629827E+01  0.51100000000E-03 0.  1.
         12    1    3    3    0    0  0.40009024030E+01 -0.41095260991E+01  0.32713676008E+02  0.33212648536E+02  0.00000000000E+00 0. -1.
</event>
<event>
 7    1  0.6090311E-013  0.5052883E+02  0.7816164E-02  0.1300439E+00
        -11   -1    0    0    0    0  0.00000000000E+00  0.00000000000E+00  0.45593999997E+02  0.45594000000E+02  0.51100000000E-03 0.  1.
         11   -1    0    0    0    0 -0.00000000000E+00 -0.00000000000E+00 -0.45593999997E+02  0.45594000000E+02  0.51100000000E-03 0. -1.
    9900012    2    1    2    0    0  0.30467622404E+02 -0.12580082764E+02 -0.23804068968E+02  0.50528828873E+02  0.29999905841E+02 0.  0.
        -12    1    1    2    0    0 -0.30467622404E+02  0.12580082764E+02  0.23804068968E+02  0.40659171127E+02  0.00000000000E+00 0.  1.
         11    1    3    3    0    0  0.17626356496E+02 -0.11119937537E+02 -0.16764806298E+02  0.26746965896E+02  0.51100000000E-03 0. -1.
        -11    1    3    3    0    0  0.22613188469E+01 -0.80754425061E+01 -0.75634049247E+01  0.11292981401E+02  0.51100000000E-03 0.  1.
        -12    1    3    3    0    0  0.10579947062E+02  0.66152972795E+01  0.52414225490E+00  0.12488881576E+02  0.00000000000E+00 0.  1.
</event>
<event>
 7    1  0.6090311E-013  0.5052885E+02  0.7816164E-02  0.1300439E+00
        -11   -1    0    0    0    0  0.00000000000E+00  0.00000000000E+00  0.45593999997E+02  0.45594000000E+02  0.51100000000E-03 0. -1.
         11   -1    0    0    0    0 -0.00000000000E+00 -0.00000000000E+00 -0.45593999997E+02  0.45594000000E+02  0.51100000000E-03 0.  1.
    9900012    2    1    2    0    0  0.33359450702E+02 -0.18722433855E+02  0.13776216491E+02  0.50528848245E+02  0.29999964727E+02 0.  0.
        -12    1    1    2    0    0 -0.33359450702E+02  0.18722433855E+02 -0.13776216491E+02  0.40659151755E+02  0.00000000000E+00 0.  1.
         11    1    3    3    0    0  0.21552140051E+02 -0.81337346083E+01  0.21068519546E+01  0.23132038494E+02  0.51100000000E-03 0. -1.
        -11    1    3    3    0    0  0.11702275435E+02 -0.12824331731E+02  0.15294024127E+02  0.23136851752E+02  0.51100000000E-03 0.  1.
        -12    1    3    3    0    0  0.10503521580E+00  0.22356324849E+01 -0.36246595914E+01  0.42599579995E+01  0.00000000000E+00 0.  1.
</event>
<event>
 7    1  0.6090311E-013  0.5052886E+02  0.7816164E-02  0.1300439E+00
        -11   -1    0    0    0    0  0.00000000000E+00  0.00000000000E+00  0.45593999997E+02  0.45594000000E+02  0.51100000000E-03 0.  1.
         11   -1    0    0    0    0 -0.00000000000E+00 -0.00000000000E+00 -0.45593999997E+02  0.45594000000E+02  0.51100000000E-03 0. -1.
    9900012    2    1    2    0    0  0.50321672153E+01 -0.16843336452E+02 -0.36662582132E+02  0.50528860581E+02  0.30000002222E+02 0.  0.
        -12    1    1    2    0    0 -0.50321672153E+01  0.16843336452E+02  0.36662582132E+02  0.40659139419E+02  0.00000000000E+00 0.  1.
         11    1    3    3    0    0  0.19633977665E+00 -0.80937342963E+01 -0.81066824471E+01  0.11457110662E+02  0.51100000000E-03 0. -1.
        -11    1    3    3    0    0 -0.36375566960E+01 -0.12191612732E+02 -0.47689109386E+01  0.13587117116E+02  0.51100000000E-03 0.  1.
        -12    1    3    3    0    0  0.84733841347E+01  0.34420105761E+01 -0.23786988746E+02  0.25484632803E+02  0.00000000000E+00 0.  1.
</event>
<event>
 7    1  0.6090311E-013  0.5052885E+02  0.7816164E-02  0.1300439E+00
        -11   -1    0    0    0    0  0.00000000000E+00  0.00000000000E+00  0.45593999997E+02  0.45594000000E+02  0.51100000000E-03 0.  1.
         11   -1    0    0    0    0 -0.00000000000E+00 -0.00000000000E+00 -0.45593999997E+02  0.45594000000E+02  0.51100000000E-03 0. -1.
    9900012    2    1    2    0    0  0.25824672337E+02  0.54254886812E+01 -0.30932452638E+02  0.50528852752E+02  0.29999978424E+02 0.  0.
        -12    1    1    2    0    0 -0.25824672337E+02 -0.54254886812E+01  0.30932452638E+02  0.40659147248E+02  0.00000000000E+00 0.  1.
         11    1    3    3    0    0  0.10832323788E+02  0.73860222892E+01 -0.27685450595E+01  0.13399903205E+02  0.51100000000E-03 0. -1.
        -11    1    3    3    0    0  0.12977158491E+02  0.37020804098E+00 -0.52418479291E+01  0.14000738069E+02  0.51100000000E-03 0.  1.
         12    1    3    3    0    0  0.20151900584E+01 -0.23307416490E+01 -0.22922059649E+02  0.23128211478E+02  0.00000000000E+00 0. -1.
</event>
<event>
 7    1  0.6090311E-013  0.5052888E+02  0.7816164E-02  0.1300439E+00
        -11   -1    0    0    0    0  0.00000000000E+00  0.00000000000E+00  0.45593999997E+02  0.45594000000E+02  0.51100000000E-03 0. -1.
         11   -1    0    0    0    0 -0.00000000000E+00 -0.00000000000E+00 -0.45593999997E+02  0.45594000000E+02  0.51100000000E-03 0.  1.
    9900012    2    1    2    0    0 -0.13596101708E+02  0.35394458286E+02  0.14681354683E+02  0.50528882519E+02  0.30000068903E+02 0.  0.
        -12    1    1    2    0    0  0.13596101708E+02 -0.35394458286E+02 -0.14681354683E+02  0.40659117481E+02  0.00000000000E+00 0.  1.
         11    1    3    3    0    0 -0.93977382805E+01  0.85691871022E+01  0.12500579541E+02  0.17832917358E+02  0.51100000000E-03 0. -1.
        -11    1    3    3    0    0  0.33376471629E+01  0.14877445026E+02  0.82330773785E+01  0.17328064591E+02  0.51100000000E-03 0.  1.
         12    1    3    3    0    0 -0.75360105909E+01  0.11947826158E+02 -0.60523022373E+01  0.15367900569E+02  0.00000000000E+00 0. -1.
</event>
<event>
 7    1  0.6090311E-013  0.5052887E+02  0.7816164E-02  0.1300439E+00
        -11   -1    0    0    0    0  0.00000000000E+00  0.00000000000E+00  0.45593999997E+02  0.45594000000E+02  0.51100000000E-03 0. -1.
         11   -1    0    0    0    0 -0.00000000000E+00 -0.00000000000E+00 -0.45593999997E+02  0.45594000000E+02  0.51100000000E-03 0.  1.
    9900012    2    1    2    0    0 -0.15331651009E+02 -0.35512047367E+02  0.12529961761E+02  0.50528868521E+02  0.30000026358E+02 0.  0.
        -12    1    1    2    0    0  0.15331651009E+02  0.35512047367E+02 -0.12529961761E+02  0.40659131479E+02  0.00000000000E+00 0.  1.
         11    1    3    3    0    0 -0.30940412652E+01 -0.42092171504E+01  0.11819504452E+02  0.12922510829E+02  0.51100000000E-03 0. -1.
        -11    1    3    3    0    0 -0.15777540684E+01 -0.88350303501E+01 -0.72045566388E+01  0.11508809922E+02  0.51100000000E-03 0.  1.
         12    1    3    3    0    0 -0.10659855675E+02 -0.22467799867E+02  0.79150139476E+01  0.26097547771E+02  0.00000000000E+00 0. -1.
</event>
<event>
 7    1  0.6090311E-013  0.5052884E+02  0.7816164E-02  0.1300439E+00
        -11   -1    0    0    0    0  0.00000000000E+00  0.00000000000E+00  0.45593999997E+02  0.45594000000E+02  0.51100000000E-03 0.  1.
         11   -1    0    0    0    0 -0.00000000000E+00 -0.00000000000E+00 -0.45593999997E+02  0.45594000000E+02  0.51100000000E-03 0. -1.
    9900012    2    1    2    0    0  0.49216831953E+01  0.35724510394E+02 -0.18780403551E+02  0.50528841549E+02  0.29999944373E+02 0.  0.
        -12    1    1    2    0    0 -0.49216831953E+01 -0.35724510394E+02  0.18780403551E+02  0.40659158451E+02  0.00000000000E+00 0.  1.
         11    1    3    3    0    0 -0.14091349870E+01  0.61664606063E+01  0.65010609752E+00  0.63587369831E+01  0.51100000000E-03 0.  1.
        -11    1    3    3    0    0 -0.80070313533E+01  0.14087763915E+02 -0.11276368998E+01  0.16243435857E+02  0.51100000000E-03 0. -1.
        -12    1    3    3    0    0  0.14337849536E+02  0.15470285873E+02 -0.18302872749E+02  0.27926668709E+02  0.00000000000E+00 0.  1.
</event>
<event>
 7    1  0.6090311E-013  0.5052884E+02  0.7816164E-02  0.1300439E+00
        -11   -1    0    0    0    0  0.00000000000E+00  0.00000000000E+00  0.45593999997E+02  0.45594000000E+02  0.51100000000E-03 0.  1.
         11   -1    0    0    0    0 -0.00000000000E+00 -0.00000000000E+00 -0.45593999997E+02  0.45594000000E+02  0.51100000000E-03 0. -1.
    9900012    2    1    2    0    0 -0.24184977684E+02  0.32670551688E+02 -0.94275944609E+00  0.50528844960E+02  0.29999954741E+02 0.  0.
        -12    1    1    2    0    0  0.24184977684E+02 -0.32670551688E+02  0.94275944609E+00  0.40659155040E+02  0.00000000000E+00 0.  1.
         11    1    3    3    0    0  0.34969281593E+01  0.13768600955E+01 -0.32687800413E+01  0.49808807950E+01  0.51100000000E-03 0.  1.
        -11    1    3    3    0    0 -0.83638190426E+01  0.22860336781E+02  0.88257859674E-02  0.24342320039E+02  0.51100000000E-03 0. -1.
         12    1    3    3    0    0 -0.19318086801E+02  0.84333548116E+01  0.23171948093E+01  0.21205644126E+02  0.00000000000E+00 0. -1.
</event>
<event>
 7    1  0.6090311E-013  0.5052886E+02  0.7816164E-02  0.1300439E+00
        -11   -1    0    0    0    0  0.00000000000E+00  0.00000000000E+00  0.45593999997E+02  0.45594000000E+02  0.51100000000E-03 0. -1.
         11   -1    0    0    0    0 -0.00000000000E+00 -0.00000000000E+00 -0.45593999997E+02  0.45594000000E+02  0.51100000000E-03 0.  1.
    9900012    2    1    2    0    0  0.30007260577E+02  0.35079280519E+01  0.27210745051E+02  0.50528857206E+02  0.29999991962E+02 0.  0.
        -12    1    1    2    0    0 -0.30007260577E+02 -0.35079280519E+01 -0.27210745051E+02  0.40659142794E+02  0.00000000000E+00 0.  1.
         11    1    3    3    0    0  0.97878890630E+01 -0.22973991719E-01  0.34250056618E+01  0.10369858444E+02  0.51100000000E-03 0. -1.
        -11    1    3    3    0    0  0.16202220405E+02 -0.86391463122E+01  0.85639772226E+01  0.20260515817E+02  0.51100000000E-03 0.  1.
         12    1    3    3    0    0  0.40171511090E+01  0.12170048356E+02  0.15221762166E+02  0.19898482944E+02  0.00000000000E+00 0. -1.
</event>
<event>
 7    1  0.6090311E-013  0.5052886E+02  0.7816164E-02  0.1300439E+00
        -11   -1    0    0    0    0  0.00000000000E+00  0.00000000000E+00  0.45593999997E+02  0.45594000000E+02  0.51100000000E-03 0.  1.
         11   -1    0    0    0    0 -0.00000000000E+00 -0.00000000000E+00 -0.45593999997E+02  0.45594000000E+02  0.51100000000E-03 0. -1.
    9900012    2    1    2    0    0  0.29695595400E+01 -0.85142441830E+01 -0.39646625074E+02  0.50528861819E+02  0.30000005986E+02 0.  0.
        -12    1    1    2    0    0 -0.29695595400E+01  0.85142441830E+01  0.39646625074E+02  0.40659138181E+02  0.00000000000E+00 0.  1.
         11    1    3    3    0    0  0.72562850748E+01 -0.12120022265E+01 -0.17927676455E+02  0.19378446941E+02  0.51100000000E-03 0. -1.
        -11    1    3    3    0    0  0.76163542535E+01 -0.51799830467E+01 -0.14156753330E+02  0.16889486125E+02  0.51100000000E-03 0.  1.
        -12    1    3    3    0    0 -0.11903079788E+02 -0.21222589098E+01 -0.75621952888E+01  0.14260928754E+02  0.00000000000E+00 0.  1.
</event>
<event>
 7    1  0.6090311E-013  0.5052886E+02  0.7816164E-02  0.1300439E+00
        -11   -1    0    0    0    0  0.00000000000E+00  0.00000000000E+00  0.45593999997E+02  0.45594000000E+02  0.51100000000E-03 0.  1.
         11   -1    0    0    0    0 -0.00000000000E+00 -0.00000000000E+00 -0.45593999997E+02  0.45594000000E+02  0.51100000000E-03 0. -1.
    9900012    2    1    2    0    0  0.31681837533E+02  0.16819445047E+02 -0.19145061401E+02  0.50528856659E+02  0.29999990302E+02 0.  0.
        -12    1    1    2    0    0 -0.31681837533E+02 -0.16819445047E+02  0.19145061401E+02  0.40659143341E+02  0.00000000000E+00 0.  1.
         11    1    3    3    0    0  0.17745202250E+02  0.29377041149E+01  0.17026086783E+01  0.18067129959E+02  0.51100000000E-03 0. -1.
        -11    1    3    3    0    0  0.52324904448E+01  0.35820406452E+01  0.13554121311E+01  0.64843745839E+01  0.51100000000E-03 0.  1.
        -12    1    3    3    0    0  0.87041448375E+01  0.10299700287E+02 -0.22203082211E+02  0.25977352117E+02  0.00000000000E+00 0.  1.
</event>
<event>
 7    1  0.6090311E-013  0.5052885E+02  0.7816164E-02  0.1300439E+00
        -11   -1    0    0    0    0  0.00000000000E+00  0.00000000000E+00  0.45593999997E+02  0.45594000000E+02  0.51100000000E-03 0.  1.
         11   -1    0    0    0    0 -0.00000000000E+00 -0.00000000000E+00 -0.45593999997E+02  0.45594000000E+02  0.51100000000E-03 0. -1.
    9900012    2    1    2    0    0  0.94012208928E+01 -0.13185617562E+02 -0.37295078412E+02  0.50528851724E+02  0.29999975301E+02 0.  0.
        -12    1    1    2    0    0 -0.94012208928E+01  0.13185617562E+02  0.37295078412E+02  0.40659148276E+02  0.00000000000E+00 0.  1.
         11    1    3    3    0    0  0.69040794338E+01 -0.15103619034E+02 -0.25847686713E+02  0.30722768909E+02  0.51100000000E-03 0. -1.
        -11    1    3    3    0    0  0.14095212481E+01 -0.69273334705E+01 -0.36076749902E+01  0.79366251175E+01  0.51100000000E-03 0.  1.
        -12    1    3    3    0    0  0.10876202109E+01  0.88453349424E+01 -0.78397167083E+01  0.11869457697E+02  0.00000000000E+00 0.  1.
</event>
<event>
 7    1  0.6090311E-013  0.5052886E+02  0.7816164E-02  0.1300439E+00
        -11   -1    0    0    0    0  0.00000000000E+00  0.00000000000E+00  0.45593999997E+02  0.45594000000E+02  0.51100000000E-03 0. -1.
         11   -1    0    0    0    0 -0.00000000000E+00 -0.00000000000E+00 -0.45593999997E+02  0.45594000000E+02  0.51100000000E-03 0.  1.
    9900012    2    1    2    0    0  0.18306277553E+02  0.32806697696E+02  0.15548844980E+02  0.50528858448E+02  0.29999995738E+02 0.  0.
        -12    1    1    2    0    0 -0.18306277553E+02 -0.32806697696E+02 -0.15548844980E+02  0.40659141552E+02  0.00000000000E+00 0.  1.
         11    1    3    3    0    0  0.22714254418E+01 -0.56804743519E+00  0.38627710200E+01  0.45169737259E+01  0.51100000000E-03 0.  1.
        -11    1    3    3    0    0  0.19552219900E+02  0.12561513171E+02  0.42047633110E+01  0.23616963203E+02  0.51100000000E-03 0. -1.
        -12    1    3    3    0    0 -0.35173677893E+01  0.20813231961E+02  0.74813106486E+01  0.22394921519E+02  0.00000000000E+00 0.  1.
</event>
<event>
 7    1  0.6090311E-013  0.5052886E+02  0.7816164E-02  0.1300439E+00
        -11   -1    0    0    0    0  0.00000000000E+00  0.00000000000E+00  0.45593999997E+02  0.45594000000E+02  0.51100000000E-03 0. -1.
         11   -1    0    0    0    0 -0.00000000000E+00 -0.00000000000E+00 -0.45593999997E+02  0.45594000000E+02  0.51100000000E-03 0.  1.
    9900012    2    1    2    0    0  0.38282822320E+02  0.12848869872E+02 -0.47432132025E+01  0.50528855724E+02  0.29999987458E+02 0.  0.
        -12    1    1    2    0    0 -0.38282822320E+02 -0.12848869872E+02  0.47432132025E+01  0.40659144276E+02  0.00000000000E+00 0.  1.
         11    1    3    3    0    0  0.16141635584E+02  0.12956739859E+02  0.76784215203E+01  0.22076858119E+02  0.51100000000E-03 0. -1.
        -11    1    3    3    0    0  0.19658016488E+01  0.10142291804E+01 -0.72699925964E+01  0.75990676774E+01  0.51100000000E-03 0.  1.
        -12    1    3    3    0    0  0.20175385088E+02 -0.11220991673E+01 -0.51516421264E+01  0.20852929928E+02  0.00000000000E+00 0.  1.
</event>
<event>
 7    1  0.6090311E-013  0.5052886E+02  0.7816164E-02  0.1300439E+00
        -11   -1    0    0    0    0  0.00000000000E+00  0.00000000000E+00  0.45593999997E+02  0.45594000000E+02  0.51100000000E-03 0. -1.
         11   -1    0    0    0    0 -0.00000000000E+00 -0.00000000000E+00 -0.45593999997E+02  0.45594000000E+02  0.51100000000E-03 0.  1.
    9900012    2    1    2    0    0 -0.24450084926E+02  0.10188856188E+01  0.32470305425E+02  0.50528861849E+02  0.30000006077E+02 0.  0.
        -12    1    1    2    0    0  0.24450084926E+02 -0.10188856188E+01 -0.32470305425E+02  0.40659138151E+02  0.00000000000E+00 0.  1.
         11    1    3    3    0    0 -0.26368200439E+01 -0.14691693306E+01  0.23931014956E+02  0.24120629252E+02  0.51100000000E-03 0. -1.
        -11    1    3    3    0    0 -0.15726406369E+02  0.13022656656E+01  0.11510187460E+02  0.19532029305E+02  0.51100000000E-03 0.  1.
        -12    1    3    3    0    0 -0.60868585131E+01  0.11857892838E+01 -0.29708969904E+01  0.68762032919E+01  0.00000000000E+00 0.  1.
</event>
<event>
 7    1  0.6090311E-013  0.5052886E+02  0.7816164E-02  0.1300439E+00
        -11   -1    0    0    0    0  0.00000000000E+00  0.00000000000E+00  0.45593999997E+02  0.45594000000E+02  0.51100000000E-03 0.  1.
         11   -1    0    0    0    0 -0.00000000000E+00 -0.00000000000E+00 -0.45593999997E+02  0.45594000000E+02  0.51100000000E-03 0. -1.
    9900012    2    1    2    0    0  0.58626838868E+01  0.28065056681E+02 -0.28829625330E+02  0.50528858770E+02  0.29999996719E+02 0.  0.
        -12    1    1    2    0    0 -0.58626838868E+01 -0.28065056681E+02  0.28829625330E+02  0.40659141230E+02  0.00000000000E+00 0.  1.
         11    1    3    3    0    0 -0.50966368327E+01  0.29241986122E+01 -0.14824190647E+02  0.15946262042E+02  0.51100000000E-03 0. -1.
        -11    1    3    3    0    0  0.28266269346E+01 -0.57264123370E+00 -0.56591493784E+01  0.63516698402E+01  0.51100000000E-03 0.  1.
        -12    1    3    3    0    0  0.81326937849E+01  0.25713499302E+02 -0.83462853048E+01  0.28230926888E+02  0.00000000000E+00 0.  1.
</event>
<event>
 7    1  0.6090311E-013  0.5052886E+02  0.7816164E-02  0.1300439E+00
        -11   -1    0    0    0    0  0.00000000000E+00  0.00000000000E+00  0.45593999997E+02  0.45594000000E+02  0.51100000000E-03 0. -1.
         11   -1    0    0    0    0 -0.00000000000E+00 -0.00000000000E+00 -0.45593999997E+02  0.45594000000E+02  0.51100000000E-03 0.  1.
    9900012    2    1    2    0    0 -0.20091353017E+02  0.33617035345E+02  0.10926932565E+02  0.50528863428E+02  0.30000010877E+02 0.  0.
        -12    1    1    2    0    0  0.20091353017E+02 -0.33617035345E+02 -0.10926932565E+02  0.40659136572E+02  0.00000000000E+00 0.  1.
         11    1    3    3    0    0 -0.58032630700E+01  0.13852681685E+01  0.38734768064E+01  0.71134135961E+01  0.51100000000E-03 0. -1.
        -11    1    3    3    0    0  0.37136798591E+01  0.10107549671E+02  0.10058040082E+02  0.14734929556E+02  0.51100000000E-03 0.  1.
         12    1    3    3    0    0 -0.18001769806E+02  0.22124217505E+02 -0.30045843235E+01  0.28680520277E+02  0.00000000000E+00 0. -1.
</event>
<event>
 7    1  0.6090311E-013  0.5052886E+02  0.7816164E-02  0.1300439E+00
        -11   -1    0    0    0    0  0.00000000000E+00  0.00000000000E+00  0.45593999997E+02  0.45594000000E+02  0.51100000000E-03 0.  1.
         11   -1    0    0    0    0 -0.00000000000E+00 -0.00000000000E+00 -0.45593999997E+02  0.45594000000E+02  0.51100000000E-03 0. -1.
    9900012    2    1    2    0    0  0.57638733783E+01 -0.25009819549E+02 -0.31534939352E+02  0.50528859452E+02  0.29999998790E+02 0.  0.
        -12    1    1    2    0    0 -0.57638733783E+01  0.25009819549E+02  0.31534939352E+02  0.40659140548E+02  0.00000000000E+00 0.  1.
         11    1    3    3    0    0  0.46642899121E+01 -0.24116860695E+01  0.57276891412E-01  0.52512009089E+01  0.51100000000E-03 0. -1.
        -11    1    3    3    0    0  0.89842559273E+01 -0.44467810919E+01 -0.29240074045E+01  0.10442247661E+02  0.51100000000E-03 0.  1.
         12    1    3    3    0    0 -0.78846724611E+01 -0.18151352387E+02 -0.28668208839E+02  0.34835410882E+02  0.00000000000E+00 0. -1.
</event>
<event>
 7    1  0.6090311E-013  0.5052884E+02  0.7816164E-02  0.1300439E+00
        -11   -1    0    0    0    0  0.00000000000E+00  0.00000000000E+00  0.45593999997E+02  0.45594000000E+02  0.51100000000E-03 0.  1.
         11   -1    0    0    0    0 -0.00000000000E+00 -0.00000000000E+00 -0.45593999997E+02  0.45594000000E+02  0.51100000000E-03 0. -1.
    9900012    2    1    2    0    0  0.15434862822E+02  0.14526324676E+02 -0.34697524196E+02  0.50528840094E+02  0.29999939950E+02 0.  0.
        -12    1    1    2    0    0 -0.15434862822E+02 -0.14526324676E+02  0.34697524196E+02  0.40659159906E+02  0.00000000000E+00 0.  1.
         11    1    3    3    0    0  0.76625207158E+01  0.19195580020E+01 -0.86047877435E+01  0.11680809005E+02  0.51100000000E-03 0. -1.
        -11    1    3    3    0    0  0.10564530858E+02 -0.43838430710E+01 -0.86702504511E+01  0.14352722232E+02  0.51100000000E-03 0.  1.
        -12    1    3    3    0    0 -0.27921887518E+01  0.16990609745E+02 -0.17422486001E+02  0.24495308857E+02  0.00000000000E+00 0.  1.
</event>
<event>
 7    1  0.6090311E-013  0.5052887E+02  0.7816164E-02  0.1300439E+00
        -11   -1    0    0    0    0  0.00000000000E+00  0.00000000000E+00  0.45593999997E+02  0.45594000000E+02  0.51100000000E-03 0.  1.
         11   -1    0    0    0    0 -0.00000000000E+00 -0.00000000000E+00 -0.45593999997E+02  0.45594000000E+02  0.51100000000E-03 0. -1.
    9900012    2    1    2    0    0  0.11132757545E+02 -0.10234661925E+02 -0.37742259361E+02  0.50528871419E+02  0.30000035165E+02 0.  0.
        -12    1    1    2    0    0 -0.11132757545E+02  0.10234661925E+02  0.37742259361E+02  0.40659128581E+02  0.00000000000E+00 0.  1.
         11    1    3    3    0    0 -0.71962430092E+00 -0.68770922610E+01 -0.12967496026E+02  0.14695856918E+02  0.51100000000E-03 0. -1.
        -11    1    3    3    0    0  0.96355244628E+01 -0.76751187786E+01 -0.27594939281E+02  0.30219719624E+02  0.51100000000E-03 0.  1.
        -12    1    3    3    0    0  0.22168573831E+01  0.43175491147E+01  0.28201759458E+01  0.56132948774E+01  0.00000000000E+00 0.  1.
</event>
<event>
 7    1  0.6090311E-013  0.5052885E+02  0.7816164E-02  0.1300439E+00
        -11   -1    0    0    0    0  0.00000000000E+00  0.00000000000E+00  0.45593999997E+02  0.45594000000E+02  0.51100000000E-03 0.  1.
         11   -1    0    0    0    0 -0.00000000000E+00 -0.00000000000E+00 -0.45593999997E+02  0.45594000000E+02  0.51100000000E-03 0. -1.
    9900012    2    1    2    0    0 -0.16695456756E+02 -0.17066744986E+02 -0.32911314605E+02  0.50528847405E+02  0.29999962172E+02 0.  0.
        -12    1    1    2    0    0  0.16695456756E+02  0.17066744986E+02  0.32911314605E+02  0.40659152595E+02  0.00000000000E+00 0.  1.
         11    1    3    3    0    0 -0.74367207124E+01 -0.30206199695E+01 -0.41630143243E+01  0.90421042065E+01  0.51100000000E-03 0. -1.
        -11    1    3    3    0    0  0.56592897950E+01 -0.10055199443E+02 -0.38042021839E+01  0.12149343659E+02  0.51100000000E-03 0.  1.
         12    1    3    3    0    0 -0.14918025839E+02 -0.39909255728E+01 -0.24944098097E+02  0.29337399539E+02  0.00000000000E+00 0. -1.
</event>
<event>
 7    1  0.6090311E-013  0.5052884E+02  0.7816164E-02  0.1300439E+00
        -11   -1    0    0    0    0  0.00000000000E+00  0.00000000000E+00  0.45593999997E+02  0.45594000000E+02  0.51100000000E-03 0.  1.
         11   -1    0    0    0    0 -0.00000000000E+00 -0.00000000000E+00 -0.45593999997E+02  0.45594000000E+02  0.51100000000E-03 0. -1.
    9900012    2    1    2    0    0 -0.31581102952E+02  0.44583851129E+01 -0.25217526436E+02  0.50528844807E+02  0.29999954276E+02 0.  0.
        -12    1    1    2    0    0  0.31581102952E+02 -0.44583851129E+01  0.25217526436E+02  0.40659155193E+02  0.00000000000E+00 0.  1.
         11    1    3    3    0    0 -0.63865581790E+01  0.55185803571E+01 -0.38695894387E+01  0.92852882140E+01  0.51100000000E-03 0. -1.
        -11    1    3    3    0    0 -0.91530715857E+01  0.64801531278E+01 -0.20656832025E+02  0.23504804053E+02  0.51100000000E-03 0.  1.
        -12    1    3    3    0    0 -0.16041473187E+02 -0.75403483720E+01 -0.69110497195E+00  0.17738752540E+02  0.00000000000E+00 0.  1.
</event>
<event>
 7    1  0.6090311E-013  0.5052887E+02  0.7816164E-02  0.1300439E+00
        -11   -1    0    0    0    0  0.00000000000E+00  0.00000000000E+00  0.45593999997E+02  0.45594000000E+02  0.51100000000E-03 0. -1.
         11   -1    0    0    0    0 -0.00000000000E+00 -0.00000000000E+00 -0.45593999997E+02  0.45594000000E+02  0.51100000000E-03 0.  1.
    9900012    2    1    2    0    0 -0.17236510938E+02  0.11930635639E+02  0.34838593091E+02  0.50528868866E+02  0.30000027404E+02 0.  0.
        -12    1    1    2    0    0  0.17236510938E+02 -0.11930635639E+02 -0.34838593091E+02  0.40659131134E+02  0.00000000000E+00 0.  1.
         11    1    3    3    0    0 -0.13031470247E+00  0.15667671045E+01 -0.43207628825E+00  0.16304696445E+01  0.51100000000E-03 0. -1.
        -11    1    3    3    0    0  0.32501203931E+01  0.11093256308E+02  0.54374890052E+01  0.12774580425E+02  0.51100000000E-03 0.  1.
         12    1    3    3    0    0 -0.20356316628E+02 -0.72938777416E+00  0.29833180374E+02  0.36123818796E+02  0.00000000000E+00 0. -1.
</event>
<event>
 7    1  0.6090311E-013  0.5052887E+02  0.7816164E-02  0.1300439E+00
        -11   -1    0    0    0    0  0.00000000000E+00  0.00000000000E+00  0.45593999997E+02  0.45594000000E+02  0.51100000000E-03 0.  1.
         11   -1    0    0    0    0 -0.00000000000E+00 -0.00000000000E+00 -0.45593999997E+02  0.45594000000E+02  0.51100000000E-03 0. -1.
    9900012    2    1    2    0    0  0.30027471647E+02 -0.11180083885E+02 -0.25030411172E+02  0.50528870489E+02  0.30000032337E+02 0.  0.
        -12    1    1    2    0    0 -0.30027471647E+02  0.11180083885E+02  0.25030411172E+02  0.40659129511E+02  0.00000000000E+00 0.  1.
         11    1    3    3    0    0  0.73676646131E+01 -0.24805112649E+00 -0.86978168845E+01  0.11401580155E+02  0.51100000000E-03 0. -1.
        -11    1    3    3    0    0  0.13366071559E+02 -0.10454370156E+02 -0.22337617568E+02  0.28052003193E+02  0.51100000000E-03 0.  1.
        -12    1    3    3    0    0  0.92937354750E+01 -0.47766260334E+00  0.60050232807E+01  0.11075287140E+02  0.00000000000E+00 0.  1.
</event>
<event>
 7    1  0.6090311E-013  0.5052886E+02  0.7816164E-02  0.1300439E+00
        -11   -1    0    0    0    0  0.00000000000E+00  0.00000000000E+00  0.45593999997E+02  0.45594000000E+02  0.51100000000E-03 0. -1.
         11   -1    0    0    0    0 -0.00000000000E+00 -0.00000000000E+00 -0.45593999997E+02  0.45594000000E+02  0.51100000000E-03 0.  1.
    9900012    2    1    2    0    0  0.32121820259E+02 -0.23665979021E+02  0.78278735005E+01  0.50528861995E+02  0.30000006519E+02 0.  0.
        -12    1    1    2    0    0 -0.32121820259E+02  0.23665979021E+02 -0.78278735005E+01  0.40659138005E+02  0.00000000000E+00 0.  1.
         11    1    3    3    0    0  0.22021095806E+02 -0.15137039489E+02 -0.33364436066E+01  0.26929360950E+02  0.51100000000E-03 0.  1.
        -11    1    3    3    0    0 -0.24879526745E+01 -0.23298897036E+01 -0.23321976681E+01  0.41300654675E+01  0.51100000000E-03 0. -1.
         12    1    3    3    0    0  0.12588677127E+02 -0.61990498292E+01  0.13496514775E+02  0.19469435577E+02  0.00000000000E+00 0. -1.
</event>
<event>
 7    1  0.6090311E-013  0.5052887E+02  0.7816164E-02  0.1300439E+00
        -11   -1    0    0    0    0  0.00000000000E+00  0.00000000000E+00  0.45593999997E+02  0.45594000000E+02  0.51100000000E-03 0.  1.
         11   -1    0    0    0    0 -0.00000000000E+00 -0.00000000000E+00 -0.45593999997E+02  0.45594000000E+02  0.51100000000E-03 0. -1.
    9900012    2    1    2    0    0  0.37364039011E+02 -0.13750047124E+02 -0.82480264481E+01  0.50528866372E+02  0.30000019823E+02 0.  0.
        -12    1    1    2    0    0 -0.37364039011E+02  0.13750047124E+02  0.82480264481E+01  0.40659133628E+02  0.00000000000E+00 0.  1.
         11    1    3    3    0    0  0.13964882845E+02 -0.13557357857E+01  0.42775043749E+01  0.14668095184E+02  0.51100000000E-03 0. -1.
        -11    1    3    3    0    0  0.63565871321E+01  0.43207871575E+01 -0.88273741110E+01  0.11704611723E+02  0.51100000000E-03 0.  1.
        -12    1    3    3    0    0  0.17042569034E+02 -0.16715098496E+02 -0.36981567120E+01  0.24156159464E+02  0.00000000000E+00 0.  1.
</event>
<event>
 7    1  0.6090311E-013  0.5052886E+02  0.7816164E-02  0.1300439E+00
        -11   -1    0    0    0    0  0.00000000000E+00  0.00000000000E+00  0.45593999997E+02  0.45594000000E+02  0.51100000000E-03 0.  1.
         11   -1    0    0    0    0 -0.00000000000E+00 -0.00000000000E+00 -0.45593999997E+02  0.45594000000E+02  0.51100000000E-03 0. -1.
    9900012    2    1    2    0    0 -0.98251364255E+01 -0.13936720167E+02 -0.36910706499E+02  0.50528859219E+02  0.29999998082E+02 0.  0.
        -12    1    1    2    0    0  0.98251364255E+01  0.13936720167E+02  0.36910706499E+02  0.40659140781E+02  0.00000000000E+00 0.  1.
         11    1    3    3    0    0 -0.29478563584E-01 -0.73477166520E+01 -0.60951684259E+01  0.95467736637E+01  0.51100000000E-03 0. -1.
        -11    1    3    3    0    0 -0.35783479993E+01 -0.90965348399E+01 -0.34324419666E+00  0.97810703574E+01  0.51100000000E-03 0.  1.
         12    1    3    3    0    0 -0.62173098627E+01  0.25075313248E+01 -0.30472293877E+02  0.31201015198E+02  0.00000000000E+00 0. -1.
</event>
<event>
 7    1  0.6090311E-013  0.5052885E+02  0.7816164E-02  0.1300439E+00
        -11   -1    0    0    0    0  0.00000000000E+00  0.00000000000E+00  0.45593999997E+02  0.45594000000E+02  0.51100000000E-03 0.  1.
         11   -1    0    0    0    0 -0.00000000000E+00 -0.00000000000E+00 -0.45593999997E+02  0.45594000000E+02  0.51100000000E-03 0. -1.
    9900012    2    1    2    0    0  0.40057775242E+02 -0.40787074277E+01  0.56484479409E+01  0.50528853726E+02  0.29999981385E+02 0.  0.
        -12    1    1    2    0    0 -0.40057775242E+02  0.40787074277E+01 -0.56484479409E+01  0.40659146274E+02  0.00000000000E+00 0.  1.
         11    1    3    3    0    0  0.17712137940E+01  0.31722566633E+01 -0.61195578588E+01  0.71168391362E+01  0.51100000000E-03 0. -1.
        -11    1    3    3    0    0  0.79806355352E+01 -0.33210293240E+01  0.93855163454E+01  0.12759611932E+02  0.51100000000E-03 0.  1.
        -12    1    3    3    0    0  0.30305925913E+02 -0.39299347670E+01  0.23824894543E+01  0.30652402658E+02  0.00000000000E+00 0.  1.
</event>
<event>
 7    1  0.6090311E-013  0.5052886E+02  0.7816164E-02  0.1300439E+00
        -11   -1    0    0    0    0  0.00000000000E+00  0.00000000000E+00  0.45593999997E+02  0.45594000000E+02  0.51100000000E-03 0.  1.
         11   -1    0    0    0    0 -0.00000000000E+00 -0.00000000000E+00 -0.45593999997E+02  0.45594000000E+02  0.51100000000E-03 0. -1.
    9900012    2    1    2    0    0  0.29930978910E+02 -0.23750427191E+01 -0.27416438066E+02  0.50528863233E+02  0.30000010282E+02 0.  0.
        -12    1    1    2    0    0 -0.29930978910E+02  0.23750427191E+01  0.27416438066E+02  0.40659136767E+02  0.00000000000E+00 0.  1.
         11    1    3    3    0    0  0.94333952646E+01 -0.12335470658E+02 -0.75978973839E+01  0.17288170160E+02  0.51100000000E-03 0. -1.
        -11    1    3    3    0    0  0.15957564587E+02  0.51722792995E+00 -0.97400429216E+01  0.18702401681E+02  0.51100000000E-03 0.  1.
         12    1    3    3    0    0  0.45400190592E+01  0.94432000090E+01 -0.10078497760E+02  0.14538291391E+02  0.00000000000E+00 0. -1.
</event>
<event>
 7    1  0.6090311E-013  0.5052886E+02  0.7816164E-02  0.1300439E+00
        -11   -1    0    0    0    0  0.00000000000E+00  0.00000000000E+00  0.45593999997E+02  0.45594000000E+02  0.51100000000E-03 0. -1.
         11   -1    0    0    0    0 -0.00000000000E+00 -0.00000000000E+00 -0.45593999997E+02  0.45594000000E+02  0.51100000000E-03 0.  1.
    9900012    2    1    2    0    0 -0.29825383699E+02 -0.27633515910E+02 -0.32422525097E-01  0.50528858770E+02  0.29999996717E+02 0.  0.
        -12    1    1    2    0    0  0.29825383699E+02  0.27633515910E+02  0.32422525097E-01  0.40659141230E+02  0.00000000000E+00 0.  1.
         11    1    3    3    0    0 -0.25176422246E+02 -0.18085059430E+02 -0.56331869299E+00  0.31003853630E+02  0.51100000000E-03 0. -1.
        -11    1    3    3    0    0 -0.36833477278E+01  0.27569523532E+01 -0.42738188110E+01  0.62795990519E+01  0.51100000000E-03 0.  1.
        -12    1    3    3    0    0 -0.96561372544E+00 -0.12305408833E+02  0.48047149789E+01  0.13245406088E+02  0.00000000000E+00 0.  1.
</event>
<event>
 7    1  0.6090311E-013  0.5052886E+02  0.7816164E-02  0.1300439E+00
        -11   -1    0    0    0    0  0.00000000000E+00  0.00000000000E+00  0.45593999997E+02  0.45594000000E+02  0.51100000000E-03 0.  1.
         11   -1    0    0    0    0 -0.00000000000E+00 -0.00000000000E+00 -0.45593999997E+02  0.45594000000E+02  0.51100000000E-03 0. -1.
    9900012    2    1    2    0    0  0.97362472168E+01 -0.36114243003E+02 -0.15941531459E+02  0.50528862247E+02  0.30000007287E+02 0.  0.
        -12    1    1    2    0    0 -0.97362472168E+01  0.36114243003E+02  0.15941531459E+02  0.40659137753E+02  0.00000000000E+00 0.  1.
         11    1    3    3    0    0  0.21634187408E+00 -0.27444897559E+02 -0.22162098568E+02  0.35276448504E+02  0.51100000000E-03 0. -1.
        -11    1    3    3    0    0  0.11730209340E+01  0.56798273371E+00  0.13703600525E+01  0.18911555811E+01  0.51100000000E-03 0.  1.
        -12    1    3    3    0    0  0.83468844088E+01 -0.92373281776E+01  0.48502070567E+01  0.13361258163E+02  0.00000000000E+00 0.  1.
</event>
<event>
 7    1  0.6090311E-013  0.5052886E+02  0.7816164E-02  0.1300439E+00
        -11   -1    0    0    0    0  0.00000000000E+00  0.00000000000E+00  0.45593999997E+02  0.45594000000E+02  0.51100000000E-03 0.  1.
         11   -1    0    0    0    0 -0.00000000000E+00 -0.00000000000E+00 -0.45593999997E+02  0.45594000000E+02  0.51100000000E-03 0. -1.
    9900012    2    1    2    0    0 -0.26320560805E+02  0.27079222047E+02 -0.15070143221E+02  0.50528863211E+02  0.30000010215E+02 0.  0.
        -12    1    1    2    0    0  0.26320560805E+02 -0.27079222047E+02  0.15070143221E+02  0.40659136789E+02  0.00000000000E+00 0.  1.
         11    1    3    3    0    0 -0.94630746644E+01  0.47511153185E+01 -0.11402585553E+01  0.10650026700E+02  0.51100000000E-03 0. -1.
        -11    1    3    3    0    0 -0.11945182248E+02  0.79826154040E+01  0.53674141159E+01  0.15336840032E+02  0.51100000000E-03 0.  1.
         12    1    3    3    0    0 -0.49123038920E+01  0.14345491324E+02 -0.19297298782E+02  0.24541996478E+02  0.00000000000E+00 0. -1.
</event>
<event>
 7    1  0.6090311E-013  0.5052885E+02  0.7816164E-02  0.1300439E+00
        -11   -1    0    0    0    0  0.00000000000E+00  0.00000000000E+00  0.45593999997E+02  0.45594000000E+02  0.51100000000E-03 0.  1.
         11   -1    0    0    0    0 -0.00000000000E+00 -0.00000000000E+00 -0.45593999997E+02  0.45594000000E+02  0.51100000000E-03 0. -1.
    9900012    2    1    2    0    0 -0.39989308709E+02  0.73094961675E+01 -0.76976247539E+00  0.50528854909E+02  0.29999984983E+02 0.  0.
        -12    1    1    2    0    0  0.39989308709E+02 -0.73094961675E+01  0.76976247539E+00  0.40659145091E+02  0.00000000000E+00 0.  1.
         11    1    3    3    0    0 -0.26683669839E+02  0.17942644438E+02  0.68535064740E+00  0.32162500389E+02  0.51100000000E-03 0. -1.
        -11    1    3    3    0    0 -0.48734287021E+00 -0.15445491730E+00 -0.17338902907E+01  0.18076878038E+01  0.51100000000E-03 0.  1.
         12    1    3    3    0    0 -0.12818295999E+02 -0.10478693353E+02  0.27877716796E+00  0.16558666716E+02  0.00000000000E+00 0. -1.
</event>
<event>
 7    1  0.6090311E-013  0.5052885E+02  0.7816164E-02  0.1300439E+00
        -11   -1    0    0    0    0  0.00000000000E+00  0.00000000000E+00  0.45593999997E+02  0.45594000000E+02  0.51100000000E-03 0.  1.
         11   -1    0    0    0    0 -0.00000000000E+00 -0.00000000000E+00 -0.45593999997E+02  0.45594000000E+02  0.51100000000E-03 0. -1.
    9900012    2    1    2    0    0  0.23493341257E+02 -0.14592897737E+02 -0.29803972872E+02  0.50528849163E+02  0.29999967517E+02 0.  0.
        -12    1    1    2    0    0 -0.23493341257E+02  0.14592897737E+02  0.29803972872E+02  0.40659150837E+02  0.00000000000E+00 0.  1.
         11    1    3    3    0    0  0.13155225702E+02 -0.12364661723E+02 -0.18932193601E+02  0.26160519444E+02  0.51100000000E-03 0. -1.
        -11    1    3    3    0    0  0.79076874621E+01 -0.62088412442E+01  0.23697697837E+01  0.10329425913E+02  0.51100000000E-03 0.  1.
         12    1    3    3    0    0  0.24304280936E+01  0.39806052308E+01 -0.13241549055E+02  0.14038903806E+02  0.00000000000E+00 0. -1.
</event>
<event>
 7    1  0.6090311E-013  0.5052886E+02  0.7816164E-02  0.1300439E+00
        -11   -1    0    0    0    0  0.00000000000E+00  0.00000000000E+00  0.45593999997E+02  0.45594000000E+02  0.51100000000E-03 0.  1.
         11   -1    0    0    0    0 -0.00000000000E+00 -0.00000000000E+00 -0.45593999997E+02  0.45594000000E+02  0.51100000000E-03 0. -1.
    9900012    2    1    2    0    0 -0.29207579740E+02  0.54316456040E+00 -0.28280527384E+02  0.50528856242E+02  0.29999989034E+02 0.  0.
        -12    1    1    2    0    0  0.29207579740E+02 -0.54316456040E+00  0.28280527384E+02  0.40659143758E+02  0.00000000000E+00 0.  1.
         11    1    3    3    0    0 -0.60235759366E+01 -0.11739986062E+01 -0.89858393990E+01  0.10881500345E+02  0.51100000000E-03 0. -1.
        -11    1    3    3    0    0 -0.21414820097E+02 -0.80991012554E+01 -0.18860904641E+02  0.29663507632E+02  0.51100000000E-03 0.  1.
        -12    1    3    3    0    0 -0.17691837064E+01  0.98162644220E+01 -0.43378334418E+00  0.99838482651E+01  0.00000000000E+00 0.  1.
</event>
<event>
 7    1  0.6090311E-013  0.5052886E+02  0.7816164E-02  0.1300439E+00
        -11   -1    0    0    0    0  0.00000000000E+00  0.00000000000E+00  0.45593999997E+02  0.45594000000E+02  0.51100000000E-03 0.  1.
         11   -1    0    0    0    0 -0.00000000000E+00 -0.00000000000E+00 -0.45593999997E+02  0.45594000000E+02  0.51100000000E-03 0. -1.
    9900012    2    1    2    0    0 -0.39812359096E+02  0.81809214491E+01  0.11018797944E+01  0.50528861401E+02  0.30000004715E+02 0.  0.
        -12    1    1    2    0    0  0.39812359096E+02 -0.81809214491E+01 -0.11018797944E+01  0.40659138599E+02  0.00000000000E+00 0.  1.
         11    1    3    3    0    0 -0.23289355355E+02  0.16404644516E+02 -0.27594214091E+01  0.28620287233E+02  0.51100000000E-03 0. -1.
        -11    1    3    3    0    0  0.15570094569E+01 -0.58467189506E+00 -0.62164715227E+00  0.17755464277E+01  0.51100000000E-03 0.  1.
        -12    1    3    3    0    0 -0.18080013197E+02 -0.76390511716E+01  0.44829483558E+01  0.20133027740E+02  0.00000000000E+00 0.  1.
</event>
<event>
 7    1  0.6090311E-013  0.5052886E+02  0.7816164E-02  0.1300439E+00
        -11   -1    0    0    0    0  0.00000000000E+00  0.00000000000E+00  0.45593999997E+02  0.45594000000E+02  0.51100000000E-03 0.  1.
         11   -1    0    0    0    0 -0.00000000000E+00 -0.00000000000E+00 -0.45593999997E+02  0.45594000000E+02  0.51100000000E-03 0. -1.
    9900012    2    1    2    0    0 -0.14442917602E+02  0.65440841099E+01 -0.37439854769E+02  0.50528860426E+02  0.30000001752E+02 0.  0.
        -12    1    1    2    0    0  0.14442917602E+02 -0.65440841099E+01  0.37439854769E+02  0.40659139574E+02  0.00000000000E+00 0.  1.
         11    1    3    3    0    0  0.91063916824E+00 -0.18561641476E+01 -0.38942703833E+00  0.21038685123E+01  0.51100000000E-03 0. -1.
        -11    1    3    3    0    0  0.45798621201E+01 -0.51842070049E+01 -0.64299965338E+01  0.94443631333E+01  0.51100000000E-03 0.  1.
         12    1    3    3    0    0 -0.19933418891E+02  0.13584455262E+02 -0.30620431197E+02  0.38980628781E+02  0.00000000000E+00 0. -1.
</event>
<event>
 7    1  0.6090311E-013  0.5052886E+02  0.7816164E-02  0.1300439E+00
        -11   -1    0    0    0    0  0.00000000000E+00  0.00000000000E+00  0.45593999997E+02  0.45594000000E+02  0.51100000000E-03 0. -1.
         11   -1    0    0    0    0 -0.00000000000E+00 -0.00000000000E+00 -0.45593999997E+02  0.45594000000E+02  0.51100000000E-03 0.  1.
    9900012    2    1    2    0    0  0.11434632402E+02 -0.30810347368E+02  0.23940294071E+02  0.50528855846E+02  0.29999987831E+02 0.  0.
        -12    1    1    2    0    0 -0.11434632402E+02  0.30810347368E+02 -0.23940294071E+02  0.40659144154E+02  0.00000000000E+00 0.  1.
         11    1    3    3    0    0 -0.90078996538E+01 -0.62189231248E+01  0.10978134633E+02  0.15502796564E+02  0.51100000000E-03 0.  1.
        -11    1    3    3    0    0  0.82237583900E+01 -0.13972157859E+02  0.80978688000E+01  0.18122551605E+02  0.51100000000E-03 0. -1.
        -12    1    3    3    0    0  0.12218773665E+02 -0.10619266384E+02  0.48642906379E+01  0.16903507678E+02  0.00000000000E+00 0.  1.
</event>
<event>
 7    1  0.6090311E-013  0.5052885E+02  0.7816164E-02  0.1300439E+00
        -11   -1    0    0    0    0  0.00000000000E+00  0.00000000000E+00  0.45593999997E+02  0.45594000000E+02  0.51100000000E-03 0. -1.
         11   -1    0    0    0    0 -0.00000000000E+00 -0.00000000000E+00 -0.45593999997E+02  0.45594000000E+02  0.51100000000E-03 0.  1.
    9900012    2    1    2    0    0 -0.36861320508E+02  0.42986135704E+01  0.16611181969E+02  0.50528851035E+02  0.29999973205E+02 0.  0.
        -12    1    1    2    0    0  0.36861320508E+02 -0.42986135704E+01 -0.16611181969E+02  0.40659148965E+02  0.00000000000E+00 0.  1.
         11    1    3    3    0    0 -0.47733766793E+01 -0.50720813865E+01 -0.34612768197E+01  0.77776328017E+01  0.51100000000E-03 0. -1.
        -11    1    3    3    0    0 -0.65015757441E+01 -0.51731256803E+01  0.40927076168E+01  0.92618557729E+01  0.51100000000E-03 0.  1.
         12    1    3    3    0    0 -0.25586368084E+02  0.14543820637E+02  0.15979751172E+02  0.33489362460E+02  0.00000000000E+00 0. -1.
</event>
<event>
 7    1  0.6090311E-013  0.5052887E+02  0.7816164E-02  0.1300439E+00
        -11   -1    0    0    0    0  0.00000000000E+00  0.00000000000E+00  0.45593999997E+02  0.45594000000E+02  0.51100000000E-03 0.  1.
         11   -1    0    0    0    0 -0.00000000000E+00 -0.00000000000E+00 -0.45593999997E+02  0.45594000000E+02  0.51100000000E-03 0. -1.
    9900012    2    1    2    0    0 -0.19602388419E+02 -0.25834732594E+02 -0.24525047152E+02  0.50528868458E+02  0.30000026165E+02 0.  0.
        -12    1    1    2    0    0  0.19602388419E+02  0.25834732594E+02  0.24525047152E+02  0.40659131542E+02  0.00000000000E+00 0.  1.
         11    1    3    3    0    0 -0.70148082202E+01 -0.10821166462E+02 -0.18141453003E+02  0.22257975993E+02  0.51100000000E-03 0. -1.
        -11    1    3    3    0    0 -0.45600857657E+01 -0.11876253245E+02 -0.12395899981E+02  0.17762266464E+02  0.51100000000E-03 0.  1.
        -12    1    3    3    0    0 -0.80274944331E+01 -0.31373128874E+01  0.60123058322E+01  0.10508626002E+02  0.00000000000E+00 0.  1.
</event>
<event>
 7    1  0.6090311E-013  0.5052887E+02  0.7816164E-02  0.1300439E+00
        -11   -1    0    0    0    0  0.00000000000E+00  0.00000000000E+00  0.45593999997E+02  0.45594000000E+02  0.51100000000E-03 0.  1.
         11   -1    0    0    0    0 -0.00000000000E+00 -0.00000000000E+00 -0.45593999997E+02  0.45594000000E+02  0.51100000000E-03 0. -1.
    9900012    2    1    2    0    0  0.28097491101E+01 -0.20641366395E+02 -0.34917107464E+02  0.50528867074E+02  0.30000021957E+02 0.  0.
        -12    1    1    2    0    0 -0.28097491101E+01  0.20641366395E+02  0.34917107464E+02  0.40659132926E+02  0.00000000000E+00 0.  1.
         11    1    3    3    0    0  0.13805931109E+01 -0.12614773320E+02 -0.59045028416E+01  0.13996488749E+02  0.51100000000E-03 0. -1.
        -11    1    3    3    0    0  0.42488095231E+01  0.45100580378E+01 -0.18222958454E+01  0.64586196883E+01  0.51100000000E-03 0.  1.
         12    1    3    3    0    0 -0.28196535239E+01 -0.12536651113E+02 -0.27190308777E+02  0.30073758636E+02  0.00000000000E+00 0. -1.
</event>
<event>
 7    1  0.6090311E-013  0.5052886E+02  0.7816164E-02  0.1300439E+00
        -11   -1    0    0    0    0  0.00000000000E+00  0.00000000000E+00  0.45593999997E+02  0.45594000000E+02  0.51100000000E-03 0.  1.
         11   -1    0    0    0    0 -0.00000000000E+00 -0.00000000000E+00 -0.45593999997E+02  0.45594000000E+02  0.51100000000E-03 0. -1.
    9900012    2    1    2    0    0 -0.15111862891E+02 -0.19236763550E+02 -0.32476827284E+02  0.50528858564E+02  0.29999996090E+02 0.  0.
        -12    1    1    2    0    0  0.15111862891E+02  0.19236763550E+02  0.32476827284E+02  0.40659141436E+02  0.00000000000E+00 0.  1.
         11    1    3    3    0    0 -0.63172597797E+01 -0.10164463165E+02 -0.69617021845E+01  0.13845193395E+02  0.51100000000E-03 0. -1.
        -11    1    3    3    0    0  0.50991535092E+00  0.10548215132E+01  0.39752087229E+01  0.41442667314E+01  0.51100000000E-03 0.  1.
         12    1    3    3    0    0 -0.93045184618E+01 -0.10127121898E+02 -0.29490333822E+02  0.32539398438E+02  0.00000000000E+00 0. -1.
</event>
<event>
 7    1  0.6090311E-013  0.5052885E+02  0.7816164E-02  0.1300439E+00
        -11   -1    0    0    0    0  0.00000000000E+00  0.00000000000E+00  0.45593999997E+02  0.45594000000E+02  0.51100000000E-03 0.  1.
         11   -1    0    0    0    0 -0.00000000000E+00 -0.00000000000E+00 -0.45593999997E+02  0.45594000000E+02  0.51100000000E-03 0. -1.
    9900012    2    1    2    0    0  0.14031526065E+02  0.20518394008E+02 -0.32175734272E+02  0.50528854751E+02  0.29999984503E+02 0.  0.
        -12    1    1    2    0    0 -0.14031526065E+02 -0.20518394008E+02  0.32175734272E+02  0.40659145249E+02  0.00000000000E+00 0.  1.
         11    1    3    3    0    0  0.39860029837E+01  0.13664930278E+02 -0.18723528313E+02  0.23519971344E+02  0.51100000000E-03 0. -1.
        -11    1    3    3    0    0 -0.51613512027E+00 -0.51294765525E+01 -0.90911308342E+01  0.10451152342E+02  0.51100000000E-03 0.  1.
         12    1    3    3    0    0  0.10561658202E+02  0.11982940283E+02 -0.43610751246E+01  0.16557731065E+02  0.00000000000E+00 0. -1.
</event>
<event>
 7    1  0.6090311E-013  0.5052886E+02  0.7816164E-02  0.1300439E+00
        -11   -1    0    0    0    0  0.00000000000E+00  0.00000000000E+00  0.45593999997E+02  0.45594000000E+02  0.51100000000E-03 0. -1.
         11   -1    0    0    0    0 -0.00000000000E+00 -0.00000000000E+00 -0.45593999997E+02  0.45594000000E+02  0.51100000000E-03 0.  1.
    9900012    2    1    2    0    0  0.39779065517E+02 -0.67830135553E+01 -0.49782019523E+01  0.50528858088E+02  0.29999994646E+02 0.  0.
        -12    1    1    2    0    0 -0.39779065517E+02  0.67830135553E+01  0.49782019523E+01  0.40659141912E+02  0.00000000000E+00 0.  1.
         11    1    3    3    0    0  0.10510079601E+02  0.46746299728E+01  0.54837588120E+01  0.12743058878E+02  0.51100000000E-03 0. -1.
        -11    1    3    3    0    0  0.24955588000E+01  0.42162484643E+01 -0.34132132386E+01  0.59711464319E+01  0.51100000000E-03 0.  1.
         12    1    3    3    0    0  0.26773427116E+02 -0.15673891992E+02 -0.70487475256E+01  0.31814652778E+02  0.00000000000E+00 0. -1.
</event>
<event>
 7    1  0.6090311E-013  0.5052887E+02  0.7816164E-02  0.1300439E+00
        -11   -1    0    0    0    0  0.00000000000E+00  0.00000000000E+00  0.45593999997E+02  0.45594000000E+02  0.51100000000E-03 0.  1.
         11   -1    0    0    0    0 -0.00000000000E+00 -0.00000000000E+00 -0.45593999997E+02  0.45594000000E+02  0.51100000000E-03 0. -1.
    9900012    2    1    2    0    0  0.17939636250E+02 -0.89385677998E+01 -0.35375644676E+02  0.50528870898E+02  0.30000033582E+02 0.  0.
        -12    1    1    2    0    0 -0.17939636250E+02  0.89385677998E+01  0.35375644676E+02  0.40659129102E+02  0.00000000000E+00 0.  1.
         11    1    3    3    0    0  0.21074513304E+01 -0.47993563549E+01  0.50956392816E-01  0.52419242026E+01  0.51100000000E-03 0. -1.
        -11    1    3    3    0    0  0.16060747664E+02 -0.51949821974E+01 -0.95627711928E+01  0.19400568257E+02  0.51100000000E-03 0.  1.
         12    1    3    3    0    0 -0.22856274421E+00  0.10557707524E+01 -0.25863829876E+02  0.25886378438E+02  0.00000000000E+00 0. -1.
</event>
<event>
 7    1  0.6090311E-013  0.5052887E+02  0.7816164E-02  0.1300439E+00
        -11   -1    0    0    0    0  0.00000000000E+00  0.00000000000E+00  0.45593999997E+02  0.45594000000E+02  0.51100000000E-03 0.  1.
         11   -1    0    0    0    0 -0.00000000000E+00 -0.00000000000E+00 -0.45593999997E+02  0.45594000000E+02  0.51100000000E-03 0. -1.
    9900012    2    1    2    0    0  0.64084162981E+00  0.21776772453E+02 -0.34329672114E+02  0.50528869612E+02  0.30000029672E+02 0.  0.
        -12    1    1    2    0    0 -0.64084162981E+00 -0.21776772453E+02  0.34329672114E+02  0.40659130388E+02  0.00000000000E+00 0.  1.
         11    1    3    3    0    0 -0.15788878915E+01  0.22088015729E+02 -0.20084123233E+02  0.29895573788E+02  0.51100000000E-03 0. -1.
        -11    1    3    3    0    0 -0.21353161664E+01  0.47519520717E+01 -0.12772732996E+02  0.13794322457E+02  0.51100000000E-03 0.  1.
        -12    1    3    3    0    0  0.43550456877E+01 -0.50631953478E+01 -0.14728158851E+01  0.68389733662E+01  0.00000000000E+00 0.  1.
</event>
<event>
 7    1  0.6090311E-013  0.5052884E+02  0.7816164E-02  0.1300439E+00
        -11   -1    0    0    0    0  0.00000000000E+00  0.00000000000E+00  0.45593999997E+02  0.45594000000E+02  0.51100000000E-03 0.  1.
         11   -1    0    0    0    0 -0.00000000000E+00 -0.00000000000E+00 -0.45593999997E+02  0.45594000000E+02  0.51100000000E-03 0. -1.
    9900012    2    1    2    0    0  0.20194897852E+01  0.25913256332E+02 -0.31266474501E+02  0.50528835960E+02  0.29999927384E+02 0.  0.
        -12    1    1    2    0    0 -0.20194897852E+01 -0.25913256332E+02  0.31266474501E+02  0.40659164040E+02  0.00000000000E+00 0.  1.
         11    1    3    3    0    0 -0.10957357649E+01 -0.47302059765E+01  0.36204131929E+00  0.48689382441E+01  0.51100000000E-03 0. -1.
        -11    1    3    3    0    0  0.12777406446E+00  0.17997874905E+01  0.95499597565E+00  0.20414648655E+01  0.51100000000E-03 0.  1.
         12    1    3    3    0    0  0.29874514857E+01  0.28843674818E+02 -0.32583511795E+02  0.43618432850E+02  0.00000000000E+00 0. -1.
</event>
<event>
 7    1  0.6090311E-013  0.5052886E+02  0.7816164E-02  0.1300439E+00
        -11   -1    0    0    0    0  0.00000000000E+00  0.00000000000E+00  0.45593999997E+02  0.45594000000E+02  0.51100000000E-03 0.  1.
         11   -1    0    0    0    0 -0.00000000000E+00 -0.00000000000E+00 -0.45593999997E+02  0.45594000000E+02  0.51100000000E-03 0. -1.
    9900012    2    1    2    0    0  0.13495690711E+02  0.27692908392E+02  0.26535535967E+02  0.50528861888E+02  0.30000006193E+02 0.  0.
        -12    1    1    2    0    0 -0.13495690711E+02 -0.27692908392E+02 -0.26535535967E+02  0.40659138112E+02  0.00000000000E+00 0.  1.
         11    1    3    3    0    0  0.11297678432E+02  0.88452227836E+01  0.21096072743E+02  0.25513129747E+02  0.51100000000E-03 0.  1.
        -11    1    3    3    0    0  0.96493233179E+00 -0.16351883948E+00  0.58786089246E+01  0.59595197764E+01  0.51100000000E-03 0. -1.
         12    1    3    3    0    0  0.12330799473E+01  0.19011204448E+02 -0.43914570056E+00  0.19056212364E+02  0.00000000000E+00 0. -1.
</event>
<event>
 7    1  0.6090311E-013  0.5052886E+02  0.7816164E-02  0.1300439E+00
        -11   -1    0    0    0    0  0.00000000000E+00  0.00000000000E+00  0.45593999997E+02  0.45594000000E+02  0.51100000000E-03 0.  1.
         11   -1    0    0    0    0 -0.00000000000E+00 -0.00000000000E+00 -0.45593999997E+02  0.45594000000E+02  0.51100000000E-03 0. -1.
    9900012    2    1    2    0    0  0.23488596733E+02 -0.32173917997E+02  0.81418760749E+01  0.50528864227E+02  0.30000013305E+02 0.  0.
        -12    1    1    2    0    0 -0.23488596733E+02  0.32173917997E+02 -0.81418760749E+01  0.40659135773E+02  0.00000000000E+00 0.  1.
         11    1    3    3    0    0  0.22484933520E+02 -0.15820208422E+02 -0.65711880157E+00  0.27500600636E+02  0.51100000000E-03 0. -1.
        -11    1    3    3    0    0  0.69438137604E+01 -0.10846921870E+02  0.72563926886E+01  0.14782675627E+02  0.51100000000E-03 0.  1.
         12    1    3    3    0    0 -0.59401505480E+01 -0.55067877053E+01  0.15426021879E+01  0.82455879641E+01  0.00000000000E+00 0. -1.
</event>
<event>
 7    1  0.6090311E-013  0.5052886E+02  0.7816164E-02  0.1300439E+00
        -11   -1    0    0    0    0  0.00000000000E+00  0.00000000000E+00  0.45593999997E+02  0.45594000000E+02  0.51100000000E-03 0.  1.
         11   -1    0    0    0    0 -0.00000000000E+00 -0.00000000000E+00 -0.45593999997E+02  0.45594000000E+02  0.51100000000E-03 0. -1.
    9900012    2    1    2    0    0  0.23901983146E+02 -0.10168750437E+02 -0.31280301712E+02  0.50528861311E+02  0.30000004440E+02 0.  0.
        -12    1    1    2    0    0 -0.23901983146E+02  0.10168750437E+02  0.31280301712E+02  0.40659138689E+02  0.00000000000E+00 0.  1.
         11    1    3    3    0    0  0.81681812433E+01  0.23436446795E+01  0.12099711125E+01  0.85834658245E+01  0.51100000000E-03 0. -1.
        -11    1    3    3    0    0  0.15275214559E+01  0.10656809318E+01  0.16923437966E+01  0.25165503042E+01  0.51100000000E-03 0.  1.
         12    1    3    3    0    0  0.14206280447E+02 -0.13578076048E+02 -0.34182616621E+02  0.39428845182E+02  0.00000000000E+00 0. -1.
</event>
<event>
 7    1  0.6090311E-013  0.5052886E+02  0.7816164E-02  0.1300439E+00
        -11   -1    0    0    0    0  0.00000000000E+00  0.00000000000E+00  0.45593999997E+02  0.45594000000E+02  0.51100000000E-03 0.  1.
         11   -1    0    0    0    0 -0.00000000000E+00 -0.00000000000E+00 -0.45593999997E+02  0.45594000000E+02  0.51100000000E-03 0. -1.
    9900012    2    1    2    0    0 -0.20367556084E+01 -0.24979559761E+02 -0.32016228799E+02  0.50528859751E+02  0.29999999699E+02 0.  0.
        -12    1    1    2    0    0  0.20367556084E+01  0.24979559761E+02  0.32016228799E+02  0.40659140249E+02  0.00000000000E+00 0.  1.
         11    1    3    3    0    0  0.45829349522E+01 -0.19143890894E+02 -0.25948720370E+02  0.32570353704E+02  0.51100000000E-03 0. -1.
        -11    1    3    3    0    0  0.29510492438E+01 -0.30895923027E+01 -0.67387087638E+01  0.79790017108E+01  0.51100000000E-03 0.  1.
        -12    1    3    3    0    0 -0.95707398045E+01 -0.27460765637E+01  0.67120033388E+00  0.99795043357E+01  0.00000000000E+00 0.  1.
</event>
<event>
 7    1  0.6090311E-013  0.5052886E+02  0.7816164E-02  0.1300439E+00
        -11   -1    0    0    0    0  0.00000000000E+00  0.00000000000E+00  0.45593999997E+02  0.45594000000E+02  0.51100000000E-03 0.  1.
         11   -1    0    0    0    0 -0.00000000000E+00 -0.00000000000E+00 -0.45593999997E+02  0.45594000000E+02  0.51100000000E-03 0. -1.
    9900012    2    1    2    0    0  0.22931528887E+01  0.58232136593E+01 -0.40174589574E+02  0.50528855704E+02  0.29999987397E+02 0.  0.
        -12    1    1    2    0    0 -0.22931528887E+01 -0.58232136593E+01  0.40174589574E+02  0.40659144296E+02  0.00000000000E+00 0.  1.
         11    1    3    3    0    0  0.23782456989E+01 -0.60752132897E+00 -0.16717495816E+02  0.16896739372E+02  0.51100000000E-03 0. -1.
        -11    1    3    3    0    0  0.82061656754E+01 -0.51952500529E+01 -0.11087709421E+02  0.14740050158E+02  0.51100000000E-03 0.  1.
        -12    1    3    3    0    0 -0.82912584856E+01  0.11625985041E+02 -0.12369384336E+02  0.18892066174E+02  0.00000000000E+00 0.  1.
</event>
<event>
 7    1  0.6090311E-013  0.5052885E+02  0.7816164E-02  0.1300439E+00
        -11   -1    0    0    0    0  0.00000000000E+00  0.00000000000E+00  0.45593999997E+02  0.45594000000E+02  0.51100000000E-03 0.  1.
         11   -1    0    0    0    0 -0.00000000000E+00 -0.00000000000E+00 -0.45593999997E+02  0.45594000000E+02  0.51100000000E-03 0. -1.
    9900012    2    1    2    0    0  0.16621572003E+02 -0.33824688227E+02 -0.15257129441E+02  0.50528853572E+02  0.29999980917E+02 0.  0.
        -12    1    1    2    0    0 -0.16621572003E+02  0.33824688227E+02  0.15257129441E+02  0.40659146428E+02  0.00000000000E+00 0.  1.
         11    1    3    3    0    0  0.73194432126E+01 -0.11495431641E+02 -0.49677690797E+01  0.14505100050E+02  0.51100000000E-03 0. -1.
        -11    1    3    3    0    0  0.16766400743E+01 -0.25931222778E+02 -0.89569388485E+01  0.27485745224E+02  0.51100000000E-03 0.  1.
        -12    1    3    3    0    0  0.76254887165E+01  0.36019661924E+01 -0.13324215126E+01  0.85380082984E+01  0.00000000000E+00 0.  1.
</event>
<event>
 7    1  0.6090311E-013  0.5052888E+02  0.7816164E-02  0.1300439E+00
        -11   -1    0    0    0    0  0.00000000000E+00  0.00000000000E+00  0.45593999997E+02  0.45594000000E+02  0.51100000000E-03 0.  1.
         11   -1    0    0    0    0 -0.00000000000E+00 -0.00000000000E+00 -0.45593999997E+02  0.45594000000E+02  0.51100000000E-03 0. -1.
    9900012    2    1    2    0    0  0.23584267356E+01  0.27476568649E+02 -0.29877082232E+02  0.50528879939E+02  0.30000061063E+02 0.  0.
        -12    1    1    2    0    0 -0.23584267356E+01 -0.27476568649E+02  0.29877082232E+02  0.40659120061E+02  0.00000000000E+00 0.  1.
         11    1    3    3    0    0 -0.26649278530E+01  0.27380941992E+01 -0.11333452984E+02  0.11960190513E+02  0.51100000000E-03 0. -1.
        -11    1    3    3    0    0 -0.67400283150E+01  0.18269137890E+02 -0.15281579264E+02  0.24753101745E+02  0.51100000000E-03 0.  1.
         12    1    3    3    0    0  0.11763382904E+02  0.64693365598E+01 -0.32620499838E+01  0.13815587680E+02  0.00000000000E+00 0. -1.
</event>
<event>
 7    1  0.6090311E-013  0.5052885E+02  0.7816164E-02  0.1300439E+00
        -11   -1    0    0    0    0  0.00000000000E+00  0.00000000000E+00  0.45593999997E+02  0.45594000000E+02  0.51100000000E-03 0.  1.
         11   -1    0    0    0    0 -0.00000000000E+00 -0.00000000000E+00 -0.45593999997E+02  0.45594000000E+02  0.51100000000E-03 0. -1.
    9900012    2    1    2    0    0  0.82391508381E+01  0.30223401568E+01 -0.39700732336E+02  0.50528852264E+02  0.29999976942E+02 0.  0.
        -12    1    1    2    0    0 -0.82391508381E+01 -0.30223401568E+01  0.39700732336E+02  0.40659147736E+02  0.00000000000E+00 0.  1.
         11    1    3    3    0    0  0.47986790186E+01  0.94393091465E+01 -0.19485388557E+02  0.22176750099E+02  0.51100000000E-03 0. -1.
        -11    1    3    3    0    0  0.14227325821E+01  0.50267145644E+01 -0.14479989194E+02  0.15393573810E+02  0.51100000000E-03 0.  1.
        -12    1    3    3    0    0  0.20177392374E+01 -0.11443683554E+02 -0.57353545855E+01  0.12958528355E+02  0.00000000000E+00 0.  1.
</event>
<event>
 7    1  0.6090311E-013  0.5052887E+02  0.7816164E-02  0.1300439E+00
        -11   -1    0    0    0    0  0.00000000000E+00  0.00000000000E+00  0.45593999997E+02  0.45594000000E+02  0.51100000000E-03 0. -1.
         11   -1    0    0    0    0 -0.00000000000E+00 -0.00000000000E+00 -0.45593999997E+02  0.45594000000E+02  0.51100000000E-03 0.  1.
    9900012    2    1    2    0    0  0.18072699541E+02 -0.35169881986E+02 -0.94668691326E+01  0.50528872135E+02  0.30000037341E+02 0.  0.
        -12    1    1    2    0    0 -0.18072699541E+02  0.35169881986E+02  0.94668691326E+01  0.40659127865E+02  0.00000000000E+00 0.  1.
         11    1    3    3    0    0  0.58938095333E+01 -0.84258848369E-01  0.38448655525E+01  0.70375479925E+01  0.51100000000E-03 0.  1.
        -11    1    3    3    0    0  0.17012398396E+02 -0.25368739743E+02 -0.94851497304E+01  0.31983788409E+02  0.51100000000E-03 0. -1.
         12    1    3    3    0    0 -0.48335083880E+01 -0.97168833942E+01 -0.38265849547E+01  0.11507535733E+02  0.00000000000E+00 0. -1.
</event>
<event>
 7    1  0.6090311E-013  0.5052884E+02  0.7816164E-02  0.1300439E+00
        -11   -1    0    0    0    0  0.00000000000E+00  0.00000000000E+00  0.45593999997E+02  0.45594000000E+02  0.51100000000E-03 0. -1.
         11   -1    0    0    0    0 -0.00000000000E+00 -0.00000000000E+00 -0.45593999997E+02  0.45594000000E+02  0.51100000000E-03 0.  1.
    9900012    2    1    2    0    0  0.37179840497E+02 -0.34783872633E+01  0.16085000487E+02  0.50528844107E+02  0.29999952146E+02 0.  0.
        -12    1    1    2    0    0 -0.37179840497E+02  0.34783872633E+01 -0.16085000487E+02  0.40659155893E+02  0.00000000000E+00 0.  1.
         11    1    3    3    0    0  0.44542111305E+01  0.38491022595E+01 -0.39014063402E+01  0.70623336576E+01  0.51100000000E-03 0. -1.
        -11    1    3    3    0    0  0.38397153739E+01  0.26596337065E+01  0.10455258852E+02  0.11451179133E+02  0.51100000000E-03 0.  1.
         12    1    3    3    0    0  0.28885913992E+02 -0.99871232293E+01  0.95311479752E+01  0.32015331316E+02  0.00000000000E+00 0. -1.
</event>
<event>
 7    1  0.6090311E-013  0.5052887E+02  0.7816164E-02  0.1300439E+00
        -11   -1    0    0    0    0  0.00000000000E+00  0.00000000000E+00  0.45593999997E+02  0.45594000000E+02  0.51100000000E-03 0.  1.
         11   -1    0    0    0    0 -0.00000000000E+00 -0.00000000000E+00 -0.45593999997E+02  0.45594000000E+02  0.51100000000E-03 0. -1.
    9900012    2    1    2    0    0 -0.23491336445E+02  0.33013834650E+02 -0.33777341655E+01  0.50528865056E+02  0.30000015825E+02 0.  0.
        -12    1    1    2    0    0  0.23491336445E+02 -0.33013834650E+02  0.33777341655E+01  0.40659134944E+02  0.00000000000E+00 0.  1.
         11    1    3    3    0    0 -0.86314254483E+01  0.18116876169E+02 -0.58701740414E+01  0.20908889280E+02  0.51100000000E-03 0. -1.
        -11    1    3    3    0    0  0.49987346522E+01  0.15722811741E+01  0.22532461194E+01  0.57040805175E+01  0.51100000000E-03 0.  1.
         12    1    3    3    0    0 -0.19858645649E+02  0.13324677307E+02  0.23919375654E+00  0.23915895258E+02  0.00000000000E+00 0. -1.
</event>
<event>
 7    1  0.6090311E-013  0.5052889E+02  0.7816164E-02  0.1300439E+00
        -11   -1    0    0    0    0  0.00000000000E+00  0.00000000000E+00  0.45593999997E+02  0.45594000000E+02  0.51100000000E-03 0.  1.
         11   -1    0    0    0    0 -0.00000000000E+00 -0.00000000000E+00 -0.45593999997E+02  0.45594000000E+02  0.51100000000E-03 0. -1.
    9900012    2    1    2    0    0 -0.12499677024E+02  0.11453860709E+02 -0.36955788309E+02  0.50528891053E+02  0.30000094843E+02 0.  0.
        -12    1    1    2    0    0  0.12499677024E+02 -0.11453860709E+02  0.36955788309E+02  0.40659108947E+02  0.00000000000E+00 0.  1.
         11    1    3    3    0    0 -0.33583183054E+00 -0.13222698191E+01 -0.25643160363E+01  0.29046337959E+01  0.51100000000E-03 0. -1.
        -11    1    3    3    0    0 -0.18689233627E+02  0.15659738847E+02 -0.31715305019E+02  0.40004692813E+02  0.51100000000E-03 0.  1.
        -12    1    3    3    0    0  0.65253884334E+01 -0.28836083189E+01 -0.26761672532E+01  0.76195644436E+01  0.00000000000E+00 0.  1.
</event>
<event>
 7    1  0.6090311E-013  0.5052886E+02  0.7816164E-02  0.1300439E+00
        -11   -1    0    0    0    0  0.00000000000E+00  0.00000000000E+00  0.45593999997E+02  0.45594000000E+02  0.51100000000E-03 0. -1.
         11   -1    0    0    0    0 -0.00000000000E+00 -0.00000000000E+00 -0.45593999997E+02  0.45594000000E+02  0.51100000000E-03 0.  1.
    9900012    2    1    2    0    0  0.39153639872E+02  0.10585066923E+02  0.28485836096E+01  0.50528860983E+02  0.30000003444E+02 0.  0.
        -12    1    1    2    0    0 -0.39153639872E+02 -0.10585066923E+02 -0.28485836096E+01  0.40659139017E+02  0.00000000000E+00 0.  1.
         11    1    3    3    0    0  0.13091710112E+02 -0.79983814460E+00 -0.54239497787E+01  0.14193373319E+02  0.51100000000E-03 0. -1.
        -11    1    3    3    0    0  0.18746883500E+02  0.14346792099E+02 -0.16416629060E+01  0.23663709385E+02  0.51100000000E-03 0.  1.
         12    1    3    3    0    0  0.73150462601E+01 -0.29618870318E+01  0.99141962944E+01  0.12671778279E+02  0.00000000000E+00 0. -1.
</event>
<event>
 7    1  0.6090311E-013  0.5052886E+02  0.7816164E-02  0.1300439E+00
        -11   -1    0    0    0    0  0.00000000000E+00  0.00000000000E+00  0.45593999997E+02  0.45594000000E+02  0.51100000000E-03 0.  1.
         11   -1    0    0    0    0 -0.00000000000E+00 -0.00000000000E+00 -0.45593999997E+02  0.45594000000E+02  0.51100000000E-03 0. -1.
    9900012    2    1    2    0    0  0.45360617342E+01  0.27824417582E+02 -0.29298318427E+02  0.50528861636E+02  0.30000005430E+02 0.  0.
        -12    1    1    2    0    0 -0.45360617342E+01 -0.27824417582E+02  0.29298318427E+02  0.40659138364E+02  0.00000000000E+00 0.  1.
         11    1    3    3    0    0 -0.11794767748E-01  0.19919772181E+02 -0.15613612348E+02  0.25309728440E+02  0.51100000000E-03 0. -1.
        -11    1    3    3    0    0  0.10712678665E+02  0.99034009649E+01 -0.82425639676E+01  0.16756452365E+02  0.51100000000E-03 0.  1.
        -12    1    3    3    0    0 -0.61648221626E+01 -0.19987555643E+01 -0.54421421108E+01  0.84626808315E+01  0.00000000000E+00 0.  1.
</event>
<event>
 7    1  0.6090311E-013  0.5052887E+02  0.7816164E-02  0.1300439E+00
        -11   -1    0    0    0    0  0.00000000000E+00  0.00000000000E+00  0.45593999997E+02  0.45594000000E+02  0.51100000000E-03 0.  1.
         11   -1    0    0    0    0 -0.00000000000E+00 -0.00000000000E+00 -0.45593999997E+02  0.45594000000E+02  0.51100000000E-03 0. -1.
    9900012    2    1    2    0    0  0.38195337868E+02 -0.80831906842E-01 -0.13938248458E+02  0.50528866478E+02  0.30000020148E+02 0.  0.
        -12    1    1    2    0    0 -0.38195337868E+02  0.80831906842E-01  0.13938248458E+02  0.40659133522E+02  0.00000000000E+00 0.  1.
         11    1    3    3    0    0  0.68592328863E+01  0.44156235802E+01  0.36993900543E+01  0.89572481503E+01  0.51100000000E-03 0. -1.
        -11    1    3    3    0    0 -0.19600206231E+01 -0.27872670055E+01 -0.47093476918E+01  0.58127871238E+01  0.51100000000E-03 0.  1.
         12    1    3    3    0    0  0.33296125605E+02 -0.17091884815E+01 -0.12928290821E+02  0.35758831204E+02  0.00000000000E+00 0. -1.
</event>
<event>
 7    1  0.6090311E-013  0.5052886E+02  0.7816164E-02  0.1300439E+00
        -11   -1    0    0    0    0  0.00000000000E+00  0.00000000000E+00  0.45593999997E+02  0.45594000000E+02  0.51100000000E-03 0.  1.
         11   -1    0    0    0    0 -0.00000000000E+00 -0.00000000000E+00 -0.45593999997E+02  0.45594000000E+02  0.51100000000E-03 0. -1.
    9900012    2    1    2    0    0 -0.94950459626E+01  0.32304253125E+02 -0.22791340035E+02  0.50528857752E+02  0.29999993623E+02 0.  0.
        -12    1    1    2    0    0  0.94950459626E+01 -0.32304253125E+02  0.22791340035E+02  0.40659142248E+02  0.00000000000E+00 0.  1.
         11    1    3    3    0    0 -0.13287615309E+02  0.60844743342E+01 -0.23590015956E+01  0.14803595418E+02  0.51100000000E-03 0. -1.
        -11    1    3    3    0    0 -0.27610608370E+00 -0.13723315511E+01 -0.12322418538E+01  0.18649259242E+01  0.51100000000E-03 0.  1.
         12    1    3    3    0    0  0.40686754302E+01  0.27592110342E+02 -0.19200096585E+02  0.33860336409E+02  0.00000000000E+00 0. -1.
</event>
<event>
 7    1  0.6090311E-013  0.5052887E+02  0.7816164E-02  0.1300439E+00
        -11   -1    0    0    0    0  0.00000000000E+00  0.00000000000E+00  0.45593999997E+02  0.45594000000E+02  0.51100000000E-03 0. -1.
         11   -1    0    0    0    0 -0.00000000000E+00 -0.00000000000E+00 -0.45593999997E+02  0.45594000000E+02  0.51100000000E-03 0.  1.
    9900012    2    1    2    0    0  0.38530752136E+02  0.60512439383E+01  0.11486002248E+02  0.50528872353E+02  0.30000038005E+02 0.  0.
        -12    1    1    2    0    0 -0.38530752136E+02 -0.60512439383E+01 -0.11486002248E+02  0.40659127647E+02  0.00000000000E+00 0.  1.
         11    1    3    3    0    0  0.86756889493E+01 -0.17304484346E+01  0.98567626233E+01  0.13244538505E+02  0.51100000000E-03 0. -1.
        -11    1    3    3    0    0 -0.10056798752E+01 -0.10080507954E+01  0.48314076890E+01  0.50368699542E+01  0.51100000000E-03 0.  1.
        -12    1    3    3    0    0  0.30860743062E+02  0.87897431683E+01 -0.32021680643E+01  0.32247463894E+02  0.00000000000E+00 0.  1.
</event>
<event>
 7    1  0.6090311E-013  0.5052886E+02  0.7816164E-02  0.1300439E+00
        -11   -1    0    0    0    0  0.00000000000E+00  0.00000000000E+00  0.45593999997E+02  0.45594000000E+02  0.51100000000E-03 0.  1.
         11   -1    0    0    0    0 -0.00000000000E+00 -0.00000000000E+00 -0.45593999997E+02  0.45594000000E+02  0.51100000000E-03 0. -1.
    9900012    2    1    2    0    0 -0.98828279304E+01 -0.10352718151E+02 -0.38056760192E+02  0.50528855182E+02  0.29999985811E+02 0.  0.
        -12    1    1    2    0    0  0.98828279304E+01  0.10352718151E+02  0.38056760192E+02  0.40659144818E+02  0.00000000000E+00 0.  1.
         11    1    3    3    0    0  0.40385913089E+01 -0.12176967605E+01 -0.82861778463E+01  0.92980508024E+01  0.51100000000E-03 0. -1.
        -11    1    3    3    0    0  0.47536738760E+01 -0.47984760443E+01 -0.16735710878E+02  0.18047349016E+02  0.51100000000E-03 0.  1.
        -12    1    3    3    0    0 -0.18675093115E+02 -0.43365453458E+01 -0.13034871468E+02  0.23183455364E+02  0.00000000000E+00 0.  1.
</event>
<event>
 7    1  0.6090311E-013  0.5052885E+02  0.7816164E-02  0.1300439E+00
        -11   -1    0    0    0    0  0.00000000000E+00  0.00000000000E+00  0.45593999997E+02  0.45594000000E+02  0.51100000000E-03 0.  1.
         11   -1    0    0    0    0 -0.00000000000E+00 -0.00000000000E+00 -0.45593999997E+02  0.45594000000E+02  0.51100000000E-03 0. -1.
    9900012    2    1    2    0    0 -0.13638798337E+02  0.31361823659E+02 -0.21990576163E+02  0.50528852895E+02  0.29999978861E+02 0.  0.
        -12    1    1    2    0    0  0.13638798337E+02 -0.31361823659E+02  0.21990576163E+02  0.40659147105E+02  0.00000000000E+00 0.  1.
         11    1    3    3    0    0 -0.45302028422E+01  0.13507832011E+02 -0.12171188884E+02  0.18738252388E+02  0.51100000000E-03 0. -1.
        -11    1    3    3    0    0 -0.11441859511E+02  0.21476461117E+02 -0.11804695768E+02  0.27046356014E+02  0.51100000000E-03 0.  1.
        -12    1    3    3    0    0  0.23332640168E+01 -0.36224694683E+01  0.19853084898E+01  0.47442444942E+01  0.00000000000E+00 0.  1.
</event>
<event>
 7    1  0.6090311E-013  0.5052886E+02  0.7816164E-02  0.1300439E+00
        -11   -1    0    0    0    0  0.00000000000E+00  0.00000000000E+00  0.45593999997E+02  0.45594000000E+02  0.51100000000E-03 0.  1.
         11   -1    0    0    0    0 -0.00000000000E+00 -0.00000000000E+00 -0.45593999997E+02  0.45594000000E+02  0.51100000000E-03 0. -1.
    9900012    2    1    2    0    0 -0.32003855557E+02  0.24368264569E+02 -0.59250910711E+01  0.50528858435E+02  0.29999995698E+02 0.  0.
        -12    1    1    2    0    0  0.32003855557E+02 -0.24368264569E+02  0.59250910711E+01  0.40659141565E+02  0.00000000000E+00 0.  1.
         11    1    3    3    0    0 -0.22912321811E+02  0.12744910916E+02  0.21778672302E+01  0.26308750463E+02  0.51100000000E-03 0. -1.
        -11    1    3    3    0    0 -0.85500520374E+01  0.15119247408E+01 -0.10687098652E+02  0.13769654467E+02  0.51100000000E-03 0.  1.
         12    1    3    3    0    0 -0.54148170862E+00  0.10111428913E+02  0.25841403511E+01  0.10450453505E+02  0.00000000000E+00 0. -1.
</event>
<event>
 7    1  0.6090311E-013  0.5052887E+02  0.7816164E-02  0.1300439E+00
        -11   -1    0    0    0    0  0.00000000000E+00  0.00000000000E+00  0.45593999997E+02  0.45594000000E+02  0.51100000000E-03 0.  1.
         11   -1    0    0    0    0 -0.00000000000E+00 -0.00000000000E+00 -0.45593999997E+02  0.45594000000E+02  0.51100000000E-03 0. -1.
    9900012    2    1    2    0    0  0.38018479243E+02 -0.12780164195E+02 -0.66653836722E+01  0.50528871870E+02  0.30000036535E+02 0.  0.
        -12    1    1    2    0    0 -0.38018479243E+02  0.12780164195E+02  0.66653836722E+01  0.40659128130E+02  0.00000000000E+00 0.  1.
         11    1    3    3    0    0 -0.23459362183E+01 -0.53919833669E+01 -0.70005937215E+01  0.91424949594E+01  0.51100000000E-03 0. -1.
        -11    1    3    3    0    0  0.26066187332E+01 -0.23094000878E+00 -0.12989562892E+01  0.29214863016E+01  0.51100000000E-03 0.  1.
        -12    1    3    3    0    0  0.37757796728E+02 -0.71572408196E+01  0.16341663384E+01  0.38464890609E+02  0.00000000000E+00 0.  1.
</event>
<event>
 7    1  0.6090311E-013  0.5052886E+02  0.7816164E-02  0.1300439E+00
        -11   -1    0    0    0    0  0.00000000000E+00  0.00000000000E+00  0.45593999997E+02  0.45594000000E+02  0.51100000000E-03 0.  1.
         11   -1    0    0    0    0 -0.00000000000E+00 -0.00000000000E+00 -0.45593999997E+02  0.45594000000E+02  0.51100000000E-03 0. -1.
    9900012    2    1    2    0    0 -0.36208574009E+02 -0.15056199040E+02 -0.10743177037E+02  0.50528858172E+02  0.29999994900E+02 0.  0.
        -12    1    1    2    0    0  0.36208574009E+02  0.15056199040E+02  0.10743177037E+02  0.40659141828E+02  0.00000000000E+00 0.  1.
         11    1    3    3    0    0  0.35064265340E+00  0.41495938677E+00 -0.10759580055E+00  0.55382188515E+00  0.51100000000E-03 0. -1.
        -11    1    3    3    0    0 -0.29743250999E+01  0.67526235829E+01  0.22123263459E+01  0.77031761744E+01  0.51100000000E-03 0.  1.
         12    1    3    3    0    0 -0.33584891563E+02 -0.22223782010E+02 -0.12847907582E+02  0.42271860112E+02  0.00000000000E+00 0. -1.
</event>
<event>
 7    1  0.6090311E-013  0.5052887E+02  0.7816164E-02  0.1300439E+00
        -11   -1    0    0    0    0  0.00000000000E+00  0.00000000000E+00  0.45593999997E+02  0.45594000000E+02  0.51100000000E-03 0. -1.
         11   -1    0    0    0    0 -0.00000000000E+00 -0.00000000000E+00 -0.45593999997E+02  0.45594000000E+02  0.51100000000E-03 0.  1.
    9900012    2    1    2    0    0 -0.30967693700E+02  0.34568504933E+01  0.26119289910E+02  0.50528866046E+02  0.30000018834E+02 0.  0.
        -12    1    1    2    0    0  0.30967693700E+02 -0.34568504933E+01 -0.26119289910E+02  0.40659133954E+02  0.00000000000E+00 0.  1.
         11    1    3    3    0    0 -0.19553310816E+02  0.93425829634E+01  0.71972342428E+01  0.22834535277E+02  0.51100000000E-03 0. -1.
        -11    1    3    3    0    0 -0.14105518654E+01  0.29738227474E+01 -0.12304992897E+01  0.35138877417E+01  0.51100000000E-03 0.  1.
        -12    1    3    3    0    0 -0.10003831019E+02 -0.88595552175E+01  0.20152554957E+02  0.24180443027E+02  0.00000000000E+00 0.  1.
</event>
<event>
 7    1  0.6090311E-013  0.5052886E+02  0.7816164E-02  0.1300439E+00
        -11   -1    0    0    0    0  0.00000000000E+00  0.00000000000E+00  0.45593999997E+02  0.45594000000E+02  0.51100000000E-03 0.  1.
         11   -1    0    0    0    0 -0.00000000000E+00 -0.00000000000E+00 -0.45593999997E+02  0.45594000000E+02  0.51100000000E-03 0. -1.
    9900012    2    1    2    0    0 -0.10020742428E+02  0.88719630204E+01 -0.38393208789E+02  0.50528862186E+02  0.30000007101E+02 0.  0.
        -12    1    1    2    0    0  0.10020742428E+02 -0.88719630204E+01  0.38393208789E+02  0.40659137814E+02  0.00000000000E+00 0.  1.
         11    1    3    3    0    0 -0.35738629679E+01  0.12802278067E+00 -0.19391200457E+02  0.19718203310E+02  0.51100000000E-03 0. -1.
        -11    1    3    3    0    0 -0.25364276728E+01 -0.46807208519E+01 -0.15510500600E+02  0.16398726846E+02  0.51100000000E-03 0.  1.
         12    1    3    3    0    0 -0.39104517877E+01  0.13424661092E+02 -0.34915077321E+01  0.14411932031E+02  0.00000000000E+00 0. -1.
</event>
<event>
 7    1  0.6090311E-013  0.5052884E+02  0.7816164E-02  0.1300439E+00
        -11   -1    0    0    0    0  0.00000000000E+00  0.00000000000E+00  0.45593999997E+02  0.45594000000E+02  0.51100000000E-03 0. -1.
         11   -1    0    0    0    0 -0.00000000000E+00 -0.00000000000E+00 -0.45593999997E+02  0.45594000000E+02  0.51100000000E-03 0.  1.
    9900012    2    1    2    0    0  0.21122769584E+02 -0.15583216042E+02  0.31050912211E+02  0.50528841545E+02  0.29999944360E+02 0.  0.
        -12    1    1    2    0    0 -0.21122769584E+02  0.15583216042E+02 -0.31050912211E+02  0.40659158455E+02  0.00000000000E+00 0.  1.
         11    1    3    3    0    0  0.11134212996E+02 -0.23209352068E+02  0.22199987758E+02  0.33992413554E+02  0.51100000000E-03 0.  1.
        -11    1    3    3    0    0  0.21312652285E+01  0.22795169605E+01  0.57451218048E+01  0.65379594570E+01  0.51100000000E-03 0. -1.
        -12    1    3    3    0    0  0.78572913593E+01  0.53466190660E+01  0.31058026480E+01  0.99984685342E+01  0.00000000000E+00 0.  1.
</event>
<event>
 7    1  0.6090311E-013  0.5052886E+02  0.7816164E-02  0.1300439E+00
        -11   -1    0    0    0    0  0.00000000000E+00  0.00000000000E+00  0.45593999997E+02  0.45594000000E+02  0.51100000000E-03 0. -1.
         11   -1    0    0    0    0 -0.00000000000E+00 -0.00000000000E+00 -0.45593999997E+02  0.45594000000E+02  0.51100000000E-03 0.  1.
    9900012    2    1    2    0    0 -0.30914164861E+01 -0.40463386899E+02  0.25146296027E+01  0.50528857150E+02  0.29999991793E+02 0.  0.
        -12    1    1    2    0    0  0.30914164861E+01  0.40463386899E+02 -0.25146296027E+01  0.40659142850E+02  0.00000000000E+00 0.  1.
         11    1    3    3    0    0  0.33072286299E+01 -0.11887404915E+02  0.11295208030E+02  0.16728116497E+02  0.51100000000E-03 0. -1.
        -11    1    3    3    0    0 -0.15895192141E+01  0.13970536179E+01  0.24667786991E+00  0.21305352322E+01  0.51100000000E-03 0.  1.
         12    1    3    3    0    0 -0.48091259019E+01 -0.29973035602E+02 -0.90272562974E+01  0.31670205421E+02  0.00000000000E+00 0. -1.
</event>
<event>
 7    1  0.6090311E-013  0.5052886E+02  0.7816164E-02  0.1300439E+00
        -11   -1    0    0    0    0  0.00000000000E+00  0.00000000000E+00  0.45593999997E+02  0.45594000000E+02  0.51100000000E-03 0. -1.
         11   -1    0    0    0    0 -0.00000000000E+00 -0.00000000000E+00 -0.45593999997E+02  0.45594000000E+02  0.51100000000E-03 0.  1.
    9900012    2    1    2    0    0 -0.31696943158E+02  0.24912017652E+02 -0.52783436358E+01  0.50528859078E+02  0.29999997652E+02 0.  0.
        -12    1    1    2    0    0  0.31696943158E+02 -0.24912017652E+02  0.52783436358E+01  0.40659140922E+02  0.00000000000E+00 0.  1.
         11    1    3    3    0    0 -0.70808383652E+01 -0.31367824983E+01 -0.33925183951E+01  0.84549901075E+01  0.51100000000E-03 0. -1.
        -11    1    3    3    0    0  0.26803817536E+01  0.14616027030E+00  0.11534675751E+01  0.29216941794E+01  0.51100000000E-03 0.  1.
         12    1    3    3    0    0 -0.27296486546E+02  0.27902639880E+02 -0.30392928157E+01  0.39152174791E+02  0.00000000000E+00 0. -1.
</event>
<event>
 7    1  0.6090311E-013  0.5052887E+02  0.7816164E-02  0.1300439E+00
        -11   -1    0    0    0    0  0.00000000000E+00  0.00000000000E+00  0.45593999997E+02  0.45594000000E+02  0.51100000000E-03 0.  1.
         11   -1    0    0    0    0 -0.00000000000E+00 -0.00000000000E+00 -0.45593999997E+02  0.45594000000E+02  0.51100000000E-03 0. -1.
    9900012    2    1    2    0    0 -0.38887196442E+02  0.48850102761E+01 -0.10820701891E+02  0.50528868653E+02  0.30000026758E+02 0.  0.
        -12    1    1    2    0    0  0.38887196442E+02 -0.48850102761E+01  0.10820701891E+02  0.40659131347E+02  0.00000000000E+00 0.  1.
         11    1    3    3    0    0 -0.20435718663E+02 -0.11612677807E+00  0.42929497596E+01  0.20882085638E+02  0.51100000000E-03 0. -1.
        -11    1    3    3    0    0 -0.11939123337E+02  0.46640560125E+01  0.39397440352E+00  0.12823856699E+02  0.51100000000E-03 0.  1.
         12    1    3    3    0    0 -0.65123544418E+01  0.33708104161E+00 -0.15507626054E+02  0.16822926316E+02  0.00000000000E+00 0. -1.
</event>
<event>
 7    1  0.6090311E-013  0.5052886E+02  0.7816164E-02  0.1300439E+00
        -11   -1    0    0    0    0  0.00000000000E+00  0.00000000000E+00  0.45593999997E+02  0.45594000000E+02  0.51100000000E-03 0.  1.
         11   -1    0    0    0    0 -0.00000000000E+00 -0.00000000000E+00 -0.45593999997E+02  0.45594000000E+02  0.51100000000E-03 0. -1.
    9900012    2    1    2    0    0 -0.36163175884E+02 -0.18583857420E+02 -0.17507780893E+00  0.50528859590E+02  0.29999999209E+02 0.  0.
        -12    1    1    2    0    0  0.36163175884E+02  0.18583857420E+02  0.17507780893E+00  0.40659140410E+02  0.00000000000E+00 0.  1.
         11    1    3    3    0    0 -0.57013279488E+01 -0.21548608185E+01 -0.12124186145E+01  0.62143804747E+01  0.51100000000E-03 0. -1.
        -11    1    3    3    0    0 -0.34853906657E+02 -0.95571888782E+01  0.11374582403E+01  0.36158380495E+02  0.51100000000E-03 0.  1.
        -12    1    3    3    0    0  0.43920587214E+01 -0.68718077234E+01 -0.10011743473E+00  0.81560986201E+01  0.00000000000E+00 0.  1.
</event>
<event>
 7    1  0.6090311E-013  0.5052884E+02  0.7816164E-02  0.1300439E+00
        -11   -1    0    0    0    0  0.00000000000E+00  0.00000000000E+00  0.45593999997E+02  0.45594000000E+02  0.51100000000E-03 0.  1.
         11   -1    0    0    0    0 -0.00000000000E+00 -0.00000000000E+00 -0.45593999997E+02  0.45594000000E+02  0.51100000000E-03 0. -1.
    9900012    2    1    2    0    0  0.24386314236E+02 -0.30704527206E+02  0.10756703446E+02  0.50528843811E+02  0.29999951247E+02 0.  0.
        -12    1    1    2    0    0 -0.24386314236E+02  0.30704527206E+02 -0.10756703446E+02  0.40659156189E+02  0.00000000000E+00 0.  1.
         11    1    3    3    0    0 -0.11778945033E+01  0.49350854184E+00 -0.17985630305E+01  0.22058593286E+01  0.51100000000E-03 0. -1.
        -11    1    3    3    0    0  0.12256165209E+02 -0.19339997858E+02  0.18602091934E+02  0.29500625880E+02  0.51100000000E-03 0.  1.
         12    1    3    3    0    0  0.13308043531E+02 -0.11858037890E+02 -0.60468254569E+01  0.18822358602E+02  0.00000000000E+00 0. -1.
</event>
<event>
 7    1  0.6090311E-013  0.5052885E+02  0.7816164E-02  0.1300439E+00
        -11   -1    0    0    0    0  0.00000000000E+00  0.00000000000E+00  0.45593999997E+02  0.45594000000E+02  0.51100000000E-03 0.  1.
         11   -1    0    0    0    0 -0.00000000000E+00 -0.00000000000E+00 -0.45593999997E+02  0.45594000000E+02  0.51100000000E-03 0. -1.
    9900012    2    1    2    0    0  0.65288655536E+01 -0.23066072831E+02 -0.32840470358E+02  0.50528852264E+02  0.29999976942E+02 0.  0.
        -12    1    1    2    0    0 -0.65288655536E+01  0.23066072831E+02  0.32840470358E+02  0.40659147736E+02  0.00000000000E+00 0.  1.
         11    1    3    3    0    0  0.36893178186E+01 -0.10674616799E+02 -0.14841869864E+02  0.18650458737E+02  0.51100000000E-03 0. -1.
        -11    1    3    3    0    0  0.11176274991E+02 -0.13757307394E+02 -0.10627417843E+02  0.20666752035E+02  0.51100000000E-03 0.  1.
        -12    1    3    3    0    0 -0.83367272557E+01  0.13658513617E+01 -0.73711826512E+01  0.11211641492E+02  0.00000000000E+00 0.  1.
</event>
<event>
 7    1  0.6090311E-013  0.5052886E+02  0.7816164E-02  0.1300439E+00
        -11   -1    0    0    0    0  0.00000000000E+00  0.00000000000E+00  0.45593999997E+02  0.45594000000E+02  0.51100000000E-03 0.  1.
         11   -1    0    0    0    0 -0.00000000000E+00 -0.00000000000E+00 -0.45593999997E+02  0.45594000000E+02  0.51100000000E-03 0. -1.
    9900012    2    1    2    0    0 -0.19950308312E+02  0.23766917864E+02 -0.26273271076E+02  0.50528856384E+02  0.29999989466E+02 0.  0.
        -12    1    1    2    0    0  0.19950308312E+02 -0.23766917864E+02  0.26273271076E+02  0.40659143616E+02  0.00000000000E+00 0.  1.
         11    1    3    3    0    0  0.33335520019E+01  0.85608984377E+01 -0.58253056137E+01  0.10878223052E+02  0.51100000000E-03 0. -1.
        -11    1    3    3    0    0 -0.62268924116E+00  0.40048244180E+01 -0.12517781981E+02  0.13157553971E+02  0.51100000000E-03 0.  1.
         12    1    3    3    0    0 -0.22661171073E+02  0.11201195009E+02 -0.79301834810E+01  0.26493079361E+02  0.00000000000E+00 0. -1.
</event>
<event>
 7    1  0.6090311E-013  0.5052886E+02  0.7816164E-02  0.1300439E+00
        -11   -1    0    0    0    0  0.00000000000E+00  0.00000000000E+00  0.45593999997E+02  0.45594000000E+02  0.51100000000E-03 0.  1.
         11   -1    0    0    0    0 -0.00000000000E+00 -0.00000000000E+00 -0.45593999997E+02  0.45594000000E+02  0.51100000000E-03 0. -1.
    9900012    2    1    2    0    0  0.40094112182E+02 -0.60764372544E+01 -0.29504460997E+01  0.50528855228E+02  0.29999985951E+02 0.  0.
        -12    1    1    2    0    0 -0.40094112182E+02  0.60764372544E+01  0.29504460997E+01  0.40659144772E+02  0.00000000000E+00 0.  1.
         11    1    3    3    0    0  0.14223725840E+02 -0.41981830137E+01  0.30555774531E+01  0.15141851644E+02  0.51100000000E-03 0. -1.
        -11    1    3    3    0    0  0.20368909558E+02 -0.11414377208E+02 -0.68840745731E+01  0.24342780585E+02  0.51100000000E-03 0.  1.
         12    1    3    3    0    0  0.55014767840E+01  0.95361229670E+01  0.87805102031E+00  0.11044222998E+02  0.00000000000E+00 0. -1.
</event>
<event>
 7    1  0.6090311E-013  0.5052886E+02  0.7816164E-02  0.1300439E+00
        -11   -1    0    0    0    0  0.00000000000E+00  0.00000000000E+00  0.45593999997E+02  0.45594000000E+02  0.51100000000E-03 0.  1.
         11   -1    0    0    0    0 -0.00000000000E+00 -0.00000000000E+00 -0.45593999997E+02  0.45594000000E+02  0.51100000000E-03 0. -1.
    9900012    2    1    2    0    0  0.10347882326E+02 -0.38998108363E+02  0.50234155010E+01  0.50528858004E+02  0.29999994389E+02 0.  0.
        -12    1    1    2    0    0 -0.10347882326E+02  0.38998108363E+02 -0.50234155010E+01  0.40659141996E+02  0.00000000000E+00 0.  1.
         11    1    3    3    0    0  0.57565103597E+01 -0.20775789582E+02  0.26534024544E+01  0.21721219789E+02  0.51100000000E-03 0. -1.
        -11    1    3    3    0    0 -0.21179891854E+00 -0.20765630084E+02  0.67406624848E+01  0.21833295275E+02  0.51100000000E-03 0.  1.
        -12    1    3    3    0    0  0.48031708843E+01  0.25433113032E+01 -0.43706494382E+01  0.69743429397E+01  0.00000000000E+00 0.  1.
</event>
<event>
 7    1  0.6090311E-013  0.5052887E+02  0.7816164E-02  0.1300439E+00
        -11   -1    0    0    0    0  0.00000000000E+00  0.00000000000E+00  0.45593999997E+02  0.45594000000E+02  0.51100000000E-03 0.  1.
         11   -1    0    0    0    0 -0.00000000000E+00 -0.00000000000E+00 -0.45593999997E+02  0.45594000000E+02  0.51100000000E-03 0. -1.
    9900012    2    1    2    0    0 -0.14714699860E+02 -0.17170383758E+02 -0.33790831047E+02  0.50528871465E+02  0.30000035304E+02 0.  0.
        -12    1    1    2    0    0  0.14714699860E+02  0.17170383758E+02  0.33790831047E+02  0.40659128535E+02  0.00000000000E+00 0.  1.
         11    1    3    3    0    0  0.35678634233E+01  0.14698983348E+01 -0.15651154861E+01  0.41641130230E+01  0.51100000000E-03 0. -1.
        -11    1    3    3    0    0 -0.11890080383E+02 -0.60136014386E+01 -0.28904317226E+02  0.31827613300E+02  0.51100000000E-03 0.  1.
        -12    1    3    3    0    0 -0.63924829001E+01 -0.12626680655E+02 -0.33213983354E+01  0.14537145142E+02  0.00000000000E+00 0.  1.
</event>
<event>
 7    1  0.6090311E-013  0.5052886E+02  0.7816164E-02  0.1300439E+00
        -11   -1    0    0    0    0  0.00000000000E+00  0.00000000000E+00  0.45593999997E+02  0.45594000000E+02  0.51100000000E-03 0.  1.
         11   -1    0    0    0    0 -0.00000000000E+00 -0.00000000000E+00 -0.45593999997E+02  0.45594000000E+02  0.51100000000E-03 0. -1.
    9900012    2    1    2    0    0 -0.14468396883E+02  0.35448699583E+02 -0.13682870491E+02  0.50528858895E+02  0.29999997098E+02 0.  0.
        -12    1    1    2    0    0  0.14468396883E+02 -0.35448699583E+02  0.13682870491E+02  0.40659141105E+02  0.00000000000E+00 0.  1.
         11    1    3    3    0    0 -0.24785301263E+01 -0.14815659235E+01 -0.76216626474E+01  0.81503307261E+01  0.51100000000E-03 0. -1.
        -11    1    3    3    0    0  0.23083465650E+01  0.26470816559E+01 -0.37850322663E+01  0.51635234749E+01  0.51100000000E-03 0.  1.
        -12    1    3    3    0    0 -0.14298213322E+02  0.34283183851E+02 -0.22761755771E+01  0.37215004694E+02  0.00000000000E+00 0.  1.
</event>
<event>
 7    1  0.6090311E-013  0.5052888E+02  0.7816164E-02  0.1300439E+00
        -11   -1    0    0    0    0  0.00000000000E+00  0.00000000000E+00  0.45593999997E+02  0.45594000000E+02  0.51100000000E-03 0.  1.
         11   -1    0    0    0    0 -0.00000000000E+00 -0.00000000000E+00 -0.45593999997E+02  0.45594000000E+02  0.51100000000E-03 0. -1.
    9900012    2    1    2    0    0 -0.20414755994E+02  0.37095816330E+01 -0.34966284481E+02  0.50528876686E+02  0.30000051176E+02 0.  0.
        -12    1    1    2    0    0  0.20414755994E+02 -0.37095816330E+01  0.34966284481E+02  0.40659123314E+02  0.00000000000E+00 0.  1.
         11    1    3    3    0    0  0.16315002128E+00  0.61519672008E+01 -0.64101938862E+01  0.88861636430E+01  0.51100000000E-03 0. -1.
        -11    1    3    3    0    0 -0.80272100522E+01  0.44471947247E+01 -0.25365079853E+02  0.26974078638E+02  0.51100000000E-03 0.  1.
         12    1    3    3    0    0 -0.12550695964E+02 -0.68895802924E+01 -0.31910107421E+01  0.14668634406E+02  0.00000000000E+00 0. -1.
</event>
<event>
 7    1  0.6090311E-013  0.5052886E+02  0.7816164E-02  0.1300439E+00
        -11   -1    0    0    0    0  0.00000000000E+00  0.00000000000E+00  0.45593999997E+02  0.45594000000E+02  0.51100000000E-03 0.  1.
         11   -1    0    0    0    0 -0.00000000000E+00 -0.00000000000E+00 -0.45593999997E+02  0.45594000000E+02  0.51100000000E-03 0. -1.
    9900012    2    1    2    0    0  0.14917496653E+02  0.29528958783E+02 -0.23636291557E+02  0.50528863366E+02  0.30000010689E+02 0.  0.
        -12    1    1    2    0    0 -0.14917496653E+02 -0.29528958783E+02  0.23636291557E+02  0.40659136634E+02  0.00000000000E+00 0.  1.
         11    1    3    3    0    0  0.33309899244E+01  0.54572535494E+01 -0.13321409668E+01  0.65308276654E+01  0.51100000000E-03 0. -1.
        -11    1    3    3    0    0  0.77027066053E+00  0.23025996459E+02 -0.50164254250E+01  0.23578684318E+02  0.51100000000E-03 0.  1.
         12    1    3    3    0    0  0.10816236068E+02  0.10457087741E+01 -0.17287725166E+02  0.20419351384E+02  0.00000000000E+00 0. -1.
</event>
<event>
 7    1  0.6090311E-013  0.5052886E+02  0.7816164E-02  0.1300439E+00
        -11   -1    0    0    0    0  0.00000000000E+00  0.00000000000E+00  0.45593999997E+02  0.45594000000E+02  0.51100000000E-03 0.  1.
         11   -1    0    0    0    0 -0.00000000000E+00 -0.00000000000E+00 -0.45593999997E+02  0.45594000000E+02  0.51100000000E-03 0. -1.
    9900012    2    1    2    0    0 -0.69283111211E+01 -0.98618061815E+00 -0.40052363329E+02  0.50528857664E+02  0.29999993356E+02 0.  0.
        -12    1    1    2    0    0  0.69283111211E+01  0.98618061815E+00  0.40052363329E+02  0.40659142336E+02  0.00000000000E+00 0.  1.
         11    1    3    3    0    0 -0.12879901618E+02  0.45997203989E+01 -0.25259520753E+02  0.28724426581E+02  0.51100000000E-03 0. -1.
        -11    1    3    3    0    0 -0.40409359858E+01  0.10281676259E+00 -0.17161789464E+01  0.43914696133E+01  0.51100000000E-03 0.  1.
        -12    1    3    3    0    0  0.99925264825E+01 -0.56887177796E+01 -0.13076663630E+02  0.17412961470E+02  0.00000000000E+00 0.  1.
</event>
<event>
 7    1  0.6090311E-013  0.5052886E+02  0.7816164E-02  0.1300439E+00
        -11   -1    0    0    0    0  0.00000000000E+00  0.00000000000E+00  0.45593999997E+02  0.45594000000E+02  0.51100000000E-03 0. -1.
         11   -1    0    0    0    0 -0.00000000000E+00 -0.00000000000E+00 -0.45593999997E+02  0.45594000000E+02  0.51100000000E-03 0.  1.
    9900012    2    1    2    0    0  0.40078406646E+02 -0.55311528706E+01 -0.40364900058E+01  0.50528861016E+02  0.30000003544E+02 0.  0.
        -12    1    1    2    0    0 -0.40078406646E+02  0.55311528706E+01  0.40364900058E+01  0.40659138984E+02  0.00000000000E+00 0.  1.
         11    1    3    3    0    0  0.17029786481E+02 -0.51167100030E+01  0.56773718363E+01  0.18666196722E+02  0.51100000000E-03 0. -1.
        -11    1    3    3    0    0  0.22912169490E+02 -0.65211381235E+01 -0.97865418114E+01  0.25754012388E+02  0.51100000000E-03 0.  1.
        -12    1    3    3    0    0  0.13645067504E+00  0.61066952558E+01  0.72679969178E-01  0.61086519063E+01  0.00000000000E+00 0.  1.
</event>
<event>
 7    1  0.6090311E-013  0.5052885E+02  0.7816164E-02  0.1300439E+00
        -11   -1    0    0    0    0  0.00000000000E+00  0.00000000000E+00  0.45593999997E+02  0.45594000000E+02  0.51100000000E-03 0.  1.
         11   -1    0    0    0    0 -0.00000000000E+00 -0.00000000000E+00 -0.45593999997E+02  0.45594000000E+02  0.51100000000E-03 0. -1.
    9900012    2    1    2    0    0 -0.67534791575E+01 -0.35040196377E+02 -0.19486950745E+02  0.50528854753E+02  0.29999984507E+02 0.  0.
        -12    1    1    2    0    0  0.67534791575E+01  0.35040196377E+02  0.19486950745E+02  0.40659145247E+02  0.00000000000E+00 0.  1.
         11    1    3    3    0    0  0.48720297304E+00 -0.77617152095E+01 -0.27011761795E+01  0.82327360424E+01  0.51100000000E-03 0. -1.
        -11    1    3    3    0    0  0.76500104955E+01 -0.10959714948E+02  0.17225660820E+01  0.13476099083E+02  0.51100000000E-03 0.  1.
        -12    1    3    3    0    0 -0.14890692626E+02 -0.16318766220E+02 -0.18508340647E+02  0.28820019627E+02  0.00000000000E+00 0.  1.
</event>
<event>
 7    1  0.6090311E-013  0.5052886E+02  0.7816164E-02  0.1300439E+00
        -11   -1    0    0    0    0  0.00000000000E+00  0.00000000000E+00  0.45593999997E+02  0.45594000000E+02  0.51100000000E-03 0.  1.
         11   -1    0    0    0    0 -0.00000000000E+00 -0.00000000000E+00 -0.45593999997E+02  0.45594000000E+02  0.51100000000E-03 0. -1.
    9900012    2    1    2    0    0 -0.18718593570E+02  0.34033937951E+02 -0.12019609679E+02  0.50528859643E+02  0.29999999372E+02 0.  0.
        -12    1    1    2    0    0  0.18718593570E+02 -0.34033937951E+02  0.12019609679E+02  0.40659140357E+02  0.00000000000E+00 0.  1.
         11    1    3    3    0    0 -0.31658779020E+01  0.12971716690E+02 -0.13163211138E+01  0.13417187421E+02  0.51100000000E-03 0. -1.
        -11    1    3    3    0    0 -0.14998998360E+02  0.26203211866E+02 -0.10395199339E+02  0.31931777800E+02  0.51100000000E-03 0.  1.
        -12    1    3    3    0    0 -0.55371730853E+00 -0.51409906046E+01 -0.30808922605E+00  0.51798944223E+01  0.00000000000E+00 0.  1.
</event>
<event>
 7    1  0.6090311E-013  0.5052886E+02  0.7816164E-02  0.1300439E+00
        -11   -1    0    0    0    0  0.00000000000E+00  0.00000000000E+00  0.45593999997E+02  0.45594000000E+02  0.51100000000E-03 0.  1.
         11   -1    0    0    0    0 -0.00000000000E+00 -0.00000000000E+00 -0.45593999997E+02  0.45594000000E+02  0.51100000000E-03 0. -1.
    9900012    2    1    2    0    0  0.23694439543E+01  0.20422120614E+02 -0.35078313209E+02  0.50528864094E+02  0.30000012901E+02 0.  0.
        -12    1    1    2    0    0 -0.23694439543E+01 -0.20422120614E+02  0.35078313209E+02  0.40659135906E+02  0.00000000000E+00 0.  1.
         11    1    3    3    0    0  0.44997558550E+01  0.91291921486E+01 -0.27833280083E+02  0.29635813342E+02  0.51100000000E-03 0. -1.
        -11    1    3    3    0    0 -0.38581004667E+01  0.48774229589E+01 -0.11450197689E+02  0.13030012330E+02  0.51100000000E-03 0.  1.
        -12    1    3    3    0    0  0.17277885660E+01  0.64155055064E+01  0.42051645627E+01  0.78630384223E+01  0.00000000000E+00 0.  1.
</event>
<event>
 7    1  0.6090311E-013  0.5052886E+02  0.7816164E-02  0.1300439E+00
        -11   -1    0    0    0    0  0.00000000000E+00  0.00000000000E+00  0.45593999997E+02  0.45594000000E+02  0.51100000000E-03 0.  1.
         11   -1    0    0    0    0 -0.00000000000E+00 -0.00000000000E+00 -0.45593999997E+02  0.45594000000E+02  0.51100000000E-03 0. -1.
    9900012    2    1    2    0    0 -0.31128053609E+02 -0.32615186089E+01 -0.25953269806E+02  0.50528862789E+02  0.30000008934E+02 0.  0.
        -12    1    1    2    0    0  0.31128053609E+02  0.32615186089E+01  0.25953269806E+02  0.40659137211E+02  0.00000000000E+00 0.  1.
         11    1    3    3    0    0  0.17303985846E+01  0.78737388193E+00 -0.82112308957E+01  0.84284369829E+01  0.51100000000E-03 0. -1.
        -11    1    3    3    0    0 -0.19538473567E+02 -0.11260235730E+02 -0.13839536064E+02  0.26458979888E+02  0.51100000000E-03 0.  1.
        -12    1    3    3    0    0 -0.13319978627E+02  0.72113432391E+01 -0.39025028462E+01  0.15641445918E+02  0.00000000000E+00 0.  1.
</event>
<event>
 7    1  0.6090311E-013  0.5052886E+02  0.7816164E-02  0.1300439E+00
        -11   -1    0    0    0    0  0.00000000000E+00  0.00000000000E+00  0.45593999997E+02  0.45594000000E+02  0.51100000000E-03 0. -1.
         11   -1    0    0    0    0 -0.00000000000E+00 -0.00000000000E+00 -0.45593999997E+02  0.45594000000E+02  0.51100000000E-03 0.  1.
    9900012    2    1    2    0    0 -0.37537136866E+02  0.12157504744E+01  0.15577260215E+02  0.50528859218E+02  0.29999998078E+02 0.  0.
        -12    1    1    2    0    0  0.37537136866E+02 -0.12157504744E+01 -0.15577260215E+02  0.40659140782E+02  0.00000000000E+00 0.  1.
         11    1    3    3    0    0 -0.14734296368E+02 -0.70980324884E+00  0.97123588436E+01  0.17661631427E+02  0.51100000000E-03 0. -1.
        -11    1    3    3    0    0 -0.56361058386E+01 -0.54906373499E+01  0.10953814413E+02  0.13486987729E+02  0.51100000000E-03 0.  1.
        -12    1    3    3    0    0 -0.17166734660E+02  0.74161910732E+01 -0.50889130414E+01  0.19380240062E+02  0.00000000000E+00 0.  1.
</event>
<event>
 7    1  0.6090311E-013  0.5052884E+02  0.7816164E-02  0.1300439E+00
        -11   -1    0    0    0    0  0.00000000000E+00  0.00000000000E+00  0.45593999997E+02  0.45594000000E+02  0.51100000000E-03 0.  1.
         11   -1    0    0    0    0 -0.00000000000E+00 -0.00000000000E+00 -0.45593999997E+02  0.45594000000E+02  0.51100000000E-03 0. -1.
    9900012    2    1    2    0    0 -0.39025775929E+02  0.94233647592E+01 -0.64309037220E+01  0.50528837282E+02  0.29999931403E+02 0.  0.
        -12    1    1    2    0    0  0.39025775929E+02 -0.94233647592E+01  0.64309037220E+01  0.40659162718E+02  0.00000000000E+00 0.  1.
         11    1    3    3    0    0 -0.15935262639E+02  0.10091403909E+01 -0.10441166357E+02  0.19077969359E+02  0.51100000000E-03 0. -1.
        -11    1    3    3    0    0 -0.23448227009E+02  0.12558974413E+02  0.52437507402E+01  0.27111696927E+02  0.51100000000E-03 0.  1.
        -12    1    3    3    0    0  0.35771371880E+00 -0.41447500444E+01 -0.12334881053E+01  0.43391709970E+01  0.00000000000E+00 0.  1.
</event>
<event>
 7    1  0.6090311E-013  0.5052886E+02  0.7816164E-02  0.1300439E+00
        -11   -1    0    0    0    0  0.00000000000E+00  0.00000000000E+00  0.45593999997E+02  0.45594000000E+02  0.51100000000E-03 0.  1.
         11   -1    0    0    0    0 -0.00000000000E+00 -0.00000000000E+00 -0.45593999997E+02  0.45594000000E+02  0.51100000000E-03 0. -1.
    9900012    2    1    2    0    0 -0.36434849354E+02  0.10586703620E+01 -0.18015182642E+02  0.50528857903E+02  0.29999994082E+02 0.  0.
        -12    1    1    2    0    0  0.36434849354E+02 -0.10586703620E+01  0.18015182642E+02  0.40659142097E+02  0.00000000000E+00 0.  1.
         11    1    3    3    0    0 -0.18472266690E+02  0.22586656946E+01 -0.49022210727E+01  0.19244687035E+02  0.51100000000E-03 0. -1.
        -11    1    3    3    0    0 -0.18223546668E+02 -0.33775937925E+01 -0.56136964393E+00  0.18542408936E+02  0.51100000000E-03 0.  1.
         12    1    3    3    0    0  0.26096400374E+00  0.21775984599E+01 -0.12551591926E+02  0.12741761932E+02  0.00000000000E+00 0. -1.
</event>
<event>
 7    1  0.6090311E-013  0.5052886E+02  0.7816164E-02  0.1300439E+00
        -11   -1    0    0    0    0  0.00000000000E+00  0.00000000000E+00  0.45593999997E+02  0.45594000000E+02  0.51100000000E-03 0.  1.
         11   -1    0    0    0    0 -0.00000000000E+00 -0.00000000000E+00 -0.45593999997E+02  0.45594000000E+02  0.51100000000E-03 0. -1.
    9900012    2    1    2    0    0 -0.19274916530E+02 -0.16230378932E+01 -0.35763235315E+02  0.50528860075E+02  0.30000000683E+02 0.  0.
        -12    1    1    2    0    0  0.19274916530E+02  0.16230378932E+01  0.35763235315E+02  0.40659139925E+02  0.00000000000E+00 0.  1.
         11    1    3    3    0    0 -0.21655787160E+02 -0.22188636941E+01 -0.18392753435E+02  0.28498944766E+02  0.51100000000E-03 0.  1.
        -11    1    3    3    0    0 -0.13072205560E+00 -0.26864332672E+01  0.12431166715E+01  0.29629970089E+01  0.51100000000E-03 0. -1.
         12    1    3    3    0    0  0.25115926849E+01  0.32822590681E+01 -0.18613598551E+02  0.19066918299E+02  0.00000000000E+00 0. -1.
</event>
<event>
 7    1  0.6090311E-013  0.5052887E+02  0.7816164E-02  0.1300439E+00
        -11   -1    0    0    0    0  0.00000000000E+00  0.00000000000E+00  0.45593999997E+02  0.45594000000E+02  0.51100000000E-03 0.  1.
         11   -1    0    0    0    0 -0.00000000000E+00 -0.00000000000E+00 -0.45593999997E+02  0.45594000000E+02  0.51100000000E-03 0. -1.
    9900012    2    1    2    0    0 -0.13336129721E+02  0.32309552762E+02 -0.20770292350E+02  0.50528873104E+02  0.30000040287E+02 0.  0.
        -12    1    1    2    0    0  0.13336129721E+02 -0.32309552762E+02  0.20770292350E+02  0.40659126896E+02  0.00000000000E+00 0.  1.
         11    1    3    3    0    0 -0.43119405676E+01  0.72566652377E+01 -0.86929092906E+01  0.12116876414E+02  0.51100000000E-03 0. -1.
        -11    1    3    3    0    0 -0.15944017780E+02  0.24603336006E+02 -0.80927388313E+01  0.30414277365E+02  0.51100000000E-03 0.  1.
        -12    1    3    3    0    0  0.69198286262E+01  0.44955151860E+00 -0.39846442283E+01  0.79977193256E+01  0.00000000000E+00 0.  1.
</event>
<event>
 7    1  0.6090311E-013  0.5052887E+02  0.7816164E-02  0.1300439E+00
        -11   -1    0    0    0    0  0.00000000000E+00  0.00000000000E+00  0.45593999997E+02  0.45594000000E+02  0.51100000000E-03 0.  1.
         11   -1    0    0    0    0 -0.00000000000E+00 -0.00000000000E+00 -0.45593999997E+02  0.45594000000E+02  0.51100000000E-03 0. -1.
    9900012    2    1    2    0    0 -0.21125069341E+02 -0.24548230220E+02 -0.24582117560E+02  0.50528872300E+02  0.30000037843E+02 0.  0.
        -12    1    1    2    0    0  0.21125069341E+02  0.24548230220E+02  0.24582117560E+02  0.40659127700E+02  0.00000000000E+00 0.  1.
         11    1    3    3    0    0 -0.25342324666E+01 -0.13670123612E+02 -0.51720882125E+01  0.14833917571E+02  0.51100000000E-03 0. -1.
        -11    1    3    3    0    0 -0.52674581487E+01 -0.11137839567E+02 -0.20853666949E+00  0.12322380995E+02  0.51100000000E-03 0.  1.
         12    1    3    3    0    0 -0.13323378725E+02  0.25973295950E+00 -0.19201492678E+02  0.23372573734E+02  0.00000000000E+00 0. -1.
</event>
<event>
 7    1  0.6090311E-013  0.5052886E+02  0.7816164E-02  0.1300439E+00
        -11   -1    0    0    0    0  0.00000000000E+00  0.00000000000E+00  0.45593999997E+02  0.45594000000E+02  0.51100000000E-03 0.  1.
         11   -1    0    0    0    0 -0.00000000000E+00 -0.00000000000E+00 -0.45593999997E+02  0.45594000000E+02  0.51100000000E-03 0. -1.
    9900012    2    1    2    0    0 -0.24285438709E+02  0.35615815121E+01 -0.32414473353E+02  0.50528862295E+02  0.30000007432E+02 0.  0.
        -12    1    1    2    0    0  0.24285438709E+02 -0.35615815121E+01  0.32414473353E+02  0.40659137705E+02  0.00000000000E+00 0.  1.
         11    1    3    3    0    0  0.33969848061E+01  0.36936343644E+01 -0.10349579357E+02  0.11502009986E+02  0.51100000000E-03 0. -1.
        -11    1    3    3    0    0 -0.13900338249E+02  0.71243017957E+01 -0.62323563637E+01  0.16817174127E+02  0.51100000000E-03 0.  1.
        -12    1    3    3    0    0 -0.13782085266E+02 -0.72563546480E+01 -0.15832537632E+02  0.22209678182E+02  0.00000000000E+00 0.  1.
</event>
<event>
 7    1  0.6090311E-013  0.5052886E+02  0.7816164E-02  0.1300439E+00
        -11   -1    0    0    0    0  0.00000000000E+00  0.00000000000E+00  0.45593999997E+02  0.45594000000E+02  0.51100000000E-03 0.  1.
         11   -1    0    0    0    0 -0.00000000000E+00 -0.00000000000E+00 -0.45593999997E+02  0.45594000000E+02  0.51100000000E-03 0. -1.
    9900012    2    1    2    0    0 -0.36631678969E+02 -0.55934420807E+01  0.16733170023E+02  0.50528862313E+02  0.30000007488E+02 0.  0.
        -12    1    1    2    0    0  0.36631678969E+02  0.55934420807E+01 -0.16733170023E+02  0.40659137687E+02  0.00000000000E+00 0.  1.
         11    1    3    3    0    0 -0.21810594257E+02  0.98771052524E+00  0.57304674765E+01  0.22572457812E+02  0.51100000000E-03 0. -1.
        -11    1    3    3    0    0 -0.19469547445E+02 -0.75882099113E+01  0.96134931335E+01  0.23001379477E+02  0.51100000000E-03 0.  1.
        -12    1    3    3    0    0  0.46484627329E+01  0.10070573053E+01  0.13892094129E+01  0.49550250240E+01  0.00000000000E+00 0.  1.
</event>
<event>
 7    1  0.6090311E-013  0.5052887E+02  0.7816164E-02  0.1300439E+00
        -11   -1    0    0    0    0  0.00000000000E+00  0.00000000000E+00  0.45593999997E+02  0.45594000000E+02  0.51100000000E-03 0.  1.
         11   -1    0    0    0    0 -0.00000000000E+00 -0.00000000000E+00 -0.45593999997E+02  0.45594000000E+02  0.51100000000E-03 0. -1.
    9900012    2    1    2    0    0  0.26396798317E+02  0.89514643286E+01 -0.29601442762E+02  0.50528867095E+02  0.30000022021E+02 0.  0.
        -12    1    1    2    0    0 -0.26396798317E+02 -0.89514643286E+01  0.29601442762E+02  0.40659132905E+02  0.00000000000E+00 0.  1.
         11    1    3    3    0    0 -0.21523075021E+00  0.11501967886E+02 -0.11199322826E+02  0.16055105778E+02  0.51100000000E-03 0. -1.
        -11    1    3    3    0    0  0.39695544203E+01  0.20328022761E+01 -0.79545770397E+01  0.91194815385E+01  0.51100000000E-03 0.  1.
        -12    1    3    3    0    0  0.22642474647E+02 -0.45833058331E+01 -0.10447542897E+02  0.25354279778E+02  0.00000000000E+00 0.  1.
</event>
<event>
 7    1  0.6090311E-013  0.5052886E+02  0.7816164E-02  0.1300439E+00
        -11   -1    0    0    0    0  0.00000000000E+00  0.00000000000E+00  0.45593999997E+02  0.45594000000E+02  0.51100000000E-03 0. -1.
         11   -1    0    0    0    0 -0.00000000000E+00 -0.00000000000E+00 -0.45593999997E+02  0.45594000000E+02  0.51100000000E-03 0.  1.
    9900012    2    1    2    0    0 -0.33499647791E+02  0.12284521544E+02  0.19494348842E+02  0.50528861932E+02  0.30000006328E+02 0.  0.
        -12    1    1    2    0    0  0.33499647791E+02 -0.12284521544E+02 -0.19494348842E+02  0.40659138068E+02  0.00000000000E+00 0.  1.
         11    1    3    3    0    0 -0.27249266480E+01  0.87074073322E+01  0.25187639511E+01  0.94651117156E+01  0.51100000000E-03 0. -1.
        -11    1    3    3    0    0 -0.12177926835E+02  0.92945502081E+00 -0.40518693635E+01  0.12867922685E+02  0.51100000000E-03 0.  1.
        -12    1    3    3    0    0 -0.18596794308E+02  0.26476591906E+01  0.21027454255E+02  0.28195827531E+02  0.00000000000E+00 0.  1.
</event>
<event>
 7    1  0.6090311E-013  0.5052886E+02  0.7816164E-02  0.1300439E+00
        -11   -1    0    0    0    0  0.00000000000E+00  0.00000000000E+00  0.45593999997E+02  0.45594000000E+02  0.51100000000E-03 0.  1.
         11   -1    0    0    0    0 -0.00000000000E+00 -0.00000000000E+00 -0.45593999997E+02  0.45594000000E+02  0.51100000000E-03 0. -1.
    9900012    2    1    2    0    0 -0.24207058577E+02  0.19188125206E+02 -0.26438600528E+02  0.50528862875E+02  0.30000009195E+02 0.  0.
        -12    1    1    2    0    0  0.24207058577E+02 -0.19188125206E+02  0.26438600528E+02  0.40659137125E+02  0.00000000000E+00 0.  1.
         11    1    3    3    0    0 -0.96815070813E+01  0.13639665106E+02 -0.68732296102E+01  0.18083509867E+02  0.51100000000E-03 0. -1.
        -11    1    3    3    0    0 -0.65264287773E+01 -0.59695764980E+01 -0.60888618558E+00  0.88657125375E+01  0.51100000000E-03 0.  1.
         12    1    3    3    0    0 -0.79991227180E+01  0.11518036599E+02 -0.18956484732E+02  0.23579640471E+02  0.00000000000E+00 0. -1.
</event>
<event>
 7    1  0.6090311E-013  0.5052886E+02  0.7816164E-02  0.1300439E+00
        -11   -1    0    0    0    0  0.00000000000E+00  0.00000000000E+00  0.45593999997E+02  0.45594000000E+02  0.51100000000E-03 0. -1.
         11   -1    0    0    0    0 -0.00000000000E+00 -0.00000000000E+00 -0.45593999997E+02  0.45594000000E+02  0.51100000000E-03 0.  1.
    9900012    2    1    2    0    0  0.37238818919E+02 -0.55547337363E+01 -0.15348647916E+02  0.50528859647E+02  0.29999999383E+02 0.  0.
        -12    1    1    2    0    0 -0.37238818919E+02  0.55547337363E+01  0.15348647916E+02  0.40659140353E+02  0.00000000000E+00 0.  1.
         11    1    3    3    0    0 -0.12625173242E+01 -0.57801740651E+00 -0.83870500899E+01  0.85012154183E+01  0.51100000000E-03 0. -1.
        -11    1    3    3    0    0  0.26486501847E+01 -0.49233131446E+01 -0.11334079830E+01  0.57042943505E+01  0.51100000000E-03 0.  1.
         12    1    3    3    0    0  0.35852686059E+02 -0.53403185141E-01 -0.58281898431E+01  0.36323349878E+02  0.00000000000E+00 0. -1.
</event>
<event>
 7    1  0.6090311E-013  0.5052886E+02  0.7816164E-02  0.1300439E+00
        -11   -1    0    0    0    0  0.00000000000E+00  0.00000000000E+00  0.45593999997E+02  0.45594000000E+02  0.51100000000E-03 0. -1.
         11   -1    0    0    0    0 -0.00000000000E+00 -0.00000000000E+00 -0.45593999997E+02  0.45594000000E+02  0.51100000000E-03 0.  1.
    9900012    2    1    2    0    0 -0.16999717929E+02  0.29378138911E+02  0.22385264327E+02  0.50528861857E+02  0.30000006100E+02 0.  0.
        -12    1    1    2    0    0  0.16999717929E+02 -0.29378138911E+02 -0.22385264327E+02  0.40659138143E+02  0.00000000000E+00 0.  1.
         11    1    3    3    0    0 -0.36768526260E+01 -0.47188562982E+00  0.11792144098E+01  0.38900473219E+01  0.51100000000E-03 0. -1.
        -11    1    3    3    0    0 -0.20753625855E+02  0.24420243575E+02  0.18683032240E+02  0.37096050684E+02  0.51100000000E-03 0.  1.
         12    1    3    3    0    0  0.74307605522E+01  0.54297809659E+01  0.25230176779E+01  0.95427638515E+01  0.00000000000E+00 0. -1.
</event>
<event>
 7    1  0.6090311E-013  0.5052886E+02  0.7816164E-02  0.1300439E+00
        -11   -1    0    0    0    0  0.00000000000E+00  0.00000000000E+00  0.45593999997E+02  0.45594000000E+02  0.51100000000E-03 0.  1.
         11   -1    0    0    0    0 -0.00000000000E+00 -0.00000000000E+00 -0.45593999997E+02  0.45594000000E+02  0.51100000000E-03 0. -1.
    9900012    2    1    2    0    0  0.11298593476E+02 -0.29359814060E+02 -0.25758661384E+02  0.50528861636E+02  0.30000005430E+02 0.  0.
        -12    1    1    2    0    0 -0.11298593476E+02  0.29359814060E+02  0.25758661384E+02  0.40659138364E+02  0.00000000000E+00 0.  1.
         11    1    3    3    0    0 -0.20043719411E+01  0.12265558173E+01 -0.28401815519E+01  0.36862687856E+01  0.51100000000E-03 0. -1.
        -11    1    3    3    0    0 -0.54397299650E+01 -0.97561790408E+00 -0.51376936817E+01  0.75457530450E+01  0.51100000000E-03 0.  1.
         12    1    3    3    0    0  0.18742695382E+02 -0.29610751973E+02 -0.17780786151E+02  0.39296839806E+02  0.00000000000E+00 0. -1.
</event>
<event>
 7    1  0.6090311E-013  0.5052885E+02  0.7816164E-02  0.1300439E+00
        -11   -1    0    0    0    0  0.00000000000E+00  0.00000000000E+00  0.45593999997E+02  0.45594000000E+02  0.51100000000E-03 0.  1.
         11   -1    0    0    0    0 -0.00000000000E+00 -0.00000000000E+00 -0.45593999997E+02  0.45594000000E+02  0.51100000000E-03 0. -1.
    9900012    2    1    2    0    0  0.13115656610E+02 -0.25809239396E+02 -0.28548722827E+02  0.50528845292E+02  0.29999955749E+02 0.  0.
        -12    1    1    2    0    0 -0.13115656610E+02  0.25809239396E+02  0.28548722827E+02  0.40659154708E+02  0.00000000000E+00 0.  1.
         11    1    3    3    0    0  0.97560570977E+01 -0.41570611657E+01 -0.61480146151E+01  0.12258054152E+02  0.51100000000E-03 0. -1.
        -11    1    3    3    0    0 -0.55452000334E+01  0.17124334586E+01 -0.61161757564E+01  0.84314457778E+01  0.51100000000E-03 0.  1.
         12    1    3    3    0    0  0.89047995453E+01 -0.23364611689E+02 -0.16284532456E+02  0.29839345362E+02  0.00000000000E+00 0. -1.
</event>
<event>
 7    1  0.6090311E-013  0.5052885E+02  0.7816164E-02  0.1300439E+00
        -11   -1    0    0    0    0  0.00000000000E+00  0.00000000000E+00  0.45593999997E+02  0.45594000000E+02  0.51100000000E-03 0.  1.
         11   -1    0    0    0    0 -0.00000000000E+00 -0.00000000000E+00 -0.45593999997E+02  0.45594000000E+02  0.51100000000E-03 0. -1.
    9900012    2    1    2    0    0 -0.53026014743E+01 -0.35844794077E+02 -0.18444497241E+02  0.50528851912E+02  0.29999975870E+02 0.  0.
        -12    1    1    2    0    0  0.53026014743E+01  0.35844794077E+02  0.18444497241E+02  0.40659148088E+02  0.00000000000E+00 0.  1.
         11    1    3    3    0    0  0.19108897481E+01 -0.14114205685E+02  0.11743483825E+01  0.14291304914E+02  0.51100000000E-03 0. -1.
        -11    1    3    3    0    0  0.23560013140E+01 -0.55561146932E+01  0.30742511574E+01  0.67728999045E+01  0.51100000000E-03 0.  1.
        -12    1    3    3    0    0 -0.95694925364E+01 -0.16174473698E+02 -0.22693096781E+02  0.29464647093E+02  0.00000000000E+00 0.  1.
</event>
<event>
 7    1  0.6090311E-013  0.5052881E+02  0.7816164E-02  0.1300439E+00
        -11   -1    0    0    0    0  0.00000000000E+00  0.00000000000E+00  0.45593999997E+02  0.45594000000E+02  0.51100000000E-03 0.  1.
         11   -1    0    0    0    0 -0.00000000000E+00 -0.00000000000E+00 -0.45593999997E+02  0.45594000000E+02  0.51100000000E-03 0. -1.
    9900012    2    1    2    0    0 -0.17164798442E+02  0.12102456893E+01 -0.36838498295E+02  0.50528807228E+02  0.29999840051E+02 0.  0.
        -12    1    1    2    0    0  0.17164798442E+02 -0.12102456893E+01  0.36838498295E+02  0.40659192772E+02  0.00000000000E+00 0.  1.
         11    1    3    3    0    0 -0.11512418150E+02  0.13707145918E+01 -0.28148678704E+02  0.30442778178E+02  0.51100000000E-03 0. -1.
        -11    1    3    3    0    0 -0.11524788342E+02  0.17603704861E+01 -0.39872668070E+01  0.12321442587E+02  0.51100000000E-03 0.  1.
        -12    1    3    3    0    0  0.58724080498E+01 -0.19208393886E+01 -0.47025527846E+01  0.77645864637E+01  0.00000000000E+00 0.  1.
</event>
<event>
 7    1  0.6090311E-013  0.5052886E+02  0.7816164E-02  0.1300439E+00
        -11   -1    0    0    0    0  0.00000000000E+00  0.00000000000E+00  0.45593999997E+02  0.45594000000E+02  0.51100000000E-03 0.  1.
         11   -1    0    0    0    0 -0.00000000000E+00 -0.00000000000E+00 -0.45593999997E+02  0.45594000000E+02  0.51100000000E-03 0. -1.
    9900012    2    1    2    0    0  0.57935740968E+01  0.16512259402E+02 -0.36700756052E+02  0.50528859501E+02  0.29999998938E+02 0.  0.
        -12    1    1    2    0    0 -0.57935740968E+01 -0.16512259402E+02  0.36700756052E+02  0.40659140499E+02  0.00000000000E+00 0.  1.
         11    1    3    3    0    0  0.87418148779E+01 -0.25529286117E+01 -0.72686126517E+01  0.11652017079E+02  0.51100000000E-03 0. -1.
        -11    1    3    3    0    0  0.45291008913E+01  0.19242266913E+01 -0.13293405188E+02  0.14174978836E+02  0.51100000000E-03 0.  1.
         12    1    3    3    0    0 -0.74773416725E+01  0.17140961323E+02 -0.16138738212E+02  0.24701863586E+02  0.00000000000E+00 0. -1.
</event>
<event>
 7    1  0.6090311E-013  0.5052883E+02  0.7816164E-02  0.1300439E+00
        -11   -1    0    0    0    0  0.00000000000E+00  0.00000000000E+00  0.45593999997E+02  0.45594000000E+02  0.51100000000E-03 0.  1.
         11   -1    0    0    0    0 -0.00000000000E+00 -0.00000000000E+00 -0.45593999997E+02  0.45594000000E+02  0.51100000000E-03 0. -1.
    9900012    2    1    2    0    0  0.20402397654E+02 -0.15565775403E+02 -0.31537551564E+02  0.50528826956E+02  0.29999900017E+02 0.  0.
        -12    1    1    2    0    0 -0.20402397654E+02  0.15565775403E+02  0.31537551564E+02  0.40659173044E+02  0.00000000000E+00 0.  1.
         11    1    3    3    0    0  0.70526394359E+01  0.28784286435E+01 -0.81843082749E+01  0.11180696609E+02  0.51100000000E-03 0. -1.
        -11    1    3    3    0    0  0.71884149873E+01 -0.15977553515E+02 -0.26684641466E+02  0.31922180639E+02  0.51100000000E-03 0.  1.
        -12    1    3    3    0    0  0.61613432310E+01 -0.24666505317E+01  0.33313981766E+01  0.74259497081E+01  0.00000000000E+00 0.  1.
</event>
<event>
 7    1  0.6090311E-013  0.5052886E+02  0.7816164E-02  0.1300439E+00
        -11   -1    0    0    0    0  0.00000000000E+00  0.00000000000E+00  0.45593999997E+02  0.45594000000E+02  0.51100000000E-03 0.  1.
         11   -1    0    0    0    0 -0.00000000000E+00 -0.00000000000E+00 -0.45593999997E+02  0.45594000000E+02  0.51100000000E-03 0. -1.
    9900012    2    1    2    0    0  0.10147115720E+02 -0.14865193367E+02 -0.36458579451E+02  0.50528856541E+02  0.29999989942E+02 0.  0.
        -12    1    1    2    0    0 -0.10147115720E+02  0.14865193367E+02  0.36458579451E+02  0.40659143459E+02  0.00000000000E+00 0.  1.
         11    1    3    3    0    0  0.94404289857E+01 -0.96821018382E+01 -0.12076254872E+02  0.18130105555E+02  0.51100000000E-03 0. -1.
        -11    1    3    3    0    0  0.98973834159E+01 -0.25520141916E+00 -0.69899875450E+01  0.12119540106E+02  0.51100000000E-03 0.  1.
         12    1    3    3    0    0 -0.91906966815E+01 -0.49278901092E+01 -0.17392337034E+02  0.20279210880E+02  0.00000000000E+00 0. -1.
</event>
<event>
 7    1  0.6090311E-013  0.5052890E+02  0.7816164E-02  0.1300439E+00
        -11   -1    0    0    0    0  0.00000000000E+00  0.00000000000E+00  0.45593999997E+02  0.45594000000E+02  0.51100000000E-03 0. -1.
         11   -1    0    0    0    0 -0.00000000000E+00 -0.00000000000E+00 -0.45593999997E+02  0.45594000000E+02  0.51100000000E-03 0.  1.
    9900012    2    1    2    0    0 -0.18323916770E+02 -0.27644333044E+02  0.23519930646E+02  0.50528902459E+02  0.30000129514E+02 0.  0.
        -12    1    1    2    0    0  0.18323916770E+02  0.27644333044E+02 -0.23519930646E+02  0.40659097541E+02  0.00000000000E+00 0.  1.
         11    1    3    3    0    0 -0.15335571332E+02 -0.76183456937E+01  0.93694012266E+01  0.19519339609E+02  0.51100000000E-03 0. -1.
        -11    1    3    3    0    0 -0.30908638364E+01  0.31512592383E+01  0.21606757698E+01  0.49145085293E+01  0.51100000000E-03 0.  1.
         12    1    3    3    0    0  0.10251839786E+00 -0.23177246588E+02  0.11989853650E+02  0.26095054320E+02  0.00000000000E+00 0. -1.
</event>
<event>
 7    1  0.6090311E-013  0.5052886E+02  0.7816164E-02  0.1300439E+00
        -11   -1    0    0    0    0  0.00000000000E+00  0.00000000000E+00  0.45593999997E+02  0.45594000000E+02  0.51100000000E-03 0.  1.
         11   -1    0    0    0    0 -0.00000000000E+00 -0.00000000000E+00 -0.45593999997E+02  0.45594000000E+02  0.51100000000E-03 0. -1.
    9900012    2    1    2    0    0 -0.38261827245E+02 -0.82947033392E+01  0.10972503655E+02  0.50528863707E+02  0.30000011723E+02 0.  0.
        -12    1    1    2    0    0  0.38261827245E+02  0.82947033392E+01 -0.10972503655E+02  0.40659136293E+02  0.00000000000E+00 0.  1.
         11    1    3    3    0    0 -0.23600159126E+01 -0.62813470121E+01  0.10941303553E+01  0.67986849382E+01  0.51100000000E-03 0. -1.
        -11    1    3    3    0    0 -0.10747348685E+02 -0.93349617351E+01  0.10229178489E+02  0.17529492496E+02  0.51100000000E-03 0.  1.
         12    1    3    3    0    0 -0.25154462648E+02  0.73216054079E+01 -0.35080518986E+00  0.26200686272E+02  0.00000000000E+00 0. -1.
</event>
<event>
 7    1  0.6090311E-013  0.5052886E+02  0.7816164E-02  0.1300439E+00
        -11   -1    0    0    0    0  0.00000000000E+00  0.00000000000E+00  0.45593999997E+02  0.45594000000E+02  0.51100000000E-03 0. -1.
         11   -1    0    0    0    0 -0.00000000000E+00 -0.00000000000E+00 -0.45593999997E+02  0.45594000000E+02  0.51100000000E-03 0.  1.
    9900012    2    1    2    0    0 -0.34120291053E+02  0.72960759504E+01  0.20874363007E+02  0.50528855681E+02  0.29999987329E+02 0.  0.
        -12    1    1    2    0    0  0.34120291053E+02 -0.72960759504E+01 -0.20874363007E+02  0.40659144319E+02  0.00000000000E+00 0.  1.
         11    1    3    3    0    0  0.72266952059E+00  0.26195195319E+01  0.49298274371E+01  0.56291502587E+01  0.51100000000E-03 0. -1.
        -11    1    3    3    0    0 -0.35236501057E+01 -0.99768968379E+00 -0.54372268276E+01  0.65555267224E+01  0.51100000000E-03 0.  1.
         12    1    3    3    0    0 -0.31319310467E+02  0.56742461022E+01  0.21381762397E+02  0.38344178700E+02  0.00000000000E+00 0. -1.
</event>
<event>
 7    1  0.6090311E-013  0.5052886E+02  0.7816164E-02  0.1300439E+00
        -11   -1    0    0    0    0  0.00000000000E+00  0.00000000000E+00  0.45593999997E+02  0.45594000000E+02  0.51100000000E-03 0.  1.
         11   -1    0    0    0    0 -0.00000000000E+00 -0.00000000000E+00 -0.45593999997E+02  0.45594000000E+02  0.51100000000E-03 0. -1.
    9900012    2    1    2    0    0  0.27866978690E+02 -0.28851597572E+02 -0.66470172229E+01  0.50528855620E+02  0.29999987142E+02 0.  0.
        -12    1    1    2    0    0 -0.27866978690E+02  0.28851597572E+02  0.66470172229E+01  0.40659144380E+02  0.00000000000E+00 0.  1.
         11    1    3    3    0    0  0.12477157726E+02  0.12483725412E+01  0.20229349429E+01  0.12701581199E+02  0.51100000000E-03 0. -1.
        -11    1    3    3    0    0  0.61111070533E+01 -0.51185999468E+01  0.32821928475E+01  0.86208169556E+01  0.51100000000E-03 0.  1.
        -12    1    3    3    0    0  0.92787139107E+01 -0.24981370167E+02 -0.11952145013E+02  0.29206457465E+02  0.00000000000E+00 0.  1.
</event>
<event>
 7    1  0.6090311E-013  0.5052888E+02  0.7816164E-02  0.1300439E+00
        -11   -1    0    0    0    0  0.00000000000E+00  0.00000000000E+00  0.45593999997E+02  0.45594000000E+02  0.51100000000E-03 0.  1.
         11   -1    0    0    0    0 -0.00000000000E+00 -0.00000000000E+00 -0.45593999997E+02  0.45594000000E+02  0.51100000000E-03 0. -1.
    9900012    2    1    2    0    0  0.52212397106E+01  0.14999551925E+02 -0.37428813395E+02  0.50528880798E+02  0.30000063675E+02 0.  0.
        -12    1    1    2    0    0 -0.52212397106E+01 -0.14999551925E+02  0.37428813395E+02  0.40659119202E+02  0.00000000000E+00 0.  1.
         11    1    3    3    0    0 -0.48745699400E+01  0.56568585507E+01 -0.13576826893E+01  0.75897815060E+01  0.51100000000E-03 0. -1.
        -11    1    3    3    0    0  0.10339299688E+02  0.49117207541E+01 -0.67595890294E+01  0.13293538390E+02  0.51100000000E-03 0.  1.
         12    1    3    3    0    0 -0.24349003778E+00  0.44309726201E+01 -0.29311541677E+02  0.29645560903E+02  0.00000000000E+00 0. -1.
</event>
<event>
 7    1  0.6090311E-013  0.5052886E+02  0.7816164E-02  0.1300439E+00
        -11   -1    0    0    0    0  0.00000000000E+00  0.00000000000E+00  0.45593999997E+02  0.45594000000E+02  0.51100000000E-03 0.  1.
         11   -1    0    0    0    0 -0.00000000000E+00 -0.00000000000E+00 -0.45593999997E+02  0.45594000000E+02  0.51100000000E-03 0. -1.
    9900012    2    1    2    0    0 -0.17044061896E+02  0.26556891086E+02  0.25639762982E+02  0.50528856430E+02  0.29999989605E+02 0.  0.
        -12    1    1    2    0    0  0.17044061896E+02 -0.26556891086E+02 -0.25639762982E+02  0.40659143570E+02  0.00000000000E+00 0.  1.
         11    1    3    3    0    0 -0.59023711752E+00  0.33194390679E+01 -0.40516928635E+01  0.52709838647E+01  0.51100000000E-03 0. -1.
        -11    1    3    3    0    0 -0.45356746512E+01  0.13538909086E+02  0.31999223313E+01  0.14632631581E+02  0.51100000000E-03 0.  1.
        -12    1    3    3    0    0 -0.11918150127E+02  0.96985429317E+01  0.26491533514E+02  0.30625240985E+02  0.00000000000E+00 0.  1.
</event>
<event>
 7    1  0.6090311E-013  0.5052886E+02  0.7816164E-02  0.1300439E+00
        -11   -1    0    0    0    0  0.00000000000E+00  0.00000000000E+00  0.45593999997E+02  0.45594000000E+02  0.51100000000E-03 0.  1.
         11   -1    0    0    0    0 -0.00000000000E+00 -0.00000000000E+00 -0.45593999997E+02  0.45594000000E+02  0.51100000000E-03 0. -1.
    9900012    2    1    2    0    0 -0.10277553738E+02  0.14414738065E+02 -0.36602631458E+02  0.50528863094E+02  0.30000009859E+02 0.  0.
        -12    1    1    2    0    0  0.10277553738E+02 -0.14414738065E+02  0.36602631458E+02  0.40659136906E+02  0.00000000000E+00 0.  1.
         11    1    3    3    0    0 -0.11713554941E+02  0.88303302634E+01 -0.15868101488E+02  0.21609691044E+02  0.51100000000E-03 0. -1.
        -11    1    3    3    0    0 -0.58079499660E+01  0.68910721377E+01 -0.19464420922E+02  0.21449541722E+02  0.51100000000E-03 0.  1.
        -12    1    3    3    0    0  0.72439511693E+01 -0.13066643362E+01 -0.12701090480E+01  0.74696303272E+01  0.00000000000E+00 0.  1.
</event>
<event>
 7    1  0.6090311E-013  0.5052886E+02  0.7816164E-02  0.1300439E+00
        -11   -1    0    0    0    0  0.00000000000E+00  0.00000000000E+00  0.45593999997E+02  0.45594000000E+02  0.51100000000E-03 0.  1.
         11   -1    0    0    0    0 -0.00000000000E+00 -0.00000000000E+00 -0.45593999997E+02  0.45594000000E+02  0.51100000000E-03 0. -1.
    9900012    2    1    2    0    0 -0.34103004602E+02  0.92377301613E+01 -0.20120019198E+02  0.50528858913E+02  0.29999997153E+02 0.  0.
        -12    1    1    2    0    0  0.34103004602E+02 -0.92377301613E+01  0.20120019198E+02  0.40659141087E+02  0.00000000000E+00 0.  1.
         11    1    3    3    0    0  0.15030422809E+00  0.52785173874E+01 -0.97633037078E+01  0.11099884536E+02  0.51100000000E-03 0. -1.
        -11    1    3    3    0    0 -0.10439771225E+02 -0.59771508762E+01 -0.13797897186E+01  0.12108632283E+02  0.51100000000E-03 0.  1.
         12    1    3    3    0    0 -0.23813537605E+02  0.99363636501E+01 -0.89769257715E+01  0.27320342094E+02  0.00000000000E+00 0. -1.
</event>
<event>
 7    1  0.6090311E-013  0.5052886E+02  0.7816164E-02  0.1300439E+00
        -11   -1    0    0    0    0  0.00000000000E+00  0.00000000000E+00  0.45593999997E+02  0.45594000000E+02  0.51100000000E-03 0.  1.
         11   -1    0    0    0    0 -0.00000000000E+00 -0.00000000000E+00 -0.45593999997E+02  0.45594000000E+02  0.51100000000E-03 0. -1.
    9900012    2    1    2    0    0  0.30580154307E+02 -0.89489414128E+01 -0.25257392483E+02  0.50528864927E+02  0.30000015432E+02 0.  0.
        -12    1    1    2    0    0 -0.30580154307E+02  0.89489414128E+01  0.25257392483E+02  0.40659135073E+02  0.00000000000E+00 0.  1.
         11    1    3    3    0    0  0.10754886956E+02 -0.56346199419E+01 -0.18168318645E+02  0.21851872642E+02  0.51100000000E-03 0. -1.
        -11    1    3    3    0    0  0.10379865750E+02  0.68042256734E+01 -0.80636676915E+01  0.14800737715E+02  0.51100000000E-03 0.  1.
        -12    1    3    3    0    0  0.94454016015E+01 -0.10118547144E+02  0.97459385289E+00  0.13876254570E+02  0.00000000000E+00 0.  1.
</event>
<event>
 7    1  0.6090311E-013  0.5052888E+02  0.7816164E-02  0.1300439E+00
        -11   -1    0    0    0    0  0.00000000000E+00  0.00000000000E+00  0.45593999997E+02  0.45594000000E+02  0.51100000000E-03 0.  1.
         11   -1    0    0    0    0 -0.00000000000E+00 -0.00000000000E+00 -0.45593999997E+02  0.45594000000E+02  0.51100000000E-03 0. -1.
    9900012    2    1    2    0    0 -0.16553875882E+02  0.10350334706E+02 -0.35665167742E+02  0.50528875251E+02  0.30000046814E+02 0.  0.
        -12    1    1    2    0    0  0.16553875882E+02 -0.10350334706E+02  0.35665167742E+02  0.40659124749E+02  0.00000000000E+00 0.  1.
         11    1    3    3    0    0  0.28754902758E+01  0.43186261861E+01 -0.15638043256E+02  0.16476266980E+02  0.51100000000E-03 0. -1.
        -11    1    3    3    0    0  0.10277563481E+01  0.24743872710E+01 -0.11155337892E+02  0.11472595139E+02  0.51100000000E-03 0.  1.
        -12    1    3    3    0    0 -0.20457122506E+02  0.35573212493E+01 -0.88717865942E+01  0.22580013132E+02  0.00000000000E+00 0.  1.
</event>
<event>
 7    1  0.6090311E-013  0.5052886E+02  0.7816164E-02  0.1300439E+00
        -11   -1    0    0    0    0  0.00000000000E+00  0.00000000000E+00  0.45593999997E+02  0.45594000000E+02  0.51100000000E-03 0. -1.
         11   -1    0    0    0    0 -0.00000000000E+00 -0.00000000000E+00 -0.45593999997E+02  0.45594000000E+02  0.51100000000E-03 0.  1.
    9900012    2    1    2    0    0  0.20331898838E+02 -0.35103878772E+02 -0.27380562887E+01  0.50528863666E+02  0.30000011599E+02 0.  0.
        -12    1    1    2    0    0 -0.20331898838E+02  0.35103878772E+02  0.27380562887E+01  0.40659136334E+02  0.00000000000E+00 0.  1.
         11    1    3    3    0    0  0.15910866004E+02 -0.14228288294E+02 -0.71298078025E+01  0.22504088614E+02  0.51100000000E-03 0. -1.
        -11    1    3    3    0    0  0.10260143823E+02 -0.11797525067E+02  0.66614377587E+01  0.16994908127E+02  0.51100000000E-03 0.  1.
        -12    1    3    3    0    0 -0.58391109885E+01 -0.90780654110E+01 -0.22696862449E+01  0.11029866925E+02  0.00000000000E+00 0.  1.
</event>
<event>
 7    1  0.6090311E-013  0.5052885E+02  0.7816164E-02  0.1300439E+00
        -11   -1    0    0    0    0  0.00000000000E+00  0.00000000000E+00  0.45593999997E+02  0.45594000000E+02  0.51100000000E-03 0.  1.
         11   -1    0    0    0    0 -0.00000000000E+00 -0.00000000000E+00 -0.45593999997E+02  0.45594000000E+02  0.51100000000E-03 0. -1.
    9900012    2    1    2    0    0  0.25709253148E+02 -0.19039580307E+02 -0.25093720978E+02  0.50528854064E+02  0.29999982413E+02 0.  0.
        -12    1    1    2    0    0 -0.25709253148E+02  0.19039580307E+02  0.25093720978E+02  0.40659145936E+02  0.00000000000E+00 0.  1.
         11    1    3    3    0    0  0.44219467967E+01 -0.82450157106E+01  0.22833840320E+01  0.96305628309E+01  0.51100000000E-03 0. -1.
        -11    1    3    3    0    0  0.33914035616E+01  0.50010081894E+01 -0.28759149718E+01  0.66919793943E+01  0.51100000000E-03 0.  1.
         12    1    3    3    0    0  0.17895902790E+02 -0.15795572786E+02 -0.24501190038E+02  0.34206311839E+02  0.00000000000E+00 0. -1.
</event>
<event>
 7    1  0.6090311E-013  0.5052889E+02  0.7816164E-02  0.1300439E+00
        -11   -1    0    0    0    0  0.00000000000E+00  0.00000000000E+00  0.45593999997E+02  0.45594000000E+02  0.51100000000E-03 0. -1.
         11   -1    0    0    0    0 -0.00000000000E+00 -0.00000000000E+00 -0.45593999997E+02  0.45594000000E+02  0.51100000000E-03 0.  1.
    9900012    2    1    2    0    0 -0.26492235572E+02 -0.12188550715E+02  0.28333081941E+02  0.50528894668E+02  0.30000105833E+02 0.  0.
        -12    1    1    2    0    0  0.26492235572E+02  0.12188550715E+02 -0.28333081941E+02  0.40659105332E+02  0.00000000000E+00 0.  1.
         11    1    3    3    0    0 -0.72168288366E+00 -0.59893463435E+01  0.64443495846E+01  0.88273856626E+01  0.51100000000E-03 0. -1.
        -11    1    3    3    0    0 -0.12531208076E+02 -0.13048501966E+02  0.42051941228E+01  0.18573589779E+02  0.51100000000E-03 0.  1.
        -12    1    3    3    0    0 -0.13239344612E+02  0.68492975948E+01  0.17683538234E+02  0.23127919227E+02  0.00000000000E+00 0.  1.
</event>
<event>
 7    1  0.6090311E-013  0.5052887E+02  0.7816164E-02  0.1300439E+00
        -11   -1    0    0    0    0  0.00000000000E+00  0.00000000000E+00  0.45593999997E+02  0.45594000000E+02  0.51100000000E-03 0. -1.
         11   -1    0    0    0    0 -0.00000000000E+00 -0.00000000000E+00 -0.45593999997E+02  0.45594000000E+02  0.51100000000E-03 0.  1.
    9900012    2    1    2    0    0  0.13311833138E+02 -0.36742457906E+02  0.11222813008E+02  0.50528872534E+02  0.30000038555E+02 0.  0.
        -12    1    1    2    0    0 -0.13311833138E+02  0.36742457906E+02 -0.11222813008E+02  0.40659127466E+02  0.00000000000E+00 0.  1.
         11    1    3    3    0    0  0.72434827851E+01 -0.20883003247E+02 -0.69234475651E+00  0.22114411794E+02  0.51100000000E-03 0. -1.
        -11    1    3    3    0    0 -0.21077318459E+01  0.27676413477E+01 -0.17639360259E+01  0.39004926264E+01  0.51100000000E-03 0.  1.
         12    1    3    3    0    0  0.81760821986E+01 -0.18627096007E+02  0.13679093790E+02  0.24513968114E+02  0.00000000000E+00 0. -1.
</event>
<event>
 7    1  0.6090311E-013  0.5052886E+02  0.7816164E-02  0.1300439E+00
        -11   -1    0    0    0    0  0.00000000000E+00  0.00000000000E+00  0.45593999997E+02  0.45594000000E+02  0.51100000000E-03 0.  1.
         11   -1    0    0    0    0 -0.00000000000E+00 -0.00000000000E+00 -0.45593999997E+02  0.45594000000E+02  0.51100000000E-03 0. -1.
    9900012    2    1    2    0    0  0.31991156563E+02 -0.68047748650E+01 -0.24154233806E+02  0.50528855027E+02  0.29999985339E+02 0.  0.
        -12    1    1    2    0    0 -0.31991156563E+02  0.68047748650E+01  0.24154233806E+02  0.40659144973E+02  0.00000000000E+00 0.  1.
         11    1    3    3    0    0  0.11136845719E+02 -0.64999752867E+01 -0.13182391836E+01  0.12962128147E+02  0.51100000000E-03 0. -1.
        -11    1    3    3    0    0  0.93753037497E+01  0.10361974854E+02 -0.86853776782E+01  0.16453043152E+02  0.51100000000E-03 0.  1.
         12    1    3    3    0    0  0.11479007095E+02 -0.10666774432E+02 -0.14150616944E+02  0.21113683728E+02  0.00000000000E+00 0. -1.
</event>
<event>
 7    1  0.6090311E-013  0.5052886E+02  0.7816164E-02  0.1300439E+00
        -11   -1    0    0    0    0  0.00000000000E+00  0.00000000000E+00  0.45593999997E+02  0.45594000000E+02  0.51100000000E-03 0.  1.
         11   -1    0    0    0    0 -0.00000000000E+00 -0.00000000000E+00 -0.45593999997E+02  0.45594000000E+02  0.51100000000E-03 0. -1.
    9900012    2    1    2    0    0  0.40354366097E+01 -0.30189091953E+02 -0.26935095175E+02  0.50528863589E+02  0.30000011365E+02 0.  0.
        -12    1    1    2    0    0 -0.40354366097E+01  0.30189091953E+02  0.26935095175E+02  0.40659136411E+02  0.00000000000E+00 0.  1.
         11    1    3    3    0    0 -0.28661745660E+00 -0.63972927907E+01 -0.14115967625E+02  0.15500582146E+02  0.51100000000E-03 0. -1.
        -11    1    3    3    0    0 -0.54338340254E+01  0.11365965637E+01 -0.40042252167E+01  0.68448684291E+01  0.51100000000E-03 0.  1.
         12    1    3    3    0    0  0.97558880917E+01 -0.24928395726E+02 -0.88149023335E+01  0.28183413014E+02  0.00000000000E+00 0. -1.
</event>
<event>
 7    1  0.6090311E-013  0.5052886E+02  0.7816164E-02  0.1300439E+00
        -11   -1    0    0    0    0  0.00000000000E+00  0.00000000000E+00  0.45593999997E+02  0.45594000000E+02  0.51100000000E-03 0. -1.
         11   -1    0    0    0    0 -0.00000000000E+00 -0.00000000000E+00 -0.45593999997E+02  0.45594000000E+02  0.51100000000E-03 0.  1.
    9900012    2    1    2    0    0 -0.39511009394E+02  0.94336352178E+01 -0.17471630447E+01  0.50528856927E+02  0.29999991114E+02 0.  0.
        -12    1    1    2    0    0  0.39511009394E+02 -0.94336352178E+01  0.17471630447E+01  0.40659143073E+02  0.00000000000E+00 0.  1.
         11    1    3    3    0    0 -0.91225726542E+01  0.44104793131E+00 -0.85808605156E+01  0.12531840350E+02  0.51100000000E-03 0.  1.
        -11    1    3    3    0    0 -0.17295981055E+01  0.82595747706E+01  0.34995036402E+01  0.91355684545E+01  0.51100000000E-03 0. -1.
         12    1    3    3    0    0 -0.28658838634E+02  0.73301251582E+00  0.33341938306E+01  0.28861448122E+02  0.00000000000E+00 0. -1.
</event>
<event>
 7    1  0.6090311E-013  0.5052884E+02  0.7816164E-02  0.1300439E+00
        -11   -1    0    0    0    0  0.00000000000E+00  0.00000000000E+00  0.45593999997E+02  0.45594000000E+02  0.51100000000E-03 0.  1.
         11   -1    0    0    0    0 -0.00000000000E+00 -0.00000000000E+00 -0.45593999997E+02  0.45594000000E+02  0.51100000000E-03 0. -1.
    9900012    2    1    2    0    0 -0.29306530511E+02  0.10837965514E+02 -0.26016009865E+02  0.50528843635E+02  0.29999950711E+02 0.  0.
        -12    1    1    2    0    0  0.29306530511E+02 -0.10837965514E+02  0.26016009865E+02  0.40659156365E+02  0.00000000000E+00 0.  1.
         11    1    3    3    0    0 -0.58408718604E+01  0.78919896776E+01 -0.13730708779E+02  0.16879918513E+02  0.51100000000E-03 0. -1.
        -11    1    3    3    0    0 -0.12116610479E+02  0.94022258608E+01  0.54065045400E+00  0.15346217899E+02  0.51100000000E-03 0.  1.
        -12    1    3    3    0    0 -0.11349048171E+02 -0.64562500241E+01 -0.12825951540E+02  0.18302707222E+02  0.00000000000E+00 0.  1.
</event>
<event>
 7    1  0.6090311E-013  0.5052885E+02  0.7816164E-02  0.1300439E+00
        -11   -1    0    0    0    0  0.00000000000E+00  0.00000000000E+00  0.45593999997E+02  0.45594000000E+02  0.51100000000E-03 0.  1.
         11   -1    0    0    0    0 -0.00000000000E+00 -0.00000000000E+00 -0.45593999997E+02  0.45594000000E+02  0.51100000000E-03 0. -1.
    9900012    2    1    2    0    0  0.17738331413E+02 -0.28654167683E+02 -0.22747669047E+02  0.50528853747E+02  0.29999981451E+02 0.  0.
        -12    1    1    2    0    0 -0.17738331413E+02  0.28654167683E+02  0.22747669047E+02  0.40659146253E+02  0.00000000000E+00 0.  1.
         11    1    3    3    0    0  0.94376321990E+01 -0.23588890037E+02 -0.83268676951E+01  0.26736517361E+02  0.51100000000E-03 0. -1.
        -11    1    3    3    0    0 -0.22021029159E+01 -0.64436747692E+01 -0.10463959946E+02  0.12484576877E+02  0.51100000000E-03 0.  1.
        -12    1    3    3    0    0  0.10502802130E+02  0.13783971238E+01 -0.39568414053E+01  0.11307759509E+02  0.00000000000E+00 0.  1.
</event>
<event>
 7    1  0.6090311E-013  0.5052886E+02  0.7816164E-02  0.1300439E+00
        -11   -1    0    0    0    0  0.00000000000E+00  0.00000000000E+00  0.45593999997E+02  0.45594000000E+02  0.51100000000E-03 0.  1.
         11   -1    0    0    0    0 -0.00000000000E+00 -0.00000000000E+00 -0.45593999997E+02  0.45594000000E+02  0.51100000000E-03 0. -1.
    9900012    2    1    2    0    0 -0.35159455276E+02  0.18276236087E+02 -0.91080852695E+01  0.50528864273E+02  0.30000013444E+02 0.  0.
        -12    1    1    2    0    0  0.35159455276E+02 -0.18276236087E+02  0.91080852695E+01  0.40659135727E+02  0.00000000000E+00 0.  1.
         11    1    3    3    0    0  0.41704157012E+00 -0.36610580104E+01  0.18281603685E+01  0.41133246919E+01  0.51100000000E-03 0. -1.
        -11    1    3    3    0    0 -0.16719597697E+02  0.23846492593E+01 -0.91123590265E+01  0.19190273227E+02  0.51100000000E-03 0.  1.
         12    1    3    3    0    0 -0.18856899149E+02  0.19552644838E+02 -0.18238866115E+01  0.27225266354E+02  0.00000000000E+00 0. -1.
</event>
<event>
 7    1  0.6090311E-013  0.5052886E+02  0.7816164E-02  0.1300439E+00
        -11   -1    0    0    0    0  0.00000000000E+00  0.00000000000E+00  0.45593999997E+02  0.45594000000E+02  0.51100000000E-03 0. -1.
         11   -1    0    0    0    0 -0.00000000000E+00 -0.00000000000E+00 -0.45593999997E+02  0.45594000000E+02  0.51100000000E-03 0.  1.
    9900012    2    1    2    0    0 -0.80520367412E+01 -0.38298743556E+02  0.11024361790E+02  0.50528860726E+02  0.30000002662E+02 0.  0.
        -12    1    1    2    0    0  0.80520367412E+01  0.38298743556E+02 -0.11024361790E+02  0.40659139274E+02  0.00000000000E+00 0.  1.
         11    1    3    3    0    0 -0.77788787499E+01 -0.24896876496E+01  0.74105984011E+01  0.11028439061E+02  0.51100000000E-03 0. -1.
        -11    1    3    3    0    0 -0.60511494695E+01 -0.46464520609E+01  0.31996620642E+00  0.76359875125E+01  0.51100000000E-03 0.  1.
        -12    1    3    3    0    0  0.57779914781E+01 -0.31162603846E+02  0.32937971823E+01  0.31864434152E+02  0.00000000000E+00 0.  1.
</event>
<event>
 7    1  0.6090311E-013  0.5052886E+02  0.7816164E-02  0.1300439E+00
        -11   -1    0    0    0    0  0.00000000000E+00  0.00000000000E+00  0.45593999997E+02  0.45594000000E+02  0.51100000000E-03 0. -1.
         11   -1    0    0    0    0 -0.00000000000E+00 -0.00000000000E+00 -0.45593999997E+02  0.45594000000E+02  0.51100000000E-03 0.  1.
    9900012    2    1    2    0    0  0.40394709410E+02 -0.44499336215E+01 -0.12770733538E+01  0.50528863587E+02  0.30000011358E+02 0.  0.
        -12    1    1    2    0    0 -0.40394709410E+02  0.44499336215E+01  0.12770733538E+01  0.40659136413E+02  0.00000000000E+00 0.  1.
         11    1    3    3    0    0  0.83526566721E+01  0.12364675143E+01  0.22867506703E+01  0.87478542675E+01  0.51100000000E-03 0. -1.
        -11    1    3    3    0    0  0.15355440739E+02  0.89488285829E+01 -0.74086727594E+01  0.19255116868E+02  0.51100000000E-03 0.  1.
        -12    1    3    3    0    0  0.16686611998E+02 -0.14635229719E+02  0.38448487353E+01  0.22525892451E+02  0.00000000000E+00 0.  1.
</event>
<event>
 7    1  0.6090311E-013  0.5052886E+02  0.7816164E-02  0.1300439E+00
        -11   -1    0    0    0    0  0.00000000000E+00  0.00000000000E+00  0.45593999997E+02  0.45594000000E+02  0.51100000000E-03 0. -1.
         11   -1    0    0    0    0 -0.00000000000E+00 -0.00000000000E+00 -0.45593999997E+02  0.45594000000E+02  0.51100000000E-03 0.  1.
    9900012    2    1    2    0    0 -0.33914127983E+01  0.39829845030E+02  0.74328875244E+01  0.50528855238E+02  0.29999985981E+02 0.  0.
        -12    1    1    2    0    0  0.33914127983E+01 -0.39829845030E+02 -0.74328875244E+01  0.40659144762E+02  0.00000000000E+00 0.  1.
         11    1    3    3    0    0 -0.19563581603E+01 -0.33865702466E+01 -0.24886586691E+01  0.46356895408E+01  0.51100000000E-03 0.  1.
        -11    1    3    3    0    0 -0.29111732490E+01  0.20619435864E+02 -0.79754554204E+00  0.20839197301E+02  0.51100000000E-03 0. -1.
        -12    1    3    3    0    0  0.14761186109E+01  0.22596979413E+02  0.10719091736E+02  0.25053968396E+02  0.00000000000E+00 0.  1.
</event>
<event>
 7    1  0.6090311E-013  0.5052885E+02  0.7816164E-02  0.1300439E+00
        -11   -1    0    0    0    0  0.00000000000E+00  0.00000000000E+00  0.45593999997E+02  0.45594000000E+02  0.51100000000E-03 0.  1.
         11   -1    0    0    0    0 -0.00000000000E+00 -0.00000000000E+00 -0.45593999997E+02  0.45594000000E+02  0.51100000000E-03 0. -1.
    9900012    2    1    2    0    0 -0.98040273674E+00  0.11901268905E+02 -0.38865991662E+02  0.50528847292E+02  0.29999961829E+02 0.  0.
        -12    1    1    2    0    0  0.98040273674E+00 -0.11901268905E+02  0.38865991662E+02  0.40659152708E+02  0.00000000000E+00 0.  1.
         11    1    3    3    0    0 -0.55290236881E+01  0.72168126986E+01 -0.13283191763E+02  0.16096449054E+02  0.51100000000E-03 0. -1.
        -11    1    3    3    0    0 -0.77806473878E+01  0.50628408135E+01 -0.52888910463E+01  0.10683782085E+02  0.51100000000E-03 0.  1.
         12    1    3    3    0    0  0.12329268339E+02 -0.37838460703E+00 -0.20293908852E+02  0.23748616153E+02  0.00000000000E+00 0. -1.
</event>
<event>
 7    1  0.6090311E-013  0.5052886E+02  0.7816164E-02  0.1300439E+00
        -11   -1    0    0    0    0  0.00000000000E+00  0.00000000000E+00  0.45593999997E+02  0.45594000000E+02  0.51100000000E-03 0. -1.
         11   -1    0    0    0    0 -0.00000000000E+00 -0.00000000000E+00 -0.45593999997E+02  0.45594000000E+02  0.51100000000E-03 0.  1.
    9900012    2    1    2    0    0 -0.20173370231E+02  0.33666885072E+02 -0.10617984805E+02  0.50528860581E+02  0.30000002223E+02 0.  0.
        -12    1    1    2    0    0  0.20173370231E+02 -0.33666885072E+02  0.10617984805E+02  0.40659139419E+02  0.00000000000E+00 0.  1.
         11    1    3    3    0    0 -0.10225569215E+02  0.48798215149E+01 -0.46565117329E+01  0.12249817369E+02  0.51100000000E-03 0. -1.
        -11    1    3    3    0    0 -0.93315753430E+01  0.36015426363E+01  0.45403801544E+01  0.10984737591E+02  0.51100000000E-03 0.  1.
         12    1    3    3    0    0 -0.61622567315E+00  0.25185520921E+02 -0.10501853226E+02  0.27294305621E+02  0.00000000000E+00 0. -1.
</event>
<event>
 7    1  0.6090311E-013  0.5052885E+02  0.7816164E-02  0.1300439E+00
        -11   -1    0    0    0    0  0.00000000000E+00  0.00000000000E+00  0.45593999997E+02  0.45594000000E+02  0.51100000000E-03 0.  1.
         11   -1    0    0    0    0 -0.00000000000E+00 -0.00000000000E+00 -0.45593999997E+02  0.45594000000E+02  0.51100000000E-03 0. -1.
    9900012    2    1    2    0    0  0.29216035150E+02  0.25994637692E+02  0.11129611728E+02  0.50528853970E+02  0.29999982128E+02 0.  0.
        -12    1    1    2    0    0 -0.29216035150E+02 -0.25994637692E+02 -0.11129611728E+02  0.40659146030E+02  0.00000000000E+00 0.  1.
         11    1    3    3    0    0  0.24572615412E+02  0.19451265013E+02  0.86703367267E+01  0.32516763031E+02  0.51100000000E-03 0. -1.
        -11    1    3    3    0    0  0.16464715985E+01  0.10142877761E+02 -0.31091567552E+01  0.10735720469E+02  0.51100000000E-03 0.  1.
         12    1    3    3    0    0  0.29969481395E+01 -0.35995050822E+01  0.55684317566E+01  0.72763704700E+01  0.00000000000E+00 0. -1.
</event>
<event>
 7    1  0.6090311E-013  0.5052887E+02  0.7816164E-02  0.1300439E+00
        -11   -1    0    0    0    0  0.00000000000E+00  0.00000000000E+00  0.45593999997E+02  0.45594000000E+02  0.51100000000E-03 0. -1.
         11   -1    0    0    0    0 -0.00000000000E+00 -0.00000000000E+00 -0.45593999997E+02  0.45594000000E+02  0.51100000000E-03 0.  1.
    9900012    2    1    2    0    0  0.15819680868E+02  0.28552198058E+02  0.24242003411E+02  0.50528867617E+02  0.30000023610E+02 0.  0.
        -12    1    1    2    0    0 -0.15819680868E+02 -0.28552198058E+02 -0.24242003411E+02  0.40659132383E+02  0.00000000000E+00 0.  1.
         11    1    3    3    0    0  0.92574106538E+01  0.14632928917E+02  0.91264843462E+01  0.19573323108E+02  0.51100000000E-03 0. -1.
        -11    1    3    3    0    0 -0.12922366048E+01  0.11057689358E+02 -0.25417406998E+01  0.11419405213E+02  0.51100000000E-03 0.  1.
        -12    1    3    3    0    0  0.78545068185E+01  0.28615797840E+01  0.17657259765E+02  0.19536139297E+02  0.00000000000E+00 0.  1.
</event>
<event>
 7    1  0.6090311E-013  0.5052886E+02  0.7816164E-02  0.1300439E+00
        -11   -1    0    0    0    0  0.00000000000E+00  0.00000000000E+00  0.45593999997E+02  0.45594000000E+02  0.51100000000E-03 0. -1.
         11   -1    0    0    0    0 -0.00000000000E+00 -0.00000000000E+00 -0.45593999997E+02  0.45594000000E+02  0.51100000000E-03 0.  1.
    9900012    2    1    2    0    0  0.17358552137E+02 -0.36332739188E+02 -0.56372233242E+01  0.50528861347E+02  0.30000004551E+02 0.  0.
        -12    1    1    2    0    0 -0.17358552137E+02  0.36332739188E+02  0.56372233242E+01  0.40659138653E+02  0.00000000000E+00 0.  1.
         11    1    3    3    0    0  0.53777780184E+01 -0.13048815008E+02 -0.44393199070E+01  0.14795257045E+02  0.51100000000E-03 0. -1.
        -11    1    3    3    0    0 -0.45658832846E+01  0.23963077737E+01 -0.43244876941E+00  0.51746104505E+01  0.51100000000E-03 0.  1.
         12    1    3    3    0    0  0.16546657403E+02 -0.25680231954E+02 -0.76545464788E+00  0.30558993852E+02  0.00000000000E+00 0. -1.
</event>
<event>
 7    1  0.6090311E-013  0.5052886E+02  0.7816164E-02  0.1300439E+00
        -11   -1    0    0    0    0  0.00000000000E+00  0.00000000000E+00  0.45593999997E+02  0.45594000000E+02  0.51100000000E-03 0.  1.
         11   -1    0    0    0    0 -0.00000000000E+00 -0.00000000000E+00 -0.45593999997E+02  0.45594000000E+02  0.51100000000E-03 0. -1.
    9900012    2    1    2    0    0 -0.30481620900E+02  0.24514584255E+02  0.11093772149E+02  0.50528857924E+02  0.29999994145E+02 0.  0.
        -12    1    1    2    0    0  0.30481620900E+02 -0.24514584255E+02 -0.11093772149E+02  0.40659142076E+02  0.00000000000E+00 0.  1.
         11    1    3    3    0    0 -0.66408579168E+01  0.38143149061E+01 -0.82609585494E+01  0.11264698331E+02  0.51100000000E-03 0. -1.
        -11    1    3    3    0    0 -0.79929372335E+01 -0.11544531756E+00  0.42033368220E+01  0.90315233455E+01  0.51100000000E-03 0.  1.
        -12    1    3    3    0    0 -0.15847825750E+02  0.20815714666E+02  0.15151393877E+02  0.30232636247E+02  0.00000000000E+00 0.  1.
</event>
<event>
 7    1  0.6090311E-013  0.5052887E+02  0.7816164E-02  0.1300439E+00
        -11   -1    0    0    0    0  0.00000000000E+00  0.00000000000E+00  0.45593999997E+02  0.45594000000E+02  0.51100000000E-03 0.  1.
         11   -1    0    0    0    0 -0.00000000000E+00 -0.00000000000E+00 -0.45593999997E+02  0.45594000000E+02  0.51100000000E-03 0. -1.
    9900012    2    1    2    0    0  0.11644527888E+02  0.24798998283E+02 -0.30042961876E+02  0.50528869366E+02  0.30000028926E+02 0.  0.
        -12    1    1    2    0    0 -0.11644527888E+02 -0.24798998283E+02  0.30042961876E+02  0.40659130634E+02  0.00000000000E+00 0.  1.
         11    1    3    3    0    0  0.18592435609E+02  0.16424053737E+02 -0.14598598930E+02  0.28784497460E+02  0.51100000000E-03 0. -1.
        -11    1    3    3    0    0  0.96923890557E+00 -0.55248611022E-01 -0.78476850315E+01  0.79075051110E+01  0.51100000000E-03 0.  1.
        -12    1    3    3    0    0 -0.79171466269E+01  0.84301931574E+01 -0.75966779142E+01  0.13836866795E+02  0.00000000000E+00 0.  1.
</event>
<event>
 7    1  0.6090311E-013  0.5052886E+02  0.7816164E-02  0.1300439E+00
        -11   -1    0    0    0    0  0.00000000000E+00  0.00000000000E+00  0.45593999997E+02  0.45594000000E+02  0.51100000000E-03 0. -1.
         11   -1    0    0    0    0 -0.00000000000E+00 -0.00000000000E+00 -0.45593999997E+02  0.45594000000E+02  0.51100000000E-03 0.  1.
    9900012    2    1    2    0    0  0.17118885391E+02  0.10507071997E+02  0.35351255488E+02  0.50528855106E+02  0.29999985580E+02 0.  0.
        -12    1    1    2    0    0 -0.17118885391E+02 -0.10507071997E+02 -0.35351255488E+02  0.40659144894E+02  0.00000000000E+00 0.  1.
         11    1    3    3    0    0  0.15576868361E+02  0.11672783802E+02  0.11256419005E+02  0.22485543771E+02  0.51100000000E-03 0. -1.
        -11    1    3    3    0    0  0.62432162167E+00  0.30213638037E+01 -0.45809905749E+00  0.31190177507E+01  0.51100000000E-03 0.  1.
        -12    1    3    3    0    0  0.91769540834E+00 -0.41870756092E+01  0.24552935540E+02  0.24924293584E+02  0.00000000000E+00 0.  1.
</event>
<event>
 7    1  0.6090311E-013  0.5052886E+02  0.7816164E-02  0.1300439E+00
        -11   -1    0    0    0    0  0.00000000000E+00  0.00000000000E+00  0.45593999997E+02  0.45594000000E+02  0.51100000000E-03 0.  1.
         11   -1    0    0    0    0 -0.00000000000E+00 -0.00000000000E+00 -0.45593999997E+02  0.45594000000E+02  0.51100000000E-03 0. -1.
    9900012    2    1    2    0    0 -0.25847962371E+02 -0.19500071630E+02 -0.24592595533E+02  0.50528859485E+02  0.29999998892E+02 0.  0.
        -12    1    1    2    0    0  0.25847962371E+02  0.19500071630E+02  0.24592595533E+02  0.40659140515E+02  0.00000000000E+00 0.  1.
         11    1    3    3    0    0 -0.12070985181E+01 -0.18165867262E+01  0.50465627472E+00  0.22386943478E+01  0.51100000000E-03 0. -1.
        -11    1    3    3    0    0 -0.23457852247E+01 -0.63531469665E+01  0.55342709135E+01  0.87460470787E+01  0.51100000000E-03 0.  1.
         12    1    3    3    0    0 -0.22295078628E+02 -0.11330337937E+02 -0.30631522722E+02  0.39544118059E+02  0.00000000000E+00 0. -1.
</event>
<event>
 7    1  0.6090311E-013  0.5052888E+02  0.7816164E-02  0.1300439E+00
        -11   -1    0    0    0    0  0.00000000000E+00  0.00000000000E+00  0.45593999997E+02  0.45594000000E+02  0.51100000000E-03 0.  1.
         11   -1    0    0    0    0 -0.00000000000E+00 -0.00000000000E+00 -0.45593999997E+02  0.45594000000E+02  0.51100000000E-03 0. -1.
    9900012    2    1    2    0    0 -0.26867289343E+01 -0.12320031179E+02 -0.38654399795E+02  0.50528876742E+02  0.30000051345E+02 0.  0.
        -12    1    1    2    0    0  0.26867289343E+01  0.12320031179E+02  0.38654399795E+02  0.40659123258E+02  0.00000000000E+00 0.  1.
         11    1    3    3    0    0 -0.47289597274E+01  0.22363769499E+01 -0.11958653836E+02  0.13052733192E+02  0.51100000000E-03 0. -1.
        -11    1    3    3    0    0  0.96070417452E+01 -0.92598916034E+00 -0.53226144638E+01  0.11021929596E+02  0.51100000000E-03 0.  1.
         12    1    3    3    0    0 -0.75648109521E+01 -0.13630418969E+02 -0.21373131495E+02  0.26454213954E+02  0.00000000000E+00 0. -1.
</event>
<event>
 7    1  0.6090311E-013  0.5052886E+02  0.7816164E-02  0.1300439E+00
        -11   -1    0    0    0    0  0.00000000000E+00  0.00000000000E+00  0.45593999997E+02  0.45594000000E+02  0.51100000000E-03 0. -1.
         11   -1    0    0    0    0 -0.00000000000E+00 -0.00000000000E+00 -0.45593999997E+02  0.45594000000E+02  0.51100000000E-03 0.  1.
    9900012    2    1    2    0    0  0.20342356089E+02 -0.35192115463E+02  0.93230549247E+00  0.50528860369E+02  0.30000001577E+02 0.  0.
        -12    1    1    2    0    0 -0.20342356089E+02  0.35192115463E+02 -0.93230549247E+00  0.40659139631E+02  0.00000000000E+00 0.  1.
         11    1    3    3    0    0 -0.35350266590E+01  0.53743348119E+00 -0.45004517318E+01  0.57479834966E+01  0.51100000000E-03 0.  1.
        -11    1    3    3    0    0  0.13030850840E+01 -0.10521354634E+02  0.89692252556E+00  0.10639614859E+02  0.51100000000E-03 0. -1.
        -12    1    3    3    0    0  0.22574297664E+02 -0.25208194310E+02  0.45358346987E+01  0.34141262013E+02  0.00000000000E+00 0.  1.
</event>
<event>
 7    1  0.6090311E-013  0.5052886E+02  0.7816164E-02  0.1300439E+00
        -11   -1    0    0    0    0  0.00000000000E+00  0.00000000000E+00  0.45593999997E+02  0.45594000000E+02  0.51100000000E-03 0. -1.
         11   -1    0    0    0    0 -0.00000000000E+00 -0.00000000000E+00 -0.45593999997E+02  0.45594000000E+02  0.51100000000E-03 0.  1.
    9900012    2    1    2    0    0 -0.34426914749E+02  0.67795956446E+01  0.20542392345E+02  0.50528864993E+02  0.30000015634E+02 0.  0.
        -12    1    1    2    0    0  0.34426914749E+02 -0.67795956446E+01 -0.20542392345E+02  0.40659135007E+02  0.00000000000E+00 0.  1.
         11    1    3    3    0    0  0.30939483177E+01  0.34678325632E+01  0.72200243428E+01  0.85864504104E+01  0.51100000000E-03 0. -1.
        -11    1    3    3    0    0 -0.24403154493E+02  0.32365422661E+01  0.14828966972E+02  0.28738257024E+02  0.51100000000E-03 0.  1.
        -12    1    3    3    0    0 -0.13117708574E+02  0.75220815318E-01 -0.15065989698E+01  0.13204157559E+02  0.00000000000E+00 0.  1.
</event>
<event>
 7    1  0.6090311E-013  0.5052886E+02  0.7816164E-02  0.1300439E+00
        -11   -1    0    0    0    0  0.00000000000E+00  0.00000000000E+00  0.45593999997E+02  0.45594000000E+02  0.51100000000E-03 0. -1.
         11   -1    0    0    0    0 -0.00000000000E+00 -0.00000000000E+00 -0.45593999997E+02  0.45594000000E+02  0.51100000000E-03 0.  1.
    9900012    2    1    2    0    0 -0.45507971363E+01 -0.40401644621E+02  0.40365643701E+00  0.50528861037E+02  0.30000003609E+02 0.  0.
        -12    1    1    2    0    0  0.45507971363E+01  0.40401644621E+02 -0.40365643701E+00  0.40659138963E+02  0.00000000000E+00 0.  1.
         11    1    3    3    0    0 -0.39214507769E+01 -0.11694862166E+02 -0.27478233497E+01  0.12637171784E+02  0.51100000000E-03 0. -1.
        -11    1    3    3    0    0 -0.15978615300E+01 -0.89559868758E+01 -0.10477132144E+02  0.13875631900E+02  0.51100000000E-03 0.  1.
        -12    1    3    3    0    0  0.96851517061E+00 -0.19750795579E+02  0.13628611931E+02  0.24016057353E+02  0.00000000000E+00 0.  1.
</event>
<event>
 7    1  0.6090311E-013  0.5052886E+02  0.7816164E-02  0.1300439E+00
        -11   -1    0    0    0    0  0.00000000000E+00  0.00000000000E+00  0.45593999997E+02  0.45594000000E+02  0.51100000000E-03 0.  1.
         11   -1    0    0    0    0 -0.00000000000E+00 -0.00000000000E+00 -0.45593999997E+02  0.45594000000E+02  0.51100000000E-03 0. -1.
    9900012    2    1    2    0    0  0.22885905654E+02  0.11165161561E+02 -0.31697640381E+02  0.50528856920E+02  0.29999991095E+02 0.  0.
        -12    1    1    2    0    0 -0.22885905654E+02 -0.11165161561E+02  0.31697640381E+02  0.40659143080E+02  0.00000000000E+00 0.  1.
         11    1    3    3    0    0  0.28392697913E+01  0.79840148610E+01 -0.11905666286E+02  0.14613378672E+02  0.51100000000E-03 0. -1.
        -11    1    3    3    0    0  0.10250009801E+02 -0.16691916932E+01  0.28531843797E+01  0.10769845087E+02  0.51100000000E-03 0.  1.
         12    1    3    3    0    0  0.97966260611E+01  0.48503383936E+01 -0.22645158475E+02  0.25145633161E+02  0.00000000000E+00 0. -1.
</event>
<event>
 7    1  0.6090311E-013  0.5052886E+02  0.7816164E-02  0.1300439E+00
        -11   -1    0    0    0    0  0.00000000000E+00  0.00000000000E+00  0.45593999997E+02  0.45594000000E+02  0.51100000000E-03 0.  1.
         11   -1    0    0    0    0 -0.00000000000E+00 -0.00000000000E+00 -0.45593999997E+02  0.45594000000E+02  0.51100000000E-03 0. -1.
    9900012    2    1    2    0    0 -0.41092614446E+01  0.29889596893E+02 -0.27256035097E+02  0.50528862266E+02  0.30000007343E+02 0.  0.
        -12    1    1    2    0    0  0.41092614446E+01 -0.29889596893E+02  0.27256035097E+02  0.40659137734E+02  0.00000000000E+00 0.  1.
         11    1    3    3    0    0 -0.78658751036E+01  0.46188601147E+01 -0.65544979810E+01  0.11232421998E+02  0.51100000000E-03 0. -1.
        -11    1    3    3    0    0 -0.30840549239E+01  0.28187471314E+00 -0.11329524598E+02  0.11745168198E+02  0.51100000000E-03 0.  1.
         12    1    3    3    0    0  0.68406685830E+01  0.24988862066E+02 -0.93720125183E+01  0.27551272069E+02  0.00000000000E+00 0. -1.
</event>
<event>
 7    1  0.6090311E-013  0.5052884E+02  0.7816164E-02  0.1300439E+00
        -11   -1    0    0    0    0  0.00000000000E+00  0.00000000000E+00  0.45593999997E+02  0.45594000000E+02  0.51100000000E-03 0.  1.
         11   -1    0    0    0    0 -0.00000000000E+00 -0.00000000000E+00 -0.45593999997E+02  0.45594000000E+02  0.51100000000E-03 0. -1.
    9900012    2    1    2    0    0 -0.13084786312E+02 -0.63095300120E+01 -0.37975586549E+02  0.50528843891E+02  0.29999951490E+02 0.  0.
        -12    1    1    2    0    0  0.13084786312E+02  0.63095300120E+01  0.37975586549E+02  0.40659156109E+02  0.00000000000E+00 0.  1.
         11    1    3    3    0    0 -0.60460720131E+00 -0.64379665722E+01 -0.30524452263E+02  0.31201845292E+02  0.51100000000E-03 0. -1.
        -11    1    3    3    0    0 -0.10774479460E+02 -0.43689463625E+01 -0.85020701836E+01  0.14403551563E+02  0.51100000000E-03 0.  1.
        -12    1    3    3    0    0 -0.17056996500E+01  0.44973829227E+01  0.10509358972E+01  0.49234470353E+01  0.00000000000E+00 0.  1.
</event>
<event>
 7    1  0.6090311E-013  0.5052886E+02  0.7816164E-02  0.1300439E+00
        -11   -1    0    0    0    0  0.00000000000E+00  0.00000000000E+00  0.45593999997E+02  0.45594000000E+02  0.51100000000E-03 0.  1.
         11   -1    0    0    0    0 -0.00000000000E+00 -0.00000000000E+00 -0.45593999997E+02  0.45594000000E+02  0.51100000000E-03 0. -1.
    9900012    2    1    2    0    0 -0.14942548441E+02 -0.30687195093E+01 -0.37689110728E+02  0.50528857599E+02  0.29999993157E+02 0.  0.
        -12    1    1    2    0    0  0.14942548441E+02  0.30687195093E+01  0.37689110728E+02  0.40659142401E+02  0.00000000000E+00 0.  1.
         11    1    3    3    0    0 -0.43388772632E+01  0.71694003005E+01 -0.17029672234E+01  0.85513890216E+01  0.51100000000E-03 0. -1.
        -11    1    3    3    0    0 -0.80980481936E+01 -0.14423575849E+01 -0.49010979386E+01  0.95749434052E+01  0.51100000000E-03 0.  1.
         12    1    3    3    0    0 -0.25056229846E+01 -0.87957622248E+01 -0.31085045566E+02  0.32402525172E+02  0.00000000000E+00 0. -1.
</event>
<event>
 7    1  0.6090311E-013  0.5052887E+02  0.7816164E-02  0.1300439E+00
        -11   -1    0    0    0    0  0.00000000000E+00  0.00000000000E+00  0.45593999997E+02  0.45594000000E+02  0.51100000000E-03 0. -1.
         11   -1    0    0    0    0 -0.00000000000E+00 -0.00000000000E+00 -0.45593999997E+02  0.45594000000E+02  0.51100000000E-03 0.  1.
    9900012    2    1    2    0    0  0.19025557355E+01  0.24242693971E+02  0.32585841976E+02  0.50528867857E+02  0.30000024339E+02 0.  0.
        -12    1    1    2    0    0 -0.19025557355E+01 -0.24242693971E+02 -0.32585841976E+02  0.40659132143E+02  0.00000000000E+00 0.  1.
         11    1    3    3    0    0  0.49658755268E+01  0.16077108820E+02  0.10803727737E+02  0.19996346692E+02  0.51100000000E-03 0. -1.
        -11    1    3    3    0    0 -0.34990373761E+01  0.14227279058E+02  0.11653958548E+02  0.18720936997E+02  0.51100000000E-03 0.  1.
         12    1    3    3    0    0  0.43571758483E+00 -0.60616939075E+01  0.10128155692E+02  0.11811584168E+02  0.00000000000E+00 0. -1.
</event>
<event>
 7    1  0.6090311E-013  0.5052885E+02  0.7816164E-02  0.1300439E+00
        -11   -1    0    0    0    0  0.00000000000E+00  0.00000000000E+00  0.45593999997E+02  0.45594000000E+02  0.51100000000E-03 0. -1.
         11   -1    0    0    0    0 -0.00000000000E+00 -0.00000000000E+00 -0.45593999997E+02  0.45594000000E+02  0.51100000000E-03 0.  1.
    9900012    2    1    2    0    0 -0.33866472680E+02  0.13072305311E+02  0.18312384011E+02  0.50528849171E+02  0.29999967541E+02 0.  0.
        -12    1    1    2    0    0  0.33866472680E+02 -0.13072305311E+02 -0.18312384011E+02  0.40659150829E+02  0.00000000000E+00 0.  1.
         11    1    3    3    0    0  0.16955936153E+00 -0.28859925280E+01  0.10696503930E+02  0.11080293310E+02  0.51100000000E-03 0. -1.
        -11    1    3    3    0    0 -0.67743568377E+01  0.38681999721E+01 -0.21084439768E+01  0.80808673948E+01  0.51100000000E-03 0.  1.
        -12    1    3    3    0    0 -0.27261675204E+02  0.12090097866E+02  0.97243240582E+01  0.31367688467E+02  0.00000000000E+00 0.  1.
</event>
<event>
 7    1  0.6090311E-013  0.5052892E+02  0.7816164E-02  0.1300439E+00
        -11   -1    0    0    0    0  0.00000000000E+00  0.00000000000E+00  0.45593999997E+02  0.45594000000E+02  0.51100000000E-03 0.  1.
         11   -1    0    0    0    0 -0.00000000000E+00 -0.00000000000E+00 -0.45593999997E+02  0.45594000000E+02  0.51100000000E-03 0. -1.
    9900012    2    1    2    0    0  0.31958595239E+02 -0.11088869769E+02 -0.22557605815E+02  0.50528924475E+02  0.30000196434E+02 0.  0.
        -12    1    1    2    0    0 -0.31958595239E+02  0.11088869769E+02  0.22557605815E+02  0.40659075525E+02  0.00000000000E+00 0.  1.
         11    1    3    3    0    0  0.19312079351E+02 -0.77957439588E+01 -0.27848498176E+01  0.21011554476E+02  0.51100000000E-03 0. -1.
        -11    1    3    3    0    0  0.14487690494E+02 -0.92533852081E+00 -0.64929880529E+01  0.15903091566E+02  0.51100000000E-03 0.  1.
        -12    1    3    3    0    0 -0.18411746066E+01 -0.23677872893E+01 -0.13279767945E+02  0.13614278433E+02  0.00000000000E+00 0.  1.
</event>
<event>
 7    1  0.6090311E-013  0.5052886E+02  0.7816164E-02  0.1300439E+00
        -11   -1    0    0    0    0  0.00000000000E+00  0.00000000000E+00  0.45593999997E+02  0.45594000000E+02  0.51100000000E-03 0.  1.
         11   -1    0    0    0    0 -0.00000000000E+00 -0.00000000000E+00 -0.45593999997E+02  0.45594000000E+02  0.51100000000E-03 0. -1.
    9900012    2    1    2    0    0 -0.20221667355E+02 -0.23186012652E+02 -0.26583058175E+02  0.50528855946E+02  0.29999988133E+02 0.  0.
        -12    1    1    2    0    0  0.20221667355E+02  0.23186012652E+02  0.26583058175E+02  0.40659144054E+02  0.00000000000E+00 0.  1.
         11    1    3    3    0    0 -0.15127929155E+02 -0.30047762713E+01 -0.20926949826E+02  0.25996541120E+02  0.51100000000E-03 0. -1.
        -11    1    3    3    0    0 -0.65826977037E+00 -0.38958752246E+01 -0.65287058190E+01  0.76311966813E+01  0.51100000000E-03 0.  1.
        -12    1    3    3    0    0 -0.44354684295E+01 -0.16285361156E+02  0.87259747010E+00  0.16901118144E+02  0.00000000000E+00 0.  1.
</event>
<event>
 7    1  0.6090311E-013  0.5052886E+02  0.7816164E-02  0.1300439E+00
        -11   -1    0    0    0    0  0.00000000000E+00  0.00000000000E+00  0.45593999997E+02  0.45594000000E+02  0.51100000000E-03 0.  1.
         11   -1    0    0    0    0 -0.00000000000E+00 -0.00000000000E+00 -0.45593999997E+02  0.45594000000E+02  0.51100000000E-03 0. -1.
    9900012    2    1    2    0    0 -0.20077321230E+00 -0.48660396900E+01 -0.40366406447E+02  0.50528863000E+02  0.30000009576E+02 0.  0.
        -12    1    1    2    0    0  0.20077321230E+00  0.48660396900E+01  0.40366406447E+02  0.40659137000E+02  0.00000000000E+00 0.  1.
         11    1    3    3    0    0 -0.14909049357E+01 -0.30797986782E+01  0.23780460797E+01  0.41669006280E+01  0.51100000000E-03 0.  1.
        -11    1    3    3    0    0 -0.45090161196E+01 -0.38401593621E+00 -0.16193756898E+01  0.48063575077E+01  0.51100000000E-03 0. -1.
         12    1    3    3    0    0  0.57991478430E+01 -0.14022250756E+01 -0.41125076836E+02  0.41555604865E+02  0.00000000000E+00 0. -1.
</event>
<event>
 7    1  0.6090311E-013  0.5052890E+02  0.7816164E-02  0.1300439E+00
        -11   -1    0    0    0    0  0.00000000000E+00  0.00000000000E+00  0.45593999997E+02  0.45594000000E+02  0.51100000000E-03 0. -1.
         11   -1    0    0    0    0 -0.00000000000E+00 -0.00000000000E+00 -0.45593999997E+02  0.45594000000E+02  0.51100000000E-03 0.  1.
    9900012    2    1    2    0    0  0.99722275672E+01 -0.68962385711E+01  0.38809269343E+02  0.50528895041E+02  0.30000106967E+02 0.  0.
        -12    1    1    2    0    0 -0.99722275672E+01  0.68962385711E+01 -0.38809269343E+02  0.40659104959E+02  0.00000000000E+00 0.  1.
         11    1    3    3    0    0  0.44079027022E+01 -0.62175885106E+01  0.12567930972E+02  0.14698329915E+02  0.51100000000E-03 0. -1.
        -11    1    3    3    0    0  0.11642683353E+02 -0.64347352906E+01  0.74212228355E+01  0.15232611153E+02  0.51100000000E-03 0.  1.
        -12    1    3    3    0    0 -0.60783584875E+01  0.57560852302E+01  0.18820115536E+02  0.20597953973E+02  0.00000000000E+00 0.  1.
</event>
<event>
 7    1  0.6090311E-013  0.5052886E+02  0.7816164E-02  0.1300439E+00
        -11   -1    0    0    0    0  0.00000000000E+00  0.00000000000E+00  0.45593999997E+02  0.45594000000E+02  0.51100000000E-03 0.  1.
         11   -1    0    0    0    0 -0.00000000000E+00 -0.00000000000E+00 -0.45593999997E+02  0.45594000000E+02  0.51100000000E-03 0. -1.
    9900012    2    1    2    0    0  0.87615429423E+01  0.39497513209E+02  0.40432276949E+01  0.50528857429E+02  0.29999992641E+02 0.  0.
        -12    1    1    2    0    0 -0.87615429423E+01 -0.39497513209E+02 -0.40432276949E+01  0.40659142571E+02  0.00000000000E+00 0.  1.
         11    1    3    3    0    0 -0.35981290223E+01  0.82190880974E+00 -0.16115032627E+01  0.40272831511E+01  0.51100000000E-03 0. -1.
        -11    1    3    3    0    0  0.13094150293E+02  0.14016242497E+02 -0.46965568342E+01  0.19747644720E+02  0.51100000000E-03 0.  1.
        -12    1    3    3    0    0 -0.73447832809E+00  0.24659361902E+02  0.10351287792E+02  0.26753929558E+02  0.00000000000E+00 0.  1.
</event>
<event>
 7    1  0.6090311E-013  0.5052886E+02  0.7816164E-02  0.1300439E+00
        -11   -1    0    0    0    0  0.00000000000E+00  0.00000000000E+00  0.45593999997E+02  0.45594000000E+02  0.51100000000E-03 0.  1.
         11   -1    0    0    0    0 -0.00000000000E+00 -0.00000000000E+00 -0.45593999997E+02  0.45594000000E+02  0.51100000000E-03 0. -1.
    9900012    2    1    2    0    0 -0.35472081997E+02  0.20869685940E+01 -0.19762128853E+02  0.50528858643E+02  0.29999996331E+02 0.  0.
        -12    1    1    2    0    0  0.35472081997E+02 -0.20869685940E+01  0.19762128853E+02  0.40659141357E+02  0.00000000000E+00 0.  1.
         11    1    3    3    0    0 -0.27556361812E+02  0.29098773843E+01 -0.11999060605E+02  0.30195991760E+02  0.51100000000E-03 0. -1.
        -11    1    3    3    0    0 -0.11797296006E+02 -0.26222549103E+01 -0.73822522426E+00  0.12107740937E+02  0.51100000000E-03 0.  1.
         12    1    3    3    0    0  0.38815758209E+01  0.17993461200E+01 -0.70248430238E+01  0.82251259456E+01  0.00000000000E+00 0. -1.
</event>
<event>
 7    1  0.6090311E-013  0.5052886E+02  0.7816164E-02  0.1300439E+00
        -11   -1    0    0    0    0  0.00000000000E+00  0.00000000000E+00  0.45593999997E+02  0.45594000000E+02  0.51100000000E-03 0.  1.
         11   -1    0    0    0    0 -0.00000000000E+00 -0.00000000000E+00 -0.45593999997E+02  0.45594000000E+02  0.51100000000E-03 0. -1.
    9900012    2    1    2    0    0  0.11391962564E+02 -0.95119631641E+00 -0.39019025340E+02  0.50528856822E+02  0.29999990797E+02 0.  0.
        -12    1    1    2    0    0 -0.11391962564E+02  0.95119631641E+00  0.39019025340E+02  0.40659143178E+02  0.00000000000E+00 0.  1.
         11    1    3    3    0    0  0.93586971695E+00  0.61018650441E+01 -0.16130865664E+01  0.63804903945E+01  0.51100000000E-03 0. -1.
        -11    1    3    3    0    0 -0.16313523065E+01  0.56086975417E+01 -0.11235723756E+02  0.12663344228E+02  0.51100000000E-03 0.  1.
         12    1    3    3    0    0  0.12087445154E+02 -0.12661758902E+02 -0.26170215018E+02  0.31485022200E+02  0.00000000000E+00 0. -1.
</event>
<event>
 7    1  0.6090311E-013  0.5052886E+02  0.7816164E-02  0.1300439E+00
        -11   -1    0    0    0    0  0.00000000000E+00  0.00000000000E+00  0.45593999997E+02  0.45594000000E+02  0.51100000000E-03 0. -1.
         11   -1    0    0    0    0 -0.00000000000E+00 -0.00000000000E+00 -0.45593999997E+02  0.45594000000E+02  0.51100000000E-03 0.  1.
    9900012    2    1    2    0    0  0.23999701441E+02  0.27266056176E+02  0.18268610667E+02  0.50528860507E+02  0.30000001997E+02 0.  0.
        -12    1    1    2    0    0 -0.23999701441E+02 -0.27266056176E+02 -0.18268610667E+02  0.40659139493E+02  0.00000000000E+00 0.  1.
         11    1    3    3    0    0  0.10854298286E+02  0.19085193774E+02  0.33943296275E+01  0.22216702873E+02  0.51100000000E-03 0. -1.
        -11    1    3    3    0    0  0.84597232612E+01  0.10150879184E+02  0.67570191926E+00  0.13231169231E+02  0.51100000000E-03 0.  1.
         12    1    3    3    0    0  0.46856798936E+01 -0.19700167825E+01  0.14198579120E+02  0.15080988403E+02  0.00000000000E+00 0. -1.
</event>
<event>
 7    1  0.6090311E-013  0.5052886E+02  0.7816164E-02  0.1300439E+00
        -11   -1    0    0    0    0  0.00000000000E+00  0.00000000000E+00  0.45593999997E+02  0.45594000000E+02  0.51100000000E-03 0. -1.
         11   -1    0    0    0    0 -0.00000000000E+00 -0.00000000000E+00 -0.45593999997E+02  0.45594000000E+02  0.51100000000E-03 0.  1.
    9900012    2    1    2    0    0  0.28083079392E+02  0.23342754291E+02  0.17877982986E+02  0.50528858326E+02  0.29999995368E+02 0.  0.
        -12    1    1    2    0    0 -0.28083079392E+02 -0.23342754291E+02 -0.17877982986E+02  0.40659141674E+02  0.00000000000E+00 0.  1.
         11    1    3    3    0    0  0.17806854987E+02  0.14835120397E+02  0.13340600997E+02  0.26742036515E+02  0.51100000000E-03 0. -1.
        -11    1    3    3    0    0  0.14905061034E+02  0.27122026138E+01  0.11273591676E+00  0.15150234225E+02  0.51100000000E-03 0.  1.
         12    1    3    3    0    0 -0.46288366294E+01  0.57954312803E+01  0.44246460724E+01  0.86365875861E+01  0.00000000000E+00 0. -1.
</event>
<event>
 7    1  0.6090311E-013  0.5052885E+02  0.7816164E-02  0.1300439E+00
        -11   -1    0    0    0    0  0.00000000000E+00  0.00000000000E+00  0.45593999997E+02  0.45594000000E+02  0.51100000000E-03 0.  1.
         11   -1    0    0    0    0 -0.00000000000E+00 -0.00000000000E+00 -0.45593999997E+02  0.45594000000E+02  0.51100000000E-03 0. -1.
    9900012    2    1    2    0    0 -0.17849960347E+02  0.18252199646E+02 -0.31644940767E+02  0.50528854012E+02  0.29999982256E+02 0.  0.
        -12    1    1    2    0    0  0.17849960347E+02 -0.18252199646E+02  0.31644940767E+02  0.40659145988E+02  0.00000000000E+00 0.  1.
         11    1    3    3    0    0 -0.81190075275E+01  0.95486992779E+01 -0.16311972249E+02  0.20571251300E+02  0.51100000000E-03 0. -1.
        -11    1    3    3    0    0 -0.72667372082E+01  0.12530906695E+02 -0.55682954361E+00  0.14496177140E+02  0.51100000000E-03 0.  1.
        -12    1    3    3    0    0 -0.24642156111E+01 -0.38274063268E+01 -0.14776138974E+02  0.15461425573E+02  0.00000000000E+00 0.  1.
</event>
<event>
 7    1  0.6090311E-013  0.5052886E+02  0.7816164E-02  0.1300439E+00
        -11   -1    0    0    0    0  0.00000000000E+00  0.00000000000E+00  0.45593999997E+02  0.45594000000E+02  0.51100000000E-03 0. -1.
         11   -1    0    0    0    0 -0.00000000000E+00 -0.00000000000E+00 -0.45593999997E+02  0.45594000000E+02  0.51100000000E-03 0.  1.
    9900012    2    1    2    0    0 -0.11606654567E+02  0.34936331660E+02  0.17259886425E+02  0.50528863518E+02  0.30000011148E+02 0.  0.
        -12    1    1    2    0    0  0.11606654567E+02 -0.34936331660E+02 -0.17259886425E+02  0.40659136482E+02  0.00000000000E+00 0.  1.
         11    1    3    3    0    0 -0.35309818280E+01  0.61296661124E+01  0.12976649264E+02  0.14779515070E+02  0.51100000000E-03 0. -1.
        -11    1    3    3    0    0 -0.91610889097E+00  0.14837139561E+02  0.11183382509E+02  0.18602365722E+02  0.51100000000E-03 0.  1.
        -12    1    3    3    0    0 -0.71595638477E+01  0.13969525987E+02 -0.69001453479E+01  0.17146982726E+02  0.00000000000E+00 0.  1.
</event>
<event>
 7    1  0.6090311E-013  0.5052885E+02  0.7816164E-02  0.1300439E+00
        -11   -1    0    0    0    0  0.00000000000E+00  0.00000000000E+00  0.45593999997E+02  0.45594000000E+02  0.51100000000E-03 0.  1.
         11   -1    0    0    0    0 -0.00000000000E+00 -0.00000000000E+00 -0.45593999997E+02  0.45594000000E+02  0.51100000000E-03 0. -1.
    9900012    2    1    2    0    0 -0.14855079320E+02 -0.36613837232E+02 -0.95874882594E+01  0.50528851096E+02  0.29999973392E+02 0.  0.
        -12    1    1    2    0    0  0.14855079320E+02  0.36613837232E+02  0.95874882594E+01  0.40659148904E+02  0.00000000000E+00 0.  1.
         11    1    3    3    0    0 -0.14569857593E+01 -0.20007192224E+02 -0.14254584227E+02  0.24609017045E+02  0.51100000000E-03 0. -1.
        -11    1    3    3    0    0 -0.26199075225E+01  0.24071873580E+01  0.13877722344E+01  0.38189499131E+01  0.51100000000E-03 0.  1.
        -12    1    3    3    0    0 -0.10778186039E+02 -0.19013832366E+02  0.32793237329E+01  0.22100884138E+02  0.00000000000E+00 0.  1.
</event>
<event>
 7    1  0.6090311E-013  0.5052886E+02  0.7816164E-02  0.1300439E+00
        -11   -1    0    0    0    0  0.00000000000E+00  0.00000000000E+00  0.45593999997E+02  0.45594000000E+02  0.51100000000E-03 0. -1.
         11   -1    0    0    0    0 -0.00000000000E+00 -0.00000000000E+00 -0.45593999997E+02  0.45594000000E+02  0.51100000000E-03 0.  1.
    9900012    2    1    2    0    0 -0.40640514174E+02  0.12303584596E+01  0.26337944696E-01  0.50528857511E+02  0.29999992891E+02 0.  0.
        -12    1    1    2    0    0  0.40640514174E+02 -0.12303584596E+01 -0.26337944696E-01  0.40659142489E+02  0.00000000000E+00 0.  1.
         11    1    3    3    0    0 -0.11498463751E+02  0.36574233677E+01 -0.65458803736E+01  0.13727343678E+02  0.51100000000E-03 0. -1.
        -11    1    3    3    0    0 -0.20251099452E+02  0.84944624742E+01  0.57180529015E+01  0.22692709203E+02  0.51100000000E-03 0.  1.
        -12    1    3    3    0    0 -0.88909509707E+01 -0.10921527382E+02  0.85416541680E+00  0.14108804630E+02  0.00000000000E+00 0.  1.
</event>
<event>
 7    1  0.6090311E-013  0.5052886E+02  0.7816164E-02  0.1300439E+00
        -11   -1    0    0    0    0  0.00000000000E+00  0.00000000000E+00  0.45593999997E+02  0.45594000000E+02  0.51100000000E-03 0. -1.
         11   -1    0    0    0    0 -0.00000000000E+00 -0.00000000000E+00 -0.45593999997E+02  0.45594000000E+02  0.51100000000E-03 0.  1.
    9900012    2    1    2    0    0 -0.12234232356E+01  0.27769078518E+02  0.29674017116E+02  0.50528858618E+02  0.29999996254E+02 0.  0.
        -12    1    1    2    0    0  0.12234232356E+01 -0.27769078518E+02 -0.29674017116E+02  0.40659141382E+02  0.00000000000E+00 0.  1.
         11    1    3    3    0    0 -0.53785333007E+01  0.13902202181E+02  0.12688463346E+02  0.19575416938E+02  0.51100000000E-03 0. -1.
        -11    1    3    3    0    0 -0.87307447896E+01  0.61095857218E+01  0.88597063557E+01  0.13858114563E+02  0.51100000000E-03 0.  1.
         12    1    3    3    0    0  0.12885854855E+02  0.77572906156E+01  0.81258474145E+01  0.17095327117E+02  0.00000000000E+00 0. -1.
</event>
<event>
 7    1  0.6090311E-013  0.5052886E+02  0.7816164E-02  0.1300439E+00
        -11   -1    0    0    0    0  0.00000000000E+00  0.00000000000E+00  0.45593999997E+02  0.45594000000E+02  0.51100000000E-03 0.  1.
         11   -1    0    0    0    0 -0.00000000000E+00 -0.00000000000E+00 -0.45593999997E+02  0.45594000000E+02  0.51100000000E-03 0. -1.
    9900012    2    1    2    0    0  0.62268627811E+01 -0.32565984613E+02 -0.23533991901E+02  0.50528856518E+02  0.29999989873E+02 0.  0.
        -12    1    1    2    0    0 -0.62268627811E+01  0.32565984613E+02  0.23533991901E+02  0.40659143482E+02  0.00000000000E+00 0.  1.
         11    1    3    3    0    0 -0.46701940398E+00 -0.32028245710E+02 -0.13366230060E+02  0.34708539823E+02  0.51100000000E-03 0. -1.
        -11    1    3    3    0    0  0.17174571085E+01 -0.38890737616E+00  0.20051585315E+01  0.26686267750E+01  0.51100000000E-03 0.  1.
        -12    1    3    3    0    0  0.49764250766E+01 -0.14883152684E+00 -0.12172920372E+02  0.13151689920E+02  0.00000000000E+00 0.  1.
</event>
<event>
 7    1  0.6090311E-013  0.5052887E+02  0.7816164E-02  0.1300439E+00
        -11   -1    0    0    0    0  0.00000000000E+00  0.00000000000E+00  0.45593999997E+02  0.45594000000E+02  0.51100000000E-03 0.  1.
         11   -1    0    0    0    0 -0.00000000000E+00 -0.00000000000E+00 -0.45593999997E+02  0.45594000000E+02  0.51100000000E-03 0. -1.
    9900012    2    1    2    0    0  0.36155027782E+02  0.38834666633E+00 -0.18596449869E+02  0.50528870707E+02  0.30000033002E+02 0.  0.
        -12    1    1    2    0    0 -0.36155027782E+02 -0.38834666633E+00  0.18596449869E+02  0.40659129293E+02  0.00000000000E+00 0.  1.
         11    1    3    3    0    0  0.67642265877E+01 -0.10644741173E+01  0.21854933797E+01  0.71877846413E+01  0.51100000000E-03 0. -1.
        -11    1    3    3    0    0 -0.25653067628E+01  0.12035134415E+01  0.25188977552E+01  0.37913176540E+01  0.51100000000E-03 0.  1.
         12    1    3    3    0    0  0.31956107958E+02  0.24930734211E+00 -0.23300841004E+02  0.39549768412E+02  0.00000000000E+00 0. -1.
</event>
<event>
 7    1  0.6090311E-013  0.5052887E+02  0.7816164E-02  0.1300439E+00
        -11   -1    0    0    0    0  0.00000000000E+00  0.00000000000E+00  0.45593999997E+02  0.45594000000E+02  0.51100000000E-03 0.  1.
         11   -1    0    0    0    0 -0.00000000000E+00 -0.00000000000E+00 -0.45593999997E+02  0.45594000000E+02  0.51100000000E-03 0. -1.
    9900012    2    1    2    0    0  0.28017108090E+02  0.25847877601E+02 -0.14145461450E+02  0.50528865702E+02  0.30000017789E+02 0.  0.
        -12    1    1    2    0    0 -0.28017108090E+02 -0.25847877601E+02  0.14145461450E+02  0.40659134298E+02  0.00000000000E+00 0.  1.
         11    1    3    3    0    0  0.81019792369E+00  0.47519921366E+01 -0.28108375661E+01  0.55802023284E+01  0.51100000000E-03 0. -1.
        -11    1    3    3    0    0  0.80674748716E+01  0.39504268845E+01 -0.16455254991E+02  0.18747411567E+02  0.51100000000E-03 0.  1.
         12    1    3    3    0    0  0.19139435295E+02  0.17145458580E+02  0.51206311071E+01  0.26201251807E+02  0.00000000000E+00 0. -1.
</event>
<event>
 7    1  0.6090311E-013  0.5052881E+02  0.7816164E-02  0.1300439E+00
        -11   -1    0    0    0    0  0.00000000000E+00  0.00000000000E+00  0.45593999997E+02  0.45594000000E+02  0.51100000000E-03 0. -1.
         11   -1    0    0    0    0 -0.00000000000E+00 -0.00000000000E+00 -0.45593999997E+02  0.45594000000E+02  0.51100000000E-03 0.  1.
    9900012    2    1    2    0    0 -0.30488580188E+02 -0.82436855096E+01  0.25605823634E+02  0.50528805755E+02  0.29999835572E+02 0.  0.
        -12    1    1    2    0    0  0.30488580188E+02  0.82436855096E+01 -0.25605823634E+02  0.40659194245E+02  0.00000000000E+00 0.  1.
         11    1    3    3    0    0 -0.11103325207E+02  0.32181097602E+01  0.51007263261E+01  0.12635563715E+02  0.51100000000E-03 0. -1.
        -11    1    3    3    0    0 -0.72127408548E+01  0.32969488636E+00  0.19638618655E+02  0.20923854145E+02  0.51100000000E-03 0.  1.
         12    1    3    3    0    0 -0.12172514127E+02 -0.11791490156E+02  0.86647865315E+00  0.16969387895E+02  0.00000000000E+00 0. -1.
</event>
<event>
 7    1  0.6090311E-013  0.5052886E+02  0.7816164E-02  0.1300439E+00
        -11   -1    0    0    0    0  0.00000000000E+00  0.00000000000E+00  0.45593999997E+02  0.45594000000E+02  0.51100000000E-03 0.  1.
         11   -1    0    0    0    0 -0.00000000000E+00 -0.00000000000E+00 -0.45593999997E+02  0.45594000000E+02  0.51100000000E-03 0. -1.
    9900012    2    1    2    0    0  0.38642255293E+02 -0.45724217862E+01 -0.11791308911E+02  0.50528857105E+02  0.29999991657E+02 0.  0.
        -12    1    1    2    0    0 -0.38642255293E+02  0.45724217862E+01  0.11791308911E+02  0.40659142895E+02  0.00000000000E+00 0.  1.
         11    1    3    3    0    0 -0.29940438040E+01  0.10068833901E+01  0.15667784137E+01  0.35260328020E+01  0.51100000000E-03 0.  1.
        -11    1    3    3    0    0  0.22039745672E+02 -0.11124003727E+02 -0.78339558598E+01  0.25901056212E+02  0.51100000000E-03 0. -1.
        -12    1    3    3    0    0  0.19596553425E+02  0.55446985507E+01 -0.55241314645E+01  0.21101768091E+02  0.00000000000E+00 0.  1.
</event>
<event>
 7    1  0.6090311E-013  0.5052886E+02  0.7816164E-02  0.1300439E+00
        -11   -1    0    0    0    0  0.00000000000E+00  0.00000000000E+00  0.45593999997E+02  0.45594000000E+02  0.51100000000E-03 0. -1.
         11   -1    0    0    0    0 -0.00000000000E+00 -0.00000000000E+00 -0.45593999997E+02  0.45594000000E+02  0.51100000000E-03 0.  1.
    9900012    2    1    2    0    0  0.16003489276E+02  0.14815148056E+02 -0.34315674542E+02  0.50528858344E+02  0.29999995423E+02 0.  0.
        -12    1    1    2    0    0 -0.16003489276E+02 -0.14815148056E+02  0.34315674542E+02  0.40659141656E+02  0.00000000000E+00 0.  1.
         11    1    3    3    0    0 -0.20223176716E+01 -0.24453968683E+01 -0.13540318867E+02  0.13907191301E+02  0.51100000000E-03 0.  1.
        -11    1    3    3    0    0 -0.64978296090E+00 -0.18804068053E+01 -0.54443200720E+01  0.57964445100E+01  0.51100000000E-03 0. -1.
         12    1    3    3    0    0  0.18675589908E+02  0.19140951730E+02 -0.15331035603E+02  0.30825222533E+02  0.00000000000E+00 0. -1.
</event>
<event>
 7    1  0.6090311E-013  0.5052886E+02  0.7816164E-02  0.1300439E+00
        -11   -1    0    0    0    0  0.00000000000E+00  0.00000000000E+00  0.45593999997E+02  0.45594000000E+02  0.51100000000E-03 0.  1.
         11   -1    0    0    0    0 -0.00000000000E+00 -0.00000000000E+00 -0.45593999997E+02  0.45594000000E+02  0.51100000000E-03 0. -1.
    9900012    2    1    2    0    0 -0.39206337231E+02 -0.55610248794E+01  0.92251539982E+01  0.50528863965E+02  0.30000012509E+02 0.  0.
        -12    1    1    2    0    0  0.39206337231E+02  0.55610248794E+01 -0.92251539982E+01  0.40659136035E+02  0.00000000000E+00 0.  1.
         11    1    3    3    0    0 -0.10633736141E+02  0.20975341141E+01 -0.18804919452E+01  0.11000556526E+02  0.51100000000E-03 0. -1.
        -11    1    3    3    0    0 -0.83837586646E+01  0.82603955233E+01  0.69337232580E+00  0.11789924045E+02  0.51100000000E-03 0.  1.
        -12    1    3    3    0    0 -0.20188842426E+02 -0.15918954517E+02  0.10412273618E+02  0.27738383394E+02  0.00000000000E+00 0.  1.
</event>
<event>
 7    1  0.6090311E-013  0.5052887E+02  0.7816164E-02  0.1300439E+00
        -11   -1    0    0    0    0  0.00000000000E+00  0.00000000000E+00  0.45593999997E+02  0.45594000000E+02  0.51100000000E-03 0.  1.
         11   -1    0    0    0    0 -0.00000000000E+00 -0.00000000000E+00 -0.45593999997E+02  0.45594000000E+02  0.51100000000E-03 0. -1.
    9900012    2    1    2    0    0 -0.12302176417E+02  0.27257570187E+02 -0.27547168918E+02  0.50528865817E+02  0.30000018139E+02 0.  0.
        -12    1    1    2    0    0  0.12302176417E+02 -0.27257570187E+02  0.27547168918E+02  0.40659134183E+02  0.00000000000E+00 0.  1.
         11    1    3    3    0    0  0.68237092641E+01  0.35010082595E+01 -0.24863170424E+01  0.80623718378E+01  0.51100000000E-03 0. -1.
        -11    1    3    3    0    0 -0.44823278378E+01  0.83566005081E+01 -0.17512280537E+02  0.19914919150E+02  0.51100000000E-03 0.  1.
         12    1    3    3    0    0 -0.14643557844E+02  0.15399961419E+02 -0.75485713387E+01  0.22551574830E+02  0.00000000000E+00 0. -1.
</event>
<event>
 7    1  0.6090311E-013  0.5052886E+02  0.7816164E-02  0.1300439E+00
        -11   -1    0    0    0    0  0.00000000000E+00  0.00000000000E+00  0.45593999997E+02  0.45594000000E+02  0.51100000000E-03 0.  1.
         11   -1    0    0    0    0 -0.00000000000E+00 -0.00000000000E+00 -0.45593999997E+02  0.45594000000E+02  0.51100000000E-03 0. -1.
    9900012    2    1    2    0    0 -0.10783648136E+02  0.31992881660E+02 -0.22656874924E+02  0.50528861724E+02  0.30000005696E+02 0.  0.
        -12    1    1    2    0    0  0.10783648136E+02 -0.31992881660E+02  0.22656874924E+02  0.40659138276E+02  0.00000000000E+00 0.  1.
         11    1    3    3    0    0 -0.16549529967E+02  0.33305054649E+02 -0.22478871769E+02  0.43455877434E+02  0.51100000000E-03 0. -1.
        -11    1    3    3    0    0  0.56236244026E+00  0.11607970020E+01 -0.23688033920E+00  0.13114166959E+01  0.51100000000E-03 0.  1.
         12    1    3    3    0    0  0.52035193903E+01 -0.24729699908E+01  0.58877184420E-01  0.57615675943E+01  0.00000000000E+00 0. -1.
</event>
<event>
 7    1  0.6090311E-013  0.5052886E+02  0.7816164E-02  0.1300439E+00
        -11   -1    0    0    0    0  0.00000000000E+00  0.00000000000E+00  0.45593999997E+02  0.45594000000E+02  0.51100000000E-03 0.  1.
         11   -1    0    0    0    0 -0.00000000000E+00 -0.00000000000E+00 -0.45593999997E+02  0.45594000000E+02  0.51100000000E-03 0. -1.
    9900012    2    1    2    0    0  0.21773611598E+02  0.22471490620E+02 -0.25963584242E+02  0.50528858846E+02  0.29999996948E+02 0.  0.
        -12    1    1    2    0    0 -0.21773611598E+02 -0.22471490620E+02  0.25963584242E+02  0.40659141154E+02  0.00000000000E+00 0.  1.
         11    1    3    3    0    0  0.90530684050E+01  0.67213699035E+01 -0.12000081432E+02  0.16466232586E+02  0.51100000000E-03 0. -1.
        -11    1    3    3    0    0  0.11154785504E+02  0.21187181872E+02 -0.15077633965E+02  0.28295953096E+02  0.51100000000E-03 0.  1.
         12    1    3    3    0    0  0.15657576894E+01 -0.54370611561E+01  0.11141311556E+01  0.57666731648E+01  0.00000000000E+00 0. -1.
</event>
<event>
 7    1  0.6090311E-013  0.5052884E+02  0.7816164E-02  0.1300439E+00
        -11   -1    0    0    0    0  0.00000000000E+00  0.00000000000E+00  0.45593999997E+02  0.45594000000E+02  0.51100000000E-03 0.  1.
         11   -1    0    0    0    0 -0.00000000000E+00 -0.00000000000E+00 -0.45593999997E+02  0.45594000000E+02  0.51100000000E-03 0. -1.
    9900012    2    1    2    0    0 -0.23257445362E+02  0.27964923078E+02 -0.18171990034E+02  0.50528844704E+02  0.29999953964E+02 0.  0.
        -12    1    1    2    0    0  0.23257445362E+02 -0.27964923078E+02  0.18171990034E+02  0.40659155296E+02  0.00000000000E+00 0.  1.
         11    1    3    3    0    0 -0.15366868111E+01  0.33346105658E+01 -0.28317625290E+01  0.46367998946E+01  0.51100000000E-03 0. -1.
        -11    1    3    3    0    0 -0.22008210108E+02  0.92429747106E+01  0.40619411914E+00  0.23873811752E+02  0.51100000000E-03 0.  1.
        -12    1    3    3    0    0  0.28745155658E+00  0.15387337802E+02 -0.15746421624E+02  0.22018233058E+02  0.00000000000E+00 0.  1.
</event>
<event>
 7    1  0.6090311E-013  0.5052883E+02  0.7816164E-02  0.1300439E+00
        -11   -1    0    0    0    0  0.00000000000E+00  0.00000000000E+00  0.45593999997E+02  0.45594000000E+02  0.51100000000E-03 0. -1.
         11   -1    0    0    0    0 -0.00000000000E+00 -0.00000000000E+00 -0.45593999997E+02  0.45594000000E+02  0.51100000000E-03 0.  1.
    9900012    2    1    2    0    0 -0.12587983287E+02 -0.17245196678E+02  0.34602220606E+02  0.50528833720E+02  0.29999920576E+02 0.  0.
        -12    1    1    2    0    0  0.12587983287E+02  0.17245196678E+02 -0.34602220606E+02  0.40659166280E+02  0.00000000000E+00 0.  1.
         11    1    3    3    0    0 -0.12383885185E+02  0.23993986970E+01  0.10170915006E+02  0.16203864931E+02  0.51100000000E-03 0. -1.
        -11    1    3    3    0    0 -0.11370192624E+01  0.16117406478E+01  0.55080363114E+01  0.58505542462E+01  0.51100000000E-03 0.  1.
        -12    1    3    3    0    0  0.93292116066E+00 -0.21256336023E+02  0.18923269288E+02  0.28474414543E+02  0.00000000000E+00 0.  1.
</event>
<event>
 7    1  0.6090311E-013  0.5052886E+02  0.7816164E-02  0.1300439E+00
        -11   -1    0    0    0    0  0.00000000000E+00  0.00000000000E+00  0.45593999997E+02  0.45594000000E+02  0.51100000000E-03 0. -1.
         11   -1    0    0    0    0 -0.00000000000E+00 -0.00000000000E+00 -0.45593999997E+02  0.45594000000E+02  0.51100000000E-03 0.  1.
    9900012    2    1    2    0    0 -0.33580933330E+02 -0.21908011151E+02  0.67472517312E+01  0.50528862751E+02  0.30000008819E+02 0.  0.
        -12    1    1    2    0    0  0.33580933330E+02  0.21908011151E+02 -0.67472517312E+01  0.40659137249E+02  0.00000000000E+00 0.  1.
         11    1    3    3    0    0 -0.10443485719E+02 -0.98343075217E+01 -0.22043637527E+01  0.14513415112E+02  0.51100000000E-03 0. -1.
        -11    1    3    3    0    0 -0.19527002957E+02 -0.81103482437E+01 -0.44268242930E+01  0.21602739796E+02  0.51100000000E-03 0.  1.
        -12    1    3    3    0    0 -0.36104446533E+01 -0.39633553858E+01  0.13378439777E+02  0.14412707843E+02  0.00000000000E+00 0.  1.
</event>
<event>
 7    1  0.6090311E-013  0.5052886E+02  0.7816164E-02  0.1300439E+00
        -11   -1    0    0    0    0  0.00000000000E+00  0.00000000000E+00  0.45593999997E+02  0.45594000000E+02  0.51100000000E-03 0. -1.
         11   -1    0    0    0    0 -0.00000000000E+00 -0.00000000000E+00 -0.45593999997E+02  0.45594000000E+02  0.51100000000E-03 0.  1.
    9900012    2    1    2    0    0 -0.11199179334E+02 -0.38823055548E+02 -0.45292775254E+01  0.50528860625E+02  0.30000002355E+02 0.  0.
        -12    1    1    2    0    0  0.11199179334E+02  0.38823055548E+02  0.45292775254E+01  0.40659139375E+02  0.00000000000E+00 0.  1.
         11    1    3    3    0    0 -0.37256779246E+01 -0.23231432299E+02  0.18195536047E+01  0.23598535935E+02  0.51100000000E-03 0. -1.
        -11    1    3    3    0    0  0.65941843968E+01 -0.28256829099E+01 -0.18219432162E+01  0.74018395761E+01  0.51100000000E-03 0.  1.
         12    1    3    3    0    0 -0.14067685806E+02 -0.12765940339E+02 -0.45268879139E+01  0.19528485114E+02  0.00000000000E+00 0. -1.
</event>
<event>
 7    1  0.6090311E-013  0.5052886E+02  0.7816164E-02  0.1300439E+00
        -11   -1    0    0    0    0  0.00000000000E+00  0.00000000000E+00  0.45593999997E+02  0.45594000000E+02  0.51100000000E-03 0.  1.
         11   -1    0    0    0    0 -0.00000000000E+00 -0.00000000000E+00 -0.45593999997E+02  0.45594000000E+02  0.51100000000E-03 0. -1.
    9900012    2    1    2    0    0  0.32345383311E+02 -0.15705029226E+02 -0.18981416914E+02  0.50528856470E+02  0.29999989726E+02 0.  0.
        -12    1    1    2    0    0 -0.32345383311E+02  0.15705029226E+02  0.18981416914E+02  0.40659143530E+02  0.00000000000E+00 0.  1.
         11    1    3    3    0    0  0.49634151765E+01 -0.93670745848E+01 -0.29508902818E+01  0.11003877962E+02  0.51100000000E-03 0. -1.
        -11    1    3    3    0    0  0.16329078929E+02  0.16330111360E+01  0.24195439092E+01  0.16587939505E+02  0.51100000000E-03 0.  1.
         12    1    3    3    0    0  0.11052889205E+02 -0.79709657775E+01 -0.18450070541E+02  0.22937039002E+02  0.00000000000E+00 0. -1.
</event>
<event>
 7    1  0.6090311E-013  0.5052886E+02  0.7816164E-02  0.1300439E+00
        -11   -1    0    0    0    0  0.00000000000E+00  0.00000000000E+00  0.45593999997E+02  0.45594000000E+02  0.51100000000E-03 0.  1.
         11   -1    0    0    0    0 -0.00000000000E+00 -0.00000000000E+00 -0.45593999997E+02  0.45594000000E+02  0.51100000000E-03 0. -1.
    9900012    2    1    2    0    0  0.22830337801E+02 -0.21016632208E+02 -0.26272466600E+02  0.50528860133E+02  0.30000000861E+02 0.  0.
        -12    1    1    2    0    0 -0.22830337801E+02  0.21016632208E+02  0.26272466600E+02  0.40659139867E+02  0.00000000000E+00 0.  1.
         11    1    3    3    0    0  0.21972328904E+01 -0.97055687872E-01  0.12285921372E+01  0.25192639961E+01  0.51100000000E-03 0.  1.
        -11    1    3    3    0    0 -0.42252302040E+01  0.21491121437E+00 -0.10277938467E+02  0.11114619944E+02  0.51100000000E-03 0. -1.
         12    1    3    3    0    0  0.24858335114E+02 -0.21134487734E+02 -0.17223120271E+02  0.36894976193E+02  0.00000000000E+00 0. -1.
</event>
<event>
 7    1  0.6090311E-013  0.5052884E+02  0.7816164E-02  0.1300439E+00
        -11   -1    0    0    0    0  0.00000000000E+00  0.00000000000E+00  0.45593999997E+02  0.45594000000E+02  0.51100000000E-03 0.  1.
         11   -1    0    0    0    0 -0.00000000000E+00 -0.00000000000E+00 -0.45593999997E+02  0.45594000000E+02  0.51100000000E-03 0. -1.
    9900012    2    1    2    0    0 -0.77374433818E+01  0.37264496430E+02 -0.14305811301E+02  0.50528844066E+02  0.29999952023E+02 0.  0.
        -12    1    1    2    0    0  0.77374433818E+01 -0.37264496430E+02  0.14305811301E+02  0.40659155934E+02  0.00000000000E+00 0.  1.
         11    1    3    3    0    0  0.27748738569E+01  0.28557751077E+01  0.90366961473E-01  0.39829063304E+01  0.51100000000E-03 0. -1.
        -11    1    3    3    0    0  0.13960033343E+01  0.24791538049E+02  0.97945654576E+00  0.24850121117E+02  0.51100000000E-03 0.  1.
        -12    1    3    3    0    0 -0.11908320573E+02  0.96171832734E+01 -0.15375634808E+02  0.21695816618E+02  0.00000000000E+00 0.  1.
</event>
<event>
 7    1  0.6090311E-013  0.5052887E+02  0.7816164E-02  0.1300439E+00
        -11   -1    0    0    0    0  0.00000000000E+00  0.00000000000E+00  0.45593999997E+02  0.45594000000E+02  0.51100000000E-03 0.  1.
         11   -1    0    0    0    0 -0.00000000000E+00 -0.00000000000E+00 -0.45593999997E+02  0.45594000000E+02  0.51100000000E-03 0. -1.
    9900012    2    1    2    0    0  0.34036704227E+02 -0.14002344193E+02 -0.17280102917E+02  0.50528870221E+02  0.30000031525E+02 0.  0.
        -12    1    1    2    0    0 -0.34036704227E+02  0.14002344193E+02  0.17280102917E+02  0.40659129779E+02  0.00000000000E+00 0.  1.
         11    1    3    3    0    0  0.27587876189E+02 -0.77588886025E+01 -0.13909703901E+02  0.31855472494E+02  0.51100000000E-03 0. -1.
        -11    1    3    3    0    0  0.31517975622E+01 -0.41750469570E+01 -0.98280377174E+01  0.11133515644E+02  0.51100000000E-03 0.  1.
        -12    1    3    3    0    0  0.32970304762E+01 -0.20684086333E+01  0.64576387012E+01  0.75398820833E+01  0.00000000000E+00 0.  1.
</event>
<event>
 7    1  0.6090311E-013  0.5052887E+02  0.7816164E-02  0.1300439E+00
        -11   -1    0    0    0    0  0.00000000000E+00  0.00000000000E+00  0.45593999997E+02  0.45594000000E+02  0.51100000000E-03 0. -1.
         11   -1    0    0    0    0 -0.00000000000E+00 -0.00000000000E+00 -0.45593999997E+02  0.45594000000E+02  0.51100000000E-03 0.  1.
    9900012    2    1    2    0    0 -0.33980685344E+02  0.22193700861E+02 -0.24325159778E+01  0.50528874722E+02  0.30000045206E+02 0.  0.
        -12    1    1    2    0    0  0.33980685344E+02 -0.22193700861E+02  0.24325159778E+01  0.40659125278E+02  0.00000000000E+00 0.  1.
         11    1    3    3    0    0 -0.12132059042E+02  0.14860105112E+02  0.35330296655E+01  0.19506201050E+02  0.51100000000E-03 0. -1.
        -11    1    3    3    0    0 -0.17579470051E+02  0.13746830911E+02 -0.21332949387E+01  0.22417940916E+02  0.51100000000E-03 0.  1.
        -12    1    3    3    0    0 -0.42691562509E+01 -0.64132351619E+01 -0.38322507045E+01  0.86047327558E+01  0.00000000000E+00 0.  1.
</event>
<event>
 7    1  0.6090311E-013  0.5052885E+02  0.7816164E-02  0.1300439E+00
        -11   -1    0    0    0    0  0.00000000000E+00  0.00000000000E+00  0.45593999997E+02  0.45594000000E+02  0.51100000000E-03 0. -1.
         11   -1    0    0    0    0 -0.00000000000E+00 -0.00000000000E+00 -0.45593999997E+02  0.45594000000E+02  0.51100000000E-03 0.  1.
    9900012    2    1    2    0    0 -0.10581176374E+02  0.39143102539E+02 -0.30037206922E+01  0.50528854561E+02  0.29999983922E+02 0.  0.
        -12    1    1    2    0    0  0.10581176374E+02 -0.39143102539E+02  0.30037206922E+01  0.40659145439E+02  0.00000000000E+00 0.  1.
         11    1    3    3    0    0  0.75561138318E+01  0.24520958998E+02 -0.49171816657E+01  0.26125676301E+02  0.51100000000E-03 0. -1.
        -11    1    3    3    0    0  0.13807204593E+00 -0.47585878188E+00  0.42238400939E+00  0.65108677046E+00  0.51100000000E-03 0.  1.
         12    1    3    3    0    0 -0.18275362251E+02  0.15098002324E+02  0.14910769641E+01  0.23752091489E+02  0.00000000000E+00 0. -1.
</event>
<event>
 7    1  0.6090311E-013  0.5052886E+02  0.7816164E-02  0.1300439E+00
        -11   -1    0    0    0    0  0.00000000000E+00  0.00000000000E+00  0.45593999997E+02  0.45594000000E+02  0.51100000000E-03 0.  1.
         11   -1    0    0    0    0 -0.00000000000E+00 -0.00000000000E+00 -0.45593999997E+02  0.45594000000E+02  0.51100000000E-03 0. -1.
    9900012    2    1    2    0    0  0.10085086941E+02 -0.10936703765E+02 -0.37839727391E+02  0.50528862812E+02  0.30000009004E+02 0.  0.
        -12    1    1    2    0    0 -0.10085086941E+02  0.10936703765E+02  0.37839727391E+02  0.40659137188E+02  0.00000000000E+00 0.  1.
         11    1    3    3    0    0  0.62026603604E+01 -0.14413500878E+01 -0.23872916508E+02  0.24707622882E+02  0.51100000000E-03 0.  1.
        -11    1    3    3    0    0  0.29626989511E+01 -0.50486763371E+01 -0.18500555310E+02  0.19404568144E+02  0.51100000000E-03 0. -1.
        -12    1    3    3    0    0  0.91972762999E+00 -0.44466773399E+01  0.45337444273E+01  0.64166717861E+01  0.00000000000E+00 0.  1.
</event>
<event>
 7    1  0.6090311E-013  0.5052886E+02  0.7816164E-02  0.1300439E+00
        -11   -1    0    0    0    0  0.00000000000E+00  0.00000000000E+00  0.45593999997E+02  0.45594000000E+02  0.51100000000E-03 0.  1.
         11   -1    0    0    0    0 -0.00000000000E+00 -0.00000000000E+00 -0.45593999997E+02  0.45594000000E+02  0.51100000000E-03 0. -1.
    9900012    2    1    2    0    0 -0.30906380854E+02 -0.13043650848E+02 -0.22974439060E+02  0.50528855210E+02  0.29999985897E+02 0.  0.
        -12    1    1    2    0    0  0.30906380854E+02  0.13043650848E+02  0.22974439060E+02  0.40659144790E+02  0.00000000000E+00 0.  1.
         11    1    3    3    0    0 -0.61849623719E+01 -0.27866751389E+01  0.51773169538E+01  0.85336937473E+01  0.51100000000E-03 0. -1.
        -11    1    3    3    0    0 -0.70300393346E+01 -0.71518422799E+01 -0.19317269199E+01  0.10212828707E+02  0.51100000000E-03 0.  1.
         12    1    3    3    0    0 -0.17691379147E+02 -0.31051334290E+01 -0.26220029094E+02  0.31782332756E+02  0.00000000000E+00 0. -1.
</event>
<event>
 7    1  0.6090311E-013  0.5052885E+02  0.7816164E-02  0.1300439E+00
        -11   -1    0    0    0    0  0.00000000000E+00  0.00000000000E+00  0.45593999997E+02  0.45594000000E+02  0.51100000000E-03 0.  1.
         11   -1    0    0    0    0 -0.00000000000E+00 -0.00000000000E+00 -0.45593999997E+02  0.45594000000E+02  0.51100000000E-03 0. -1.
    9900012    2    1    2    0    0  0.29299034927E+00 -0.59069456773E+01 -0.40226715258E+02  0.50528850095E+02  0.29999970348E+02 0.  0.
        -12    1    1    2    0    0 -0.29299034927E+00  0.59069456773E+01  0.40226715258E+02  0.40659149905E+02  0.00000000000E+00 0.  1.
         11    1    3    3    0    0 -0.21037711546E+00  0.13135708285E+01 -0.16780789573E+02  0.16833437730E+02  0.51100000000E-03 0. -1.
        -11    1    3    3    0    0 -0.97664400026E+01 -0.56726721796E+00 -0.17595309368E+02  0.20132065330E+02  0.51100000000E-03 0.  1.
        -12    1    3    3    0    0  0.10269807467E+02 -0.66532492879E+01 -0.58506163163E+01  0.13563347035E+02  0.00000000000E+00 0.  1.
</event>
<event>
 7    1  0.6090311E-013  0.5052886E+02  0.7816164E-02  0.1300439E+00
        -11   -1    0    0    0    0  0.00000000000E+00  0.00000000000E+00  0.45593999997E+02  0.45594000000E+02  0.51100000000E-03 0.  1.
         11   -1    0    0    0    0 -0.00000000000E+00 -0.00000000000E+00 -0.45593999997E+02  0.45594000000E+02  0.51100000000E-03 0. -1.
    9900012    2    1    2    0    0  0.13415394364E+02 -0.10690253652E+02 -0.36863415683E+02  0.50528859024E+02  0.29999997489E+02 0.  0.
        -12    1    1    2    0    0 -0.13415394364E+02  0.10690253652E+02  0.36863415683E+02  0.40659140976E+02  0.00000000000E+00 0.  1.
         11    1    3    3    0    0 -0.10997058783E+01 -0.58970424490E+01 -0.23016170832E+01  0.64250995419E+01  0.51100000000E-03 0. -1.
        -11    1    3    3    0    0 -0.42104008965E+01 -0.64470092300E+01 -0.53879213245E+01  0.93979306329E+01  0.51100000000E-03 0.  1.
         12    1    3    3    0    0  0.18725501139E+02  0.16537980268E+01 -0.29173877275E+02  0.34705828849E+02  0.00000000000E+00 0. -1.
</event>
<event>
 7    1  0.6090311E-013  0.5052886E+02  0.7816164E-02  0.1300439E+00
        -11   -1    0    0    0    0  0.00000000000E+00  0.00000000000E+00  0.45593999997E+02  0.45594000000E+02  0.51100000000E-03 0.  1.
         11   -1    0    0    0    0 -0.00000000000E+00 -0.00000000000E+00 -0.45593999997E+02  0.45594000000E+02  0.51100000000E-03 0. -1.
    9900012    2    1    2    0    0 -0.25919248314E+02  0.28043400423E+02 -0.13961574665E+02  0.50528864402E+02  0.30000013837E+02 0.  0.
        -12    1    1    2    0    0  0.25919248314E+02 -0.28043400423E+02  0.13961574665E+02  0.40659135598E+02  0.00000000000E+00 0.  1.
         11    1    3    3    0    0 -0.12702729955E+02 -0.34636479882E+01 -0.66266526100E+01  0.14740038357E+02  0.51100000000E-03 0. -1.
        -11    1    3    3    0    0 -0.81002501790E+01  0.10430320273E+02 -0.12654285666E+01  0.13266760859E+02  0.51100000000E-03 0.  1.
        -12    1    3    3    0    0 -0.51162681802E+01  0.21076728137E+02 -0.60694934887E+01  0.22522065187E+02  0.00000000000E+00 0.  1.
</event>
<event>
 7    1  0.6090311E-013  0.5052886E+02  0.7816164E-02  0.1300439E+00
        -11   -1    0    0    0    0  0.00000000000E+00  0.00000000000E+00  0.45593999997E+02  0.45594000000E+02  0.51100000000E-03 0. -1.
         11   -1    0    0    0    0 -0.00000000000E+00 -0.00000000000E+00 -0.45593999997E+02  0.45594000000E+02  0.51100000000E-03 0.  1.
    9900012    2    1    2    0    0 -0.19926231280E+02 -0.35393283256E+02 -0.18510111871E+01  0.50528862834E+02  0.30000009071E+02 0.  0.
        -12    1    1    2    0    0  0.19926231280E+02  0.35393283256E+02  0.18510111871E+01  0.40659137166E+02  0.00000000000E+00 0.  1.
         11    1    3    3    0    0  0.16013349481E+01 -0.74240399547E+01  0.77298482568E+01  0.10836567593E+02  0.51100000000E-03 0. -1.
        -11    1    3    3    0    0 -0.11012736375E+01  0.19785181142E+01 -0.69411587878E+00  0.23683611776E+01  0.51100000000E-03 0.  1.
         12    1    3    3    0    0 -0.20426292590E+02 -0.29947761416E+02 -0.88867435652E+01  0.37323934064E+02  0.00000000000E+00 0. -1.
</event>
<event>
 7    1  0.6090311E-013  0.5052886E+02  0.7816164E-02  0.1300439E+00
        -11   -1    0    0    0    0  0.00000000000E+00  0.00000000000E+00  0.45593999997E+02  0.45594000000E+02  0.51100000000E-03 0.  1.
         11   -1    0    0    0    0 -0.00000000000E+00 -0.00000000000E+00 -0.45593999997E+02  0.45594000000E+02  0.51100000000E-03 0. -1.
    9900012    2    1    2    0    0  0.17943295652E+01 -0.38073334700E+02 -0.14155121882E+02  0.50528857002E+02  0.29999991345E+02 0.  0.
        -12    1    1    2    0    0 -0.17943295652E+01  0.38073334700E+02  0.14155121882E+02  0.40659142998E+02  0.00000000000E+00 0.  1.
         11    1    3    3    0    0 -0.27418061159E+01 -0.84296977141E+01 -0.15139762409E+01  0.89927431103E+01  0.51100000000E-03 0. -1.
        -11    1    3    3    0    0  0.29173126572E+01 -0.32563282492E+02 -0.48391587936E+01  0.33049894673E+02  0.51100000000E-03 0.  1.
        -12    1    3    3    0    0  0.16188230240E+01  0.29196455059E+01 -0.78019868479E+01  0.84862192193E+01  0.00000000000E+00 0.  1.
</event>
<event>
 7    1  0.6090311E-013  0.5052886E+02  0.7816164E-02  0.1300439E+00
        -11   -1    0    0    0    0  0.00000000000E+00  0.00000000000E+00  0.45593999997E+02  0.45594000000E+02  0.51100000000E-03 0.  1.
         11   -1    0    0    0    0 -0.00000000000E+00 -0.00000000000E+00 -0.45593999997E+02  0.45594000000E+02  0.51100000000E-03 0. -1.
    9900012    2    1    2    0    0 -0.22265471263E+02  0.21913804300E+02 -0.26023061055E+02  0.50528859132E+02  0.29999997817E+02 0.  0.
        -12    1    1    2    0    0  0.22265471263E+02 -0.21913804300E+02  0.26023061055E+02  0.40659140868E+02  0.00000000000E+00 0.  1.
         11    1    3    3    0    0 -0.24011713089E+00 -0.62858065756E+00  0.18885924464E+01  0.20048819340E+01  0.51100000000E-03 0. -1.
        -11    1    3    3    0    0 -0.47799149895E+01  0.15307967437E+02 -0.24847398644E+02  0.29573208720E+02  0.51100000000E-03 0.  1.
         12    1    3    3    0    0 -0.17245439142E+02  0.72344175209E+01 -0.30642548573E+01  0.18950768478E+02  0.00000000000E+00 0. -1.
</event>
<event>
 7    1  0.6090311E-013  0.5052886E+02  0.7816164E-02  0.1300439E+00
        -11   -1    0    0    0    0  0.00000000000E+00  0.00000000000E+00  0.45593999997E+02  0.45594000000E+02  0.51100000000E-03 0. -1.
         11   -1    0    0    0    0 -0.00000000000E+00 -0.00000000000E+00 -0.45593999997E+02  0.45594000000E+02  0.51100000000E-03 0.  1.
    9900012    2    1    2    0    0 -0.10832455137E+02  0.37574264294E+02  0.11135446930E+02  0.50528860808E+02  0.30000002912E+02 0.  0.
        -12    1    1    2    0    0  0.10832455137E+02 -0.37574264294E+02 -0.11135446930E+02  0.40659139192E+02  0.00000000000E+00 0.  1.
         11    1    3    3    0    0  0.42305649079E+01  0.11347108021E+02 -0.52728484487E+01  0.13208234965E+02  0.51100000000E-03 0.  1.
        -11    1    3    3    0    0  0.18333102350E+01  0.71250009874E+01  0.75119470113E+00  0.73953336117E+01  0.51100000000E-03 0. -1.
        -12    1    3    3    0    0 -0.16896330280E+02  0.19102155286E+02  0.15657100677E+02  0.29925292231E+02  0.00000000000E+00 0.  1.
</event>
<event>
 7    1  0.6090311E-013  0.5052882E+02  0.7816164E-02  0.1300439E+00
        -11   -1    0    0    0    0  0.00000000000E+00  0.00000000000E+00  0.45593999997E+02  0.45594000000E+02  0.51100000000E-03 0.  1.
         11   -1    0    0    0    0 -0.00000000000E+00 -0.00000000000E+00 -0.45593999997E+02  0.45594000000E+02  0.51100000000E-03 0. -1.
    9900012    2    1    2    0    0  0.15363211393E+02  0.96534371309E+01 -0.36386144523E+02  0.50528823595E+02  0.29999889798E+02 0.  0.
        -12    1    1    2    0    0 -0.15363211393E+02 -0.96534371309E+01  0.36386144523E+02  0.40659176405E+02  0.00000000000E+00 0.  1.
         11    1    3    3    0    0  0.87762417932E+01 -0.86229769659E+00 -0.51398203920E+01  0.10207043218E+02  0.51100000000E-03 0. -1.
        -11    1    3    3    0    0  0.47570277255E+01  0.12753653502E+02 -0.59411398406E+01  0.14852007720E+02  0.51100000000E-03 0.  1.
         12    1    3    3    0    0  0.18299418743E+01 -0.22379186748E+01 -0.25305184290E+02  0.25469772657E+02  0.00000000000E+00 0. -1.
</event>
<event>
 7    1  0.6090311E-013  0.5052886E+02  0.7816164E-02  0.1300439E+00
        -11   -1    0    0    0    0  0.00000000000E+00  0.00000000000E+00  0.45593999997E+02  0.45594000000E+02  0.51100000000E-03 0.  1.
         11   -1    0    0    0    0 -0.00000000000E+00 -0.00000000000E+00 -0.45593999997E+02  0.45594000000E+02  0.51100000000E-03 0. -1.
    9900012    2    1    2    0    0 -0.35333078312E+02  0.10868294230E+02 -0.16929845666E+02  0.50528856910E+02  0.29999991064E+02 0.  0.
        -12    1    1    2    0    0  0.35333078312E+02 -0.10868294230E+02  0.16929845666E+02  0.40659143090E+02  0.00000000000E+00 0.  1.
         11    1    3    3    0    0  0.25176346197E+01  0.40564899770E+00  0.22394226829E+01  0.33938251872E+01  0.51100000000E-03 0. -1.
        -11    1    3    3    0    0 -0.16193499042E+01 -0.29326730636E+01 -0.49410351544E+01  0.59696477340E+01  0.51100000000E-03 0.  1.
         12    1    3    3    0    0 -0.36231363028E+02  0.13395318296E+02 -0.14228233195E+02  0.41165383989E+02  0.00000000000E+00 0. -1.
</event>
<event>
 7    1  0.6090311E-013  0.5052888E+02  0.7816164E-02  0.1300439E+00
        -11   -1    0    0    0    0  0.00000000000E+00  0.00000000000E+00  0.45593999997E+02  0.45594000000E+02  0.51100000000E-03 0. -1.
         11   -1    0    0    0    0 -0.00000000000E+00 -0.00000000000E+00 -0.45593999997E+02  0.45594000000E+02  0.51100000000E-03 0.  1.
    9900012    2    1    2    0    0  0.32134749081E+02  0.16999281815E+02 -0.18208424997E+02  0.50528875297E+02  0.30000046953E+02 0.  0.
        -12    1    1    2    0    0 -0.32134749081E+02 -0.16999281815E+02  0.18208424997E+02  0.40659124703E+02  0.00000000000E+00 0.  1.
         11    1    3    3    0    0  0.53544787661E+01  0.79944958984E+01 -0.82020887057E+00  0.96568706307E+01  0.51100000000E-03 0.  1.
        -11    1    3    3    0    0  0.15152837567E+02  0.76824285500E+01  0.31073160206E+01  0.17270889029E+02  0.51100000000E-03 0. -1.
        -12    1    3    3    0    0  0.11627432749E+02  0.13223573667E+01 -0.20495532147E+02  0.23601115637E+02  0.00000000000E+00 0.  1.
</event>
<event>
 7    1  0.6090311E-013  0.5052885E+02  0.7816164E-02  0.1300439E+00
        -11   -1    0    0    0    0  0.00000000000E+00  0.00000000000E+00  0.45593999997E+02  0.45594000000E+02  0.51100000000E-03 0.  1.
         11   -1    0    0    0    0 -0.00000000000E+00 -0.00000000000E+00 -0.45593999997E+02  0.45594000000E+02  0.51100000000E-03 0. -1.
    9900012    2    1    2    0    0 -0.18705542549E+02  0.33717198854E+02 -0.12900359348E+02  0.50528854757E+02  0.29999984519E+02 0.  0.
        -12    1    1    2    0    0  0.18705542549E+02 -0.33717198854E+02  0.12900359348E+02  0.40659145243E+02  0.00000000000E+00 0.  1.
         11    1    3    3    0    0 -0.75432538855E+01  0.92869319261E+01 -0.10987319529E+02  0.16244044277E+02  0.51100000000E-03 0. -1.
        -11    1    3    3    0    0 -0.14523695816E+02  0.21123223815E+02 -0.77506367757E+01  0.26780602966E+02  0.51100000000E-03 0.  1.
        -12    1    3    3    0    0  0.33614071524E+01  0.33070431123E+01  0.58375969569E+01  0.75042075145E+01  0.00000000000E+00 0.  1.
</event>
<event>
 7    1  0.6090311E-013  0.5052886E+02  0.7816164E-02  0.1300439E+00
        -11   -1    0    0    0    0  0.00000000000E+00  0.00000000000E+00  0.45593999997E+02  0.45594000000E+02  0.51100000000E-03 0.  1.
         11   -1    0    0    0    0 -0.00000000000E+00 -0.00000000000E+00 -0.45593999997E+02  0.45594000000E+02  0.51100000000E-03 0. -1.
    9900012    2    1    2    0    0  0.29695142169E+02 -0.99316108717E+01 -0.25936989232E+02  0.50528858674E+02  0.29999996425E+02 0.  0.
        -12    1    1    2    0    0 -0.29695142169E+02  0.99316108717E+01  0.25936989232E+02  0.40659141326E+02  0.00000000000E+00 0.  1.
         11    1    3    3    0    0  0.12091527955E+02  0.39607573287E+01 -0.15089731741E+02  0.19738101509E+02  0.51100000000E-03 0. -1.
        -11    1    3    3    0    0  0.75427467211E+01  0.41697877031E+00  0.33484120114E+01  0.82630964325E+01  0.51100000000E-03 0.  1.
        -12    1    3    3    0    0  0.10060867493E+02 -0.14309346971E+02 -0.14195669503E+02  0.22527660733E+02  0.00000000000E+00 0.  1.
</event>
<event>
 7    1  0.6090311E-013  0.5052886E+02  0.7816164E-02  0.1300439E+00
        -11   -1    0    0    0    0  0.00000000000E+00  0.00000000000E+00  0.45593999997E+02  0.45594000000E+02  0.51100000000E-03 0. -1.
         11   -1    0    0    0    0 -0.00000000000E+00 -0.00000000000E+00 -0.45593999997E+02  0.45594000000E+02  0.51100000000E-03 0.  1.
    9900012    2    1    2    0    0  0.76007629798E+01  0.37950390484E+02  0.12456396910E+02  0.50528861301E+02  0.30000004411E+02 0.  0.
        -12    1    1    2    0    0 -0.76007629798E+01 -0.37950390484E+02 -0.12456396910E+02  0.40659138699E+02  0.00000000000E+00 0.  1.
         11    1    3    3    0    0  0.14817709727E+01  0.71564117316E+01  0.13014935999E+02  0.14926434048E+02  0.51100000000E-03 0. -1.
        -11    1    3    3    0    0  0.42779534851E+01  0.15074949587E+02  0.80170418586E+01  0.17601930335E+02  0.51100000000E-03 0.  1.
        -12    1    3    3    0    0  0.18410385220E+01  0.15719029165E+02 -0.85755809474E+01  0.18000496918E+02  0.00000000000E+00 0.  1.
</event>
<event>
 7    1  0.6090311E-013  0.5052886E+02  0.7816164E-02  0.1300439E+00
        -11   -1    0    0    0    0  0.00000000000E+00  0.00000000000E+00  0.45593999997E+02  0.45594000000E+02  0.51100000000E-03 0.  1.
         11   -1    0    0    0    0 -0.00000000000E+00 -0.00000000000E+00 -0.45593999997E+02  0.45594000000E+02  0.51100000000E-03 0. -1.
    9900012    2    1    2    0    0 -0.90477123869E+01 -0.46431271194E+01 -0.39366807989E+02  0.50528864494E+02  0.30000014115E+02 0.  0.
        -12    1    1    2    0    0  0.90477123869E+01  0.46431271194E+01  0.39366807989E+02  0.40659135506E+02  0.00000000000E+00 0.  1.
         11    1    3    3    0    0 -0.10953229500E+02  0.18471752778E+01 -0.11112078819E+02  0.15711893232E+02  0.51100000000E-03 0. -1.
        -11    1    3    3    0    0  0.13427615298E+01  0.50230098527E+01 -0.19932938931E+02  0.20599895417E+02  0.51100000000E-03 0.  1.
        -12    1    3    3    0    0  0.56275558306E+00 -0.11513312250E+02 -0.83217902393E+01  0.14217075845E+02  0.00000000000E+00 0.  1.
</event>
<event>
 7    1  0.6090311E-013  0.5052886E+02  0.7816164E-02  0.1300439E+00
        -11   -1    0    0    0    0  0.00000000000E+00  0.00000000000E+00  0.45593999997E+02  0.45594000000E+02  0.51100000000E-03 0. -1.
         11   -1    0    0    0    0 -0.00000000000E+00 -0.00000000000E+00 -0.45593999997E+02  0.45594000000E+02  0.51100000000E-03 0.  1.
    9900012    2    1    2    0    0  0.12380073847E+00 -0.42661382762E+01  0.40434519897E+02  0.50528860047E+02  0.30000000600E+02 0.  0.
        -12    1    1    2    0    0 -0.12380073847E+00  0.42661382762E+01 -0.40434519897E+02  0.40659139953E+02  0.00000000000E+00 0.  1.
         11    1    3    3    0    0 -0.42554055453E+01 -0.64462686862E+01  0.77225829721E+01  0.10922506322E+02  0.51100000000E-03 0. -1.
        -11    1    3    3    0    0 -0.12666063771E+01 -0.43202159272E+01 -0.11667053026E+01  0.46507804610E+01  0.51100000000E-03 0.  1.
        -12    1    3    3    0    0  0.56458126608E+01  0.65003463372E+01  0.33878642227E+02  0.34955573265E+02  0.00000000000E+00 0.  1.
</event>
<event>
 7    1  0.6090311E-013  0.5052887E+02  0.7816164E-02  0.1300439E+00
        -11   -1    0    0    0    0  0.00000000000E+00  0.00000000000E+00  0.45593999997E+02  0.45594000000E+02  0.51100000000E-03 0. -1.
         11   -1    0    0    0    0 -0.00000000000E+00 -0.00000000000E+00 -0.45593999997E+02  0.45594000000E+02  0.51100000000E-03 0.  1.
    9900012    2    1    2    0    0  0.38406827116E+02  0.11796823217E+02 -0.62382531791E+01  0.50528865604E+02  0.30000017490E+02 0.  0.
        -12    1    1    2    0    0 -0.38406827116E+02 -0.11796823217E+02  0.62382531791E+01  0.40659134396E+02  0.00000000000E+00 0.  1.
         11    1    3    3    0    0  0.11186126151E+01  0.26427295139E+01 -0.18166195693E+01  0.33963834275E+01  0.51100000000E-03 0. -1.
        -11    1    3    3    0    0  0.49726196241E+01  0.56407391168E+01  0.92048568977E+01  0.11885885515E+02  0.51100000000E-03 0.  1.
         12    1    3    3    0    0  0.32315594876E+02  0.35133545862E+01 -0.13626490508E+02  0.35246596661E+02  0.00000000000E+00 0. -1.
</event>
<event>
 7    1  0.6090311E-013  0.5052885E+02  0.7816164E-02  0.1300439E+00
        -11   -1    0    0    0    0  0.00000000000E+00  0.00000000000E+00  0.45593999997E+02  0.45594000000E+02  0.51100000000E-03 0.  1.
         11   -1    0    0    0    0 -0.00000000000E+00 -0.00000000000E+00 -0.45593999997E+02  0.45594000000E+02  0.51100000000E-03 0. -1.
    9900012    2    1    2    0    0 -0.76115215965E+01 -0.30142819779E+02 -0.26203841926E+02  0.50528853711E+02  0.29999981340E+02 0.  0.
        -12    1    1    2    0    0  0.76115215965E+01  0.30142819779E+02  0.26203841926E+02  0.40659146289E+02  0.00000000000E+00 0.  1.
         11    1    3    3    0    0 -0.53003755186E+01 -0.88366891889E+00 -0.10322687908E+02  0.11637557188E+02  0.51100000000E-03 0. -1.
        -11    1    3    3    0    0 -0.22481338443E+01 -0.57277508703E+01  0.46099378672E+01  0.76884825040E+01  0.51100000000E-03 0.  1.
        -12    1    3    3    0    0 -0.63012233567E-01 -0.23531399990E+02 -0.20491091885E+02  0.31202814019E+02  0.00000000000E+00 0.  1.
</event>
<event>
 7    1  0.6090311E-013  0.5052885E+02  0.7816164E-02  0.1300439E+00
        -11   -1    0    0    0    0  0.00000000000E+00  0.00000000000E+00  0.45593999997E+02  0.45594000000E+02  0.51100000000E-03 0.  1.
         11   -1    0    0    0    0 -0.00000000000E+00 -0.00000000000E+00 -0.45593999997E+02  0.45594000000E+02  0.51100000000E-03 0. -1.
    9900012    2    1    2    0    0  0.29533411920E+01 -0.40426014430E+02  0.31908046059E+01  0.50528854646E+02  0.29999984181E+02 0.  0.
        -12    1    1    2    0    0 -0.29533411920E+01  0.40426014430E+02 -0.31908046059E+01  0.40659145354E+02  0.00000000000E+00 0.  1.
         11    1    3    3    0    0  0.35504974376E+01 -0.32042069034E+02 -0.36119423027E+01  0.32439888216E+02  0.51100000000E-03 0. -1.
        -11    1    3    3    0    0  0.36852649505E+01 -0.78417113200E+01 -0.14409466153E+01  0.87835039473E+01  0.51100000000E-03 0.  1.
        -12    1    3    3    0    0 -0.42824211962E+01 -0.54223407659E+00  0.82436935239E+01  0.93054624824E+01  0.00000000000E+00 0.  1.
</event>
<event>
 7    1  0.6090311E-013  0.5052886E+02  0.7816164E-02  0.1300439E+00
        -11   -1    0    0    0    0  0.00000000000E+00  0.00000000000E+00  0.45593999997E+02  0.45594000000E+02  0.51100000000E-03 0. -1.
         11   -1    0    0    0    0 -0.00000000000E+00 -0.00000000000E+00 -0.45593999997E+02  0.45594000000E+02  0.51100000000E-03 0.  1.
    9900012    2    1    2    0    0  0.18108075484E+02 -0.10303634077E+02  0.34915585898E+02  0.50528863124E+02  0.30000009951E+02 0.  0.
        -12    1    1    2    0    0 -0.18108075484E+02  0.10303634077E+02 -0.34915585898E+02  0.40659136876E+02  0.00000000000E+00 0.  1.
         11    1    3    3    0    0  0.46470187158E+01  0.59432305501E+01  0.10890706433E+02  0.13248556872E+02  0.51100000000E-03 0.  1.
        -11    1    3    3    0    0  0.68638272591E+01 -0.96107766538E+01  0.25218634875E+02  0.27847059051E+02  0.51100000000E-03 0. -1.
        -12    1    3    3    0    0  0.65972295094E+01 -0.66360879728E+01 -0.11937554106E+01  0.94332472014E+01  0.00000000000E+00 0.  1.
</event>
<event>
 7    1  0.6090311E-013  0.5052886E+02  0.7816164E-02  0.1300439E+00
        -11   -1    0    0    0    0  0.00000000000E+00  0.00000000000E+00  0.45593999997E+02  0.45594000000E+02  0.51100000000E-03 0.  1.
         11   -1    0    0    0    0 -0.00000000000E+00 -0.00000000000E+00 -0.45593999997E+02  0.45594000000E+02  0.51100000000E-03 0. -1.
    9900012    2    1    2    0    0 -0.78622731335E+01 -0.39516405346E+02 -0.54592928669E+01  0.50528861926E+02  0.30000006310E+02 0.  0.
        -12    1    1    2    0    0  0.78622731335E+01  0.39516405346E+02  0.54592928669E+01  0.40659138074E+02  0.00000000000E+00 0.  1.
         11    1    3    3    0    0  0.30242403042E+01 -0.76648533039E+01 -0.78353052123E+01  0.11370488715E+02  0.51100000000E-03 0. -1.
        -11    1    3    3    0    0 -0.96216264458E-01 -0.13159624556E+02  0.97198516578E+01  0.16360332898E+02  0.51100000000E-03 0.  1.
         12    1    3    3    0    0 -0.10790297173E+02 -0.18691927486E+02 -0.73438393125E+01  0.22798040313E+02  0.00000000000E+00 0. -1.
</event>
<event>
 7    1  0.6090311E-013  0.5052889E+02  0.7816164E-02  0.1300439E+00
        -11   -1    0    0    0    0  0.00000000000E+00  0.00000000000E+00  0.45593999997E+02  0.45594000000E+02  0.51100000000E-03 0.  1.
         11   -1    0    0    0    0 -0.00000000000E+00 -0.00000000000E+00 -0.45593999997E+02  0.45594000000E+02  0.51100000000E-03 0. -1.
    9900012    2    1    2    0    0  0.66651761538E+01 -0.16688384227E+01 -0.40074351407E+02  0.50528889883E+02  0.30000091288E+02 0.  0.
        -12    1    1    2    0    0 -0.66651761538E+01  0.16688384227E+01  0.40074351407E+02  0.40659110117E+02  0.00000000000E+00 0.  1.
         11    1    3    3    0    0  0.25516817600E+01  0.28159608716E+01 -0.23182853597E+02  0.23492241626E+02  0.51100000000E-03 0. -1.
        -11    1    3    3    0    0  0.27436757728E+01 -0.31620717193E+01 -0.21576790953E+02  0.21979180203E+02  0.51100000000E-03 0.  1.
        -12    1    3    3    0    0  0.13698186210E+01 -0.13227275750E+01  0.46852931427E+01  0.50574680548E+01  0.00000000000E+00 0.  1.
</event>
<event>
 7    1  0.6090311E-013  0.5052886E+02  0.7816164E-02  0.1300439E+00
        -11   -1    0    0    0    0  0.00000000000E+00  0.00000000000E+00  0.45593999997E+02  0.45594000000E+02  0.51100000000E-03 0. -1.
         11   -1    0    0    0    0 -0.00000000000E+00 -0.00000000000E+00 -0.45593999997E+02  0.45594000000E+02  0.51100000000E-03 0.  1.
    9900012    2    1    2    0    0  0.29409481050E+02 -0.27635727282E+02  0.49512683209E+01  0.50528855198E+02  0.29999985859E+02 0.  0.
        -12    1    1    2    0    0 -0.29409481050E+02  0.27635727282E+02 -0.49512683209E+01  0.40659144802E+02  0.00000000000E+00 0.  1.
         11    1    3    3    0    0 -0.22450394675E+01  0.72003655348E-01 -0.50026764501E-01  0.22467509153E+01  0.51100000000E-03 0. -1.
        -11    1    3    3    0    0  0.46165860302E+01 -0.25635269305E+01 -0.76121530209E+01  0.92644163751E+01  0.51100000000E-03 0.  1.
         12    1    3    3    0    0  0.27037934487E+02 -0.25144204007E+02  0.12613448106E+02  0.39017687907E+02  0.00000000000E+00 0. -1.
</event>
<event>
 7    1  0.6090311E-013  0.5052881E+02  0.7816164E-02  0.1300439E+00
        -11   -1    0    0    0    0  0.00000000000E+00  0.00000000000E+00  0.45593999997E+02  0.45594000000E+02  0.51100000000E-03 0.  1.
         11   -1    0    0    0    0 -0.00000000000E+00 -0.00000000000E+00 -0.45593999997E+02  0.45594000000E+02  0.51100000000E-03 0. -1.
    9900012    2    1    2    0    0  0.20245589253E+02  0.15676193666E+02 -0.31583903477E+02  0.50528808039E+02  0.29999842516E+02 0.  0.
        -12    1    1    2    0    0 -0.20245589253E+02 -0.15676193666E+02  0.31583903477E+02  0.40659191961E+02  0.00000000000E+00 0.  1.
         11    1    3    3    0    0  0.77210368846E+01 -0.23290222312E+01 -0.39592351921E+01  0.89841136844E+01  0.51100000000E-03 0. -1.
        -11    1    3    3    0    0 -0.31613163089E+01  0.14945446046E+00 -0.13567371635E+02  0.13931612641E+02  0.51100000000E-03 0.  1.
         12    1    3    3    0    0  0.15685868677E+02  0.17855761437E+02 -0.14057296650E+02  0.27613081714E+02  0.00000000000E+00 0. -1.
</event>
<event>
 7    1  0.6090311E-013  0.5052886E+02  0.7816164E-02  0.1300439E+00
        -11   -1    0    0    0    0  0.00000000000E+00  0.00000000000E+00  0.45593999997E+02  0.45594000000E+02  0.51100000000E-03 0.  1.
         11   -1    0    0    0    0 -0.00000000000E+00 -0.00000000000E+00 -0.45593999997E+02  0.45594000000E+02  0.51100000000E-03 0. -1.
    9900012    2    1    2    0    0 -0.20977214938E+02 -0.30302584472E+02 -0.17171942577E+02  0.50528858542E+02  0.29999996024E+02 0.  0.
        -12    1    1    2    0    0  0.20977214938E+02  0.30302584472E+02  0.17171942577E+02  0.40659141458E+02  0.00000000000E+00 0.  1.
         11    1    3    3    0    0 -0.10715270874E+02 -0.13819887372E+01 -0.65385239675E+01  0.12628508174E+02  0.51100000000E-03 0. -1.
        -11    1    3    3    0    0 -0.31410832189E+01 -0.17356774201E+02  0.38414476666E+01  0.18052167041E+02  0.51100000000E-03 0.  1.
         12    1    3    3    0    0 -0.71208608456E+01 -0.11563821534E+02 -0.14474866276E+02  0.19848183327E+02  0.00000000000E+00 0. -1.
</event>
<event>
 7    1  0.6090311E-013  0.5052886E+02  0.7816164E-02  0.1300439E+00
        -11   -1    0    0    0    0  0.00000000000E+00  0.00000000000E+00  0.45593999997E+02  0.45594000000E+02  0.51100000000E-03 0.  1.
         11   -1    0    0    0    0 -0.00000000000E+00 -0.00000000000E+00 -0.45593999997E+02  0.45594000000E+02  0.51100000000E-03 0. -1.
    9900012    2    1    2    0    0  0.18794354945E+02 -0.14407456441E+02  0.33050920395E+02  0.50528856898E+02  0.29999991026E+02 0.  0.
        -12    1    1    2    0    0 -0.18794354945E+02  0.14407456441E+02 -0.33050920395E+02  0.40659143102E+02  0.00000000000E+00 0.  1.
         11    1    3    3    0    0 -0.14397937083E+01 -0.61443621601E+01  0.65018619233E+01  0.90609271605E+01  0.51100000000E-03 0. -1.
        -11    1    3    3    0    0  0.19118023937E+01 -0.75307242016E+01 -0.15424963566E+01  0.79212430000E+01  0.51100000000E-03 0.  1.
        -12    1    3    3    0    0  0.18322346259E+02 -0.73237007938E+00  0.28091554828E+02  0.33546686737E+02  0.00000000000E+00 0.  1.
</event>
<event>
 7    1  0.6090311E-013  0.5052885E+02  0.7816164E-02  0.1300439E+00
        -11   -1    0    0    0    0  0.00000000000E+00  0.00000000000E+00  0.45593999997E+02  0.45594000000E+02  0.51100000000E-03 0.  1.
         11   -1    0    0    0    0 -0.00000000000E+00 -0.00000000000E+00 -0.45593999997E+02  0.45594000000E+02  0.51100000000E-03 0. -1.
    9900012    2    1    2    0    0  0.38671166597E+02 -0.12243070280E+02  0.27954620622E+01  0.50528849689E+02  0.29999969116E+02 0.  0.
        -12    1    1    2    0    0 -0.38671166597E+02  0.12243070280E+02 -0.27954620622E+01  0.40659150311E+02  0.00000000000E+00 0.  1.
         11    1    3    3    0    0  0.14729506519E+02  0.23766955712E+01  0.35855568411E+01  0.15344812226E+02  0.51100000000E-03 0. -1.
        -11    1    3    3    0    0  0.22913839174E+02 -0.79930638641E+01  0.66551991474E+01  0.25163957789E+02  0.51100000000E-03 0.  1.
        -12    1    3    3    0    0  0.10278209033E+01 -0.66267019869E+01 -0.74452939264E+01  0.10020079674E+02  0.00000000000E+00 0.  1.
</event>
<event>
 7    1  0.6090311E-013  0.5052885E+02  0.7816164E-02  0.1300439E+00
        -11   -1    0    0    0    0  0.00000000000E+00  0.00000000000E+00  0.45593999997E+02  0.45594000000E+02  0.51100000000E-03 0.  1.
         11   -1    0    0    0    0 -0.00000000000E+00 -0.00000000000E+00 -0.45593999997E+02  0.45594000000E+02  0.51100000000E-03 0. -1.
    9900012    2    1    2    0    0  0.17672524892E+02  0.36611448567E+02 -0.67095771889E+00  0.50528849905E+02  0.29999969771E+02 0.  0.
        -12    1    1    2    0    0 -0.17672524892E+02 -0.36611448567E+02  0.67095771889E+00  0.40659150095E+02  0.00000000000E+00 0.  1.
         11    1    3    3    0    0  0.21982031689E+00  0.14726560709E+02 -0.11816055147E+02  0.18882242208E+02  0.51100000000E-03 0. -1.
        -11    1    3    3    0    0  0.25631897648E+01  0.18361339980E+00  0.33031239299E+01  0.41850070022E+01  0.51100000000E-03 0.  1.
        -12    1    3    3    0    0  0.14889514810E+02  0.21701274458E+02  0.78419734984E+01  0.27461600695E+02  0.00000000000E+00 0.  1.
</event>
<event>
 7    1  0.6090311E-013  0.5052887E+02  0.7816164E-02  0.1300439E+00
        -11   -1    0    0    0    0  0.00000000000E+00  0.00000000000E+00  0.45593999997E+02  0.45594000000E+02  0.51100000000E-03 0.  1.
         11   -1    0    0    0    0 -0.00000000000E+00 -0.00000000000E+00 -0.45593999997E+02  0.45594000000E+02  0.51100000000E-03 0. -1.
    9900012    2    1    2    0    0  0.17117922742E+02 -0.72648408111E+01 -0.36157487261E+02  0.50528867249E+02  0.30000022491E+02 0.  0.
        -12    1    1    2    0    0 -0.17117922742E+02  0.72648408111E+01  0.36157487261E+02  0.40659132751E+02  0.00000000000E+00 0.  1.
         11    1    3    3    0    0 -0.15428800675E+01  0.46645275464E+01 -0.60359550217E+01  0.77827404825E+01  0.51100000000E-03 0. -1.
        -11    1    3    3    0    0  0.21372466109E+00  0.51543784831E+01 -0.44456718425E+01  0.68100876771E+01  0.51100000000E-03 0.  1.
         12    1    3    3    0    0  0.18447078148E+02 -0.17083746841E+02 -0.25675860397E+02  0.35936039089E+02  0.00000000000E+00 0. -1.
</event>
<event>
 7    1  0.6090311E-013  0.5052885E+02  0.7816164E-02  0.1300439E+00
        -11   -1    0    0    0    0  0.00000000000E+00  0.00000000000E+00  0.45593999997E+02  0.45594000000E+02  0.51100000000E-03 0.  1.
         11   -1    0    0    0    0 -0.00000000000E+00 -0.00000000000E+00 -0.45593999997E+02  0.45594000000E+02  0.51100000000E-03 0. -1.
    9900012    2    1    2    0    0  0.29754610615E+02  0.25719954670E+02 -0.10310841143E+02  0.50528851384E+02  0.29999974267E+02 0.  0.
        -12    1    1    2    0    0 -0.29754610615E+02 -0.25719954670E+02  0.10310841143E+02  0.40659148616E+02  0.00000000000E+00 0.  1.
         11    1    3    3    0    0  0.18606690592E+02  0.21966642008E+02 -0.95242596482E+01  0.30322496896E+02  0.51100000000E-03 0. -1.
        -11    1    3    3    0    0  0.38589272770E+00  0.82166347246E+01 -0.20780999829E+01  0.84841322004E+01  0.51100000000E-03 0.  1.
         12    1    3    3    0    0  0.10762027296E+02 -0.44633220631E+01  0.12915184882E+01  0.11722222288E+02  0.00000000000E+00 0. -1.
</event>
<event>
 7    1  0.6090311E-013  0.5052886E+02  0.7816164E-02  0.1300439E+00
        -11   -1    0    0    0    0  0.00000000000E+00  0.00000000000E+00  0.45593999997E+02  0.45594000000E+02  0.51100000000E-03 0.  1.
         11   -1    0    0    0    0 -0.00000000000E+00 -0.00000000000E+00 -0.45593999997E+02  0.45594000000E+02  0.51100000000E-03 0. -1.
    9900012    2    1    2    0    0 -0.66657446525E+01 -0.15791715395E+02 -0.36869437052E+02  0.50528858157E+02  0.29999994854E+02 0.  0.
        -12    1    1    2    0    0  0.66657446525E+01  0.15791715395E+02  0.36869437052E+02  0.40659141843E+02  0.00000000000E+00 0.  1.
         11    1    3    3    0    0 -0.15242304579E+02 -0.10764678633E+02 -0.17244656982E+02  0.25408351967E+02  0.51100000000E-03 0. -1.
        -11    1    3    3    0    0  0.11653979527E+01 -0.24850895814E+01 -0.16432501437E+02  0.16660159853E+02  0.51100000000E-03 0.  1.
        -12    1    3    3    0    0  0.74111619740E+01 -0.25419471806E+01 -0.31922786327E+01  0.84603463371E+01  0.00000000000E+00 0.  1.
</event>
<event>
 7    1  0.6090311E-013  0.5052888E+02  0.7816164E-02  0.1300439E+00
        -11   -1    0    0    0    0  0.00000000000E+00  0.00000000000E+00  0.45593999997E+02  0.45594000000E+02  0.51100000000E-03 0.  1.
         11   -1    0    0    0    0 -0.00000000000E+00 -0.00000000000E+00 -0.45593999997E+02  0.45594000000E+02  0.51100000000E-03 0. -1.
    9900012    2    1    2    0    0  0.72079770702E+01 -0.37289989646E+02 -0.14514329661E+02  0.50528880152E+02  0.30000061711E+02 0.  0.
        -12    1    1    2    0    0 -0.72079770702E+01  0.37289989646E+02  0.14514329661E+02  0.40659119848E+02  0.00000000000E+00 0.  1.
         11    1    3    3    0    0 -0.21773886255E+01 -0.18294844168E+02 -0.34468224118E+01  0.18743610361E+02  0.51100000000E-03 0. -1.
        -11    1    3    3    0    0 -0.27138947584E+01 -0.11799283358E+02  0.23551448805E+01  0.12334302582E+02  0.51100000000E-03 0.  1.
        -12    1    3    3    0    0  0.12099260454E+02 -0.71958621205E+01 -0.13422652130E+02  0.19450967210E+02  0.00000000000E+00 0.  1.
</event>
<event>
 7    1  0.6090311E-013  0.5052885E+02  0.7816164E-02  0.1300439E+00
        -11   -1    0    0    0    0  0.00000000000E+00  0.00000000000E+00  0.45593999997E+02  0.45594000000E+02  0.51100000000E-03 0.  1.
         11   -1    0    0    0    0 -0.00000000000E+00 -0.00000000000E+00 -0.45593999997E+02  0.45594000000E+02  0.51100000000E-03 0. -1.
    9900012    2    1    2    0    0  0.13789872968E+02 -0.22227367293E+02 -0.31127960244E+02  0.50528851433E+02  0.29999974416E+02 0.  0.
        -12    1    1    2    0    0 -0.13789872968E+02  0.22227367293E+02  0.31127960244E+02  0.40659148567E+02  0.00000000000E+00 0.  1.
         11    1    3    3    0    0  0.16088740181E+01 -0.62013253298E+01  0.40383440062E+01  0.75731851968E+01  0.51100000000E-03 0. -1.
        -11    1    3    3    0    0 -0.24818265290E+01 -0.44572200385E+01 -0.34834965480E+01  0.61774607933E+01  0.51100000000E-03 0.  1.
         12    1    3    3    0    0  0.14662825478E+02 -0.11568821925E+02 -0.31682807702E+02  0.36778205443E+02  0.00000000000E+00 0. -1.
</event>
<event>
 7    1  0.6090311E-013  0.5052886E+02  0.7816164E-02  0.1300439E+00
        -11   -1    0    0    0    0  0.00000000000E+00  0.00000000000E+00  0.45593999997E+02  0.45594000000E+02  0.51100000000E-03 0.  1.
         11   -1    0    0    0    0 -0.00000000000E+00 -0.00000000000E+00 -0.45593999997E+02  0.45594000000E+02  0.51100000000E-03 0. -1.
    9900012    2    1    2    0    0  0.36326166144E+01  0.29451235096E+02 -0.27795585819E+02  0.50528859045E+02  0.29999997554E+02 0.  0.
        -12    1    1    2    0    0 -0.36326166144E+01 -0.29451235096E+02  0.27795585819E+02  0.40659140955E+02  0.00000000000E+00 0.  1.
         11    1    3    3    0    0  0.82763877040E+01  0.14914580820E+02 -0.26667767034E+02  0.31656170225E+02  0.51100000000E-03 0. -1.
        -11    1    3    3    0    0  0.25934807344E+01  0.45990291900E+01 -0.35237077579E+01  0.63477341181E+01  0.51100000000E-03 0.  1.
        -12    1    3    3    0    0 -0.72372518239E+01  0.99376250858E+01  0.23958889730E+01  0.12524954702E+02  0.00000000000E+00 0.  1.
</event>
<event>
 7    1  0.6090311E-013  0.5052883E+02  0.7816164E-02  0.1300439E+00
        -11   -1    0    0    0    0  0.00000000000E+00  0.00000000000E+00  0.45593999997E+02  0.45594000000E+02  0.51100000000E-03 0.  1.
         11   -1    0    0    0    0 -0.00000000000E+00 -0.00000000000E+00 -0.45593999997E+02  0.45594000000E+02  0.51100000000E-03 0. -1.
    9900012    2    1    2    0    0  0.20254651946E+02 -0.14697655927E+02 -0.32045217088E+02  0.50528831865E+02  0.29999914936E+02 0.  0.
        -12    1    1    2    0    0 -0.20254651946E+02  0.14697655927E+02  0.32045217088E+02  0.40659168135E+02  0.00000000000E+00 0.  1.
         11    1    3    3    0    0  0.16418586041E+02 -0.37380896123E+01 -0.60597852847E+01  0.17895929132E+02  0.51100000000E-03 0. -1.
        -11    1    3    3    0    0  0.49282038900E+01  0.94482644558E+00 -0.12668873955E+01  0.51754124983E+01  0.51100000000E-03 0.  1.
        -12    1    3    3    0    0 -0.10921379842E+01 -0.11904392760E+02 -0.24718544408E+02  0.27457490235E+02  0.00000000000E+00 0.  1.
</event>
<event>
 7    1  0.6090311E-013  0.5052886E+02  0.7816164E-02  0.1300439E+00
        -11   -1    0    0    0    0  0.00000000000E+00  0.00000000000E+00  0.45593999997E+02  0.45594000000E+02  0.51100000000E-03 0. -1.
         11   -1    0    0    0    0 -0.00000000000E+00 -0.00000000000E+00 -0.45593999997E+02  0.45594000000E+02  0.51100000000E-03 0.  1.
    9900012    2    1    2    0    0  0.59357089725E+01  0.51649909771E+01  0.39890552159E+02  0.50528856817E+02  0.29999990781E+02 0.  0.
        -12    1    1    2    0    0 -0.59357089725E+01 -0.51649909771E+01 -0.39890552159E+02  0.40659143183E+02  0.00000000000E+00 0.  1.
         11    1    3    3    0    0 -0.60325072016E+01 -0.17530141456E+01  0.28639627735E+02  0.29320512935E+02  0.51100000000E-03 0. -1.
        -11    1    3    3    0    0  0.74950387868E+01  0.47301697339E+01  0.13167741701E+02  0.15872603249E+02  0.51100000000E-03 0.  1.
        -12    1    3    3    0    0  0.44731773873E+01  0.21878353888E+01 -0.19168172768E+01  0.53357406326E+01  0.00000000000E+00 0.  1.
</event>
<event>
 7    1  0.6090311E-013  0.5052885E+02  0.7816164E-02  0.1300439E+00
        -11   -1    0    0    0    0  0.00000000000E+00  0.00000000000E+00  0.45593999997E+02  0.45594000000E+02  0.51100000000E-03 0.  1.
         11   -1    0    0    0    0 -0.00000000000E+00 -0.00000000000E+00 -0.45593999997E+02  0.45594000000E+02  0.51100000000E-03 0. -1.
    9900012    2    1    2    0    0 -0.33113981750E+02  0.15171943447E+02 -0.18067723259E+02  0.50528852455E+02  0.29999977522E+02 0.  0.
        -12    1    1    2    0    0  0.33113981750E+02 -0.15171943447E+02  0.18067723259E+02  0.40659147545E+02  0.00000000000E+00 0.  1.
         11    1    3    3    0    0 -0.14430224757E+02  0.80201439886E+00 -0.12652514775E+02  0.19208350893E+02  0.51100000000E-03 0. -1.
        -11    1    3    3    0    0  0.51928451044E+00 -0.24116813629E+01  0.35196239715E+01  0.42980945267E+01  0.51100000000E-03 0.  1.
         12    1    3    3    0    0 -0.19203041504E+02  0.16781610411E+02 -0.89348324555E+01  0.27022407036E+02  0.00000000000E+00 0. -1.
</event>
<event>
 7    1  0.6090311E-013  0.5052886E+02  0.7816164E-02  0.1300439E+00
        -11   -1    0    0    0    0  0.00000000000E+00  0.00000000000E+00  0.45593999997E+02  0.45594000000E+02  0.51100000000E-03 0. -1.
         11   -1    0    0    0    0 -0.00000000000E+00 -0.00000000000E+00 -0.45593999997E+02  0.45594000000E+02  0.51100000000E-03 0.  1.
    9900012    2    1    2    0    0 -0.36113460447E+02 -0.87208761970E+01  0.16520591718E+02  0.50528860095E+02  0.30000000745E+02 0.  0.
        -12    1    1    2    0    0  0.36113460447E+02  0.87208761970E+01 -0.16520591718E+02  0.40659139905E+02  0.00000000000E+00 0.  1.
         11    1    3    3    0    0 -0.63058387463E+01 -0.33840222300E+01  0.88008078131E+01  0.11343254699E+02  0.51100000000E-03 0.  1.
        -11    1    3    3    0    0 -0.24008139004E+02 -0.61772355328E+01  0.15656281792E+02  0.29320097835E+02  0.51100000000E-03 0. -1.
        -12    1    3    3    0    0 -0.57994826970E+01  0.84038156576E+00 -0.79364978866E+01  0.98655075608E+01  0.00000000000E+00 0.  1.
</event>
<event>
 7    1  0.6090311E-013  0.5052888E+02  0.7816164E-02  0.1300439E+00
        -11   -1    0    0    0    0  0.00000000000E+00  0.00000000000E+00  0.45593999997E+02  0.45594000000E+02  0.51100000000E-03 0.  1.
         11   -1    0    0    0    0 -0.00000000000E+00 -0.00000000000E+00 -0.45593999997E+02  0.45594000000E+02  0.51100000000E-03 0. -1.
    9900012    2    1    2    0    0 -0.21786656258E+02 -0.36184453354E+01 -0.34138144427E+02  0.50528875040E+02  0.30000046171E+02 0.  0.
        -12    1    1    2    0    0  0.21786656258E+02  0.36184453354E+01  0.34138144427E+02  0.40659124960E+02  0.00000000000E+00 0.  1.
         11    1    3    3    0    0 -0.35122435767E+01  0.17193917133E+01 -0.14882685935E+01  0.41841494325E+01  0.51100000000E-03 0. -1.
        -11    1    3    3    0    0 -0.66901135528E+01  0.13001595535E+01  0.36046982526E+01  0.77098562871E+01  0.51100000000E-03 0.  1.
         12    1    3    3    0    0 -0.11584299129E+02 -0.66379966022E+01 -0.36254574087E+02  0.38634869320E+02  0.00000000000E+00 0. -1.
</event>
<event>
 7    1  0.6090311E-013  0.5052884E+02  0.7816164E-02  0.1300439E+00
        -11   -1    0    0    0    0  0.00000000000E+00  0.00000000000E+00  0.45593999997E+02  0.45594000000E+02  0.51100000000E-03 0. -1.
         11   -1    0    0    0    0 -0.00000000000E+00 -0.00000000000E+00 -0.45593999997E+02  0.45594000000E+02  0.51100000000E-03 0.  1.
    9900012    2    1    2    0    0  0.38186986144E+02  0.13915945647E+02  0.11259217381E+01  0.50528841699E+02  0.29999944827E+02 0.  0.
        -12    1    1    2    0    0 -0.38186986144E+02 -0.13915945647E+02 -0.11259217381E+01  0.40659158301E+02  0.00000000000E+00 0.  1.
         11    1    3    3    0    0 -0.16544085356E+01  0.15012987516E+01  0.11394014628E+01  0.25078280441E+01  0.51100000000E-03 0. -1.
        -11    1    3    3    0    0  0.11352608646E+02  0.14496971543E+02 -0.48700960795E+01  0.19046305234E+02  0.51100000000E-03 0.  1.
         12    1    3    3    0    0  0.28488786034E+02 -0.20823246477E+01  0.48566163548E+01  0.28974708421E+02  0.00000000000E+00 0. -1.
</event>
<event>
 7    1  0.6090311E-013  0.5052886E+02  0.7816164E-02  0.1300439E+00
        -11   -1    0    0    0    0  0.00000000000E+00  0.00000000000E+00  0.45593999997E+02  0.45594000000E+02  0.51100000000E-03 0.  1.
         11   -1    0    0    0    0 -0.00000000000E+00 -0.00000000000E+00 -0.45593999997E+02  0.45594000000E+02  0.51100000000E-03 0. -1.
    9900012    2    1    2    0    0  0.36729536520E+00 -0.24881320850E+02 -0.32155101471E+02  0.50528861006E+02  0.30000003515E+02 0.  0.
        -12    1    1    2    0    0 -0.36729536520E+00  0.24881320850E+02  0.32155101471E+02  0.40659138994E+02  0.00000000000E+00 0.  1.
         11    1    3    3    0    0  0.45634831559E+01 -0.17031999133E+01  0.45772878414E+00  0.48924211143E+01  0.51100000000E-03 0. -1.
        -11    1    3    3    0    0 -0.55949919819E+01 -0.16599195401E+01  0.77836526807E+00  0.58877093091E+01  0.51100000000E-03 0.  1.
         12    1    3    3    0    0  0.13988041912E+01 -0.21518201396E+02 -0.33391195523E+02  0.39748730583E+02  0.00000000000E+00 0. -1.
</event>
<event>
 7    1  0.6090311E-013  0.5052887E+02  0.7816164E-02  0.1300439E+00
        -11   -1    0    0    0    0  0.00000000000E+00  0.00000000000E+00  0.45593999997E+02  0.45594000000E+02  0.51100000000E-03 0.  1.
         11   -1    0    0    0    0 -0.00000000000E+00 -0.00000000000E+00 -0.45593999997E+02  0.45594000000E+02  0.51100000000E-03 0. -1.
    9900012    2    1    2    0    0  0.35954963895E+02 -0.37616435204E+01 -0.18607935319E+02  0.50528872519E+02  0.30000038509E+02 0.  0.
        -12    1    1    2    0    0 -0.35954963895E+02  0.37616435204E+01  0.18607935319E+02  0.40659127481E+02  0.00000000000E+00 0.  1.
         11    1    3    3    0    0  0.19454082329E+02 -0.40985215897E-01 -0.19088457511E+00  0.19455061969E+02  0.51100000000E-03 0. -1.
        -11    1    3    3    0    0  0.79176467273E+01  0.74924740235E+01 -0.83609462431E+01  0.13737966335E+02  0.51100000000E-03 0.  1.
        -12    1    3    3    0    0  0.85832348390E+01 -0.11213132328E+02 -0.10056104501E+02  0.17335844215E+02  0.00000000000E+00 0.  1.
</event>
<event>
 7    1  0.6090311E-013  0.5052886E+02  0.7816164E-02  0.1300439E+00
        -11   -1    0    0    0    0  0.00000000000E+00  0.00000000000E+00  0.45593999997E+02  0.45594000000E+02  0.51100000000E-03 0. -1.
         11   -1    0    0    0    0 -0.00000000000E+00 -0.00000000000E+00 -0.45593999997E+02  0.45594000000E+02  0.51100000000E-03 0.  1.
    9900012    2    1    2    0    0  0.21393673420E+02 -0.32065549731E+02  0.12933554032E+02  0.50528861275E+02  0.30000004331E+02 0.  0.
        -12    1    1    2    0    0 -0.21393673420E+02  0.32065549731E+02 -0.12933554032E+02  0.40659138725E+02  0.00000000000E+00 0.  1.
         11    1    3    3    0    0  0.16341336457E+02 -0.26759918306E+02  0.20835260265E+02  0.37646255797E+02  0.51100000000E-03 0. -1.
        -11    1    3    3    0    0  0.90107690413E+00 -0.14720433948E+01  0.12471841181E+01  0.21293942399E+01  0.51100000000E-03 0.  1.
        -12    1    3    3    0    0  0.41512600587E+01 -0.38335880306E+01 -0.91488903518E+01  0.10753211238E+02  0.00000000000E+00 0.  1.
</event>
<event>
 7    1  0.6090311E-013  0.5052886E+02  0.7816164E-02  0.1300439E+00
        -11   -1    0    0    0    0  0.00000000000E+00  0.00000000000E+00  0.45593999997E+02  0.45594000000E+02  0.51100000000E-03 0. -1.
         11   -1    0    0    0    0 -0.00000000000E+00 -0.00000000000E+00 -0.45593999997E+02  0.45594000000E+02  0.51100000000E-03 0.  1.
    9900012    2    1    2    0    0  0.30382483955E+02  0.27011779258E+02  0.65889049795E+00  0.50528859741E+02  0.29999999668E+02 0.  0.
        -12    1    1    2    0    0 -0.30382483955E+02 -0.27011779258E+02 -0.65889049795E+00  0.40659140259E+02  0.00000000000E+00 0.  1.
         11    1    3    3    0    0  0.45573774552E+01  0.36927326722E+01 -0.42333299808E+01  0.72337436259E+01  0.51100000000E-03 0.  1.
        -11    1    3    3    0    0  0.22983481657E+02  0.14238079840E+02  0.13717558830E+02  0.30317235480E+02  0.51100000000E-03 0. -1.
         12    1    3    3    0    0  0.28416248425E+01  0.90809667451E+01 -0.88253383512E+01  0.12977880635E+02  0.00000000000E+00 0. -1.
</event>
<event>
 7    1  0.6090311E-013  0.5052886E+02  0.7816164E-02  0.1300439E+00
        -11   -1    0    0    0    0  0.00000000000E+00  0.00000000000E+00  0.45593999997E+02  0.45594000000E+02  0.51100000000E-03 0. -1.
         11   -1    0    0    0    0 -0.00000000000E+00 -0.00000000000E+00 -0.45593999997E+02  0.45594000000E+02  0.51100000000E-03 0.  1.
    9900012    2    1    2    0    0 -0.40400286065E+02 -0.62945483760E+00  0.45372559329E+01  0.50528855655E+02  0.29999987248E+02 0.  0.
        -12    1    1    2    0    0  0.40400286065E+02  0.62945483760E+00 -0.45372559329E+01  0.40659144345E+02  0.00000000000E+00 0.  1.
         11    1    3    3    0    0 -0.14643198822E+02 -0.95117441018E+01  0.18303576088E+01  0.17556957505E+02  0.51100000000E-03 0. -1.
        -11    1    3    3    0    0 -0.19289131654E+01 -0.40334823232E+01 -0.28534246799E+01  0.53039342300E+01  0.51100000000E-03 0.  1.
        -12    1    3    3    0    0 -0.23828174077E+02  0.12915771587E+02  0.55603230040E+01  0.27667963920E+02  0.00000000000E+00 0.  1.
</event>
<event>
 7    1  0.6389771E-013  0.5052886E+02  0.7816164E-02  0.1300439E+00
        -11   -1    0    0    0    0  0.00000000000E+00  0.00000000000E+00  0.45593999997E+02  0.45594000000E+02  0.51100000000E-03 0.  1.
         11   -1    0    0    0    0 -0.00000000000E+00 -0.00000000000E+00 -0.45593999997E+02  0.45594000000E+02  0.51100000000E-03 0. -1.
    9900012    2    1    2    0    0  0.38296534465E+02 -0.18646954972E+01  0.13530127149E+02  0.50528856108E+02  0.29999988626E+02 0.  0.
        -12    1    1    2    0    0 -0.38296534465E+02  0.18646954972E+01 -0.13530127149E+02  0.40659143892E+02  0.00000000000E+00 0.  1.
         11    1    3    3    0    0  0.25384133921E+02 -0.49193306315E+01  0.10954762058E+02  0.28081326194E+02  0.51100000000E-03 0. -1.
        -11    1    3    3    0    0  0.52286429174E+01  0.36685196808E+01  0.99213040090E+01  0.11799534606E+02  0.51100000000E-03 0.  1.
        -12    1    3    3    0    0  0.76837576267E+01 -0.61388454645E+00 -0.73459389181E+01  0.10647995309E+02  0.00000000000E+00 0.  1.
</event>
<event>
 7    1  0.6090311E-013  0.5052888E+02  0.7816164E-02  0.1300439E+00
        -11   -1    0    0    0    0  0.00000000000E+00  0.00000000000E+00  0.45593999997E+02  0.45594000000E+02  0.51100000000E-03 0.  1.
         11   -1    0    0    0    0 -0.00000000000E+00 -0.00000000000E+00 -0.45593999997E+02  0.45594000000E+02  0.51100000000E-03 0. -1.
    9900012    2    1    2    0    0  0.32569408412E+01 -0.13162991536E+02 -0.38331343196E+02  0.50528881945E+02  0.30000067159E+02 0.  0.
        -12    1    1    2    0    0 -0.32569408412E+01  0.13162991536E+02  0.38331343196E+02  0.40659118055E+02  0.00000000000E+00 0.  1.
         11    1    3    3    0    0 -0.36096779887E+01 -0.11738721560E+02 -0.91463905306E+01  0.15312864495E+02  0.51100000000E-03 0. -1.
        -11    1    3    3    0    0  0.11347460494E+02 -0.62982471840E+01 -0.17521854365E+02  0.21804773741E+02  0.51100000000E-03 0.  1.
         12    1    3    3    0    0 -0.44808416636E+01  0.48739772085E+01 -0.11663098300E+02  0.13411243708E+02  0.00000000000E+00 0. -1.
</event>
<event>
 7    1  0.6090311E-013  0.5052885E+02  0.7816164E-02  0.1300439E+00
        -11   -1    0    0    0    0  0.00000000000E+00  0.00000000000E+00  0.45593999997E+02  0.45594000000E+02  0.51100000000E-03 0.  1.
         11   -1    0    0    0    0 -0.00000000000E+00 -0.00000000000E+00 -0.45593999997E+02  0.45594000000E+02  0.51100000000E-03 0. -1.
    9900012    2    1    2    0    0  0.23004009051E+02 -0.25238500554E+02 -0.22068070390E+02  0.50528854985E+02  0.29999985211E+02 0.  0.
        -12    1    1    2    0    0 -0.23004009051E+02  0.25238500554E+02  0.22068070390E+02  0.40659145015E+02  0.00000000000E+00 0.  1.
         11    1    3    3    0    0  0.41886771216E+01 -0.16334408118E+02 -0.19066181407E+02  0.25453431562E+02  0.51100000000E-03 0. -1.
        -11    1    3    3    0    0  0.10861284008E+01 -0.60595337212E+01 -0.35589770800E+01  0.71108327176E+01  0.51100000000E-03 0.  1.
        -12    1    3    3    0    0  0.17729203529E+02 -0.28445587147E+01  0.55708809650E+00  0.17964590705E+02  0.00000000000E+00 0.  1.
</event>
<event>
 7    1  0.6090311E-013  0.5052886E+02  0.7816164E-02  0.1300439E+00
        -11   -1    0    0    0    0  0.00000000000E+00  0.00000000000E+00  0.45593999997E+02  0.45594000000E+02  0.51100000000E-03 0.  1.
         11   -1    0    0    0    0 -0.00000000000E+00 -0.00000000000E+00 -0.45593999997E+02  0.45594000000E+02  0.51100000000E-03 0. -1.
    9900012    2    1    2    0    0 -0.21395162209E+02  0.16886036138E+02 -0.30170755254E+02  0.50528860130E+02  0.30000000850E+02 0.  0.
        -12    1    1    2    0    0  0.21395162209E+02 -0.16886036138E+02  0.30170755254E+02  0.40659139870E+02  0.00000000000E+00 0.  1.
         11    1    3    3    0    0 -0.82880198418E+01  0.29251286234E+01 -0.13681197109E+02  0.16261082528E+02  0.51100000000E-03 0. -1.
        -11    1    3    3    0    0 -0.10125755507E+02  0.16426529252E+02 -0.20869685953E+02  0.28423679915E+02  0.51100000000E-03 0.  1.
        -12    1    3    3    0    0 -0.29813868603E+01 -0.24656217379E+01  0.43801278083E+01  0.58440976876E+01  0.00000000000E+00 0.  1.
</event>
<event>
 7    1  0.6090311E-013  0.5052885E+02  0.7816164E-02  0.1300439E+00
        -11   -1    0    0    0    0  0.00000000000E+00  0.00000000000E+00  0.45593999997E+02  0.45594000000E+02  0.51100000000E-03 0.  1.
         11   -1    0    0    0    0 -0.00000000000E+00 -0.00000000000E+00 -0.45593999997E+02  0.45594000000E+02  0.51100000000E-03 0. -1.
    9900012    2    1    2    0    0  0.57678087969E+01  0.11073254176E+00 -0.40247811374E+02  0.50528853423E+02  0.29999980463E+02 0.  0.
        -12    1    1    2    0    0 -0.57678087969E+01 -0.11073254176E+00  0.40247811374E+02  0.40659146577E+02  0.00000000000E+00 0.  1.
         11    1    3    3    0    0  0.39270794785E+01  0.75895834546E+01 -0.17611231401E+02  0.19574963651E+02  0.51100000000E-03 0. -1.
        -11    1    3    3    0    0  0.97828230760E+01 -0.10451374191E+01 -0.15948943477E+02  0.18739390007E+02  0.51100000000E-03 0.  1.
        -12    1    3    3    0    0 -0.79420937576E+01 -0.64337134938E+01 -0.66876364966E+01  0.12214499764E+02  0.00000000000E+00 0.  1.
</event>
<event>
 7    1  0.6090311E-013  0.5052886E+02  0.7816164E-02  0.1300439E+00
        -11   -1    0    0    0    0  0.00000000000E+00  0.00000000000E+00  0.45593999997E+02  0.45594000000E+02  0.51100000000E-03 0.  1.
         11   -1    0    0    0    0 -0.00000000000E+00 -0.00000000000E+00 -0.45593999997E+02  0.45594000000E+02  0.51100000000E-03 0. -1.
    9900012    2    1    2    0    0 -0.16990449736E+02  0.39797619182E+01 -0.36723994967E+02  0.50528859656E+02  0.29999999411E+02 0.  0.
        -12    1    1    2    0    0  0.16990449736E+02 -0.39797619182E+01  0.36723994967E+02  0.40659140344E+02  0.00000000000E+00 0.  1.
         11    1    3    3    0    0 -0.78774883061E+01  0.49418272774E+01 -0.23115709908E+02  0.24916109721E+02  0.51100000000E-03 0. -1.
        -11    1    3    3    0    0 -0.81387735298E+01  0.82309806051E+01 -0.39188400749E+01  0.12220719459E+02  0.51100000000E-03 0.  1.
         12    1    3    3    0    0 -0.97418789979E+00 -0.91930459642E+01 -0.96894449847E+01  0.13392030476E+02  0.00000000000E+00 0. -1.
</event>
<event>
 7    1  0.6090311E-013  0.5052886E+02  0.7816164E-02  0.1300439E+00
        -11   -1    0    0    0    0  0.00000000000E+00  0.00000000000E+00  0.45593999997E+02  0.45594000000E+02  0.51100000000E-03 0.  1.
         11   -1    0    0    0    0 -0.00000000000E+00 -0.00000000000E+00 -0.45593999997E+02  0.45594000000E+02  0.51100000000E-03 0. -1.
    9900012    2    1    2    0    0  0.32993183911E+02 -0.16973669038E+02 -0.16628592860E+02  0.50528859260E+02  0.29999998208E+02 0.  0.
        -12    1    1    2    0    0 -0.32993183911E+02  0.16973669038E+02  0.16628592860E+02  0.40659140740E+02  0.00000000000E+00 0.  1.
         11    1    3    3    0    0  0.16129276262E+02 -0.19011963606E+02 -0.16028667676E+02  0.29639947716E+02  0.51100000000E-03 0. -1.
        -11    1    3    3    0    0  0.30014040754E+01 -0.34244285809E+01  0.31343919130E+01  0.55280693244E+01  0.51100000000E-03 0.  1.
        -12    1    3    3    0    0  0.13862503573E+02  0.54627231488E+01 -0.37343170972E+01  0.15360842219E+02  0.00000000000E+00 0.  1.
</event>
<event>
 7    1  0.6090311E-013  0.5052886E+02  0.7816164E-02  0.1300439E+00
        -11   -1    0    0    0    0  0.00000000000E+00  0.00000000000E+00  0.45593999997E+02  0.45594000000E+02  0.51100000000E-03 0.  1.
         11   -1    0    0    0    0 -0.00000000000E+00 -0.00000000000E+00 -0.45593999997E+02  0.45594000000E+02  0.51100000000E-03 0. -1.
    9900012    2    1    2    0    0 -0.24789687569E+02 -0.11449099954E+02 -0.30125656460E+02  0.50528859863E+02  0.30000000041E+02 0.  0.
        -12    1    1    2    0    0  0.24789687569E+02  0.11449099954E+02  0.30125656460E+02  0.40659140137E+02  0.00000000000E+00 0.  1.
         11    1    3    3    0    0 -0.83708105210E+01 -0.85010253154E+01 -0.17239988861E+02  0.20965569785E+02  0.51100000000E-03 0. -1.
        -11    1    3    3    0    0 -0.11816056502E+02 -0.11250617637E+02 -0.11519701933E+02  0.19972459072E+02  0.51100000000E-03 0.  1.
         12    1    3    3    0    0 -0.46028205452E+01  0.83025429984E+01 -0.13659656656E+01  0.95908310073E+01  0.00000000000E+00 0. -1.
</event>
<event>
 7    1  0.6090311E-013  0.5052886E+02  0.7816164E-02  0.1300439E+00
        -11   -1    0    0    0    0  0.00000000000E+00  0.00000000000E+00  0.45593999997E+02  0.45594000000E+02  0.51100000000E-03 0.  1.
         11   -1    0    0    0    0 -0.00000000000E+00 -0.00000000000E+00 -0.45593999997E+02  0.45594000000E+02  0.51100000000E-03 0. -1.
    9900012    2    1    2    0    0 -0.26908055270E+01  0.39899572312E+02  0.73450263979E+01  0.50528859357E+02  0.29999998501E+02 0.  0.
        -12    1    1    2    0    0  0.26908055270E+01 -0.39899572312E+02 -0.73450263979E+01  0.40659140643E+02  0.00000000000E+00 0.  1.
         11    1    3    3    0    0 -0.11813090013E+01  0.40473841866E+01 -0.47818537297E+01  0.63751811788E+01  0.51100000000E-03 0. -1.
        -11    1    3    3    0    0 -0.92547465937E+01  0.81753820829E+01 -0.13283671390E+01  0.12419813454E+02  0.51100000000E-03 0.  1.
         12    1    3    3    0    0  0.77452500679E+01  0.27676806042E+02  0.13455247267E+02  0.31733864724E+02  0.00000000000E+00 0. -1.
</event>
<event>
 7    1  0.6090311E-013  0.5052887E+02  0.7816164E-02  0.1300439E+00
        -11   -1    0    0    0    0  0.00000000000E+00  0.00000000000E+00  0.45593999997E+02  0.45594000000E+02  0.51100000000E-03 0. -1.
         11   -1    0    0    0    0 -0.00000000000E+00 -0.00000000000E+00 -0.45593999997E+02  0.45594000000E+02  0.51100000000E-03 0.  1.
    9900012    2    1    2    0    0  0.80688184127E+01  0.30033490192E+02  0.26192532536E+02  0.50528866656E+02  0.30000020686E+02 0.  0.
        -12    1    1    2    0    0 -0.80688184127E+01 -0.30033490192E+02 -0.26192532536E+02  0.40659133344E+02  0.00000000000E+00 0.  1.
         11    1    3    3    0    0  0.25153035566E+01  0.34496607710E+01  0.11183885436E+02  0.11971056976E+02  0.51100000000E-03 0. -1.
        -11    1    3    3    0    0  0.10446881798E+02  0.32640620584E+01  0.84980540775E+01  0.13856708259E+02  0.51100000000E-03 0.  1.
        -12    1    3    3    0    0 -0.48933669418E+01  0.23319767363E+02  0.65105930224E+01  0.24701101420E+02  0.00000000000E+00 0.  1.
</event>
<event>
 7    1  0.6090311E-013  0.5052887E+02  0.7816164E-02  0.1300439E+00
        -11   -1    0    0    0    0  0.00000000000E+00  0.00000000000E+00  0.45593999997E+02  0.45594000000E+02  0.51100000000E-03 0.  1.
         11   -1    0    0    0    0 -0.00000000000E+00 -0.00000000000E+00 -0.45593999997E+02  0.45594000000E+02  0.51100000000E-03 0. -1.
    9900012    2    1    2    0    0 -0.18096516486E+02  0.13856151961E+02 -0.33670278473E+02  0.50528874228E+02  0.30000043703E+02 0.  0.
        -12    1    1    2    0    0  0.18096516486E+02 -0.13856151961E+02  0.33670278473E+02  0.40659125772E+02  0.00000000000E+00 0.  1.
         11    1    3    3    0    0  0.31163535886E+01  0.38974930951E+01 -0.96795282055E+01  0.10890150534E+02  0.51100000000E-03 0.  1.
        -11    1    3    3    0    0  0.27049738407E+01  0.25188444411E+00  0.17126029479E+01  0.32114386761E+01  0.51100000000E-03 0. -1.
         12    1    3    3    0    0 -0.23917843916E+02  0.97067744213E+01 -0.25703353216E+02  0.36427285018E+02  0.00000000000E+00 0. -1.
</event>
<event>
 7    1  0.6090311E-013  0.5052888E+02  0.7816164E-02  0.1300439E+00
        -11   -1    0    0    0    0  0.00000000000E+00  0.00000000000E+00  0.45593999997E+02  0.45594000000E+02  0.51100000000E-03 0.  1.
         11   -1    0    0    0    0 -0.00000000000E+00 -0.00000000000E+00 -0.45593999997E+02  0.45594000000E+02  0.51100000000E-03 0. -1.
    9900012    2    1    2    0    0 -0.26560107216E+01  0.34796469777E+02 -0.20864202360E+02  0.50528884884E+02  0.30000076093E+02 0.  0.
        -12    1    1    2    0    0  0.26560107216E+01 -0.34796469777E+02  0.20864202360E+02  0.40659115116E+02  0.00000000000E+00 0.  1.
         11    1    3    3    0    0 -0.12439087692E+02  0.80527341935E+01 -0.10520524454E+02  0.18173025770E+02  0.51100000000E-03 0. -1.
        -11    1    3    3    0    0 -0.17949456929E+01  0.38958302936E+01  0.89976102640E+00  0.43827952134E+01  0.51100000000E-03 0.  1.
         12    1    3    3    0    0  0.11578022663E+02  0.22847905290E+02 -0.11243438932E+02  0.27973063900E+02  0.00000000000E+00 0. -1.
</event>
<event>
 7    1  0.6090311E-013  0.5052885E+02  0.7816164E-02  0.1300439E+00
        -11   -1    0    0    0    0  0.00000000000E+00  0.00000000000E+00  0.45593999997E+02  0.45594000000E+02  0.51100000000E-03 0.  1.
         11   -1    0    0    0    0 -0.00000000000E+00 -0.00000000000E+00 -0.45593999997E+02  0.45594000000E+02  0.51100000000E-03 0. -1.
    9900012    2    1    2    0    0 -0.36653375025E+02  0.17225478832E+02  0.36027396482E+01  0.50528846606E+02  0.29999959744E+02 0.  0.
        -12    1    1    2    0    0  0.36653375025E+02 -0.17225478832E+02 -0.36027396482E+01  0.40659153394E+02  0.00000000000E+00 0.  1.
         11    1    3    3    0    0 -0.19689743017E+02  0.36035248397E+01 -0.25378778866E+01  0.20177021479E+02  0.51100000000E-03 0. -1.
        -11    1    3    3    0    0 -0.74621741318E+01 -0.40816508395E+01  0.57297846261E+01  0.10255454572E+02  0.51100000000E-03 0.  1.
        -12    1    3    3    0    0 -0.95014578771E+01  0.17703604832E+02  0.41083290880E+00  0.20096370556E+02  0.00000000000E+00 0.  1.
</event>
<event>
 7    1  0.6090311E-013  0.5052886E+02  0.7816164E-02  0.1300439E+00
        -11   -1    0    0    0    0  0.00000000000E+00  0.00000000000E+00  0.45593999997E+02  0.45594000000E+02  0.51100000000E-03 0. -1.
         11   -1    0    0    0    0 -0.00000000000E+00 -0.00000000000E+00 -0.45593999997E+02  0.45594000000E+02  0.51100000000E-03 0.  1.
    9900012    2    1    2    0    0  0.40615240410E+01 -0.38841705468E+02 -0.11313328859E+02  0.50528862391E+02  0.30000007724E+02 0.  0.
        -12    1    1    2    0    0 -0.40615240410E+01  0.38841705468E+02  0.11313328859E+02  0.40659137609E+02  0.00000000000E+00 0.  1.
         11    1    3    3    0    0 -0.26985712944E+01 -0.84788151462E+01 -0.13974639389E+02  0.16566929095E+02  0.51100000000E-03 0. -1.
        -11    1    3    3    0    0 -0.33715002707E+01 -0.11912052702E+02  0.35959699613E+01  0.12891664511E+02  0.51100000000E-03 0.  1.
        -12    1    3    3    0    0  0.10131595606E+02 -0.18450837621E+02 -0.93465943080E+00  0.21070268785E+02  0.00000000000E+00 0.  1.
</event>
<event>
 7    1  0.6090311E-013  0.5052882E+02  0.7816164E-02  0.1300439E+00
        -11   -1    0    0    0    0  0.00000000000E+00  0.00000000000E+00  0.45593999997E+02  0.45594000000E+02  0.51100000000E-03 0.  1.
         11   -1    0    0    0    0 -0.00000000000E+00 -0.00000000000E+00 -0.45593999997E+02  0.45594000000E+02  0.51100000000E-03 0. -1.
    9900012    2    1    2    0    0  0.29927902473E+02  0.20732866513E+02 -0.18100775265E+02  0.50528816960E+02  0.29999869632E+02 0.  0.
        -12    1    1    2    0    0 -0.29927902473E+02 -0.20732866513E+02  0.18100775265E+02  0.40659183040E+02  0.00000000000E+00 0.  1.
         11    1    3    3    0    0  0.32347675788E+01  0.39885038219E+01  0.55251436603E+01  0.75431489946E+01  0.51100000000E-03 0. -1.
        -11    1    3    3    0    0 -0.20828196983E+01 -0.77373974287E+00 -0.14717082235E+01  0.26650959535E+01  0.51100000000E-03 0.  1.
         12    1    3    3    0    0  0.28775954592E+02  0.17518102434E+02 -0.22154210702E+02  0.40320572012E+02  0.00000000000E+00 0. -1.
</event>
<event>
 7    1  0.6090311E-013  0.5052886E+02  0.7816164E-02  0.1300439E+00
        -11   -1    0    0    0    0  0.00000000000E+00  0.00000000000E+00  0.45593999997E+02  0.45594000000E+02  0.51100000000E-03 0.  1.
         11   -1    0    0    0    0 -0.00000000000E+00 -0.00000000000E+00 -0.45593999997E+02  0.45594000000E+02  0.51100000000E-03 0. -1.
    9900012    2    1    2    0    0  0.49693150788E+01 -0.37967338247E+02 -0.13673069382E+02  0.50528859672E+02  0.29999999459E+02 0.  0.
        -12    1    1    2    0    0 -0.49693150788E+01  0.37967338247E+02  0.13673069382E+02  0.40659140328E+02  0.00000000000E+00 0.  1.
         11    1    3    3    0    0 -0.14920746778E+01 -0.19917486082E+02  0.35534489161E+01  0.20286930229E+02  0.51100000000E-03 0. -1.
        -11    1    3    3    0    0 -0.47524489598E+01 -0.61928568526E+01 -0.23322529605E+01  0.81471867074E+01  0.51100000000E-03 0.  1.
        -12    1    3    3    0    0  0.11213838716E+02 -0.11856995313E+02 -0.14894265338E+02  0.22094742735E+02  0.00000000000E+00 0.  1.
</event>
<event>
 7    1  0.6090311E-013  0.5052886E+02  0.7816164E-02  0.1300439E+00
        -11   -1    0    0    0    0  0.00000000000E+00  0.00000000000E+00  0.45593999997E+02  0.45594000000E+02  0.51100000000E-03 0. -1.
         11   -1    0    0    0    0 -0.00000000000E+00 -0.00000000000E+00 -0.45593999997E+02  0.45594000000E+02  0.51100000000E-03 0.  1.
    9900012    2    1    2    0    0  0.94447263863E+01 -0.26186492257E+02  0.29634948280E+02  0.50528863354E+02  0.30000010650E+02 0.  0.
        -12    1    1    2    0    0 -0.94447263863E+01  0.26186492257E+02 -0.29634948280E+02  0.40659136646E+02  0.00000000000E+00 0.  1.
         11    1    3    3    0    0  0.92303342986E+00 -0.18095815740E+02  0.21807180604E+02  0.28352489558E+02  0.51100000000E-03 0. -1.
        -11    1    3    3    0    0 -0.25507156543E+01  0.28867982915E+01  0.50298647812E+01  0.63355579631E+01  0.51100000000E-03 0.  1.
        -12    1    3    3    0    0  0.11072408611E+02 -0.10977474809E+02  0.27979028950E+01  0.15840815833E+02  0.00000000000E+00 0.  1.
</event>
<event>
 7    1  0.6090311E-013  0.5052885E+02  0.7816164E-02  0.1300439E+00
        -11   -1    0    0    0    0  0.00000000000E+00  0.00000000000E+00  0.45593999997E+02  0.45594000000E+02  0.51100000000E-03 0. -1.
         11   -1    0    0    0    0 -0.00000000000E+00 -0.00000000000E+00 -0.45593999997E+02  0.45594000000E+02  0.51100000000E-03 0.  1.
    9900012    2    1    2    0    0  0.90777536847E+00  0.23460819974E+02  0.33195369705E+02  0.50528847281E+02  0.29999961796E+02 0.  0.
        -12    1    1    2    0    0 -0.90777536847E+00 -0.23460819974E+02 -0.33195369705E+02  0.40659152719E+02  0.00000000000E+00 0.  1.
         11    1    3    3    0    0  0.20193395595E+01  0.20413901964E+01  0.32617211161E+00  0.28898779729E+01  0.51100000000E-03 0. -1.
        -11    1    3    3    0    0  0.11810253537E+02  0.38110075248E+01  0.93155470283E+01  0.15517257608E+02  0.51100000000E-03 0.  1.
        -12    1    3    3    0    0 -0.12921817728E+02  0.17608422252E+02  0.23553650565E+02  0.32121711701E+02  0.00000000000E+00 0.  1.
</event>
<event>
 7    1  0.6090311E-013  0.5052886E+02  0.7816164E-02  0.1300439E+00
        -11   -1    0    0    0    0  0.00000000000E+00  0.00000000000E+00  0.45593999997E+02  0.45594000000E+02  0.51100000000E-03 0.  1.
         11   -1    0    0    0    0 -0.00000000000E+00 -0.00000000000E+00 -0.45593999997E+02  0.45594000000E+02  0.51100000000E-03 0. -1.
    9900012    2    1    2    0    0  0.23589020982E+02 -0.89378199467E+01 -0.31887911154E+02  0.50528863093E+02  0.30000009857E+02 0.  0.
        -12    1    1    2    0    0 -0.23589020982E+02  0.89378199467E+01  0.31887911154E+02  0.40659136907E+02  0.00000000000E+00 0.  1.
         11    1    3    3    0    0  0.90559943912E+01 -0.15126753572E+01 -0.20776220440E+02  0.22714545058E+02  0.51100000000E-03 0. -1.
        -11    1    3    3    0    0  0.17561288318E+02 -0.16540373810E+00 -0.67083549065E+01  0.18799687008E+02  0.51100000000E-03 0.  1.
         12    1    3    3    0    0 -0.30282617274E+01 -0.72597408513E+01 -0.44033358069E+01  0.90146310266E+01  0.00000000000E+00 0. -1.
</event>
<event>
 7    1  0.6090311E-013  0.5052885E+02  0.7816164E-02  0.1300439E+00
        -11   -1    0    0    0    0  0.00000000000E+00  0.00000000000E+00  0.45593999997E+02  0.45594000000E+02  0.51100000000E-03 0. -1.
         11   -1    0    0    0    0 -0.00000000000E+00 -0.00000000000E+00 -0.45593999997E+02  0.45594000000E+02  0.51100000000E-03 0.  1.
    9900012    2    1    2    0    0  0.27646681515E+02  0.25222766237E+02  0.15894644829E+02  0.50528847652E+02  0.29999962922E+02 0.  0.
        -12    1    1    2    0    0 -0.27646681515E+02 -0.25222766237E+02 -0.15894644829E+02  0.40659152348E+02  0.00000000000E+00 0.  1.
         11    1    3    3    0    0  0.90767324270E+01  0.35226510320E+01  0.12711622126E+02  0.16011916786E+02  0.51100000000E-03 0. -1.
        -11    1    3    3    0    0  0.16244123965E+02  0.48080938799E+01 -0.96512106693E+00  0.16968228814E+02  0.51100000000E-03 0.  1.
         12    1    3    3    0    0  0.23258251228E+01  0.16892021325E+02  0.41481437703E+01  0.17548702051E+02  0.00000000000E+00 0. -1.
</event>
<event>
 7    1  0.6090311E-013  0.5052885E+02  0.7816164E-02  0.1300439E+00
        -11   -1    0    0    0    0  0.00000000000E+00  0.00000000000E+00  0.45593999997E+02  0.45594000000E+02  0.51100000000E-03 0.  1.
         11   -1    0    0    0    0 -0.00000000000E+00 -0.00000000000E+00 -0.45593999997E+02  0.45594000000E+02  0.51100000000E-03 0. -1.
    9900012    2    1    2    0    0 -0.39473165504E+02  0.55168639839E+01 -0.80373947234E+01  0.50528852234E+02  0.29999976850E+02 0.  0.
        -12    1    1    2    0    0  0.39473165504E+02 -0.55168639839E+01  0.80373947234E+01  0.40659147766E+02  0.00000000000E+00 0.  1.
         11    1    3    3    0    0 -0.72645390678E+01  0.91504109553E+01 -0.70656153462E+01  0.13653807857E+02  0.51100000000E-03 0. -1.
        -11    1    3    3    0    0 -0.64169999136E+01  0.39332483602E+01  0.53854256260E+01  0.92547901105E+01  0.51100000000E-03 0.  1.
        -12    1    3    3    0    0 -0.25791626523E+02 -0.75667953316E+01 -0.63572050032E+01  0.27620254266E+02  0.00000000000E+00 0.  1.
</event>
<event>
 7    1  0.6090311E-013  0.5052886E+02  0.7816164E-02  0.1300439E+00
        -11   -1    0    0    0    0  0.00000000000E+00  0.00000000000E+00  0.45593999997E+02  0.45594000000E+02  0.51100000000E-03 0.  1.
         11   -1    0    0    0    0 -0.00000000000E+00 -0.00000000000E+00 -0.45593999997E+02  0.45594000000E+02  0.51100000000E-03 0. -1.
    9900012    2    1    2    0    0 -0.27555427086E+02  0.28289315418E+02  0.96736192588E+01  0.50528857876E+02  0.29999993999E+02 0.  0.
        -12    1    1    2    0    0  0.27555427086E+02 -0.28289315418E+02 -0.96736192588E+01  0.40659142124E+02  0.00000000000E+00 0.  1.
         11    1    3    3    0    0 -0.16703699030E+02  0.17165636476E+02  0.10235021100E+02  0.26046656102E+02  0.51100000000E-03 0.  1.
        -11    1    3    3    0    0 -0.15006694213E+02  0.99318816122E+01  0.37443796733E+01  0.18381064250E+02  0.51100000000E-03 0. -1.
        -12    1    3    3    0    0  0.41549661563E+01  0.11917973302E+01 -0.43057815148E+01  0.61011375242E+01  0.00000000000E+00 0.  1.
</event>
<event>
 7    1  0.6090311E-013  0.5052885E+02  0.7816164E-02  0.1300439E+00
        -11   -1    0    0    0    0  0.00000000000E+00  0.00000000000E+00  0.45593999997E+02  0.45594000000E+02  0.51100000000E-03 0.  1.
         11   -1    0    0    0    0 -0.00000000000E+00 -0.00000000000E+00 -0.45593999997E+02  0.45594000000E+02  0.51100000000E-03 0. -1.
    9900012    2    1    2    0    0  0.14394827377E+02  0.34235560342E+01 -0.37871286346E+02  0.50528854403E+02  0.29999983444E+02 0.  0.
        -12    1    1    2    0    0 -0.14394827377E+02 -0.34235560342E+01  0.37871286346E+02  0.40659145597E+02  0.00000000000E+00 0.  1.
         11    1    3    3    0    0  0.17610661821E+02 -0.52741521314E+01 -0.15779460609E+02  0.24226916185E+02  0.51100000000E-03 0. -1.
        -11    1    3    3    0    0  0.33951576247E+01  0.25824564871E+01 -0.30686629135E+01  0.52547948715E+01  0.51100000000E-03 0.  1.
        -12    1    3    3    0    0 -0.66109920689E+01  0.61152516785E+01 -0.19023162824E+02  0.21047143347E+02  0.00000000000E+00 0.  1.
</event>
<event>
 7    1  0.6090311E-013  0.5052886E+02  0.7816164E-02  0.1300439E+00
        -11   -1    0    0    0    0  0.00000000000E+00  0.00000000000E+00  0.45593999997E+02  0.45594000000E+02  0.51100000000E-03 0.  1.
         11   -1    0    0    0    0 -0.00000000000E+00 -0.00000000000E+00 -0.45593999997E+02  0.45594000000E+02  0.51100000000E-03 0. -1.
    9900012    2    1    2    0    0 -0.16851895446E+02 -0.32250313782E+02  0.18141028354E+02  0.50528855531E+02  0.29999986873E+02 0.  0.
        -12    1    1    2    0    0  0.16851895446E+02  0.32250313782E+02 -0.18141028354E+02  0.40659144469E+02  0.00000000000E+00 0.  1.
         11    1    3    3    0    0 -0.62461849653E-01  0.50357611083E+00  0.25314352272E+01  0.25817929725E+01  0.51100000000E-03 0.  1.
        -11    1    3    3    0    0  0.62599337554E+01 -0.42484389407E+01 -0.11268203248E+01  0.76489037359E+01  0.51100000000E-03 0. -1.
         12    1    3    3    0    0 -0.23049367352E+02 -0.28505450952E+02  0.16736413452E+02  0.40298158823E+02  0.00000000000E+00 0. -1.
</event>
<event>
 7    1  0.6090311E-013  0.5052886E+02  0.7816164E-02  0.1300439E+00
        -11   -1    0    0    0    0  0.00000000000E+00  0.00000000000E+00  0.45593999997E+02  0.45594000000E+02  0.51100000000E-03 0.  1.
         11   -1    0    0    0    0 -0.00000000000E+00 -0.00000000000E+00 -0.45593999997E+02  0.45594000000E+02  0.51100000000E-03 0. -1.
    9900012    2    1    2    0    0  0.27320070033E+00  0.12212272508E+02 -0.38780811032E+02  0.50528861510E+02  0.30000005046E+02 0.  0.
        -12    1    1    2    0    0 -0.27320070033E+00 -0.12212272508E+02  0.38780811032E+02  0.40659138490E+02  0.00000000000E+00 0.  1.
         11    1    3    3    0    0  0.72553831169E+01  0.18102971695E+01 -0.39974427253E+01  0.84792280673E+01  0.51100000000E-03 0. -1.
        -11    1    3    3    0    0 -0.13384814868E+01 -0.50939043893E+01 -0.25704335718E+01  0.58605907232E+01  0.51100000000E-03 0.  1.
         12    1    3    3    0    0 -0.56437009298E+01  0.15495879728E+02 -0.32212934735E+02  0.36189042720E+02  0.00000000000E+00 0. -1.
</event>
<event>
 7    1  0.6090311E-013  0.5052886E+02  0.7816164E-02  0.1300439E+00
        -11   -1    0    0    0    0  0.00000000000E+00  0.00000000000E+00  0.45593999997E+02  0.45594000000E+02  0.51100000000E-03 0. -1.
         11   -1    0    0    0    0 -0.00000000000E+00 -0.00000000000E+00 -0.45593999997E+02  0.45594000000E+02  0.51100000000E-03 0.  1.
    9900012    2    1    2    0    0  0.38991295228E+02 -0.10698855886E+02 -0.42870925982E+01  0.50528858546E+02  0.29999996036E+02 0.  0.
        -12    1    1    2    0    0 -0.38991295228E+02  0.10698855886E+02  0.42870925982E+01  0.40659141454E+02  0.00000000000E+00 0.  1.
         11    1    3    3    0    0  0.25509576649E+02 -0.12247747658E+02  0.62125564885E+01  0.28971394200E+02  0.51100000000E-03 0. -1.
        -11    1    3    3    0    0 -0.23951205335E+01 -0.12079844918E+01 -0.10790527130E+01  0.28913982639E+01  0.51100000000E-03 0.  1.
        -12    1    3    3    0    0  0.15876839112E+02  0.27568762633E+01 -0.94205963737E+01  0.18666066082E+02  0.00000000000E+00 0.  1.
</event>
<event>
 7    1  0.6090311E-013  0.5052885E+02  0.7816164E-02  0.1300439E+00
        -11   -1    0    0    0    0  0.00000000000E+00  0.00000000000E+00  0.45593999997E+02  0.45594000000E+02  0.51100000000E-03 0.  1.
         11   -1    0    0    0    0 -0.00000000000E+00 -0.00000000000E+00 -0.45593999997E+02  0.45594000000E+02  0.51100000000E-03 0. -1.
    9900012    2    1    2    0    0  0.19222122906E+02 -0.34986231329E+02 -0.77226771256E+01  0.50528854244E+02  0.29999982960E+02 0.  0.
        -12    1    1    2    0    0 -0.19222122906E+02  0.34986231329E+02  0.77226771256E+01  0.40659145756E+02  0.00000000000E+00 0.  1.
         11    1    3    3    0    0  0.24832731156E+02 -0.29629199994E+02 -0.70755026668E+01  0.39301612782E+02  0.51100000000E-03 0. -1.
        -11    1    3    3    0    0 -0.16620473278E+01 -0.22674539100E+01  0.36616621856E+01  0.46164400544E+01  0.51100000000E-03 0.  1.
        -12    1    3    3    0    0 -0.39485609230E+01 -0.30895774251E+01 -0.43088366445E+01  0.66108014081E+01  0.00000000000E+00 0.  1.
</event>
<event>
 7    1  0.6090311E-013  0.5052886E+02  0.7816164E-02  0.1300439E+00
        -11   -1    0    0    0    0  0.00000000000E+00  0.00000000000E+00  0.45593999997E+02  0.45594000000E+02  0.51100000000E-03 0.  1.
         11   -1    0    0    0    0 -0.00000000000E+00 -0.00000000000E+00 -0.45593999997E+02  0.45594000000E+02  0.51100000000E-03 0. -1.
    9900012    2    1    2    0    0 -0.19399038318E+01  0.55606923945E+01 -0.40230346941E+02  0.50528863981E+02  0.30000012557E+02 0.  0.
        -12    1    1    2    0    0  0.19399038318E+01 -0.55606923945E+01  0.40230346941E+02  0.40659136019E+02  0.00000000000E+00 0.  1.
         11    1    3    3    0    0  0.44319056271E+01  0.11143210588E+02 -0.17291260367E+02  0.21042828114E+02  0.51100000000E-03 0. -1.
        -11    1    3    3    0    0 -0.23315485282E+01  0.16899202558E+01  0.17930234477E+01  0.33921795878E+01  0.51100000000E-03 0.  1.
        -12    1    3    3    0    0 -0.40402609307E+01 -0.72724384490E+01 -0.24732110022E+02  0.26093856280E+02  0.00000000000E+00 0.  1.
</event>
<event>
 7    1  0.6090311E-013  0.5052886E+02  0.7816164E-02  0.1300439E+00
        -11   -1    0    0    0    0  0.00000000000E+00  0.00000000000E+00  0.45593999997E+02  0.45594000000E+02  0.51100000000E-03 0.  1.
         11   -1    0    0    0    0 -0.00000000000E+00 -0.00000000000E+00 -0.45593999997E+02  0.45594000000E+02  0.51100000000E-03 0. -1.
    9900012    2    1    2    0    0  0.89642195137E+01 -0.30484506931E+02 -0.25367361949E+02  0.50528862692E+02  0.30000008640E+02 0.  0.
        -12    1    1    2    0    0 -0.89642195137E+01  0.30484506931E+02  0.25367361949E+02  0.40659137308E+02  0.00000000000E+00 0.  1.
         11    1    3    3    0    0  0.14471726532E+02 -0.14625404662E+02 -0.23742919517E+02  0.31417504004E+02  0.51100000000E-03 0.  1.
        -11    1    3    3    0    0  0.28352002832E+00 -0.97264078506E+01 -0.37246099992E+01  0.10419026499E+02  0.51100000000E-03 0. -1.
        -12    1    3    3    0    0 -0.57910270466E+01 -0.61326944183E+01  0.21001675674E+01  0.86923321896E+01  0.00000000000E+00 0.  1.
</event>
<event>
 7    1  0.6090311E-013  0.5052886E+02  0.7816164E-02  0.1300439E+00
        -11   -1    0    0    0    0  0.00000000000E+00  0.00000000000E+00  0.45593999997E+02  0.45594000000E+02  0.51100000000E-03 0.  1.
         11   -1    0    0    0    0 -0.00000000000E+00 -0.00000000000E+00 -0.45593999997E+02  0.45594000000E+02  0.51100000000E-03 0. -1.
    9900012    2    1    2    0    0  0.13929632163E+02  0.58324544894E+01 -0.37750673913E+02  0.50528861317E+02  0.30000004460E+02 0.  0.
        -12    1    1    2    0    0 -0.13929632163E+02 -0.58324544894E+01  0.37750673913E+02  0.40659138683E+02  0.00000000000E+00 0.  1.
         11    1    3    3    0    0 -0.80178475776E+00 -0.33823950934E+01 -0.12177955865E+02  0.12664361993E+02  0.51100000000E-03 0. -1.
        -11    1    3    3    0    0  0.12059163143E+02 -0.52944292119E+01 -0.12185537155E+02  0.17942734251E+02  0.51100000000E-03 0.  1.
         12    1    3    3    0    0  0.26722537778E+01  0.14509278795E+02 -0.13387180893E+02  0.19921765074E+02  0.00000000000E+00 0. -1.
</event>
<event>
 7    1  0.6090311E-013  0.5052887E+02  0.7816164E-02  0.1300439E+00
        -11   -1    0    0    0    0  0.00000000000E+00  0.00000000000E+00  0.45593999997E+02  0.45594000000E+02  0.51100000000E-03 0. -1.
         11   -1    0    0    0    0 -0.00000000000E+00 -0.00000000000E+00 -0.45593999997E+02  0.45594000000E+02  0.51100000000E-03 0.  1.
    9900012    2    1    2    0    0  0.16043921619E+02  0.27757424102E+02 -0.25005655227E+02  0.50528870558E+02  0.30000032547E+02 0.  0.
        -12    1    1    2    0    0 -0.16043921619E+02 -0.27757424102E+02  0.25005655227E+02  0.40659129442E+02  0.00000000000E+00 0.  1.
         11    1    3    3    0    0 -0.24379613720E+01  0.38839198870E+01  0.11561750003E+01  0.47291891728E+01  0.51100000000E-03 0. -1.
        -11    1    3    3    0    0 -0.47131280129E+01  0.84194608548E+01 -0.55173149838E+01  0.11114929673E+02  0.51100000000E-03 0.  1.
         12    1    3    3    0    0  0.23195011004E+02  0.15454043360E+02 -0.20644515243E+02  0.34684751712E+02  0.00000000000E+00 0. -1.
</event>
<event>
 7    1  0.6090311E-013  0.5052885E+02  0.7816164E-02  0.1300439E+00
        -11   -1    0    0    0    0  0.00000000000E+00  0.00000000000E+00  0.45593999997E+02  0.45594000000E+02  0.51100000000E-03 0. -1.
         11   -1    0    0    0    0 -0.00000000000E+00 -0.00000000000E+00 -0.45593999997E+02  0.45594000000E+02  0.51100000000E-03 0.  1.
    9900012    2    1    2    0    0 -0.22735018629E+02 -0.10227177477E+01  0.33693311390E+02  0.50528852738E+02  0.29999978382E+02 0.  0.
        -12    1    1    2    0    0  0.22735018629E+02  0.10227177477E+01 -0.33693311390E+02  0.40659147262E+02  0.00000000000E+00 0.  1.
         11    1    3    3    0    0  0.11908682411E+01  0.22859800894E+00  0.44107026542E+00  0.12903361800E+01  0.51100000000E-03 0. -1.
        -11    1    3    3    0    0 -0.20149498356E+02  0.11340676269E+02  0.22383836771E+02  0.32181506663E+02  0.51100000000E-03 0.  1.
         12    1    3    3    0    0 -0.37763885145E+01 -0.12591992025E+02  0.10868404353E+02  0.17057009895E+02  0.00000000000E+00 0. -1.
</event>
<event>
 7    1  0.6090311E-013  0.5052885E+02  0.7816164E-02  0.1300439E+00
        -11   -1    0    0    0    0  0.00000000000E+00  0.00000000000E+00  0.45593999997E+02  0.45594000000E+02  0.51100000000E-03 0.  1.
         11   -1    0    0    0    0 -0.00000000000E+00 -0.00000000000E+00 -0.45593999997E+02  0.45594000000E+02  0.51100000000E-03 0. -1.
    9900012    2    1    2    0    0  0.17881915351E+02  0.35580333199E+02 -0.82123839757E+01  0.50528852718E+02  0.29999978321E+02 0.  0.
        -12    1    1    2    0    0 -0.17881915351E+02 -0.35580333199E+02  0.82123839757E+01  0.40659147282E+02  0.00000000000E+00 0.  1.
         11    1    3    3    0    0  0.88676150038E+01  0.14827949285E+02 -0.12662025873E+02  0.21420307545E+02  0.51100000000E-03 0. -1.
        -11    1    3    3    0    0 -0.22237691638E+01  0.57682589788E+01 -0.51641440578E+01  0.80552060837E+01  0.51100000000E-03 0.  1.
         12    1    3    3    0    0  0.11238069511E+02  0.14984124935E+02  0.96137859555E+01  0.21053339089E+02  0.00000000000E+00 0. -1.
</event>
<event>
 7    1  0.6090311E-013  0.5052886E+02  0.7816164E-02  0.1300439E+00
        -11   -1    0    0    0    0  0.00000000000E+00  0.00000000000E+00  0.45593999997E+02  0.45594000000E+02  0.51100000000E-03 0.  1.
         11   -1    0    0    0    0 -0.00000000000E+00 -0.00000000000E+00 -0.45593999997E+02  0.45594000000E+02  0.51100000000E-03 0. -1.
    9900012    2    1    2    0    0  0.62155547375E+01 -0.11193840136E+01 -0.40165651260E+02  0.50528859792E+02  0.29999999825E+02 0.  0.
        -12    1    1    2    0    0 -0.62155547375E+01  0.11193840136E+01  0.40165651260E+02  0.40659140208E+02  0.00000000000E+00 0.  1.
         11    1    3    3    0    0  0.65626883373E+00  0.28516355413E+01 -0.13277970272E+02  0.13596580777E+02  0.51100000000E-03 0. -1.
        -11    1    3    3    0    0 -0.64125224556E+01 -0.50434661923E+01 -0.22833565058E+02  0.24247240853E+02  0.51100000000E-03 0.  1.
         12    1    3    3    0    0  0.11971808359E+02  0.10724466374E+01 -0.40541159307E+01  0.12685038162E+02  0.00000000000E+00 0. -1.
</event>
<event>
 7    1  0.6090311E-013  0.5052886E+02  0.7816164E-02  0.1300439E+00
        -11   -1    0    0    0    0  0.00000000000E+00  0.00000000000E+00  0.45593999997E+02  0.45594000000E+02  0.51100000000E-03 0. -1.
         11   -1    0    0    0    0 -0.00000000000E+00 -0.00000000000E+00 -0.45593999997E+02  0.45594000000E+02  0.51100000000E-03 0.  1.
    9900012    2    1    2    0    0 -0.23963543103E+02  0.27990696524E+02  0.17188216415E+02  0.50528864821E+02  0.30000015110E+02 0.  0.
        -12    1    1    2    0    0  0.23963543103E+02 -0.27990696524E+02 -0.17188216415E+02  0.40659135179E+02  0.00000000000E+00 0.  1.
         11    1    3    3    0    0 -0.13360400653E+02  0.24158413327E+01  0.11768666417E+02  0.17967696136E+02  0.51100000000E-03 0. -1.
        -11    1    3    3    0    0 -0.82894428260E+00 -0.75083856331E+00  0.43152653723E+01  0.44578495563E+01  0.51100000000E-03 0.  1.
        -12    1    3    3    0    0 -0.97741981677E+01  0.26325693755E+02  0.11042846255E+01  0.28103319128E+02  0.00000000000E+00 0.  1.
</event>
<event>
 7    1  0.6090311E-013  0.5052887E+02  0.7816164E-02  0.1300439E+00
        -11   -1    0    0    0    0  0.00000000000E+00  0.00000000000E+00  0.45593999997E+02  0.45594000000E+02  0.51100000000E-03 0.  1.
         11   -1    0    0    0    0 -0.00000000000E+00 -0.00000000000E+00 -0.45593999997E+02  0.45594000000E+02  0.51100000000E-03 0. -1.
    9900012    2    1    2    0    0 -0.24934564474E+02  0.16902662895E+02 -0.27308104137E+02  0.50528867324E+02  0.30000022717E+02 0.  0.
        -12    1    1    2    0    0  0.24934564474E+02 -0.16902662895E+02  0.27308104137E+02  0.40659132676E+02  0.00000000000E+00 0.  1.
         11    1    3    3    0    0 -0.72653951954E+01 -0.25412226199E+00 -0.14671965859E+02  0.16374282516E+02  0.51100000000E-03 0. -1.
        -11    1    3    3    0    0 -0.39828870900E+01 -0.45616883148E+01 -0.21939609490E+01  0.64409513862E+01  0.51100000000E-03 0.  1.
        -12    1    3    3    0    0 -0.13686282188E+02  0.21718473471E+02 -0.10442177329E+02  0.27713633422E+02  0.00000000000E+00 0.  1.
</event>
<event>
 7    1  0.6090311E-013  0.5052886E+02  0.7816164E-02  0.1300439E+00
        -11   -1    0    0    0    0  0.00000000000E+00  0.00000000000E+00  0.45593999997E+02  0.45594000000E+02  0.51100000000E-03 0. -1.
         11   -1    0    0    0    0 -0.00000000000E+00 -0.00000000000E+00 -0.45593999997E+02  0.45594000000E+02  0.51100000000E-03 0.  1.
    9900012    2    1    2    0    0  0.30576377323E+02 -0.20942529908E+02  0.16723067987E+02  0.50528863117E+02  0.30000009932E+02 0.  0.
        -12    1    1    2    0    0 -0.30576377323E+02  0.20942529908E+02 -0.16723067987E+02  0.40659136883E+02  0.00000000000E+00 0.  1.
         11    1    3    3    0    0 -0.37276457474E+00 -0.17904390080E+01  0.57966770318E+01  0.60783295519E+01  0.51100000000E-03 0. -1.
        -11    1    3    3    0    0  0.93919501218E+01 -0.12069548068E+02  0.14971883005E+02  0.21401869045E+02  0.51100000000E-03 0.  1.
        -12    1    3    3    0    0  0.21557191776E+02 -0.70825428320E+01 -0.40454920503E+01  0.23048664520E+02  0.00000000000E+00 0.  1.
</event>
<event>
 7    1  0.6090311E-013  0.5052884E+02  0.7816164E-02  0.1300439E+00
        -11   -1    0    0    0    0  0.00000000000E+00  0.00000000000E+00  0.45593999997E+02  0.45594000000E+02  0.51100000000E-03 0.  1.
         11   -1    0    0    0    0 -0.00000000000E+00 -0.00000000000E+00 -0.45593999997E+02  0.45594000000E+02  0.51100000000E-03 0. -1.
    9900012    2    1    2    0    0 -0.17278384373E+02  0.15137631261E+02 -0.33548127145E+02  0.50528840126E+02  0.29999940046E+02 0.  0.
        -12    1    1    2    0    0  0.17278384373E+02 -0.15137631261E+02  0.33548127145E+02  0.40659159874E+02  0.00000000000E+00 0.  1.
         11    1    3    3    0    0  0.39796939154E+01  0.66212632076E+01  0.11024229476E+01  0.78034881137E+01  0.51100000000E-03 0. -1.
        -11    1    3    3    0    0 -0.21675420584E+01  0.49241112123E+01 -0.54879169240E+01  0.76852028101E+01  0.51100000000E-03 0.  1.
         12    1    3    3    0    0 -0.19090536230E+02  0.35922568406E+01 -0.29162633169E+02  0.35040149202E+02  0.00000000000E+00 0. -1.
</event>
<event>
 7    1  0.6090311E-013  0.5052886E+02  0.7816164E-02  0.1300439E+00
        -11   -1    0    0    0    0  0.00000000000E+00  0.00000000000E+00  0.45593999997E+02  0.45594000000E+02  0.51100000000E-03 0.  1.
         11   -1    0    0    0    0 -0.00000000000E+00 -0.00000000000E+00 -0.45593999997E+02  0.45594000000E+02  0.51100000000E-03 0. -1.
    9900012    2    1    2    0    0 -0.29694430647E+02  0.85339618781E+01  0.26430624414E+02  0.50528860514E+02  0.30000002019E+02 0.  0.
        -12    1    1    2    0    0  0.29694430647E+02 -0.85339618781E+01 -0.26430624414E+02  0.40659139486E+02  0.00000000000E+00 0.  1.
         11    1    3    3    0    0  0.16044356053E+01  0.64107171017E+01  0.49393957302E+01  0.82504022817E+01  0.51100000000E-03 0. -1.
        -11    1    3    3    0    0 -0.93562796436E+01 -0.55971096228E+00  0.17447329969E+02  0.19805619618E+02  0.51100000000E-03 0.  1.
        -12    1    3    3    0    0 -0.21942586609E+02  0.26829557387E+01  0.40438987149E+01  0.22472838615E+02  0.00000000000E+00 0.  1.
</event>
<event>
 7    1  0.6090311E-013  0.5052885E+02  0.7816164E-02  0.1300439E+00
        -11   -1    0    0    0    0  0.00000000000E+00  0.00000000000E+00  0.45593999997E+02  0.45594000000E+02  0.51100000000E-03 0. -1.
         11   -1    0    0    0    0 -0.00000000000E+00 -0.00000000000E+00 -0.45593999997E+02  0.45594000000E+02  0.51100000000E-03 0.  1.
    9900012    2    1    2    0    0  0.25505703794E+02  0.17488679350E+02  0.26396428141E+02  0.50528852812E+02  0.29999978609E+02 0.  0.
        -12    1    1    2    0    0 -0.25505703794E+02 -0.17488679350E+02 -0.26396428141E+02  0.40659147188E+02  0.00000000000E+00 0.  1.
         11    1    3    3    0    0  0.10927429499E+02 -0.16524382130E+01  0.52617532161E+01  0.12240315137E+02  0.51100000000E-03 0. -1.
        -11    1    3    3    0    0  0.16351713224E+02  0.65410384020E+01  0.62060102670E+01  0.18672928866E+02  0.51100000000E-03 0.  1.
         12    1    3    3    0    0 -0.17734389285E+01  0.12600079161E+02  0.14928664658E+02  0.19615608809E+02  0.00000000000E+00 0. -1.
</event>
<event>
 7    1  0.6090311E-013  0.5052884E+02  0.7816164E-02  0.1300439E+00
        -11   -1    0    0    0    0  0.00000000000E+00  0.00000000000E+00  0.45593999997E+02  0.45594000000E+02  0.51100000000E-03 0.  1.
         11   -1    0    0    0    0 -0.00000000000E+00 -0.00000000000E+00 -0.45593999997E+02  0.45594000000E+02  0.51100000000E-03 0. -1.
    9900012    2    1    2    0    0 -0.39780498380E+02  0.12750654442E+01  0.83098384727E+01  0.50528840408E+02  0.29999940904E+02 0.  0.
        -12    1    1    2    0    0  0.39780498380E+02 -0.12750654442E+01 -0.83098384727E+01  0.40659159592E+02  0.00000000000E+00 0.  1.
         11    1    3    3    0    0 -0.22119084214E+02  0.10684014075E+01  0.11803342630E+02  0.25094108184E+02  0.51100000000E-03 0. -1.
        -11    1    3    3    0    0 -0.18335722232E+02  0.18737821664E+01  0.30204793156E+01  0.18677073243E+02  0.51100000000E-03 0.  1.
        -12    1    3    3    0    0  0.67430806533E+00 -0.16671181297E+01 -0.65139834727E+01  0.67576589813E+01  0.00000000000E+00 0.  1.
</event>
<event>
 7    1  0.6090311E-013  0.5052886E+02  0.7816164E-02  0.1300439E+00
        -11   -1    0    0    0    0  0.00000000000E+00  0.00000000000E+00  0.45593999997E+02  0.45594000000E+02  0.51100000000E-03 0.  1.
         11   -1    0    0    0    0 -0.00000000000E+00 -0.00000000000E+00 -0.45593999997E+02  0.45594000000E+02  0.51100000000E-03 0. -1.
    9900012    2    1    2    0    0  0.76840308170E+01  0.10340227479E+02 -0.38564249723E+02  0.50528856002E+02  0.29999988304E+02 0.  0.
        -12    1    1    2    0    0 -0.76840308170E+01 -0.10340227479E+02  0.38564249723E+02  0.40659143998E+02  0.00000000000E+00 0.  1.
         11    1    3    3    0    0  0.10469492444E+02  0.27779382995E+01 -0.21769291435E+02  0.24315206417E+02  0.51100000000E-03 0. -1.
        -11    1    3    3    0    0  0.30943486191E+01 -0.13559522501E+01 -0.15007464654E+02  0.15383029464E+02  0.51100000000E-03 0.  1.
        -12    1    3    3    0    0 -0.58798102456E+01  0.89182414300E+01 -0.17874936337E+01  0.10830620122E+02  0.00000000000E+00 0.  1.
</event>
<event>
 7    1  0.6090311E-013  0.5052885E+02  0.7816164E-02  0.1300439E+00
        -11   -1    0    0    0    0  0.00000000000E+00  0.00000000000E+00  0.45593999997E+02  0.45594000000E+02  0.51100000000E-03 0.  1.
         11   -1    0    0    0    0 -0.00000000000E+00 -0.00000000000E+00 -0.45593999997E+02  0.45594000000E+02  0.51100000000E-03 0. -1.
    9900012    2    1    2    0    0  0.15872114108E+02  0.59918302269E+01 -0.36950514031E+02  0.50528849457E+02  0.29999968409E+02 0.  0.
        -12    1    1    2    0    0 -0.15872114108E+02 -0.59918302269E+01  0.36950514031E+02  0.40659150543E+02  0.00000000000E+00 0.  1.
         11    1    3    3    0    0  0.25882503036E+01 -0.67567585815E+01 -0.63580840942E+01  0.96321368227E+01  0.51100000000E-03 0. -1.
        -11    1    3    3    0    0  0.19300386423E+01  0.11556015871E+02 -0.47452026163E+01  0.12640549834E+02  0.51100000000E-03 0.  1.
         12    1    3    3    0    0  0.11353825162E+02  0.11925729373E+01 -0.25847227321E+02  0.28256162800E+02  0.00000000000E+00 0. -1.
</event>
<event>
 7    1  0.6090311E-013  0.5052886E+02  0.7816164E-02  0.1300439E+00
        -11   -1    0    0    0    0  0.00000000000E+00  0.00000000000E+00  0.45593999997E+02  0.45594000000E+02  0.51100000000E-03 0.  1.
         11   -1    0    0    0    0 -0.00000000000E+00 -0.00000000000E+00 -0.45593999997E+02  0.45594000000E+02  0.51100000000E-03 0. -1.
    9900012    2    1    2    0    0 -0.34037497314E+02 -0.14229425631E+02  0.17092052404E+02  0.50528855486E+02  0.29999986736E+02 0.  0.
        -12    1    1    2    0    0  0.34037497314E+02  0.14229425631E+02 -0.17092052404E+02  0.40659144514E+02  0.00000000000E+00 0.  1.
         11    1    3    3    0    0  0.41955256346E+00 -0.46834831732E+01  0.30808591213E+00  0.47123196175E+01  0.51100000000E-03 0. -1.
        -11    1    3    3    0    0  0.17926526917E+01  0.13958366634E+01 -0.24543108114E+01  0.33444888226E+01  0.51100000000E-03 0.  1.
         12    1    3    3    0    0 -0.36249702569E+02 -0.10941779121E+02  0.19238277303E+02  0.42472047046E+02  0.00000000000E+00 0. -1.
</event>
<event>
 7    1  0.6090311E-013  0.5052888E+02  0.7816164E-02  0.1300439E+00
        -11   -1    0    0    0    0  0.00000000000E+00  0.00000000000E+00  0.45593999997E+02  0.45594000000E+02  0.51100000000E-03 0.  1.
         11   -1    0    0    0    0 -0.00000000000E+00 -0.00000000000E+00 -0.45593999997E+02  0.45594000000E+02  0.51100000000E-03 0. -1.
    9900012    2    1    2    0    0 -0.86034963510E+00  0.25816043620E+02 -0.31399938365E+02  0.50528875083E+02  0.30000046303E+02 0.  0.
        -12    1    1    2    0    0  0.86034963510E+00 -0.25816043620E+02  0.31399938365E+02  0.40659124917E+02  0.00000000000E+00 0.  1.
         11    1    3    3    0    0  0.29014790133E+01  0.45372434405E+01 -0.97643279286E+00  0.54734431360E+01  0.51100000000E-03 0. -1.
        -11    1    3    3    0    0 -0.40078164416E+01  0.85946207968E+01  0.24705533188E+01  0.97996802618E+01  0.51100000000E-03 0.  1.
         12    1    3    3    0    0  0.24598779327E+00  0.12684179383E+02 -0.32894058891E+02  0.35255751685E+02  0.00000000000E+00 0. -1.
</event>
<event>
 7    1  0.6090311E-013  0.5052887E+02  0.7816164E-02  0.1300439E+00
        -11   -1    0    0    0    0  0.00000000000E+00  0.00000000000E+00  0.45593999997E+02  0.45594000000E+02  0.51100000000E-03 0.  1.
         11   -1    0    0    0    0 -0.00000000000E+00 -0.00000000000E+00 -0.45593999997E+02  0.45594000000E+02  0.51100000000E-03 0. -1.
    9900012    2    1    2    0    0 -0.17560080520E+02 -0.59097063680E+01 -0.36192311422E+02  0.50528874785E+02  0.30000045395E+02 0.  0.
        -12    1    1    2    0    0  0.17560080520E+02  0.59097063680E+01  0.36192311422E+02  0.40659125215E+02  0.00000000000E+00 0.  1.
         11    1    3    3    0    0  0.78668075274E+00 -0.26812627395E+01 -0.19337274486E+02  0.19538122256E+02  0.51100000000E-03 0. -1.
        -11    1    3    3    0    0 -0.91830014893E+01  0.70996639856E+01 -0.11005311997E+02  0.15995300481E+02  0.51100000000E-03 0.  1.
        -12    1    3    3    0    0 -0.91637597830E+01 -0.10328107614E+02 -0.58497249391E+01  0.14995452048E+02  0.00000000000E+00 0.  1.
</event>
<event>
 7    1  0.6090311E-013  0.5052887E+02  0.7816164E-02  0.1300439E+00
        -11   -1    0    0    0    0  0.00000000000E+00  0.00000000000E+00  0.45593999997E+02  0.45594000000E+02  0.51100000000E-03 0.  1.
         11   -1    0    0    0    0 -0.00000000000E+00 -0.00000000000E+00 -0.45593999997E+02  0.45594000000E+02  0.51100000000E-03 0. -1.
    9900012    2    1    2    0    0 -0.31463583118E+02 -0.25409630769E+02  0.41902879514E+01  0.50528869272E+02  0.30000028640E+02 0.  0.
        -12    1    1    2    0    0  0.31463583118E+02  0.25409630769E+02 -0.41902879514E+01  0.40659130728E+02  0.00000000000E+00 0.  1.
         11    1    3    3    0    0 -0.30391743911E+00 -0.31792276949E+00 -0.17644269188E+01  0.18184178041E+01  0.51100000000E-03 0.  1.
        -11    1    3    3    0    0 -0.35584112571E+01 -0.72249953019E+01 -0.94373198073E+01  0.12406685826E+02  0.51100000000E-03 0. -1.
        -12    1    3    3    0    0 -0.27601254422E+02 -0.17866712697E+02  0.15392034678E+02  0.36303765642E+02  0.00000000000E+00 0.  1.
</event>
<event>
 7    1  0.6090311E-013  0.5052886E+02  0.7816164E-02  0.1300439E+00
        -11   -1    0    0    0    0  0.00000000000E+00  0.00000000000E+00  0.45593999997E+02  0.45594000000E+02  0.51100000000E-03 0. -1.
         11   -1    0    0    0    0 -0.00000000000E+00 -0.00000000000E+00 -0.45593999997E+02  0.45594000000E+02  0.51100000000E-03 0.  1.
    9900012    2    1    2    0    0 -0.11504589872E+02  0.35246129240E+02  0.16688933245E+02  0.50528859486E+02  0.29999998893E+02 0.  0.
        -12    1    1    2    0    0  0.11504589872E+02 -0.35246129240E+02 -0.16688933245E+02  0.40659140514E+02  0.00000000000E+00 0.  1.
         11    1    3    3    0    0 -0.47674352826E+01  0.77464919265E+01  0.91355559209E+01  0.12891662367E+02  0.51100000000E-03 0. -1.
        -11    1    3    3    0    0 -0.74602097337E+01  0.24303002008E+02  0.14988495688E+02  0.29511788139E+02  0.51100000000E-03 0.  1.
        -12    1    3    3    0    0  0.72305514440E+00  0.31966353049E+01 -0.74351183636E+01  0.81254089802E+01  0.00000000000E+00 0.  1.
</event>
<event>
 7    1  0.6090311E-013  0.5052886E+02  0.7816164E-02  0.1300439E+00
        -11   -1    0    0    0    0  0.00000000000E+00  0.00000000000E+00  0.45593999997E+02  0.45594000000E+02  0.51100000000E-03 0. -1.
         11   -1    0    0    0    0 -0.00000000000E+00 -0.00000000000E+00 -0.45593999997E+02  0.45594000000E+02  0.51100000000E-03 0.  1.
    9900012    2    1    2    0    0 -0.97195981251E+01  0.67471094786E+01  0.38899508084E+02  0.50528858307E+02  0.29999995309E+02 0.  0.
        -12    1    1    2    0    0  0.97195981251E+01 -0.67471094786E+01 -0.38899508084E+02  0.40659141693E+02  0.00000000000E+00 0.  1.
         11    1    3    3    0    0 -0.19967997913E+01 -0.26213494583E+01 -0.45189131198E+00  0.33260920624E+01  0.51100000000E-03 0. -1.
        -11    1    3    3    0    0 -0.21473383897E+01 -0.77590201492E+01  0.11701147951E+02  0.14203179907E+02  0.51100000000E-03 0.  1.
         12    1    3    3    0    0 -0.55754599441E+01  0.17127479086E+02  0.27650251445E+02  0.32999586337E+02  0.00000000000E+00 0. -1.
</event>
<event>
 7    1  0.6090311E-013  0.5052886E+02  0.7816164E-02  0.1300439E+00
        -11   -1    0    0    0    0  0.00000000000E+00  0.00000000000E+00  0.45593999997E+02  0.45594000000E+02  0.51100000000E-03 0.  1.
         11   -1    0    0    0    0 -0.00000000000E+00 -0.00000000000E+00 -0.45593999997E+02  0.45594000000E+02  0.51100000000E-03 0. -1.
    9900012    2    1    2    0    0 -0.88087616239E+01 -0.41644749519E+01 -0.39474400683E+02  0.50528862745E+02  0.30000008801E+02 0.  0.
        -12    1    1    2    0    0  0.88087616239E+01  0.41644749519E+01  0.39474400683E+02  0.40659137255E+02  0.00000000000E+00 0.  1.
         11    1    3    3    0    0 -0.52215639458E+00 -0.51610710151E+01 -0.13652995766E+02  0.14605259154E+02  0.51100000000E-03 0. -1.
        -11    1    3    3    0    0 -0.46079015149E+01 -0.10818615803E+02 -0.79813614116E+01  0.14211873012E+02  0.51100000000E-03 0.  1.
        -12    1    3    3    0    0 -0.36787037144E+01  0.11815211866E+02 -0.17840043506E+02  0.21711730580E+02  0.00000000000E+00 0.  1.
</event>
<event>
 7    1  0.6090311E-013  0.5052885E+02  0.7816164E-02  0.1300439E+00
        -11   -1    0    0    0    0  0.00000000000E+00  0.00000000000E+00  0.45593999997E+02  0.45594000000E+02  0.51100000000E-03 0.  1.
         11   -1    0    0    0    0 -0.00000000000E+00 -0.00000000000E+00 -0.45593999997E+02  0.45594000000E+02  0.51100000000E-03 0. -1.
    9900012    2    1    2    0    0  0.15112845871E+02 -0.31740748324E+02 -0.20427758012E+02  0.50528849592E+02  0.29999968820E+02 0.  0.
        -12    1    1    2    0    0 -0.15112845871E+02  0.31740748324E+02  0.20427758012E+02  0.40659150408E+02  0.00000000000E+00 0.  1.
         11    1    3    3    0    0  0.89684182748E+00 -0.18511890198E+02 -0.65573577599E+01  0.19659433996E+02  0.51100000000E-03 0. -1.
        -11    1    3    3    0    0 -0.57138376655E+00  0.12311448083E+01 -0.96701016065E+01  0.97648892615E+01  0.51100000000E-03 0.  1.
         12    1    3    3    0    0  0.14787387810E+02 -0.14460002934E+02 -0.42002986456E+01  0.21104526335E+02  0.00000000000E+00 0. -1.
</event>
<event>
 7    1  0.6090311E-013  0.5052887E+02  0.7816164E-02  0.1300439E+00
        -11   -1    0    0    0    0  0.00000000000E+00  0.00000000000E+00  0.45593999997E+02  0.45594000000E+02  0.51100000000E-03 0. -1.
         11   -1    0    0    0    0 -0.00000000000E+00 -0.00000000000E+00 -0.45593999997E+02  0.45594000000E+02  0.51100000000E-03 0.  1.
    9900012    2    1    2    0    0 -0.30136885031E+02 -0.27269214380E+02 -0.11500795912E+01  0.50528873407E+02  0.30000041207E+02 0.  0.
        -12    1    1    2    0    0  0.30136885031E+02  0.27269214380E+02  0.11500795912E+01  0.40659126593E+02  0.00000000000E+00 0.  1.
         11    1    3    3    0    0 -0.43993016914E+01 -0.29429553548E+01  0.42228251208E+01  0.67710482094E+01  0.51100000000E-03 0. -1.
        -11    1    3    3    0    0 -0.22997885612E+02 -0.26765171589E+02  0.21858295596E+01  0.35356116924E+02  0.51100000000E-03 0.  1.
        -12    1    3    3    0    0 -0.27396977275E+01  0.24389125632E+01 -0.75587342715E+01  0.84017082737E+01  0.00000000000E+00 0.  1.
</event>
<event>
 7    1  0.6090311E-013  0.5052887E+02  0.7816164E-02  0.1300439E+00
        -11   -1    0    0    0    0  0.00000000000E+00  0.00000000000E+00  0.45593999997E+02  0.45594000000E+02  0.51100000000E-03 0. -1.
         11   -1    0    0    0    0 -0.00000000000E+00 -0.00000000000E+00 -0.45593999997E+02  0.45594000000E+02  0.51100000000E-03 0.  1.
    9900012    2    1    2    0    0 -0.40401514863E+02 -0.20604995354E+01 -0.40788501025E+01  0.50528867204E+02  0.30000022355E+02 0.  0.
        -12    1    1    2    0    0  0.40401514863E+02  0.20604995354E+01  0.40788501025E+01  0.40659132796E+02  0.00000000000E+00 0.  1.
         11    1    3    3    0    0 -0.72808264278E+01 -0.18973685267E+01 -0.67871676783E+01  0.10132920909E+02  0.51100000000E-03 0. -1.
        -11    1    3    3    0    0 -0.52421573246E+01 -0.93213022650E+01 -0.13242207059E+01  0.10775919918E+02  0.51100000000E-03 0.  1.
         12    1    3    3    0    0 -0.27878531110E+02  0.91581712563E+01  0.40325382817E+01  0.29620026378E+02  0.00000000000E+00 0. -1.
</event>
<event>
 7    1  0.6090311E-013  0.5052886E+02  0.7816164E-02  0.1300439E+00
        -11   -1    0    0    0    0  0.00000000000E+00  0.00000000000E+00  0.45593999997E+02  0.45594000000E+02  0.51100000000E-03 0.  1.
         11   -1    0    0    0    0 -0.00000000000E+00 -0.00000000000E+00 -0.45593999997E+02  0.45594000000E+02  0.51100000000E-03 0. -1.
    9900012    2    1    2    0    0  0.39232490710E+02  0.49032220691E+01 -0.94834344670E+01  0.50528862734E+02  0.30000008765E+02 0.  0.
        -12    1    1    2    0    0 -0.39232490710E+02 -0.49032220691E+01  0.94834344670E+01  0.40659137266E+02  0.00000000000E+00 0.  1.
         11    1    3    3    0    0 -0.16104436514E+00 -0.12427983823E+01  0.11949196032E+01  0.17315646756E+01  0.51100000000E-03 0.  1.
        -11    1    3    3    0    0  0.17940145799E+01 -0.59837582540E+01  0.30768871209E+01  0.69635541048E+01  0.51100000000E-03 0. -1.
         12    1    3    3    0    0  0.37599520495E+02  0.12129778705E+02 -0.13755241191E+02  0.41833743953E+02  0.00000000000E+00 0. -1.
</event>
<event>
 7    1  0.6090311E-013  0.5052886E+02  0.7816164E-02  0.1300439E+00
        -11   -1    0    0    0    0  0.00000000000E+00  0.00000000000E+00  0.45593999997E+02  0.45594000000E+02  0.51100000000E-03 0.  1.
         11   -1    0    0    0    0 -0.00000000000E+00 -0.00000000000E+00 -0.45593999997E+02  0.45594000000E+02  0.51100000000E-03 0. -1.
    9900012    2    1    2    0    0 -0.23505701443E+02 -0.23851147438E+01 -0.33090163561E+02  0.50528859611E+02  0.29999999274E+02 0.  0.
        -12    1    1    2    0    0  0.23505701443E+02  0.23851147438E+01  0.33090163561E+02  0.40659140389E+02  0.00000000000E+00 0.  1.
         11    1    3    3    0    0 -0.26608922059E+02 -0.84625541077E+01 -0.20054406687E+02  0.34377736734E+02  0.51100000000E-03 0. -1.
        -11    1    3    3    0    0 -0.34948823284E+00  0.38212888611E+01 -0.19117304692E+01  0.42870857506E+01  0.51100000000E-03 0.  1.
         12    1    3    3    0    0  0.34527088483E+01  0.22561505028E+01 -0.11124026405E+02  0.11864037126E+02  0.00000000000E+00 0. -1.
</event>
<event>
 7    1  0.6090311E-013  0.5052885E+02  0.7816164E-02  0.1300439E+00
        -11   -1    0    0    0    0  0.00000000000E+00  0.00000000000E+00  0.45593999997E+02  0.45594000000E+02  0.51100000000E-03 0.  1.
         11   -1    0    0    0    0 -0.00000000000E+00 -0.00000000000E+00 -0.45593999997E+02  0.45594000000E+02  0.51100000000E-03 0. -1.
    9900012    2    1    2    0    0  0.30235482616E+02  0.21270311302E+02 -0.16927971709E+02  0.50528846319E+02  0.29999958870E+02 0.  0.
        -12    1    1    2    0    0 -0.30235482616E+02 -0.21270311302E+02  0.16927971709E+02  0.40659153681E+02  0.00000000000E+00 0.  1.
         11    1    3    3    0    0  0.11343273254E+02  0.20001952458E+02 -0.11531345661E+01  0.23023415686E+02  0.51100000000E-03 0. -1.
        -11    1    3    3    0    0  0.60333738594E+01  0.56190553222E+01 -0.27465607342E+01  0.86901656468E+01  0.51100000000E-03 0.  1.
        -12    1    3    3    0    0  0.12858835502E+02 -0.43506964781E+01 -0.13028276409E+02  0.18815264986E+02  0.00000000000E+00 0.  1.
</event>
<event>
 7    1  0.6090311E-013  0.5052885E+02  0.7816164E-02  0.1300439E+00
        -11   -1    0    0    0    0  0.00000000000E+00  0.00000000000E+00  0.45593999997E+02  0.45594000000E+02  0.51100000000E-03 0.  1.
         11   -1    0    0    0    0 -0.00000000000E+00 -0.00000000000E+00 -0.45593999997E+02  0.45594000000E+02  0.51100000000E-03 0. -1.
    9900012    2    1    2    0    0 -0.17914235476E+02 -0.34374570449E+02 -0.12273356104E+02  0.50528853473E+02  0.29999980617E+02 0.  0.
        -12    1    1    2    0    0  0.17914235476E+02  0.34374570449E+02  0.12273356104E+02  0.40659146527E+02  0.00000000000E+00 0.  1.
         11    1    3    3    0    0 -0.45955100692E+01  0.57972777136E+00 -0.63289289392E+01  0.78428399744E+01  0.51100000000E-03 0. -1.
        -11    1    3    3    0    0  0.35396962734E+01 -0.18056441632E+02 -0.27046316660E+01  0.18597837692E+02  0.51100000000E-03 0.  1.
         12    1    3    3    0    0 -0.16858421680E+02 -0.16897856589E+02 -0.32397954986E+01  0.24088175807E+02  0.00000000000E+00 0. -1.
</event>
<event>
 7    1  0.6090311E-013  0.5052886E+02  0.7816164E-02  0.1300439E+00
        -11   -1    0    0    0    0  0.00000000000E+00  0.00000000000E+00  0.45593999997E+02  0.45594000000E+02  0.51100000000E-03 0.  1.
         11   -1    0    0    0    0 -0.00000000000E+00 -0.00000000000E+00 -0.45593999997E+02  0.45594000000E+02  0.51100000000E-03 0. -1.
    9900012    2    1    2    0    0  0.14638486922E+02 -0.10111215563E+02 -0.36560135542E+02  0.50528862154E+02  0.30000007004E+02 0.  0.
        -12    1    1    2    0    0 -0.14638486922E+02  0.10111215563E+02  0.36560135542E+02  0.40659137846E+02  0.00000000000E+00 0.  1.
         11    1    3    3    0    0  0.11826507056E+02 -0.12124982776E+02 -0.17603256168E+02  0.24428591945E+02  0.51100000000E-03 0. -1.
        -11    1    3    3    0    0  0.20698940873E+01 -0.57766252482E+01 -0.16942527975E+02  0.18019520394E+02  0.51100000000E-03 0.  1.
        -12    1    3    3    0    0  0.74208577910E+00  0.77903924615E+01 -0.20143513990E+01  0.80807498146E+01  0.00000000000E+00 0.  1.
</event>
<event>
 7    1  0.6090311E-013  0.5052886E+02  0.7816164E-02  0.1300439E+00
        -11   -1    0    0    0    0  0.00000000000E+00  0.00000000000E+00  0.45593999997E+02  0.45594000000E+02  0.51100000000E-03 0.  1.
         11   -1    0    0    0    0 -0.00000000000E+00 -0.00000000000E+00 -0.45593999997E+02  0.45594000000E+02  0.51100000000E-03 0. -1.
    9900012    2    1    2    0    0 -0.20145933428E+02 -0.59373741754E+01 -0.34814571777E+02  0.50528862604E+02  0.30000008370E+02 0.  0.
        -12    1    1    2    0    0  0.20145933428E+02  0.59373741754E+01  0.34814571777E+02  0.40659137396E+02  0.00000000000E+00 0.  1.
         11    1    3    3    0    0  0.43517290746E+01 -0.11621506532E+01 -0.15910842431E+02  0.16536113425E+02  0.51100000000E-03 0. -1.
        -11    1    3    3    0    0 -0.76142365459E+01 -0.67375717194E+01 -0.27232577739E+01  0.10525569059E+02  0.51100000000E-03 0.  1.
        -12    1    3    3    0    0 -0.16883425956E+02  0.19623481972E+01 -0.16180471572E+02  0.23467180120E+02  0.00000000000E+00 0.  1.
</event>
<event>
 7    1  0.6090311E-013  0.5052886E+02  0.7816164E-02  0.1300439E+00
        -11   -1    0    0    0    0  0.00000000000E+00  0.00000000000E+00  0.45593999997E+02  0.45594000000E+02  0.51100000000E-03 0. -1.
         11   -1    0    0    0    0 -0.00000000000E+00 -0.00000000000E+00 -0.45593999997E+02  0.45594000000E+02  0.51100000000E-03 0.  1.
    9900012    2    1    2    0    0  0.35990314558E+02  0.17512628815E+02  0.71533969137E+01  0.50528855919E+02  0.29999988052E+02 0.  0.
        -12    1    1    2    0    0 -0.35990314558E+02 -0.17512628815E+02 -0.71533969137E+01  0.40659144081E+02  0.00000000000E+00 0.  1.
         11    1    3    3    0    0  0.81818661547E+01  0.43694288831E+01  0.12711566811E+02  0.15735907142E+02  0.51100000000E-03 0. -1.
        -11    1    3    3    0    0  0.17123079750E+02 -0.10182825723E+00 -0.89031903580E+00  0.17146512688E+02  0.51100000000E-03 0.  1.
         12    1    3    3    0    0  0.10685368653E+02  0.13245028189E+02 -0.46678508613E+01  0.17646436089E+02  0.00000000000E+00 0. -1.
</event>
<event>
 7    1  0.6090311E-013  0.5052886E+02  0.7816164E-02  0.1300439E+00
        -11   -1    0    0    0    0  0.00000000000E+00  0.00000000000E+00  0.45593999997E+02  0.45594000000E+02  0.51100000000E-03 0.  1.
         11   -1    0    0    0    0 -0.00000000000E+00 -0.00000000000E+00 -0.45593999997E+02  0.45594000000E+02  0.51100000000E-03 0. -1.
    9900012    2    1    2    0    0  0.21185194630E+02  0.58821205976E+01 -0.34201667357E+02  0.50528857556E+02  0.29999993028E+02 0.  0.
        -12    1    1    2    0    0 -0.21185194630E+02 -0.58821205976E+01  0.34201667357E+02  0.40659142444E+02  0.00000000000E+00 0.  1.
         11    1    3    3    0    0  0.68157208228E+01  0.65867979301E+01 -0.17945396418E+02  0.20294758195E+02  0.51100000000E-03 0. -1.
        -11    1    3    3    0    0  0.66100479613E+01  0.32585381682E+01 -0.19570503381E+02  0.20912087602E+02  0.51100000000E-03 0.  1.
        -12    1    3    3    0    0  0.77594258460E+01 -0.39632155007E+01  0.33142324418E+01  0.93220117594E+01  0.00000000000E+00 0.  1.
</event>
<event>
 7    1  0.6090311E-013  0.5052886E+02  0.7816164E-02  0.1300439E+00
        -11   -1    0    0    0    0  0.00000000000E+00  0.00000000000E+00  0.45593999997E+02  0.45594000000E+02  0.51100000000E-03 0. -1.
         11   -1    0    0    0    0 -0.00000000000E+00 -0.00000000000E+00 -0.45593999997E+02  0.45594000000E+02  0.51100000000E-03 0.  1.
    9900012    2    1    2    0    0 -0.35810047468E+02  0.69390118552E+01  0.17962636221E+02  0.50528859758E+02  0.29999999722E+02 0.  0.
        -12    1    1    2    0    0  0.35810047468E+02 -0.69390118552E+01 -0.17962636221E+02  0.40659140242E+02  0.00000000000E+00 0.  1.
         11    1    3    3    0    0 -0.22580454494E+01  0.16870565321E+01 -0.13860320762E+01  0.31410211989E+01  0.51100000000E-03 0. -1.
        -11    1    3    3    0    0  0.33188119241E+01  0.40270877224E+01  0.64724905533E+01  0.83141495257E+01  0.51100000000E-03 0.  1.
         12    1    3    3    0    0 -0.36870813943E+02  0.12248676006E+01  0.12876177744E+02  0.39073689034E+02  0.00000000000E+00 0. -1.
</event>
<event>
 7    1  0.6090311E-013  0.5052886E+02  0.7816164E-02  0.1300439E+00
        -11   -1    0    0    0    0  0.00000000000E+00  0.00000000000E+00  0.45593999997E+02  0.45594000000E+02  0.51100000000E-03 0.  1.
         11   -1    0    0    0    0 -0.00000000000E+00 -0.00000000000E+00 -0.45593999997E+02  0.45594000000E+02  0.51100000000E-03 0. -1.
    9900012    2    1    2    0    0  0.11549619350E+02 -0.22572252573E+02 -0.31784671502E+02  0.50528860365E+02  0.30000001566E+02 0.  0.
        -12    1    1    2    0    0 -0.11549619350E+02  0.22572252573E+02  0.31784671502E+02  0.40659139635E+02  0.00000000000E+00 0.  1.
         11    1    3    3    0    0  0.57907889908E+01 -0.89255260329E+01 -0.49296066619E+01  0.11726008451E+02  0.51100000000E-03 0. -1.
        -11    1    3    3    0    0  0.22880223003E+01 -0.93502223831E+01  0.16509801390E+01  0.97666493917E+01  0.51100000000E-03 0.  1.
         12    1    3    3    0    0  0.34708080589E+01 -0.42965041568E+01 -0.28506044979E+02  0.29036202522E+02  0.00000000000E+00 0. -1.
</event>
<event>
 7    1  0.6090311E-013  0.5052886E+02  0.7816164E-02  0.1300439E+00
        -11   -1    0    0    0    0  0.00000000000E+00  0.00000000000E+00  0.45593999997E+02  0.45594000000E+02  0.51100000000E-03 0.  1.
         11   -1    0    0    0    0 -0.00000000000E+00 -0.00000000000E+00 -0.45593999997E+02  0.45594000000E+02  0.51100000000E-03 0. -1.
    9900012    2    1    2    0    0 -0.27208958581E+02  0.20657702235E+00 -0.30212505689E+02  0.50528860792E+02  0.30000002863E+02 0.  0.
        -12    1    1    2    0    0  0.27208958581E+02 -0.20657702235E+00  0.30212505689E+02  0.40659139208E+02  0.00000000000E+00 0.  1.
         11    1    3    3    0    0 -0.41269147794E+01  0.42994159673E+01  0.66958621027E+00  0.59970617148E+01  0.51100000000E-03 0. -1.
        -11    1    3    3    0    0 -0.10060025530E+02 -0.86706596318E+01 -0.32941799834E+01  0.13683423334E+02  0.51100000000E-03 0.  1.
        -12    1    3    3    0    0 -0.13022018272E+02  0.45778206868E+01 -0.27587911916E+02  0.30848375743E+02  0.00000000000E+00 0.  1.
</event>
<event>
 7    1  0.6090311E-013  0.5052886E+02  0.7816164E-02  0.1300439E+00
        -11   -1    0    0    0    0  0.00000000000E+00  0.00000000000E+00  0.45593999997E+02  0.45594000000E+02  0.51100000000E-03 0. -1.
         11   -1    0    0    0    0 -0.00000000000E+00 -0.00000000000E+00 -0.45593999997E+02  0.45594000000E+02  0.51100000000E-03 0.  1.
    9900012    2    1    2    0    0  0.16176651331E+02 -0.19347570956E+01  0.37252360558E+02  0.50528859571E+02  0.29999999153E+02 0.  0.
        -12    1    1    2    0    0 -0.16176651331E+02  0.19347570956E+01 -0.37252360558E+02  0.40659140429E+02  0.00000000000E+00 0.  1.
         11    1    3    3    0    0  0.64991873101E+01 -0.88294918627E+01  0.12517212983E+02  0.16639711036E+02  0.51100000000E-03 0. -1.
        -11    1    3    3    0    0 -0.44968034003E+00 -0.63903654688E+01  0.58408803727E+01  0.86691906786E+01  0.51100000000E-03 0.  1.
         12    1    3    3    0    0  0.10127144361E+02  0.13285100236E+02  0.18894267202E+02  0.25219957856E+02  0.00000000000E+00 0. -1.
</event>
<event>
 7    1  0.6090311E-013  0.5052885E+02  0.7816164E-02  0.1300439E+00
        -11   -1    0    0    0    0  0.00000000000E+00  0.00000000000E+00  0.45593999997E+02  0.45594000000E+02  0.51100000000E-03 0.  1.
         11   -1    0    0    0    0 -0.00000000000E+00 -0.00000000000E+00 -0.45593999997E+02  0.45594000000E+02  0.51100000000E-03 0. -1.
    9900012    2    1    2    0    0 -0.28666618435E+02  0.27719594713E+02 -0.79382326705E+01  0.50528849966E+02  0.29999969958E+02 0.  0.
        -12    1    1    2    0    0  0.28666618435E+02 -0.27719594713E+02  0.79382326705E+01  0.40659150034E+02  0.00000000000E+00 0.  1.
         11    1    3    3    0    0 -0.70394849524E+01  0.10752288816E+02 -0.10223289262E+02  0.16421988515E+02  0.51100000000E-03 0. -1.
        -11    1    3    3    0    0 -0.82767346153E+01  0.17531926812E+02 -0.32235511273E+01  0.19653602106E+02  0.51100000000E-03 0.  1.
        -12    1    3    3    0    0 -0.13350398867E+02 -0.56462091513E+00  0.55086077191E+01  0.14453259345E+02  0.00000000000E+00 0.  1.
</event>
<event>
 7    1  0.6090311E-013  0.5052883E+02  0.7816164E-02  0.1300439E+00
        -11   -1    0    0    0    0  0.00000000000E+00  0.00000000000E+00  0.45593999997E+02  0.45594000000E+02  0.51100000000E-03 0.  1.
         11   -1    0    0    0    0 -0.00000000000E+00 -0.00000000000E+00 -0.45593999997E+02  0.45594000000E+02  0.51100000000E-03 0. -1.
    9900012    2    1    2    0    0 -0.17034393633E+02 -0.27562123512E+02 -0.24562712567E+02  0.50528830461E+02  0.29999910670E+02 0.  0.
        -12    1    1    2    0    0  0.17034393633E+02  0.27562123512E+02  0.24562712567E+02  0.40659169539E+02  0.00000000000E+00 0.  1.
         11    1    3    3    0    0 -0.10225030535E+02 -0.11398467009E+02 -0.10712501342E+02  0.18687803105E+02  0.51100000000E-03 0. -1.
        -11    1    3    3    0    0 -0.99997600322E+01 -0.12845696522E+02 -0.18942639556E+02  0.24976603321E+02  0.51100000000E-03 0.  1.
        -12    1    3    3    0    0  0.31903969347E+01 -0.33179599812E+01  0.50924283313E+01  0.68644240361E+01  0.00000000000E+00 0.  1.
</event>
<event>
 7    1  0.6090311E-013  0.5052888E+02  0.7816164E-02  0.1300439E+00
        -11   -1    0    0    0    0  0.00000000000E+00  0.00000000000E+00  0.45593999997E+02  0.45594000000E+02  0.51100000000E-03 0. -1.
         11   -1    0    0    0    0 -0.00000000000E+00 -0.00000000000E+00 -0.45593999997E+02  0.45594000000E+02  0.51100000000E-03 0.  1.
    9900012    2    1    2    0    0  0.10758637077E+02  0.49594356673E+01  0.38894982168E+02  0.50528881567E+02  0.30000066011E+02 0.  0.
        -12    1    1    2    0    0 -0.10758637077E+02 -0.49594356673E+01 -0.38894982168E+02  0.40659118433E+02  0.00000000000E+00 0.  1.
         11    1    3    3    0    0  0.66807011718E+01  0.10838070960E+02  0.33380550609E+02  0.35726134825E+02  0.51100000000E-03 0. -1.
        -11    1    3    3    0    0  0.43100366533E+01  0.80028199843E+00 -0.19377727699E+01  0.47928937813E+01  0.51100000000E-03 0.  1.
        -12    1    3    3    0    0 -0.23210074792E+00 -0.66789172916E+01  0.74522043290E+01  0.10009852961E+02  0.00000000000E+00 0.  1.
</event>
<event>
 7    1  0.6090311E-013  0.5052885E+02  0.7816164E-02  0.1300439E+00
        -11   -1    0    0    0    0  0.00000000000E+00  0.00000000000E+00  0.45593999997E+02  0.45594000000E+02  0.51100000000E-03 0. -1.
         11   -1    0    0    0    0 -0.00000000000E+00 -0.00000000000E+00 -0.45593999997E+02  0.45594000000E+02  0.51100000000E-03 0.  1.
    9900012    2    1    2    0    0 -0.26731875393E+02 -0.23553246021E+02  0.19591279978E+02  0.50528845910E+02  0.29999957627E+02 0.  0.
        -12    1    1    2    0    0  0.26731875393E+02  0.23553246021E+02 -0.19591279978E+02  0.40659154090E+02  0.00000000000E+00 0.  1.
         11    1    3    3    0    0 -0.89171688427E+01 -0.24117577863E+02  0.67778685530E+01  0.26591595750E+02  0.51100000000E-03 0. -1.
        -11    1    3    3    0    0 -0.21247009367E+01 -0.31381532378E+01  0.42090315869E+01  0.56637714445E+01  0.51100000000E-03 0.  1.
        -12    1    3    3    0    0 -0.15690005614E+02  0.37024850802E+01  0.86043798380E+01  0.18273478715E+02  0.00000000000E+00 0.  1.
</event>
<event>
 7    1  0.6090311E-013  0.5052885E+02  0.7816164E-02  0.1300439E+00
        -11   -1    0    0    0    0  0.00000000000E+00  0.00000000000E+00  0.45593999997E+02  0.45594000000E+02  0.51100000000E-03 0. -1.
         11   -1    0    0    0    0 -0.00000000000E+00 -0.00000000000E+00 -0.45593999997E+02  0.45594000000E+02  0.51100000000E-03 0.  1.
    9900012    2    1    2    0    0  0.16746396016E+02  0.48676286312E+01  0.36729156077E+02  0.50528849811E+02  0.29999969484E+02 0.  0.
        -12    1    1    2    0    0 -0.16746396016E+02 -0.48676286312E+01 -0.36729156077E+02  0.40659150189E+02  0.00000000000E+00 0.  1.
         11    1    3    3    0    0  0.14987537046E+02 -0.55883792688E+01  0.31575664320E+02  0.35396028408E+02  0.51100000000E-03 0.  1.
        -11    1    3    3    0    0  0.39593780536E+01  0.31120943857E+01  0.55014741588E+01  0.74584196863E+01  0.51100000000E-03 0. -1.
        -12    1    3    3    0    0 -0.22005190837E+01  0.73439135144E+01 -0.34798240241E+00  0.76744017159E+01  0.00000000000E+00 0.  1.
</event>
<event>
 7    1  0.6090311E-013  0.5052886E+02  0.7816164E-02  0.1300439E+00
        -11   -1    0    0    0    0  0.00000000000E+00  0.00000000000E+00  0.45593999997E+02  0.45594000000E+02  0.51100000000E-03 0.  1.
         11   -1    0    0    0    0 -0.00000000000E+00 -0.00000000000E+00 -0.45593999997E+02  0.45594000000E+02  0.51100000000E-03 0. -1.
    9900012    2    1    2    0    0  0.36228465182E+01 -0.35806816203E+02 -0.18918575484E+02  0.50528860783E+02  0.30000002837E+02 0.  0.
        -12    1    1    2    0    0 -0.36228465182E+01  0.35806816203E+02  0.18918575484E+02  0.40659139217E+02  0.00000000000E+00 0.  1.
         11    1    3    3    0    0  0.63882686336E+01 -0.20754574639E+02 -0.16924883518E+02  0.27532054535E+02  0.51100000000E-03 0. -1.
        -11    1    3    3    0    0  0.58312556590E+01 -0.12621843408E+02 -0.31807696590E+00  0.13907395399E+02  0.51100000000E-03 0.  1.
         12    1    3    3    0    0 -0.85966777744E+01 -0.24303981565E+01 -0.16756150008E+01  0.90894108492E+01  0.00000000000E+00 0. -1.
</event>
<event>
 7    1  0.6090311E-013  0.5052887E+02  0.7816164E-02  0.1300439E+00
        -11   -1    0    0    0    0  0.00000000000E+00  0.00000000000E+00  0.45593999997E+02  0.45594000000E+02  0.51100000000E-03 0.  1.
         11   -1    0    0    0    0 -0.00000000000E+00 -0.00000000000E+00 -0.45593999997E+02  0.45594000000E+02  0.51100000000E-03 0. -1.
    9900012    2    1    2    0    0  0.12804549852E+02 -0.28704586932E+02 -0.25792544627E+02  0.50528866141E+02  0.30000019121E+02 0.  0.
        -12    1    1    2    0    0 -0.12804549852E+02  0.28704586932E+02  0.25792544627E+02  0.40659133859E+02  0.00000000000E+00 0.  1.
         11    1    3    3    0    0  0.12003546780E+02 -0.24828677330E+02 -0.12457676851E+02  0.30261230412E+02  0.51100000000E-03 0. -1.
        -11    1    3    3    0    0  0.60860070330E+01 -0.58297162636E+00 -0.12590422562E+02  0.13996359458E+02  0.51100000000E-03 0.  1.
         12    1    3    3    0    0 -0.52850039616E+01 -0.32929379762E+01 -0.74444521334E+00  0.62712762708E+01  0.00000000000E+00 0. -1.
</event>
<event>
 7    1  0.6090311E-013  0.5052886E+02  0.7816164E-02  0.1300439E+00
        -11   -1    0    0    0    0  0.00000000000E+00  0.00000000000E+00  0.45593999997E+02  0.45594000000E+02  0.51100000000E-03 0.  1.
         11   -1    0    0    0    0 -0.00000000000E+00 -0.00000000000E+00 -0.45593999997E+02  0.45594000000E+02  0.51100000000E-03 0. -1.
    9900012    2    1    2    0    0  0.83388175199E+01  0.96488184680E+01 -0.38607383115E+02  0.50528860727E+02  0.30000002664E+02 0.  0.
        -12    1    1    2    0    0 -0.83388175199E+01 -0.96488184680E+01  0.38607383115E+02  0.40659139273E+02  0.00000000000E+00 0.  1.
         11    1    3    3    0    0 -0.25400095751E+01 -0.35661448773E+01 -0.16873623642E+02  0.17432389767E+02  0.51100000000E-03 0. -1.
        -11    1    3    3    0    0  0.22457459131E+01 -0.27687725193E+01  0.12701413573E+01  0.37845389809E+01  0.51100000000E-03 0.  1.
         12    1    3    3    0    0  0.86330811819E+01  0.15983735865E+02 -0.23003900831E+02  0.29311931978E+02  0.00000000000E+00 0. -1.
</event>
<event>
 7    1  0.6090311E-013  0.5052884E+02  0.7816164E-02  0.1300439E+00
        -11   -1    0    0    0    0  0.00000000000E+00  0.00000000000E+00  0.45593999997E+02  0.45594000000E+02  0.51100000000E-03 0. -1.
         11   -1    0    0    0    0 -0.00000000000E+00 -0.00000000000E+00 -0.45593999997E+02  0.45594000000E+02  0.51100000000E-03 0.  1.
    9900012    2    1    2    0    0  0.40820766733E+01 -0.40149330902E+02 -0.49532842426E+01  0.50528841786E+02  0.29999945093E+02 0.  0.
        -12    1    1    2    0    0 -0.40820766733E+01  0.40149330902E+02  0.49532842426E+01  0.40659158214E+02  0.00000000000E+00 0.  1.
         11    1    3    3    0    0  0.67000855304E+01 -0.66651398484E+01  0.90199591426E+01  0.13064260351E+02  0.51100000000E-03 0. -1.
        -11    1    3    3    0    0 -0.51004033265E+01 -0.16115783196E+02 -0.43523935757E+01  0.17454968124E+02  0.51100000000E-03 0.  1.
        -12    1    3    3    0    0  0.24823944694E+01 -0.17368407858E+02 -0.96208498095E+01  0.20009613312E+02  0.00000000000E+00 0.  1.
</event>
<event>
 7    1  0.6090311E-013  0.5052887E+02  0.7816164E-02  0.1300439E+00
        -11   -1    0    0    0    0  0.00000000000E+00  0.00000000000E+00  0.45593999997E+02  0.45594000000E+02  0.51100000000E-03 0.  1.
         11   -1    0    0    0    0 -0.00000000000E+00 -0.00000000000E+00 -0.45593999997E+02  0.45594000000E+02  0.51100000000E-03 0. -1.
    9900012    2    1    2    0    0 -0.71503356621E+01  0.29400021144E+02 -0.27160194136E+02  0.50528872011E+02  0.30000036964E+02 0.  0.
        -12    1    1    2    0    0  0.71503356621E+01 -0.29400021144E+02  0.27160194136E+02  0.40659127989E+02  0.00000000000E+00 0.  1.
         11    1    3    3    0    0 -0.26982140717E+01  0.23560324785E+02 -0.15143768504E+02  0.28137217132E+02  0.51100000000E-03 0. -1.
        -11    1    3    3    0    0  0.10152500482E+01  0.95984144112E+01 -0.12327207440E+01  0.97303593234E+01  0.51100000000E-03 0.  1.
        -12    1    3    3    0    0 -0.54673716386E+01 -0.37587180528E+01 -0.10783704888E+02  0.12661295555E+02  0.00000000000E+00 0.  1.
</event>
<event>
 7    1  0.6090311E-013  0.5052887E+02  0.7816164E-02  0.1300439E+00
        -11   -1    0    0    0    0  0.00000000000E+00  0.00000000000E+00  0.45593999997E+02  0.45594000000E+02  0.51100000000E-03 0.  1.
         11   -1    0    0    0    0 -0.00000000000E+00 -0.00000000000E+00 -0.45593999997E+02  0.45594000000E+02  0.51100000000E-03 0. -1.
    9900012    2    1    2    0    0  0.23316096672E+02 -0.30034686246E+02 -0.14402849611E+02  0.50528870412E+02  0.30000032104E+02 0.  0.
        -12    1    1    2    0    0 -0.23316096672E+02  0.30034686246E+02  0.14402849611E+02  0.40659129588E+02  0.00000000000E+00 0.  1.
         11    1    3    3    0    0  0.38380357980E+01 -0.63048877045E+01 -0.85387179837E+01  0.11286799051E+02  0.51100000000E-03 0. -1.
        -11    1    3    3    0    0  0.74510593843E+01 -0.12405651055E+02 -0.14598685053E+02  0.20555779469E+02  0.51100000000E-03 0.  1.
        -12    1    3    3    0    0  0.12027001490E+02 -0.11324147486E+02  0.87345534249E+01  0.18686291892E+02  0.00000000000E+00 0.  1.
</event>
<event>
 7    1  0.6090311E-013  0.5052886E+02  0.7816164E-02  0.1300439E+00
        -11   -1    0    0    0    0  0.00000000000E+00  0.00000000000E+00  0.45593999997E+02  0.45594000000E+02  0.51100000000E-03 0.  1.
         11   -1    0    0    0    0 -0.00000000000E+00 -0.00000000000E+00 -0.45593999997E+02  0.45594000000E+02  0.51100000000E-03 0. -1.
    9900012    2    1    2    0    0 -0.94055146340E+01  0.23691693744E+02 -0.31676573038E+02  0.50528864035E+02  0.30000012721E+02 0.  0.
        -12    1    1    2    0    0  0.94055146340E+01 -0.23691693744E+02  0.31676573038E+02  0.40659135965E+02  0.00000000000E+00 0.  1.
         11    1    3    3    0    0 -0.19434253361E+01  0.37338056714E+00 -0.11904602936E+02  0.12067969440E+02  0.51100000000E-03 0. -1.
        -11    1    3    3    0    0  0.50913289493E+01  0.82714993923E+00 -0.93431158440E+01  0.10672376559E+02  0.51100000000E-03 0.  1.
         12    1    3    3    0    0 -0.12553418247E+02  0.22491163238E+02 -0.10428854258E+02  0.27788518036E+02  0.00000000000E+00 0. -1.
</event>
<event>
 7    1  0.6090311E-013  0.5052885E+02  0.7816164E-02  0.1300439E+00
        -11   -1    0    0    0    0  0.00000000000E+00  0.00000000000E+00  0.45593999997E+02  0.45594000000E+02  0.51100000000E-03 0.  1.
         11   -1    0    0    0    0 -0.00000000000E+00 -0.00000000000E+00 -0.45593999997E+02  0.45594000000E+02  0.51100000000E-03 0. -1.
    9900012    2    1    2    0    0  0.37385944942E+01 -0.10666351973E+02 -0.39056606614E+02  0.50528847606E+02  0.29999962784E+02 0.  0.
        -12    1    1    2    0    0 -0.37385944942E+01  0.10666351973E+02  0.39056606614E+02  0.40659152394E+02  0.00000000000E+00 0.  1.
         11    1    3    3    0    0  0.20558192614E+01  0.25608755278E+01 -0.79614504655E+01  0.86121524649E+01  0.51100000000E-03 0. -1.
        -11    1    3    3    0    0  0.90432352248E+01  0.31063074289E+01 -0.68129089607E+01  0.11740740093E+02  0.51100000000E-03 0.  1.
        -12    1    3    3    0    0 -0.73604599919E+01 -0.16333534930E+02 -0.24282247187E+02  0.30175955048E+02  0.00000000000E+00 0.  1.
</event>
<event>
 7    1  0.6090311E-013  0.5052889E+02  0.7816164E-02  0.1300439E+00
        -11   -1    0    0    0    0  0.00000000000E+00  0.00000000000E+00  0.45593999997E+02  0.45594000000E+02  0.51100000000E-03 0. -1.
         11   -1    0    0    0    0 -0.00000000000E+00 -0.00000000000E+00 -0.45593999997E+02  0.45594000000E+02  0.51100000000E-03 0.  1.
    9900012    2    1    2    0    0  0.29294480920E+02  0.55976001574E+01  0.27634464837E+02  0.50528888023E+02  0.30000085636E+02 0.  0.
        -12    1    1    2    0    0 -0.29294480920E+02 -0.55976001574E+01 -0.27634464837E+02  0.40659111977E+02  0.00000000000E+00 0.  1.
         11    1    3    3    0    0  0.10012387019E+02  0.29238145745E+01  0.64729625306E+01  0.12275822973E+02  0.51100000000E-03 0. -1.
        -11    1    3    3    0    0 -0.21920075619E+00 -0.45531947308E+01 -0.36775414413E+01  0.58569567645E+01  0.51100000000E-03 0.  1.
         12    1    3    3    0    0  0.19501294657E+02  0.72269803136E+01  0.24839043748E+02  0.32396108286E+02  0.00000000000E+00 0. -1.
</event>
<event>
 7    1  0.6090311E-013  0.5052885E+02  0.7816164E-02  0.1300439E+00
        -11   -1    0    0    0    0  0.00000000000E+00  0.00000000000E+00  0.45593999997E+02  0.45594000000E+02  0.51100000000E-03 0.  1.
         11   -1    0    0    0    0 -0.00000000000E+00 -0.00000000000E+00 -0.45593999997E+02  0.45594000000E+02  0.51100000000E-03 0. -1.
    9900012    2    1    2    0    0 -0.37179294041E+02 -0.14792825235E+02  0.72137965455E+01  0.50528850422E+02  0.29999971342E+02 0.  0.
        -12    1    1    2    0    0  0.37179294041E+02  0.14792825235E+02 -0.72137965455E+01  0.40659149578E+02  0.00000000000E+00 0.  1.
         11    1    3    3    0    0 -0.12101784137E+02 -0.28184707245E+01  0.96847290901E+01  0.15754076753E+02  0.51100000000E-03 0. -1.
        -11    1    3    3    0    0 -0.36417486590E+01  0.43868077249E+01  0.40962326847E+01  0.70203659291E+01  0.51100000000E-03 0.  1.
        -12    1    3    3    0    0 -0.21435761244E+02 -0.16361162236E+02 -0.65671652293E+01  0.27754407740E+02  0.00000000000E+00 0.  1.
</event>
<event>
 7    1  0.6090311E-013  0.5052886E+02  0.7816164E-02  0.1300439E+00
        -11   -1    0    0    0    0  0.00000000000E+00  0.00000000000E+00  0.45593999997E+02  0.45594000000E+02  0.51100000000E-03 0.  1.
         11   -1    0    0    0    0 -0.00000000000E+00 -0.00000000000E+00 -0.45593999997E+02  0.45594000000E+02  0.51100000000E-03 0. -1.
    9900012    2    1    2    0    0 -0.92643775373E+01 -0.37411266059E+02 -0.12951225834E+02  0.50528858716E+02  0.29999996554E+02 0.  0.
        -12    1    1    2    0    0  0.92643775373E+01  0.37411266059E+02  0.12951225834E+02  0.40659141284E+02  0.00000000000E+00 0.  1.
         11    1    3    3    0    0 -0.12189447260E+02 -0.19765236319E+02 -0.87130340124E+01  0.24802502963E+02  0.51100000000E-03 0. -1.
        -11    1    3    3    0    0 -0.25966816971E+00 -0.58304165092E+01 -0.10475214542E+02  0.11991301189E+02  0.51100000000E-03 0.  1.
        -12    1    3    3    0    0  0.31847378929E+01 -0.11815613232E+02  0.62370227206E+01  0.13735054565E+02  0.00000000000E+00 0.  1.
</event>
<event>
 7    1  0.6090311E-013  0.5052892E+02  0.7816164E-02  0.1300439E+00
        -11   -1    0    0    0    0  0.00000000000E+00  0.00000000000E+00  0.45593999997E+02  0.45594000000E+02  0.51100000000E-03 0. -1.
         11   -1    0    0    0    0 -0.00000000000E+00 -0.00000000000E+00 -0.45593999997E+02  0.45594000000E+02  0.51100000000E-03 0.  1.
    9900012    2    1    2    0    0 -0.17738309723E+02 -0.17236935168E+02  0.32270747044E+02  0.50528921302E+02  0.30000186788E+02 0.  0.
        -12    1    1    2    0    0  0.17738309723E+02  0.17236935168E+02 -0.32270747044E+02  0.40659078698E+02  0.00000000000E+00 0.  1.
         11    1    3    3    0    0 -0.10828692683E+02 -0.16037046908E+02  0.11790573195E+02  0.22659767767E+02  0.51100000000E-03 0. -1.
        -11    1    3    3    0    0 -0.10786687198E+01 -0.79059761193E+01  0.35185309895E+01  0.87205530325E+01  0.51100000000E-03 0.  1.
         12    1    3    3    0    0 -0.58309483197E+01  0.67060878589E+01  0.16961642860E+02  0.19148600502E+02  0.00000000000E+00 0. -1.
</event>
<event>
 7    1  0.6090311E-013  0.5052889E+02  0.7816164E-02  0.1300439E+00
        -11   -1    0    0    0    0  0.00000000000E+00  0.00000000000E+00  0.45593999997E+02  0.45594000000E+02  0.51100000000E-03 0.  1.
         11   -1    0    0    0    0 -0.00000000000E+00 -0.00000000000E+00 -0.45593999997E+02  0.45594000000E+02  0.51100000000E-03 0. -1.
    9900012    2    1    2    0    0  0.88969579405E+01 -0.35042173467E+02 -0.18602514748E+02  0.50528888637E+02  0.30000087501E+02 0.  0.
        -12    1    1    2    0    0 -0.88969579405E+01  0.35042173467E+02  0.18602514748E+02  0.40659111363E+02  0.00000000000E+00 0.  1.
         11    1    3    3    0    0  0.11536092577E+02 -0.50646651395E+01 -0.89157033034E+00  0.12630406281E+02  0.51100000000E-03 0. -1.
        -11    1    3    3    0    0 -0.37936474274E+00 -0.78244130584E+01 -0.12937897793E+02  0.15124634107E+02  0.51100000000E-03 0.  1.
        -12    1    3    3    0    0 -0.22597698936E+01 -0.22153095269E+02 -0.47730466255E+01  0.22773848249E+02  0.00000000000E+00 0.  1.
</event>
<event>
 7    1  0.6090311E-013  0.5052883E+02  0.7816164E-02  0.1300439E+00
        -11   -1    0    0    0    0  0.00000000000E+00  0.00000000000E+00  0.45593999997E+02  0.45594000000E+02  0.51100000000E-03 0.  1.
         11   -1    0    0    0    0 -0.00000000000E+00 -0.00000000000E+00 -0.45593999997E+02  0.45594000000E+02  0.51100000000E-03 0. -1.
    9900012    2    1    2    0    0  0.36839035799E+02  0.73009285089E+01 -0.15580441821E+02  0.50528827811E+02  0.29999902616E+02 0.  0.
        -12    1    1    2    0    0 -0.36839035799E+02 -0.73009285089E+01  0.15580441821E+02  0.40659172189E+02  0.00000000000E+00 0.  1.
         11    1    3    3    0    0  0.80868507102E+01 -0.13166826148E+00 -0.14132007540E+02  0.16282755550E+02  0.51100000000E-03 0. -1.
        -11    1    3    3    0    0  0.14800716382E+02 -0.40978250652E+01 -0.42410169768E+01  0.15932344490E+02  0.51100000000E-03 0.  1.
        -12    1    3    3    0    0  0.13951468707E+02  0.11530421836E+02  0.27925826948E+01  0.18313727772E+02  0.00000000000E+00 0.  1.
</event>
<event>
 7    1  0.6090311E-013  0.5052886E+02  0.7816164E-02  0.1300439E+00
        -11   -1    0    0    0    0  0.00000000000E+00  0.00000000000E+00  0.45593999997E+02  0.45594000000E+02  0.51100000000E-03 0.  1.
         11   -1    0    0    0    0 -0.00000000000E+00 -0.00000000000E+00 -0.45593999997E+02  0.45594000000E+02  0.51100000000E-03 0. -1.
    9900012    2    1    2    0    0  0.18692661085E+02 -0.32123435824E+01 -0.35964300853E+02  0.50528859999E+02  0.30000000454E+02 0.  0.
        -12    1    1    2    0    0 -0.18692661085E+02  0.32123435824E+01  0.35964300853E+02  0.40659140001E+02  0.00000000000E+00 0.  1.
         11    1    3    3    0    0  0.16289204652E+02  0.49526689883E+01 -0.18996016049E+02  0.25509130606E+02  0.51100000000E-03 0. -1.
        -11    1    3    3    0    0  0.70121086732E+01 -0.14411239307E+01 -0.11855930256E+01  0.72561792503E+01  0.51100000000E-03 0.  1.
        -12    1    3    3    0    0 -0.46086522397E+01 -0.67238886400E+01 -0.15782691778E+02  0.17763550143E+02  0.00000000000E+00 0.  1.
</event>
<event>
 7    1  0.6090311E-013  0.5052886E+02  0.7816164E-02  0.1300439E+00
        -11   -1    0    0    0    0  0.00000000000E+00  0.00000000000E+00  0.45593999997E+02  0.45594000000E+02  0.51100000000E-03 0.  1.
         11   -1    0    0    0    0 -0.00000000000E+00 -0.00000000000E+00 -0.45593999997E+02  0.45594000000E+02  0.51100000000E-03 0. -1.
    9900012    2    1    2    0    0 -0.96458699472E+01 -0.31339865086E+02 -0.24040296324E+02  0.50528858371E+02  0.29999995506E+02 0.  0.
        -12    1    1    2    0    0  0.96458699472E+01  0.31339865086E+02  0.24040296324E+02  0.40659141629E+02  0.00000000000E+00 0.  1.
         11    1    3    3    0    0  0.39275801991E+01 -0.85365519873E+01 -0.85331155049E+01  0.12693016447E+02  0.51100000000E-03 0.  1.
        -11    1    3    3    0    0 -0.43706817839E+01 -0.13551613364E+02 -0.19539887044E+02  0.24177598515E+02  0.51100000000E-03 0. -1.
        -12    1    3    3    0    0 -0.92027683624E+01 -0.92516997351E+01  0.40327062251E+01  0.13658243409E+02  0.00000000000E+00 0.  1.
</event>
<event>
 7    1  0.6090311E-013  0.5052885E+02  0.7816164E-02  0.1300439E+00
        -11   -1    0    0    0    0  0.00000000000E+00  0.00000000000E+00  0.45593999997E+02  0.45594000000E+02  0.51100000000E-03 0.  1.
         11   -1    0    0    0    0 -0.00000000000E+00 -0.00000000000E+00 -0.45593999997E+02  0.45594000000E+02  0.51100000000E-03 0. -1.
    9900012    2    1    2    0    0 -0.27033940756E+02 -0.28227233431E+02 -0.11205168383E+02  0.50528850249E+02  0.29999970817E+02 0.  0.
        -12    1    1    2    0    0  0.27033940756E+02  0.28227233431E+02  0.11205168383E+02  0.40659149751E+02  0.00000000000E+00 0.  1.
         11    1    3    3    0    0 -0.51611004222E+01 -0.14887909502E+02 -0.12280688068E+02  0.19977540053E+02  0.51100000000E-03 0. -1.
        -11    1    3    3    0    0 -0.76667090632E+01 -0.14138994482E+02  0.23969655197E+01  0.16261458630E+02  0.51100000000E-03 0.  1.
         12    1    3    3    0    0 -0.14206131271E+02  0.79967055264E+00 -0.13214458350E+01  0.14289851566E+02  0.00000000000E+00 0. -1.
</event>
<event>
 7    1  0.6090311E-013  0.5052874E+02  0.7816164E-02  0.1300439E+00
        -11   -1    0    0    0    0  0.00000000000E+00  0.00000000000E+00  0.45593999997E+02  0.45594000000E+02  0.51100000000E-03 0. -1.
         11   -1    0    0    0    0 -0.00000000000E+00 -0.00000000000E+00 -0.45593999997E+02  0.45594000000E+02  0.51100000000E-03 0.  1.
    9900012    2    1    2    0    0  0.25732946447E+00  0.30349848422E+02  0.27055429787E+02  0.50528735390E+02  0.29999621688E+02 0.  0.
        -12    1    1    2    0    0 -0.25732946447E+00 -0.30349848422E+02 -0.27055429787E+02  0.40659264610E+02  0.00000000000E+00 0.  1.
         11    1    3    3    0    0 -0.36161981362E+01  0.28679768003E+01  0.15554411381E+02  0.16224730924E+02  0.51100000000E-03 0. -1.
        -11    1    3    3    0    0  0.42236198904E+01  0.11074358841E+01 -0.18484080784E+01  0.47415178900E+01  0.51100000000E-03 0.  1.
        -12    1    3    3    0    0 -0.35009228967E+00  0.26374435737E+02  0.13349426485E+02  0.29562486576E+02  0.00000000000E+00 0.  1.
</event>
<event>
 7    1  0.6090311E-013  0.5052886E+02  0.7816164E-02  0.1300439E+00
        -11   -1    0    0    0    0  0.00000000000E+00  0.00000000000E+00  0.45593999997E+02  0.45594000000E+02  0.51100000000E-03 0. -1.
         11   -1    0    0    0    0 -0.00000000000E+00 -0.00000000000E+00 -0.45593999997E+02  0.45594000000E+02  0.51100000000E-03 0.  1.
    9900012    2    1    2    0    0  0.31619515581E+01  0.14112012064E+02  0.38000249076E+02  0.50528858936E+02  0.29999997223E+02 0.  0.
        -12    1    1    2    0    0 -0.31619515581E+01 -0.14112012064E+02 -0.38000249076E+02  0.40659141064E+02  0.00000000000E+00 0.  1.
         11    1    3    3    0    0  0.45385384441E+01  0.46803854218E+01  0.58582917832E+01  0.87649256576E+01  0.51100000000E-03 0. -1.
        -11    1    3    3    0    0  0.10265935557E+02  0.26817746566E+01  0.55821308847E+01  0.11989225732E+02  0.51100000000E-03 0.  1.
        -12    1    3    3    0    0 -0.11642522443E+02  0.67498519860E+01  0.26559826408E+02  0.29774707547E+02  0.00000000000E+00 0.  1.
</event>
<event>
 7    1  0.6090311E-013  0.5052885E+02  0.7816164E-02  0.1300439E+00
        -11   -1    0    0    0    0  0.00000000000E+00  0.00000000000E+00  0.45593999997E+02  0.45594000000E+02  0.51100000000E-03 0.  1.
         11   -1    0    0    0    0 -0.00000000000E+00 -0.00000000000E+00 -0.45593999997E+02  0.45594000000E+02  0.51100000000E-03 0. -1.
    9900012    2    1    2    0    0  0.70026896455E+01  0.18589559500E+01 -0.40008409036E+02  0.50528853758E+02  0.29999981483E+02 0.  0.
        -12    1    1    2    0    0 -0.70026896455E+01 -0.18589559500E+01  0.40008409036E+02  0.40659146242E+02  0.00000000000E+00 0.  1.
         11    1    3    3    0    0  0.13344117508E+01 -0.77235691094E+01 -0.22105034954E+01  0.81437399561E+01  0.51100000000E-03 0. -1.
        -11    1    3    3    0    0  0.16063225923E+00 -0.33844408061E+00  0.14666757626E+01  0.15137652302E+01  0.51100000000E-03 0.  1.
         12    1    3    3    0    0  0.55076456354E+01  0.99209691399E+01 -0.39264581304E+02  0.40871348572E+02  0.00000000000E+00 0. -1.
</event>
<event>
 7    1  0.6090311E-013  0.5052886E+02  0.7816164E-02  0.1300439E+00
        -11   -1    0    0    0    0  0.00000000000E+00  0.00000000000E+00  0.45593999997E+02  0.45594000000E+02  0.51100000000E-03 0.  1.
         11   -1    0    0    0    0 -0.00000000000E+00 -0.00000000000E+00 -0.45593999997E+02  0.45594000000E+02  0.51100000000E-03 0. -1.
    9900012    2    1    2    0    0  0.27995335774E+02  0.67697180974E+01 -0.28698391335E+02  0.50528861133E+02  0.30000003900E+02 0.  0.
        -12    1    1    2    0    0 -0.27995335774E+02 -0.67697180974E+01  0.28698391335E+02  0.40659138867E+02  0.00000000000E+00 0.  1.
         11    1    3    3    0    0  0.18049914624E+01 -0.67488174898E+01 -0.11739738292E+02  0.13661112221E+02  0.51100000000E-03 0. -1.
        -11    1    3    3    0    0  0.28339492174E+01 -0.26501205252E+01 -0.19825452902E+00  0.38850626873E+01  0.51100000000E-03 0.  1.
         12    1    3    3    0    0  0.23356395094E+02  0.16168656112E+02 -0.16760398514E+02  0.32982686225E+02  0.00000000000E+00 0. -1.
</event>
<event>
 7    1  0.6090311E-013  0.5052885E+02  0.7816164E-02  0.1300439E+00
        -11   -1    0    0    0    0  0.00000000000E+00  0.00000000000E+00  0.45593999997E+02  0.45594000000E+02  0.51100000000E-03 0.  1.
         11   -1    0    0    0    0 -0.00000000000E+00 -0.00000000000E+00 -0.45593999997E+02  0.45594000000E+02  0.51100000000E-03 0. -1.
    9900012    2    1    2    0    0  0.39690375840E+02 -0.60322632315E+01 -0.64383318303E+01  0.50528852803E+02  0.29999978581E+02 0.  0.
        -12    1    1    2    0    0 -0.39690375840E+02  0.60322632315E+01  0.64383318303E+01  0.40659147197E+02  0.00000000000E+00 0.  1.
         11    1    3    3    0    0  0.12383482561E+02 -0.29807511938E+01 -0.10622032325E+02  0.16585026047E+02  0.51100000000E-03 0. -1.
        -11    1    3    3    0    0  0.52277945853E+01 -0.90020444513E+01  0.37749988704E+01  0.11073267687E+02  0.51100000000E-03 0.  1.
        -12    1    3    3    0    0  0.22079098694E+02  0.59505324136E+01  0.40870162412E+00  0.22870559070E+02  0.00000000000E+00 0.  1.
</event>
<event>
 7    1  0.6090311E-013  0.5052886E+02  0.7816164E-02  0.1300439E+00
        -11   -1    0    0    0    0  0.00000000000E+00  0.00000000000E+00  0.45593999997E+02  0.45594000000E+02  0.51100000000E-03 0.  1.
         11   -1    0    0    0    0 -0.00000000000E+00 -0.00000000000E+00 -0.45593999997E+02  0.45594000000E+02  0.51100000000E-03 0. -1.
    9900012    2    1    2    0    0 -0.17653768896E+02  0.23933351506E+02 -0.27725518916E+02  0.50528864868E+02  0.30000015253E+02 0.  0.
        -12    1    1    2    0    0  0.17653768896E+02 -0.23933351506E+02  0.27725518916E+02  0.40659135132E+02  0.00000000000E+00 0.  1.
         11    1    3    3    0    0  0.51987837364E+01  0.40623051029E+00 -0.13854188468E+01  0.53955315964E+01  0.51100000000E-03 0. -1.
        -11    1    3    3    0    0 -0.22984925090E+01  0.70948722839E+01  0.58940676461E+00  0.74811550668E+01  0.51100000000E-03 0.  1.
        -12    1    3    3    0    0 -0.20554060123E+02  0.16432248712E+02 -0.26929506834E+02  0.37652178205E+02  0.00000000000E+00 0.  1.
</event>
<event>
 7    1  0.6090311E-013  0.5052886E+02  0.7816164E-02  0.1300439E+00
        -11   -1    0    0    0    0  0.00000000000E+00  0.00000000000E+00  0.45593999997E+02  0.45594000000E+02  0.51100000000E-03 0.  1.
         11   -1    0    0    0    0 -0.00000000000E+00 -0.00000000000E+00 -0.45593999997E+02  0.45594000000E+02  0.51100000000E-03 0. -1.
    9900012    2    1    2    0    0 -0.32846121050E+02  0.16759216803E+02 -0.17129695215E+02  0.50528862355E+02  0.30000007614E+02 0.  0.
        -12    1    1    2    0    0  0.32846121050E+02 -0.16759216803E+02  0.17129695215E+02  0.40659137645E+02  0.00000000000E+00 0.  1.
         11    1    3    3    0    0  0.84926059072E+00  0.60201933893E+01 -0.54283371291E+01  0.81505101830E+01  0.51100000000E-03 0.  1.
        -11    1    3    3    0    0 -0.72634065883E+00  0.35672462565E+01  0.37871093041E+01  0.52530956349E+01  0.51100000000E-03 0. -1.
        -12    1    3    3    0    0 -0.32969040982E+02  0.71717771574E+01 -0.15488467390E+02  0.37125256537E+02  0.00000000000E+00 0.  1.
</event>
<event>
 7    1  0.6090311E-013  0.5052885E+02  0.7816164E-02  0.1300439E+00
        -11   -1    0    0    0    0  0.00000000000E+00  0.00000000000E+00  0.45593999997E+02  0.45594000000E+02  0.51100000000E-03 0.  1.
         11   -1    0    0    0    0 -0.00000000000E+00 -0.00000000000E+00 -0.45593999997E+02  0.45594000000E+02  0.51100000000E-03 0. -1.
    9900012    2    1    2    0    0 -0.31283918398E+02 -0.25500093016E+02 -0.49221789763E+01  0.50528854165E+02  0.29999982720E+02 0.  0.
        -12    1    1    2    0    0  0.31283918398E+02  0.25500093016E+02  0.49221789763E+01  0.40659145835E+02  0.00000000000E+00 0.  1.
         11    1    3    3    0    0 -0.70367570060E+01  0.39801560041E+01 -0.51955334632E+01  0.96099510512E+01  0.51100000000E-03 0. -1.
        -11    1    3    3    0    0 -0.20626940923E+01  0.92228143035E+00  0.23055423140E+01  0.32281319022E+01  0.51100000000E-03 0.  1.
         12    1    3    3    0    0 -0.22184467299E+02 -0.30402530451E+02 -0.20321878271E+01  0.37690771212E+02  0.00000000000E+00 0. -1.
</event>
<event>
 7    1  0.6090311E-013  0.5052886E+02  0.7816164E-02  0.1300439E+00
        -11   -1    0    0    0    0  0.00000000000E+00  0.00000000000E+00  0.45593999997E+02  0.45594000000E+02  0.51100000000E-03 0.  1.
         11   -1    0    0    0    0 -0.00000000000E+00 -0.00000000000E+00 -0.45593999997E+02  0.45594000000E+02  0.51100000000E-03 0. -1.
    9900012    2    1    2    0    0  0.16701664914E+02 -0.48065877563E+01 -0.36757536834E+02  0.50528863132E+02  0.30000009975E+02 0.  0.
        -12    1    1    2    0    0 -0.16701664914E+02  0.48065877563E+01  0.36757536834E+02  0.40659136868E+02  0.00000000000E+00 0.  1.
         11    1    3    3    0    0 -0.21379066291E+01  0.31518292097E+01 -0.78020381518E+01  0.86819624340E+01  0.51100000000E-03 0. -1.
        -11    1    3    3    0    0  0.13120882077E+01 -0.86534986130E+01 -0.95323521146E+00  0.88041621600E+01  0.51100000000E-03 0.  1.
         12    1    3    3    0    0  0.17527483336E+02  0.69508164698E+00 -0.28002263471E+02  0.33042738538E+02  0.00000000000E+00 0. -1.
</event>
<event>
 7    1  0.6090311E-013  0.5052886E+02  0.7816164E-02  0.1300439E+00
        -11   -1    0    0    0    0  0.00000000000E+00  0.00000000000E+00  0.45593999997E+02  0.45594000000E+02  0.51100000000E-03 0. -1.
         11   -1    0    0    0    0 -0.00000000000E+00 -0.00000000000E+00 -0.45593999997E+02  0.45594000000E+02  0.51100000000E-03 0.  1.
    9900012    2    1    2    0    0 -0.15151253261E+02 -0.37568948560E+02  0.34898930546E+01  0.50528859271E+02  0.29999998241E+02 0.  0.
        -12    1    1    2    0    0  0.15151253261E+02  0.37568948560E+02 -0.34898930546E+01  0.40659140729E+02  0.00000000000E+00 0.  1.
         11    1    3    3    0    0  0.21598526528E+01 -0.11696374602E+01  0.25357966388E+00  0.24692748282E+01  0.51100000000E-03 0. -1.
        -11    1    3    3    0    0 -0.54297865108E+01 -0.25810549319E+01  0.99176000843E+01  0.11597552233E+02  0.51100000000E-03 0.  1.
         12    1    3    3    0    0 -0.11881319403E+02 -0.33818256167E+02 -0.66812866936E+01  0.36462032210E+02  0.00000000000E+00 0. -1.
</event>
<event>
 7    1  0.6090311E-013  0.5052887E+02  0.7816164E-02  0.1300439E+00
        -11   -1    0    0    0    0  0.00000000000E+00  0.00000000000E+00  0.45593999997E+02  0.45594000000E+02  0.51100000000E-03 0.  1.
         11   -1    0    0    0    0 -0.00000000000E+00 -0.00000000000E+00 -0.45593999997E+02  0.45594000000E+02  0.51100000000E-03 0. -1.
    9900012    2    1    2    0    0 -0.20485972887E+02 -0.23974426395E+02 -0.25665475578E+02  0.50528870118E+02  0.30000031209E+02 0.  0.
        -12    1    1    2    0    0  0.20485972887E+02  0.23974426395E+02  0.25665475578E+02  0.40659129882E+02  0.00000000000E+00 0.  1.
         11    1    3    3    0    0 -0.21042018567E+02 -0.53985080424E+01 -0.18238336876E+02  0.28364544183E+02  0.51100000000E-03 0. -1.
        -11    1    3    3    0    0 -0.12626305243E+01 -0.12727610576E+01 -0.40666349487E+01  0.44442858389E+01  0.51100000000E-03 0.  1.
        -12    1    3    3    0    0  0.18186762036E+01 -0.17303157295E+02 -0.33605037541E+01  0.17720040096E+02  0.00000000000E+00 0.  1.
</event>
<event>
 7    1  0.6090311E-013  0.5052886E+02  0.7816164E-02  0.1300439E+00
        -11   -1    0    0    0    0  0.00000000000E+00  0.00000000000E+00  0.45593999997E+02  0.45594000000E+02  0.51100000000E-03 0. -1.
         11   -1    0    0    0    0 -0.00000000000E+00 -0.00000000000E+00 -0.45593999997E+02  0.45594000000E+02  0.51100000000E-03 0.  1.
    9900012    2    1    2    0    0  0.25728494266E+02  0.30549145233E+02 -0.76131410283E+01  0.50528860708E+02  0.30000002608E+02 0.  0.
        -12    1    1    2    0    0 -0.25728494266E+02 -0.30549145233E+02  0.76131410283E+01  0.40659139292E+02  0.00000000000E+00 0.  1.
         11    1    3    3    0    0  0.16909787756E+02  0.13320510878E+02 -0.11093462270E+02  0.24216561222E+02  0.51100000000E-03 0.  1.
        -11    1    3    3    0    0  0.11947902431E+02  0.16080325521E+02 -0.17506981623E+01  0.20109554587E+02  0.51100000000E-03 0. -1.
        -12    1    3    3    0    0 -0.31291959212E+01  0.11483088339E+01  0.52310194038E+01  0.62027448999E+01  0.00000000000E+00 0.  1.
</event>
<event>
 7    1  0.6090311E-013  0.5052886E+02  0.7816164E-02  0.1300439E+00
        -11   -1    0    0    0    0  0.00000000000E+00  0.00000000000E+00  0.45593999997E+02  0.45594000000E+02  0.51100000000E-03 0.  1.
         11   -1    0    0    0    0 -0.00000000000E+00 -0.00000000000E+00 -0.45593999997E+02  0.45594000000E+02  0.51100000000E-03 0. -1.
    9900012    2    1    2    0    0 -0.45550330133E+01 -0.40308666485E+02 -0.27620038453E+01  0.50528860993E+02  0.30000003473E+02 0.  0.
        -12    1    1    2    0    0  0.45550330133E+01  0.40308666485E+02  0.27620038453E+01  0.40659139007E+02  0.00000000000E+00 0.  1.
         11    1    3    3    0    0 -0.68407855107E+00 -0.10419455409E+01 -0.56409667360E+01  0.57770338369E+01  0.51100000000E-03 0. -1.
        -11    1    3    3    0    0  0.57168398133E+01 -0.59916792262E+01 -0.43829471919E+01  0.93697760778E+01  0.51100000000E-03 0.  1.
         12    1    3    3    0    0 -0.95877942755E+01 -0.33275041718E+02  0.72619100826E+01  0.35382051078E+02  0.00000000000E+00 0. -1.
</event>
<event>
 7    1  0.6090311E-013  0.5052887E+02  0.7816164E-02  0.1300439E+00
        -11   -1    0    0    0    0  0.00000000000E+00  0.00000000000E+00  0.45593999997E+02  0.45594000000E+02  0.51100000000E-03 0.  1.
         11   -1    0    0    0    0 -0.00000000000E+00 -0.00000000000E+00 -0.45593999997E+02  0.45594000000E+02  0.51100000000E-03 0. -1.
    9900012    2    1    2    0    0  0.24344374742E+02  0.14801954313E+02 -0.29007207259E+02  0.50528874259E+02  0.30000043798E+02 0.  0.
        -12    1    1    2    0    0 -0.24344374742E+02 -0.14801954313E+02  0.29007207259E+02  0.40659125741E+02  0.00000000000E+00 0.  1.
         11    1    3    3    0    0  0.23935350645E+02  0.57100350712E+01 -0.17171918594E+02  0.30006337655E+02  0.51100000000E-03 0. -1.
        -11    1    3    3    0    0  0.65519461140E+01  0.82843204751E+01 -0.77672299560E+01  0.13110599722E+02  0.51100000000E-03 0.  1.
        -12    1    3    3    0    0 -0.61429220175E+01  0.80759876642E+00 -0.40680587089E+01  0.74119368818E+01  0.00000000000E+00 0.  1.
</event>
<event>
 7    1  0.6090311E-013  0.5052892E+02  0.7816164E-02  0.1300439E+00
        -11   -1    0    0    0    0  0.00000000000E+00  0.00000000000E+00  0.45593999997E+02  0.45594000000E+02  0.51100000000E-03 0.  1.
         11   -1    0    0    0    0 -0.00000000000E+00 -0.00000000000E+00 -0.45593999997E+02  0.45594000000E+02  0.51100000000E-03 0. -1.
    9900012    2    1    2    0    0  0.39237644583E+01  0.40247428689E+02 -0.42319570591E+01  0.50528918552E+02  0.30000178431E+02 0.  0.
        -12    1    1    2    0    0 -0.39237644583E+01 -0.40247428689E+02  0.42319570591E+01  0.40659081448E+02  0.00000000000E+00 0.  1.
         11    1    3    3    0    0  0.97887076415E+01  0.85644502220E+01 -0.33442245623E+01  0.13429536220E+02  0.51100000000E-03 0.  1.
        -11    1    3    3    0    0  0.42868825448E+01  0.14617914788E+01 -0.25084519227E+01  0.51775020608E+01  0.51100000000E-03 0. -1.
         12    1    3    3    0    0 -0.10151825728E+02  0.30221186989E+02  0.16207194258E+01  0.31921880271E+02  0.00000000000E+00 0. -1.
</event>
<event>
 7    1  0.6090311E-013  0.5052885E+02  0.7816164E-02  0.1300439E+00
        -11   -1    0    0    0    0  0.00000000000E+00  0.00000000000E+00  0.45593999997E+02  0.45594000000E+02  0.51100000000E-03 0.  1.
         11   -1    0    0    0    0 -0.00000000000E+00 -0.00000000000E+00 -0.45593999997E+02  0.45594000000E+02  0.51100000000E-03 0. -1.
    9900012    2    1    2    0    0 -0.17300784276E+02  0.35908447263E+02 -0.80269995210E+01  0.50528850443E+02  0.29999971406E+02 0.  0.
        -12    1    1    2    0    0  0.17300784276E+02 -0.35908447263E+02  0.80269995210E+01  0.40659149557E+02  0.00000000000E+00 0.  1.
         11    1    3    3    0    0 -0.22422600634E+02  0.32862773983E+02 -0.53069029144E+01  0.40135995713E+02  0.51100000000E-03 0. -1.
        -11    1    3    3    0    0  0.37176998639E+00  0.47533447475E+01 -0.25311818019E+00  0.47745751943E+01  0.51100000000E-03 0.  1.
         12    1    3    3    0    0  0.47500463722E+01 -0.17076714678E+01 -0.24669784264E+01  0.56182795352E+01  0.00000000000E+00 0. -1.
</event>
<event>
 7    1  0.6090311E-013  0.5052894E+02  0.7816164E-02  0.1300439E+00
        -11   -1    0    0    0    0  0.00000000000E+00  0.00000000000E+00  0.45593999997E+02  0.45594000000E+02  0.51100000000E-03 0. -1.
         11   -1    0    0    0    0 -0.00000000000E+00 -0.00000000000E+00 -0.45593999997E+02  0.45594000000E+02  0.51100000000E-03 0.  1.
    9900012    2    1    2    0    0  0.67824991588E+01 -0.18267845552E+02  0.35685334206E+02  0.50528935164E+02  0.30000228924E+02 0.  0.
        -12    1    1    2    0    0 -0.67824991588E+01  0.18267845552E+02 -0.35685334206E+02  0.40659064836E+02  0.00000000000E+00 0.  1.
         11    1    3    3    0    0  0.10145764671E+02 -0.16250384979E+02  0.87463455689E+01  0.21059679812E+02  0.51100000000E-03 0. -1.
        -11    1    3    3    0    0 -0.22164438086E+01 -0.20111320938E+01  0.53492739458E+00  0.30402998263E+01  0.51100000000E-03 0.  1.
        -12    1    3    3    0    0 -0.11468217039E+01 -0.63284791872E-02  0.26404061242E+02  0.26428955525E+02  0.00000000000E+00 0.  1.
</event>
<event>
 7    1  0.6090311E-013  0.5052886E+02  0.7816164E-02  0.1300439E+00
        -11   -1    0    0    0    0  0.00000000000E+00  0.00000000000E+00  0.45593999997E+02  0.45594000000E+02  0.51100000000E-03 0. -1.
         11   -1    0    0    0    0 -0.00000000000E+00 -0.00000000000E+00 -0.45593999997E+02  0.45594000000E+02  0.51100000000E-03 0.  1.
    9900012    2    1    2    0    0  0.28540163853E+01 -0.35147377730E+02  0.20240597875E+02  0.50528863596E+02  0.30000011385E+02 0.  0.
        -12    1    1    2    0    0 -0.28540163853E+01  0.35147377730E+02 -0.20240597875E+02  0.40659136404E+02  0.00000000000E+00 0.  1.
         11    1    3    3    0    0 -0.52969052369E+00 -0.20553261938E+02  0.16192381486E+02  0.26170792246E+02  0.51100000000E-03 0. -1.
        -11    1    3    3    0    0 -0.54773931261E+01 -0.49463947260E+01  0.77936868992E+01  0.10733602004E+02  0.51100000000E-03 0.  1.
        -12    1    3    3    0    0  0.88611000351E+01 -0.96477210661E+01 -0.37454705099E+01  0.13624469345E+02  0.00000000000E+00 0.  1.
</event>
<event>
 7    1  0.6090311E-013  0.5052884E+02  0.7816164E-02  0.1300439E+00
        -11   -1    0    0    0    0  0.00000000000E+00  0.00000000000E+00  0.45593999997E+02  0.45594000000E+02  0.51100000000E-03 0.  1.
         11   -1    0    0    0    0 -0.00000000000E+00 -0.00000000000E+00 -0.45593999997E+02  0.45594000000E+02  0.51100000000E-03 0. -1.
    9900012    2    1    2    0    0  0.68235129567E+01 -0.35543808464E+02 -0.18526853474E+02  0.50528844219E+02  0.29999952488E+02 0.  0.
        -12    1    1    2    0    0 -0.68235129567E+01  0.35543808464E+02  0.18526853474E+02  0.40659155781E+02  0.00000000000E+00 0.  1.
         11    1    3    3    0    0 -0.54145975959E+01 -0.57304225004E+01 -0.14501349331E+02  0.16505900213E+02  0.51100000000E-03 0. -1.
        -11    1    3    3    0    0 -0.12602862819E+01 -0.12162136230E+01  0.97910423352E+00  0.20065249688E+01  0.51100000000E-03 0.  1.
         12    1    3    3    0    0  0.13498396834E+02 -0.28597172340E+02 -0.50046083758E+01  0.32016419037E+02  0.00000000000E+00 0. -1.
</event>
<event>
 7    1  0.6090311E-013  0.5052885E+02  0.7816164E-02  0.1300439E+00
        -11   -1    0    0    0    0  0.00000000000E+00  0.00000000000E+00  0.45593999997E+02  0.45594000000E+02  0.51100000000E-03 0.  1.
         11   -1    0    0    0    0 -0.00000000000E+00 -0.00000000000E+00 -0.45593999997E+02  0.45594000000E+02  0.51100000000E-03 0. -1.
    9900012    2    1    2    0    0 -0.27190588806E+02  0.18363784441E+02 -0.24012695451E+02  0.50528852918E+02  0.29999978929E+02 0.  0.
        -12    1    1    2    0    0  0.27190588806E+02 -0.18363784441E+02  0.24012695451E+02  0.40659147082E+02  0.00000000000E+00 0.  1.
         11    1    3    3    0    0 -0.27106996028E+01  0.54848922159E+01 -0.11221124582E+02  0.12780671818E+02  0.51100000000E-03 0. -1.
        -11    1    3    3    0    0 -0.23503080589E+01  0.13103743057E+02 -0.59682913954E+01  0.14589466492E+02  0.51100000000E-03 0.  1.
         12    1    3    3    0    0 -0.22129581144E+02 -0.22485083190E+00 -0.68232794735E+01  0.23158714608E+02  0.00000000000E+00 0. -1.
</event>
<event>
 7    1  0.6090311E-013  0.5052885E+02  0.7816164E-02  0.1300439E+00
        -11   -1    0    0    0    0  0.00000000000E+00  0.00000000000E+00  0.45593999997E+02  0.45594000000E+02  0.51100000000E-03 0. -1.
         11   -1    0    0    0    0 -0.00000000000E+00 -0.00000000000E+00 -0.45593999997E+02  0.45594000000E+02  0.51100000000E-03 0.  1.
    9900012    2    1    2    0    0  0.28316235804E+02  0.29084576202E+02  0.23333130469E+01  0.50528854255E+02  0.29999982994E+02 0.  0.
        -12    1    1    2    0    0 -0.28316235804E+02 -0.29084576202E+02 -0.23333130469E+01  0.40659145745E+02  0.00000000000E+00 0.  1.
         11    1    3    3    0    0  0.92185884732E+01 -0.30134911338E+01  0.54128639306E+01  0.11106871677E+02  0.51100000000E-03 0. -1.
        -11    1    3    3    0    0 -0.14459352639E+01  0.88417870149E+00 -0.10615009111E+01  0.19998212942E+01  0.51100000000E-03 0.  1.
         12    1    3    3    0    0  0.20543582594E+02  0.31213888634E+02 -0.20180499726E+01  0.37422161284E+02  0.00000000000E+00 0. -1.
</event>
<event>
 7    1  0.6090311E-013  0.5052886E+02  0.7816164E-02  0.1300439E+00
        -11   -1    0    0    0    0  0.00000000000E+00  0.00000000000E+00  0.45593999997E+02  0.45594000000E+02  0.51100000000E-03 0.  1.
         11   -1    0    0    0    0 -0.00000000000E+00 -0.00000000000E+00 -0.45593999997E+02  0.45594000000E+02  0.51100000000E-03 0. -1.
    9900012    2    1    2    0    0 -0.19163719148E+02  0.35602929542E+02  0.42835389868E+01  0.50528862899E+02  0.30000009269E+02 0.  0.
        -12    1    1    2    0    0  0.19163719148E+02 -0.35602929542E+02 -0.42835389868E+01  0.40659137101E+02  0.00000000000E+00 0.  1.
         11    1    3    3    0    0 -0.55433501690E-01  0.78334053435E+01 -0.71379814144E+01  0.10597928622E+02  0.51100000000E-03 0. -1.
        -11    1    3    3    0    0  0.25451348419E+00  0.98434691635E+01  0.91580746022E+01  0.13447267119E+02  0.51100000000E-03 0.  1.
        -12    1    3    3    0    0 -0.19362799130E+02  0.17926055034E+02  0.22634457990E+01  0.26483667158E+02  0.00000000000E+00 0.  1.
</event>
<event>
 7    1  0.6090311E-013  0.5052887E+02  0.7816164E-02  0.1300439E+00
        -11   -1    0    0    0    0  0.00000000000E+00  0.00000000000E+00  0.45593999997E+02  0.45594000000E+02  0.51100000000E-03 0.  1.
         11   -1    0    0    0    0 -0.00000000000E+00 -0.00000000000E+00 -0.45593999997E+02  0.45594000000E+02  0.51100000000E-03 0. -1.
    9900012    2    1    2    0    0 -0.72357867476E+00 -0.37993525454E+02 -0.14461436762E+02  0.50528871926E+02  0.30000036705E+02 0.  0.
        -12    1    1    2    0    0  0.72357867476E+00  0.37993525454E+02  0.14461436762E+02  0.40659128074E+02  0.00000000000E+00 0.  1.
         11    1    3    3    0    0 -0.32129384076E+01 -0.56416828393E+01  0.31014762043E+00  0.64998269421E+01  0.51100000000E-03 0. -1.
        -11    1    3    3    0    0 -0.97807814949E+01 -0.11740770243E+02  0.10128942607E+01  0.15314546274E+02  0.51100000000E-03 0.  1.
        -12    1    3    3    0    0  0.12270141228E+02 -0.20611072372E+02 -0.15784478643E+02  0.28714498709E+02  0.00000000000E+00 0.  1.
</event>
<event>
 7    1  0.6090311E-013  0.5052886E+02  0.7816164E-02  0.1300439E+00
        -11   -1    0    0    0    0  0.00000000000E+00  0.00000000000E+00  0.45593999997E+02  0.45594000000E+02  0.51100000000E-03 0. -1.
         11   -1    0    0    0    0 -0.00000000000E+00 -0.00000000000E+00 -0.45593999997E+02  0.45594000000E+02  0.51100000000E-03 0.  1.
    9900012    2    1    2    0    0 -0.31913724238E+02  0.52866231526E+01  0.24631927578E+02  0.50528855453E+02  0.29999986636E+02 0.  0.
        -12    1    1    2    0    0  0.31913724238E+02 -0.52866231526E+01 -0.24631927578E+02  0.40659144547E+02  0.00000000000E+00 0.  1.
         11    1    3    3    0    0 -0.11378118592E+02  0.41217199566E+01  0.11891029280E+02  0.16966046555E+02  0.51100000000E-03 0. -1.
        -11    1    3    3    0    0 -0.10105498679E+02  0.83755709009E+01  0.15778655605E+02  0.20524065495E+02  0.51100000000E-03 0.  1.
        -12    1    3    3    0    0 -0.10430106966E+02 -0.72106677049E+01 -0.30377573081E+01  0.13038743403E+02  0.00000000000E+00 0.  1.
</event>
<event>
 7    1  0.6090311E-013  0.5052886E+02  0.7816164E-02  0.1300439E+00
        -11   -1    0    0    0    0  0.00000000000E+00  0.00000000000E+00  0.45593999997E+02  0.45594000000E+02  0.51100000000E-03 0.  1.
         11   -1    0    0    0    0 -0.00000000000E+00 -0.00000000000E+00 -0.45593999997E+02  0.45594000000E+02  0.51100000000E-03 0. -1.
    9900012    2    1    2    0    0  0.22324282353E+02  0.26795037409E+02 -0.20900202262E+02  0.50528855064E+02  0.29999985451E+02 0.  0.
        -12    1    1    2    0    0 -0.22324282353E+02 -0.26795037409E+02  0.20900202262E+02  0.40659144936E+02  0.00000000000E+00 0.  1.
         11    1    3    3    0    0  0.97376387824E+01  0.54523165820E+01  0.19213485043E+01  0.11324351880E+02  0.51100000000E-03 0. -1.
        -11    1    3    3    0    0  0.72756044463E+01  0.59886331999E+00  0.77418581016E+00  0.73411457733E+01  0.51100000000E-03 0.  1.
         12    1    3    3    0    0  0.53110391246E+01  0.20743857507E+02 -0.23595736576E+02  0.31863357410E+02  0.00000000000E+00 0. -1.
</event>
<event>
 7    1  0.6090311E-013  0.5052886E+02  0.7816164E-02  0.1300439E+00
        -11   -1    0    0    0    0  0.00000000000E+00  0.00000000000E+00  0.45593999997E+02  0.45594000000E+02  0.51100000000E-03 0.  1.
         11   -1    0    0    0    0 -0.00000000000E+00 -0.00000000000E+00 -0.45593999997E+02  0.45594000000E+02  0.51100000000E-03 0. -1.
    9900012    2    1    2    0    0 -0.17349280110E+02  0.29571990915E+02  0.21855563791E+02  0.50528857908E+02  0.29999994097E+02 0.  0.
        -12    1    1    2    0    0  0.17349280110E+02 -0.29571990915E+02 -0.21855563791E+02  0.40659142092E+02  0.00000000000E+00 0.  1.
         11    1    3    3    0    0 -0.10278060157E+02  0.13287155486E+02  0.21873439131E+02  0.27579600453E+02  0.51100000000E-03 0. -1.
        -11    1    3    3    0    0  0.22415256124E+01  0.10741139915E+02  0.35607420580E+01  0.11535831483E+02  0.51100000000E-03 0.  1.
        -12    1    3    3    0    0 -0.93127455659E+01  0.55436955147E+01 -0.35786173974E+01  0.11413425972E+02  0.00000000000E+00 0.  1.
</event>
<event>
 7    1  0.6090311E-013  0.5052880E+02  0.7816164E-02  0.1300439E+00
        -11   -1    0    0    0    0  0.00000000000E+00  0.00000000000E+00  0.45593999997E+02  0.45594000000E+02  0.51100000000E-03 0. -1.
         11   -1    0    0    0    0 -0.00000000000E+00 -0.00000000000E+00 -0.45593999997E+02  0.45594000000E+02  0.51100000000E-03 0.  1.
    9900012    2    1    2    0    0  0.16132714302E+02  0.77828145145E+01  0.36501150007E+02  0.50528799020E+02  0.29999815101E+02 0.  0.
        -12    1    1    2    0    0 -0.16132714302E+02 -0.77828145145E+01 -0.36501150007E+02  0.40659200980E+02  0.00000000000E+00 0.  1.
         11    1    3    3    0    0  0.34597515642E+01 -0.51320448952E+01 -0.29153101356E+01  0.68415494693E+01  0.51100000000E-03 0.  1.
        -11    1    3    3    0    0  0.30105200785E+01  0.58440913489E+01  0.10476566367E+02  0.12368309422E+02  0.51100000000E-03 0. -1.
        -12    1    3    3    0    0  0.96624426590E+01  0.70707680608E+01  0.28939893775E+02  0.31318940129E+02  0.00000000000E+00 0.  1.
</event>
<event>
 7    1  0.6090311E-013  0.5052886E+02  0.7816164E-02  0.1300439E+00
        -11   -1    0    0    0    0  0.00000000000E+00  0.00000000000E+00  0.45593999997E+02  0.45594000000E+02  0.51100000000E-03 0. -1.
         11   -1    0    0    0    0 -0.00000000000E+00 -0.00000000000E+00 -0.45593999997E+02  0.45594000000E+02  0.51100000000E-03 0.  1.
    9900012    2    1    2    0    0 -0.14628126542E+02 -0.14448086083E+02  0.35077573879E+02  0.50528862444E+02  0.30000007885E+02 0.  0.
        -12    1    1    2    0    0  0.14628126542E+02  0.14448086083E+02 -0.35077573879E+02  0.40659137556E+02  0.00000000000E+00 0.  1.
         11    1    3    3    0    0 -0.49439442074E+01 -0.53995769504E+01  0.18006690781E+02  0.19438079348E+02  0.51100000000E-03 0. -1.
        -11    1    3    3    0    0 -0.57549409475E+01 -0.39062208820E+01  0.21924477649E+02  0.23001317947E+02  0.51100000000E-03 0.  1.
        -12    1    3    3    0    0 -0.39292413866E+01 -0.51422882507E+01 -0.48535945512E+01  0.80894651489E+01  0.00000000000E+00 0.  1.
</event>
<event>
 7    1  0.6090311E-013  0.5052885E+02  0.7816164E-02  0.1300439E+00
        -11   -1    0    0    0    0  0.00000000000E+00  0.00000000000E+00  0.45593999997E+02  0.45594000000E+02  0.51100000000E-03 0. -1.
         11   -1    0    0    0    0 -0.00000000000E+00 -0.00000000000E+00 -0.45593999997E+02  0.45594000000E+02  0.51100000000E-03 0.  1.
    9900012    2    1    2    0    0 -0.18385529971E+02  0.30435417550E+02  0.19718614567E+02  0.50528854483E+02  0.29999983686E+02 0.  0.
        -12    1    1    2    0    0  0.18385529971E+02 -0.30435417550E+02 -0.19718614567E+02  0.40659145517E+02  0.00000000000E+00 0.  1.
         11    1    3    3    0    0 -0.39410836445E+01  0.10781527749E+02  0.81840387742E+01  0.14097942112E+02  0.51100000000E-03 0. -1.
        -11    1    3    3    0    0  0.56862772319E+00  0.19139921621E+02  0.37511367030E+01  0.19512328512E+02  0.51100000000E-03 0.  1.
        -12    1    3    3    0    0 -0.15013074050E+02  0.51396818058E+00  0.77834390894E+01  0.16918583859E+02  0.00000000000E+00 0.  1.
</event>
<event>
 7    1  0.6090311E-013  0.5052886E+02  0.7816164E-02  0.1300439E+00
        -11   -1    0    0    0    0  0.00000000000E+00  0.00000000000E+00  0.45593999997E+02  0.45594000000E+02  0.51100000000E-03 0. -1.
         11   -1    0    0    0    0 -0.00000000000E+00 -0.00000000000E+00 -0.45593999997E+02  0.45594000000E+02  0.51100000000E-03 0.  1.
    9900012    2    1    2    0    0 -0.52283816374E+01 -0.17911226836E+02  0.36125030618E+02  0.50528857627E+02  0.29999993244E+02 0.  0.
        -12    1    1    2    0    0  0.52283816374E+01  0.17911226836E+02 -0.36125030618E+02  0.40659142373E+02  0.00000000000E+00 0.  1.
         11    1    3    3    0    0 -0.92601123019E+01 -0.83073754086E+00  0.17401755677E+02  0.19729696034E+02  0.51100000000E-03 0. -1.
        -11    1    3    3    0    0  0.44227257524E+01  0.19077423768E+01  0.12137299228E+01  0.49672049126E+01  0.51100000000E-03 0.  1.
         12    1    3    3    0    0 -0.39099508788E+00 -0.18988231672E+02  0.17509545019E+02  0.25831956681E+02  0.00000000000E+00 0. -1.
</event>
<event>
 7    1  0.6090311E-013  0.5052886E+02  0.7816164E-02  0.1300439E+00
        -11   -1    0    0    0    0  0.00000000000E+00  0.00000000000E+00  0.45593999997E+02  0.45594000000E+02  0.51100000000E-03 0.  1.
         11   -1    0    0    0    0 -0.00000000000E+00 -0.00000000000E+00 -0.45593999997E+02  0.45594000000E+02  0.51100000000E-03 0. -1.
    9900012    2    1    2    0    0 -0.31804760675E+02 -0.23803812325E+02  0.86603128321E+01  0.50528864481E+02  0.30000014077E+02 0.  0.
        -12    1    1    2    0    0  0.31804760675E+02  0.23803812325E+02 -0.86603128321E+01  0.40659135519E+02  0.00000000000E+00 0.  1.
         11    1    3    3    0    0  0.14150767354E+01 -0.13476306580E+01 -0.17492112375E+01  0.26226495710E+01  0.51100000000E-03 0. -1.
        -11    1    3    3    0    0 -0.23461574371E+01 -0.25900459720E+01  0.10632925664E+02  0.11192493078E+02  0.51100000000E-03 0.  1.
         12    1    3    3    0    0 -0.30873679973E+02 -0.19866135695E+02 -0.22340159424E+00  0.36713721833E+02  0.00000000000E+00 0. -1.
</event>
<event>
 7    1  0.6090311E-013  0.5052881E+02  0.7816164E-02  0.1300439E+00
        -11   -1    0    0    0    0  0.00000000000E+00  0.00000000000E+00  0.45593999997E+02  0.45594000000E+02  0.51100000000E-03 0. -1.
         11   -1    0    0    0    0 -0.00000000000E+00 -0.00000000000E+00 -0.45593999997E+02  0.45594000000E+02  0.51100000000E-03 0.  1.
    9900012    2    1    2    0    0  0.24119074912E+02  0.25905737915E+02  0.20008308591E+02  0.50528813532E+02  0.29999859213E+02 0.  0.
        -12    1    1    2    0    0 -0.24119074912E+02 -0.25905737915E+02 -0.20008308591E+02  0.40659186468E+02  0.00000000000E+00 0.  1.
         11    1    3    3    0    0  0.14147933292E+02  0.13989720415E+02 -0.34231073745E+01  0.20188956339E+02  0.51100000000E-03 0.  1.
        -11    1    3    3    0    0  0.16117833439E+00  0.89972316719E+01  0.99902798900E+01  0.13445514076E+02  0.51100000000E-03 0. -1.
        -12    1    3    3    0    0  0.98099632859E+01  0.29187858283E+01  0.13441136075E+02  0.16894343117E+02  0.00000000000E+00 0.  1.
</event>
<event>
 7    1  0.6090311E-013  0.5052886E+02  0.7816164E-02  0.1300439E+00
        -11   -1    0    0    0    0  0.00000000000E+00  0.00000000000E+00  0.45593999997E+02  0.45594000000E+02  0.51100000000E-03 0.  1.
         11   -1    0    0    0    0 -0.00000000000E+00 -0.00000000000E+00 -0.45593999997E+02  0.45594000000E+02  0.51100000000E-03 0. -1.
    9900012    2    1    2    0    0  0.36679036673E+02  0.11313807224E+02 -0.13409390506E+02  0.50528859344E+02  0.29999998462E+02 0.  0.
        -12    1    1    2    0    0 -0.36679036673E+02 -0.11313807224E+02  0.13409390506E+02  0.40659140656E+02  0.00000000000E+00 0.  1.
         11    1    3    3    0    0  0.15149673042E+02 -0.24087269399E+01 -0.71893428926E+01  0.16941110065E+02  0.51100000000E-03 0. -1.
        -11    1    3    3    0    0  0.15717989460E+02  0.71237552100E+01 -0.13707691153E+02  0.22038690477E+02  0.51100000000E-03 0.  1.
        -12    1    3    3    0    0  0.58113741702E+01  0.65987789538E+01  0.74876435390E+01  0.11549058801E+02  0.00000000000E+00 0.  1.
</event>
<event>
 7    1  0.6090311E-013  0.5052887E+02  0.7816164E-02  0.1300439E+00
        -11   -1    0    0    0    0  0.00000000000E+00  0.00000000000E+00  0.45593999997E+02  0.45594000000E+02  0.51100000000E-03 0.  1.
         11   -1    0    0    0    0 -0.00000000000E+00 -0.00000000000E+00 -0.45593999997E+02  0.45594000000E+02  0.51100000000E-03 0. -1.
    9900012    2    1    2    0    0 -0.38687958179E+02  0.21102592141E+01 -0.12326942502E+02  0.50528870478E+02  0.30000032306E+02 0.  0.
        -12    1    1    2    0    0  0.38687958179E+02 -0.21102592141E+01  0.12326942502E+02  0.40659129522E+02  0.00000000000E+00 0.  1.
         11    1    3    3    0    0 -0.15463017031E+02  0.15295839409E+01 -0.78777943397E+01  0.17421370975E+02  0.51100000000E-03 0. -1.
        -11    1    3    3    0    0 -0.14866775384E+02 -0.39034898879E+00 -0.13967902184E+02  0.20402834958E+02  0.51100000000E-03 0.  1.
        -12    1    3    3    0    0 -0.83581657640E+01  0.97102426203E+00  0.95187540222E+01  0.12704664545E+02  0.00000000000E+00 0.  1.
</event>
<event>
 7    1  0.6090311E-013  0.5052886E+02  0.7816164E-02  0.1300439E+00
        -11   -1    0    0    0    0  0.00000000000E+00  0.00000000000E+00  0.45593999997E+02  0.45594000000E+02  0.51100000000E-03 0.  1.
         11   -1    0    0    0    0 -0.00000000000E+00 -0.00000000000E+00 -0.45593999997E+02  0.45594000000E+02  0.51100000000E-03 0. -1.
    9900012    2    1    2    0    0 -0.31732428161E+02  0.21798049304E+02 -0.13079126042E+02  0.50528862177E+02  0.30000007075E+02 0.  0.
        -12    1    1    2    0    0  0.31732428161E+02 -0.21798049304E+02  0.13079126042E+02  0.40659137823E+02  0.00000000000E+00 0.  1.
         11    1    3    3    0    0 -0.89865593592E+01  0.21278603359E+02 -0.69497417660E+01  0.24121279421E+02  0.51100000000E-03 0. -1.
        -11    1    3    3    0    0 -0.13319076158E+02  0.13937033905E+01 -0.94329565087E+01  0.16380502666E+02  0.51100000000E-03 0.  1.
        -12    1    3    3    0    0 -0.94267926444E+01 -0.87425744579E+00  0.33035722332E+01  0.10027080091E+02  0.00000000000E+00 0.  1.
</event>
<event>
 7    1  0.6090311E-013  0.5052885E+02  0.7816164E-02  0.1300439E+00
        -11   -1    0    0    0    0  0.00000000000E+00  0.00000000000E+00  0.45593999997E+02  0.45594000000E+02  0.51100000000E-03 0.  1.
         11   -1    0    0    0    0 -0.00000000000E+00 -0.00000000000E+00 -0.45593999997E+02  0.45594000000E+02  0.51100000000E-03 0. -1.
    9900012    2    1    2    0    0 -0.23508786405E+02 -0.18284297454E+02 -0.27680105534E+02  0.50528845877E+02  0.29999957527E+02 0.  0.
        -12    1    1    2    0    0  0.23508786405E+02  0.18284297454E+02  0.27680105534E+02  0.40659154123E+02  0.00000000000E+00 0.  1.
         11    1    3    3    0    0  0.24111099245E+00  0.42244919376E+01 -0.77534493335E+00  0.43018166707E+01  0.51100000000E-03 0.  1.
        -11    1    3    3    0    0  0.21072013915E+01 -0.62109997572E+01 -0.21724125747E+01  0.69091383214E+01  0.51100000000E-03 0. -1.
         12    1    3    3    0    0 -0.25857098789E+02 -0.16297789635E+02 -0.24732348026E+02  0.39317890885E+02  0.00000000000E+00 0. -1.
</event>
<event>
 7    1  0.6090311E-013  0.5052886E+02  0.7816164E-02  0.1300439E+00
        -11   -1    0    0    0    0  0.00000000000E+00  0.00000000000E+00  0.45593999997E+02  0.45594000000E+02  0.51100000000E-03 0.  1.
         11   -1    0    0    0    0 -0.00000000000E+00 -0.00000000000E+00 -0.45593999997E+02  0.45594000000E+02  0.51100000000E-03 0. -1.
    9900012    2    1    2    0    0 -0.21178361325E+02 -0.30677936487E+02 -0.16232900236E+02  0.50528858032E+02  0.29999994475E+02 0.  0.
        -12    1    1    2    0    0  0.21178361325E+02  0.30677936487E+02  0.16232900236E+02  0.40659141968E+02  0.00000000000E+00 0.  1.
         11    1    3    3    0    0 -0.19181773756E+02 -0.19501501506E+02 -0.13314970395E+02  0.30422646865E+02  0.51100000000E-03 0. -1.
        -11    1    3    3    0    0  0.33981436764E+01 -0.70188612365E+01 -0.83272549834E+01  0.11408548081E+02  0.51100000000E-03 0.  1.
        -12    1    3    3    0    0 -0.53947312454E+01 -0.41575737449E+01  0.54093251429E+01  0.86976630859E+01  0.00000000000E+00 0.  1.
</event>
<event>
 7    1  0.6090311E-013  0.5052886E+02  0.7816164E-02  0.1300439E+00
        -11   -1    0    0    0    0  0.00000000000E+00  0.00000000000E+00  0.45593999997E+02  0.45594000000E+02  0.51100000000E-03 0.  1.
         11   -1    0    0    0    0 -0.00000000000E+00 -0.00000000000E+00 -0.45593999997E+02  0.45594000000E+02  0.51100000000E-03 0. -1.
    9900012    2    1    2    0    0  0.23320664884E+02 -0.92822765603E+01 -0.31986735109E+02  0.50528864597E+02  0.30000014430E+02 0.  0.
        -12    1    1    2    0    0 -0.23320664884E+02  0.92822765603E+01  0.31986735109E+02  0.40659135403E+02  0.00000000000E+00 0.  1.
         11    1    3    3    0    0  0.91440115976E+01 -0.16249069551E+01 -0.30583769120E+00  0.92922982983E+01  0.51100000000E-03 0. -1.
        -11    1    3    3    0    0  0.20563369372E+01 -0.84754361508E+01 -0.16964692941E+01  0.88847930686E+01  0.51100000000E-03 0.  1.
        -12    1    3    3    0    0  0.12120316349E+02  0.81806654550E+00 -0.29984428123E+02  0.32351773231E+02  0.00000000000E+00 0.  1.
</event>
<event>
 7    1  0.6090311E-013  0.5052885E+02  0.7816164E-02  0.1300439E+00
        -11   -1    0    0    0    0  0.00000000000E+00  0.00000000000E+00  0.45593999997E+02  0.45594000000E+02  0.51100000000E-03 0. -1.
         11   -1    0    0    0    0 -0.00000000000E+00 -0.00000000000E+00 -0.45593999997E+02  0.45594000000E+02  0.51100000000E-03 0.  1.
    9900012    2    1    2    0    0  0.21013952271E+02  0.18469237496E+02  0.29503691770E+02  0.50528846642E+02  0.29999959853E+02 0.  0.
        -12    1    1    2    0    0 -0.21013952271E+02 -0.18469237496E+02 -0.29503691770E+02  0.40659153358E+02  0.00000000000E+00 0.  1.
         11    1    3    3    0    0  0.22776933577E+02  0.22266470589E+02  0.29277003060E+02  0.43263464079E+02  0.51100000000E-03 0. -1.
        -11    1    3    3    0    0 -0.92217877672E+00  0.14216256313E+01  0.92948763289E+00  0.19327132877E+01  0.51100000000E-03 0.  1.
         12    1    3    3    0    0 -0.84080252883E+00 -0.52188587242E+01 -0.70279892298E+00  0.53326692755E+01  0.00000000000E+00 0. -1.
</event>
<event>
 7    1  0.6090311E-013  0.5052886E+02  0.7816164E-02  0.1300439E+00
        -11   -1    0    0    0    0  0.00000000000E+00  0.00000000000E+00  0.45593999997E+02  0.45594000000E+02  0.51100000000E-03 0.  1.
         11   -1    0    0    0    0 -0.00000000000E+00 -0.00000000000E+00 -0.45593999997E+02  0.45594000000E+02  0.51100000000E-03 0. -1.
    9900012    2    1    2    0    0  0.20448101667E+02  0.17119346040E+02 -0.30691510080E+02  0.50528860048E+02  0.30000000603E+02 0.  0.
        -12    1    1    2    0    0 -0.20448101667E+02 -0.17119346040E+02  0.30691510080E+02  0.40659139952E+02  0.00000000000E+00 0.  1.
         11    1    3    3    0    0  0.49978389752E+01 -0.34645558395E+00 -0.46126653632E+01  0.68099271588E+01  0.51100000000E-03 0. -1.
        -11    1    3    3    0    0  0.19132213763E+02  0.14192471429E+02 -0.29353430222E+02  0.37803329414E+02  0.51100000000E-03 0.  1.
        -12    1    3    3    0    0 -0.36819510713E+01  0.32733301945E+01  0.32745855048E+01  0.59156034757E+01  0.00000000000E+00 0.  1.
</event>
<event>
 7    1  0.6090311E-013  0.5052882E+02  0.7816164E-02  0.1300439E+00
        -11   -1    0    0    0    0  0.00000000000E+00  0.00000000000E+00  0.45593999997E+02  0.45594000000E+02  0.51100000000E-03 0.  1.
         11   -1    0    0    0    0 -0.00000000000E+00 -0.00000000000E+00 -0.45593999997E+02  0.45594000000E+02  0.51100000000E-03 0. -1.
    9900012    2    1    2    0    0 -0.38433270779E+02  0.50328369051E+01 -0.12276930391E+02  0.50528821824E+02  0.29999884417E+02 0.  0.
        -12    1    1    2    0    0  0.38433270779E+02 -0.50328369051E+01  0.12276930391E+02  0.40659178176E+02  0.00000000000E+00 0.  1.
         11    1    3    3    0    0 -0.23752707194E+02  0.13126166276E+01 -0.43908769955E+01  0.24190780527E+02  0.51100000000E-03 0. -1.
        -11    1    3    3    0    0 -0.15844946265E+02  0.86024109993E+01 -0.13261042947E+01  0.18078228619E+02  0.51100000000E-03 0.  1.
        -12    1    3    3    0    0  0.11643826799E+01 -0.48821907218E+01 -0.65599491010E+01  0.82598126780E+01  0.00000000000E+00 0.  1.
</event>
<event>
 7    1  0.6090311E-013  0.5052886E+02  0.7816164E-02  0.1300439E+00
        -11   -1    0    0    0    0  0.00000000000E+00  0.00000000000E+00  0.45593999997E+02  0.45594000000E+02  0.51100000000E-03 0.  1.
         11   -1    0    0    0    0 -0.00000000000E+00 -0.00000000000E+00 -0.45593999997E+02  0.45594000000E+02  0.51100000000E-03 0. -1.
    9900012    2    1    2    0    0  0.13601416575E+02  0.33015778829E+02 -0.19445455101E+02  0.50528857011E+02  0.29999991370E+02 0.  0.
        -12    1    1    2    0    0 -0.13601416575E+02 -0.33015778829E+02  0.19445455101E+02  0.40659142989E+02  0.00000000000E+00 0.  1.
         11    1    3    3    0    0 -0.41275608278E+01  0.72289488845E+01 -0.25947699004E+01  0.87193630191E+01  0.51100000000E-03 0.  1.
        -11    1    3    3    0    0  0.20821928193E+01  0.21295536169E+02 -0.13152084470E+02  0.25115985225E+02  0.51100000000E-03 0. -1.
         12    1    3    3    0    0  0.15646784583E+02  0.44912937759E+01 -0.36986007300E+01  0.16693508766E+02  0.00000000000E+00 0. -1.
</event>
<event>
 7    1  0.6090311E-013  0.5052887E+02  0.7816164E-02  0.1300439E+00
        -11   -1    0    0    0    0  0.00000000000E+00  0.00000000000E+00  0.45593999997E+02  0.45594000000E+02  0.51100000000E-03 0.  1.
         11   -1    0    0    0    0 -0.00000000000E+00 -0.00000000000E+00 -0.45593999997E+02  0.45594000000E+02  0.51100000000E-03 0. -1.
    9900012    2    1    2    0    0 -0.29200214821E+02  0.16359950664E+02 -0.23083852620E+02  0.50528870851E+02  0.30000033440E+02 0.  0.
        -12    1    1    2    0    0  0.29200214821E+02 -0.16359950664E+02  0.23083852620E+02  0.40659129149E+02  0.00000000000E+00 0.  1.
         11    1    3    3    0    0 -0.11217238303E+02  0.12311279412E+02 -0.17322132507E+02  0.24030195812E+02  0.51100000000E-03 0. -1.
        -11    1    3    3    0    0 -0.61274212818E+01  0.21263955790E+01 -0.11488454865E+02  0.13192855838E+02  0.51100000000E-03 0.  1.
        -12    1    3    3    0    0 -0.11855555236E+02  0.19222756728E+01  0.57267347511E+01  0.13305819202E+02  0.00000000000E+00 0.  1.
</event>
<event>
 7    1  0.6090311E-013  0.5052885E+02  0.7816164E-02  0.1300439E+00
        -11   -1    0    0    0    0  0.00000000000E+00  0.00000000000E+00  0.45593999997E+02  0.45594000000E+02  0.51100000000E-03 0. -1.
         11   -1    0    0    0    0 -0.00000000000E+00 -0.00000000000E+00 -0.45593999997E+02  0.45594000000E+02  0.51100000000E-03 0.  1.
    9900012    2    1    2    0    0  0.37792924193E+02 -0.63509859529E+01  0.13584060101E+02  0.50528845675E+02  0.29999956913E+02 0.  0.
        -12    1    1    2    0    0 -0.37792924193E+02  0.63509859529E+01 -0.13584060101E+02  0.40659154325E+02  0.00000000000E+00 0.  1.
         11    1    3    3    0    0  0.29132151935E+02 -0.75653766000E+00  0.16293148037E+02  0.33387442232E+02  0.51100000000E-03 0. -1.
        -11    1    3    3    0    0  0.11319178616E+02 -0.52479881623E+01 -0.51671105114E+01  0.13504229545E+02  0.51100000000E-03 0.  1.
         12    1    3    3    0    0 -0.26584063579E+01 -0.34646013055E+00  0.24580225753E+01  0.36371738983E+01  0.00000000000E+00 0. -1.
</event>
<event>
 7    1  0.6090311E-013  0.5052886E+02  0.7816164E-02  0.1300439E+00
        -11   -1    0    0    0    0  0.00000000000E+00  0.00000000000E+00  0.45593999997E+02  0.45594000000E+02  0.51100000000E-03 0. -1.
         11   -1    0    0    0    0 -0.00000000000E+00 -0.00000000000E+00 -0.45593999997E+02  0.45594000000E+02  0.51100000000E-03 0.  1.
    9900012    2    1    2    0    0  0.31569352996E+02 -0.10490176365E+02  0.23377300520E+02  0.50528855538E+02  0.29999986894E+02 0.  0.
        -12    1    1    2    0    0 -0.31569352996E+02  0.10490176365E+02 -0.23377300520E+02  0.40659144462E+02  0.00000000000E+00 0.  1.
         11    1    3    3    0    0  0.13931671749E+02 -0.11440195649E+02  0.10080213559E+02  0.20653819498E+02  0.51100000000E-03 0. -1.
        -11    1    3    3    0    0  0.19126050921E+02 -0.54035117375E+01  0.78280700821E+01  0.21360768816E+02  0.51100000000E-03 0.  1.
        -12    1    3    3    0    0 -0.14883696747E+01  0.63535310219E+01  0.54690168795E+01  0.85142672241E+01  0.00000000000E+00 0.  1.
</event>
<event>
 7    1  0.6090311E-013  0.5052887E+02  0.7816164E-02  0.1300439E+00
        -11   -1    0    0    0    0  0.00000000000E+00  0.00000000000E+00  0.45593999997E+02  0.45594000000E+02  0.51100000000E-03 0.  1.
         11   -1    0    0    0    0 -0.00000000000E+00 -0.00000000000E+00 -0.45593999997E+02  0.45594000000E+02  0.51100000000E-03 0. -1.
    9900012    2    1    2    0    0  0.34856040203E+02  0.17000783654E+02  0.12214515806E+02  0.50528873351E+02  0.30000041037E+02 0.  0.
        -12    1    1    2    0    0 -0.34856040203E+02 -0.17000783654E+02 -0.12214515806E+02  0.40659126649E+02  0.00000000000E+00 0.  1.
         11    1    3    3    0    0  0.12151774429E+02  0.78329179103E+01  0.96937301906E+01  0.17406568589E+02  0.51100000000E-03 0. -1.
        -11    1    3    3    0    0  0.49110147051E+00  0.98637969403E+01 -0.28097022068E+01  0.10267915927E+02  0.51100000000E-03 0.  1.
        -12    1    3    3    0    0  0.22213164303E+02 -0.69593119622E+00  0.53304878220E+01  0.22854388835E+02  0.00000000000E+00 0.  1.
</event>
<event>
 7    1  0.6090311E-013  0.5052886E+02  0.7816164E-02  0.1300439E+00
        -11   -1    0    0    0    0  0.00000000000E+00  0.00000000000E+00  0.45593999997E+02  0.45594000000E+02  0.51100000000E-03 0.  1.
         11   -1    0    0    0    0 -0.00000000000E+00 -0.00000000000E+00 -0.45593999997E+02  0.45594000000E+02  0.51100000000E-03 0. -1.
    9900012    2    1    2    0    0 -0.28187495771E+01 -0.17098761530E+02 -0.36781145807E+02  0.50528859798E+02  0.29999999843E+02 0.  0.
        -12    1    1    2    0    0  0.28187495771E+01  0.17098761530E+02  0.36781145807E+02  0.40659140202E+02  0.00000000000E+00 0.  1.
         11    1    3    3    0    0  0.56889299612E+01 -0.18816154771E+02 -0.17322586084E+02  0.26200831921E+02  0.51100000000E-03 0. -1.
        -11    1    3    3    0    0 -0.10196156378E+01 -0.22364365873E+01  0.62173994250E+00  0.25353156559E+01  0.51100000000E-03 0.  1.
         12    1    3    3    0    0 -0.74880639005E+01  0.39538298278E+01 -0.20080299666E+02  0.21792712221E+02  0.00000000000E+00 0. -1.
</event>
<event>
 7    1  0.6090311E-013  0.5052888E+02  0.7816164E-02  0.1300439E+00
        -11   -1    0    0    0    0  0.00000000000E+00  0.00000000000E+00  0.45593999997E+02  0.45594000000E+02  0.51100000000E-03 0.  1.
         11   -1    0    0    0    0 -0.00000000000E+00 -0.00000000000E+00 -0.45593999997E+02  0.45594000000E+02  0.51100000000E-03 0. -1.
    9900012    2    1    2    0    0  0.17476546885E+02  0.18255353201E+02 -0.31850850317E+02  0.50528877070E+02  0.30000052342E+02 0.  0.
        -12    1    1    2    0    0 -0.17476546885E+02 -0.18255353201E+02  0.31850850317E+02  0.40659122930E+02  0.00000000000E+00 0.  1.
         11    1    3    3    0    0  0.12610981921E+02  0.27254755967E+01 -0.20294577669E+01  0.13060772616E+02  0.51100000000E-03 0. -1.
        -11    1    3    3    0    0  0.39036072111E+01  0.73094202020E+01 -0.21152950933E+01  0.85522071152E+01  0.51100000000E-03 0.  1.
         12    1    3    3    0    0  0.96195775264E+00  0.82204574020E+01 -0.27706097457E+02  0.28915897339E+02  0.00000000000E+00 0. -1.
</event>
<event>
 7    1  0.6090311E-013  0.5052887E+02  0.7816164E-02  0.1300439E+00
        -11   -1    0    0    0    0  0.00000000000E+00  0.00000000000E+00  0.45593999997E+02  0.45594000000E+02  0.51100000000E-03 0.  1.
         11   -1    0    0    0    0 -0.00000000000E+00 -0.00000000000E+00 -0.45593999997E+02  0.45594000000E+02  0.51100000000E-03 0. -1.
    9900012    2    1    2    0    0 -0.17114645423E+02  0.31786866081E+02 -0.18704243956E+02  0.50528872056E+02  0.30000037102E+02 0.  0.
        -12    1    1    2    0    0  0.17114645423E+02 -0.31786866081E+02  0.18704243956E+02  0.40659127944E+02  0.00000000000E+00 0.  1.
         11    1    3    3    0    0 -0.92291487668E+01  0.73971518266E+01 -0.16936300616E+02  0.20657524559E+02  0.51100000000E-03 0. -1.
        -11    1    3    3    0    0 -0.57708471336E+01  0.89047759738E+01 -0.77467551246E+01  0.13138109720E+02  0.51100000000E-03 0.  1.
        -12    1    3    3    0    0 -0.21146495224E+01  0.15484938280E+02  0.59788117845E+01  0.16733237777E+02  0.00000000000E+00 0.  1.
</event>
<event>
 7    1  0.6090311E-013  0.5052886E+02  0.7816164E-02  0.1300439E+00
        -11   -1    0    0    0    0  0.00000000000E+00  0.00000000000E+00  0.45593999997E+02  0.45594000000E+02  0.51100000000E-03 0. -1.
         11   -1    0    0    0    0 -0.00000000000E+00 -0.00000000000E+00 -0.45593999997E+02  0.45594000000E+02  0.51100000000E-03 0.  1.
    9900012    2    1    2    0    0  0.37700189713E+02 -0.12115832073E+01  0.15178726745E+02  0.50528856085E+02  0.29999988557E+02 0.  0.
        -12    1    1    2    0    0 -0.37700189713E+02  0.12115832073E+01 -0.15178726745E+02  0.40659143915E+02  0.00000000000E+00 0.  1.
         11    1    3    3    0    0  0.93346854378E+01  0.42322038255E+01 -0.79136272656E-01  0.10249593370E+02  0.51100000000E-03 0. -1.
        -11    1    3    3    0    0  0.20580461979E+02 -0.55477521139E+01  0.21518755589E+02  0.30288443525E+02  0.51100000000E-03 0.  1.
         12    1    3    3    0    0  0.77850422961E+01  0.10396508108E+00 -0.62608925720E+01  0.99908191901E+01  0.00000000000E+00 0. -1.
</event>
<event>
 7    1  0.6090311E-013  0.5052886E+02  0.7816164E-02  0.1300439E+00
        -11   -1    0    0    0    0  0.00000000000E+00  0.00000000000E+00  0.45593999997E+02  0.45594000000E+02  0.51100000000E-03 0.  1.
         11   -1    0    0    0    0 -0.00000000000E+00 -0.00000000000E+00 -0.45593999997E+02  0.45594000000E+02  0.51100000000E-03 0. -1.
    9900012    2    1    2    0    0 -0.32205841225E+00 -0.40480081507E+02 -0.37980023146E+01  0.50528861519E+02  0.30000005073E+02 0.  0.
        -12    1    1    2    0    0  0.32205841225E+00  0.40480081507E+02  0.37980023146E+01  0.40659138481E+02  0.00000000000E+00 0.  1.
         11    1    3    3    0    0 -0.57468303515E+01 -0.75368807555E+01  0.61561493297E+01  0.11301716925E+02  0.51100000000E-03 0. -1.
        -11    1    3    3    0    0 -0.32507050065E+00 -0.42877769822E+01 -0.90120388973E+01  0.99853666747E+01  0.51100000000E-03 0.  1.
        -12    1    3    3    0    0  0.57498424399E+01 -0.28655423769E+02 -0.94211274693E+00  0.29241777920E+02  0.00000000000E+00 0.  1.
</event>
<event>
 7    1  0.6090311E-013  0.5052886E+02  0.7816164E-02  0.1300439E+00
        -11   -1    0    0    0    0  0.00000000000E+00  0.00000000000E+00  0.45593999997E+02  0.45594000000E+02  0.51100000000E-03 0. -1.
         11   -1    0    0    0    0 -0.00000000000E+00 -0.00000000000E+00 -0.45593999997E+02  0.45594000000E+02  0.51100000000E-03 0.  1.
    9900012    2    1    2    0    0 -0.93263420425E+01 -0.27179928461E+02  0.28765202605E+02  0.50528855298E+02  0.29999986163E+02 0.  0.
        -12    1    1    2    0    0  0.93263420425E+01  0.27179928461E+02 -0.28765202605E+02  0.40659144702E+02  0.00000000000E+00 0.  1.
         11    1    3    3    0    0 -0.41711040787E+01 -0.60355423325E+01  0.33379877564E+01  0.80602756160E+01  0.51100000000E-03 0. -1.
        -11    1    3    3    0    0 -0.14267584202E+02 -0.71678143076E+01  0.18406853932E+02  0.24367063689E+02  0.51100000000E-03 0.  1.
        -12    1    3    3    0    0  0.91123462381E+01 -0.13976571821E+02  0.70203609163E+01  0.18101515992E+02  0.00000000000E+00 0.  1.
</event>
<event>
 7    1  0.6090311E-013  0.5052887E+02  0.7816164E-02  0.1300439E+00
        -11   -1    0    0    0    0  0.00000000000E+00  0.00000000000E+00  0.45593999997E+02  0.45594000000E+02  0.51100000000E-03 0. -1.
         11   -1    0    0    0    0 -0.00000000000E+00 -0.00000000000E+00 -0.45593999997E+02  0.45594000000E+02  0.51100000000E-03 0.  1.
    9900012    2    1    2    0    0  0.31162829279E+02  0.50309474947E+01  0.25626798644E+02  0.50528866093E+02  0.30000018976E+02 0.  0.
        -12    1    1    2    0    0 -0.31162829279E+02 -0.50309474947E+01 -0.25626798644E+02  0.40659133907E+02  0.00000000000E+00 0.  1.
         11    1    3    3    0    0  0.96014831594E+01 -0.43082014395E+00  0.15546484464E+02  0.18277507059E+02  0.51100000000E-03 0. -1.
        -11    1    3    3    0    0 -0.93405303187E-01 -0.58946362916E+01  0.25993930404E+00  0.59011041563E+01  0.51100000000E-03 0.  1.
        -12    1    3    3    0    0  0.21654751423E+02  0.11356403930E+02  0.98203748755E+01  0.26350254877E+02  0.00000000000E+00 0.  1.
</event>
<event>
 7    1  0.6090311E-013  0.5052886E+02  0.7816164E-02  0.1300439E+00
        -11   -1    0    0    0    0  0.00000000000E+00  0.00000000000E+00  0.45593999997E+02  0.45594000000E+02  0.51100000000E-03 0.  1.
         11   -1    0    0    0    0 -0.00000000000E+00 -0.00000000000E+00 -0.45593999997E+02  0.45594000000E+02  0.51100000000E-03 0. -1.
    9900012    2    1    2    0    0  0.37989538715E+02  0.13005437131E+02 -0.63890081162E+01  0.50528857467E+02  0.29999992758E+02 0.  0.
        -12    1    1    2    0    0 -0.37989538715E+02 -0.13005437131E+02  0.63890081162E+01  0.40659142533E+02  0.00000000000E+00 0.  1.
         11    1    3    3    0    0  0.21868192280E+02 -0.13859565267E+01 -0.14774902916E+02  0.26427948568E+02  0.51100000000E-03 0. -1.
        -11    1    3    3    0    0  0.22846860946E+01  0.42649492949E+01 -0.36209085483E+00  0.48518752135E+01  0.51100000000E-03 0.  1.
        -12    1    3    3    0    0  0.13836660341E+02  0.10126444363E+02  0.87479856547E+01  0.19249033686E+02  0.00000000000E+00 0.  1.
</event>
<event>
 7    1  0.6090311E-013  0.5052885E+02  0.7816164E-02  0.1300439E+00
        -11   -1    0    0    0    0  0.00000000000E+00  0.00000000000E+00  0.45593999997E+02  0.45594000000E+02  0.51100000000E-03 0. -1.
         11   -1    0    0    0    0 -0.00000000000E+00 -0.00000000000E+00 -0.45593999997E+02  0.45594000000E+02  0.51100000000E-03 0.  1.
    9900012    2    1    2    0    0 -0.28775720099E+02 -0.28116518585E+02 -0.58809870449E+01  0.50528847362E+02  0.29999962042E+02 0.  0.
        -12    1    1    2    0    0  0.28775720099E+02  0.28116518585E+02  0.58809870449E+01  0.40659152638E+02  0.00000000000E+00 0.  1.
         11    1    3    3    0    0 -0.23126170969E+02 -0.18603165043E+02 -0.76020316589E+01  0.30638022438E+02  0.51100000000E-03 0. -1.
        -11    1    3    3    0    0 -0.55305188687E+01  0.32912289176E+01 -0.16609146974E+01  0.66466130200E+01  0.51100000000E-03 0.  1.
         12    1    3    3    0    0 -0.11903026161E+00 -0.12804582460E+02  0.33819593114E+01  0.13244211904E+02  0.00000000000E+00 0. -1.
</event>
<event>
 7    1  0.6090311E-013  0.5052884E+02  0.7816164E-02  0.1300439E+00
        -11   -1    0    0    0    0  0.00000000000E+00  0.00000000000E+00  0.45593999997E+02  0.45594000000E+02  0.51100000000E-03 0. -1.
         11   -1    0    0    0    0 -0.00000000000E+00 -0.00000000000E+00 -0.45593999997E+02  0.45594000000E+02  0.51100000000E-03 0.  1.
    9900012    2    1    2    0    0  0.28859313793E+02  0.20794289871E+02 -0.19695298926E+02  0.50528840102E+02  0.29999939973E+02 0.  0.
        -12    1    1    2    0    0 -0.28859313793E+02 -0.20794289871E+02  0.19695298926E+02  0.40659159898E+02  0.00000000000E+00 0.  1.
         11    1    3    3    0    0  0.11714051551E+02  0.98414737007E+00 -0.65732287043E+01  0.13468291860E+02  0.51100000000E-03 0.  1.
        -11    1    3    3    0    0 -0.31707837237E+01  0.12582155315E+02 -0.34443659398E+01  0.13424908148E+02  0.51100000000E-03 0. -1.
         12    1    3    3    0    0  0.20316045966E+02  0.72279871864E+01 -0.96777042818E+01  0.23635640094E+02  0.00000000000E+00 0. -1.
</event>
<event>
 7    1  0.6090311E-013  0.5052886E+02  0.7816164E-02  0.1300439E+00
        -11   -1    0    0    0    0  0.00000000000E+00  0.00000000000E+00  0.45593999997E+02  0.45594000000E+02  0.51100000000E-03 0.  1.
         11   -1    0    0    0    0 -0.00000000000E+00 -0.00000000000E+00 -0.45593999997E+02  0.45594000000E+02  0.51100000000E-03 0. -1.
    9900012    2    1    2    0    0 -0.33320494355E+02  0.16707641094E+02 -0.16240845905E+02  0.50528859690E+02  0.29999999514E+02 0.  0.
        -12    1    1    2    0    0  0.33320494355E+02 -0.16707641094E+02  0.16240845905E+02  0.40659140310E+02  0.00000000000E+00 0.  1.
         11    1    3    3    0    0 -0.32563866749E+02  0.15444953747E+02 -0.57374176321E+01  0.36494793810E+02  0.51100000000E-03 0. -1.
        -11    1    3    3    0    0 -0.32007945905E+01 -0.73096074156E+00 -0.23439910976E+00  0.32915547724E+01  0.51100000000E-03 0.  1.
        -12    1    3    3    0    0  0.24441669840E+01  0.19936480885E+01 -0.10269029163E+02  0.10742511108E+02  0.00000000000E+00 0.  1.
</event>
<event>
 7    1  0.6090311E-013  0.5052890E+02  0.7816164E-02  0.1300439E+00
        -11   -1    0    0    0    0  0.00000000000E+00  0.00000000000E+00  0.45593999997E+02  0.45594000000E+02  0.51100000000E-03 0.  1.
         11   -1    0    0    0    0 -0.00000000000E+00 -0.00000000000E+00 -0.45593999997E+02  0.45594000000E+02  0.51100000000E-03 0. -1.
    9900012    2    1    2    0    0  0.21876857591E+00 -0.36467324719E+02 -0.17979129996E+02  0.50528895887E+02  0.30000109538E+02 0.  0.
        -12    1    1    2    0    0 -0.21876857591E+00  0.36467324719E+02  0.17979129996E+02  0.40659104113E+02  0.00000000000E+00 0.  1.
         11    1    3    3    0    0  0.32339138410E+01 -0.33843150428E+01 -0.94710438902E+01  0.10564679819E+02  0.51100000000E-03 0. -1.
        -11    1    3    3    0    0  0.25112623280E+01 -0.67039044763E+01  0.60134004651E+01  0.93493186448E+01  0.51100000000E-03 0.  1.
         12    1    3    3    0    0 -0.55264075931E+01 -0.26379105200E+02 -0.14521486571E+02  0.30614897424E+02  0.00000000000E+00 0. -1.
</event>
<event>
 7    1  0.6090311E-013  0.5052887E+02  0.7816164E-02  0.1300439E+00
        -11   -1    0    0    0    0  0.00000000000E+00  0.00000000000E+00  0.45593999997E+02  0.45594000000E+02  0.51100000000E-03 0.  1.
         11   -1    0    0    0    0 -0.00000000000E+00 -0.00000000000E+00 -0.45593999997E+02  0.45594000000E+02  0.51100000000E-03 0. -1.
    9900012    2    1    2    0    0 -0.34972542376E+02  0.20733358497E+02  0.46299950406E+00  0.50528865192E+02  0.30000016236E+02 0.  0.
        -12    1    1    2    0    0  0.34972542376E+02 -0.20733358497E+02 -0.46299950406E+00  0.40659134808E+02  0.00000000000E+00 0.  1.
         11    1    3    3    0    0 -0.19006397525E+02  0.28401650009E+01 -0.46647716658E+01  0.19775484295E+02  0.51100000000E-03 0. -1.
        -11    1    3    3    0    0 -0.18641725425E+02  0.11274329153E+02  0.77859544706E+01  0.23135373607E+02  0.51100000000E-03 0.  1.
        -12    1    3    3    0    0  0.26755805741E+01  0.66188643437E+01 -0.26581833008E+01  0.76180072900E+01  0.00000000000E+00 0.  1.
</event>
<event>
 7    1  0.6090311E-013  0.5052881E+02  0.7816164E-02  0.1300439E+00
        -11   -1    0    0    0    0  0.00000000000E+00  0.00000000000E+00  0.45593999997E+02  0.45594000000E+02  0.51100000000E-03 0.  1.
         11   -1    0    0    0    0 -0.00000000000E+00 -0.00000000000E+00 -0.45593999997E+02  0.45594000000E+02  0.51100000000E-03 0. -1.
    9900012    2    1    2    0    0 -0.21807636724E+02  0.10678084139E+02 -0.32612499507E+02  0.50528811316E+02  0.29999852476E+02 0.  0.
        -12    1    1    2    0    0  0.21807636724E+02 -0.10678084139E+02  0.32612499507E+02  0.40659188684E+02  0.00000000000E+00 0.  1.
         11    1    3    3    0    0  0.68468883169E+01  0.22538650319E+01 -0.78581762120E+01  0.10663522910E+02  0.51100000000E-03 0.  1.
        -11    1    3    3    0    0 -0.10419166816E+01  0.29044416427E+01 -0.26340159449E+01  0.40570200747E+01  0.51100000000E-03 0. -1.
        -12    1    3    3    0    0 -0.27612608359E+02  0.55197774640E+01 -0.22120307350E+02  0.35808268332E+02  0.00000000000E+00 0.  1.
</event>
<event>
 7    1  0.6090311E-013  0.5052885E+02  0.7816164E-02  0.1300439E+00
        -11   -1    0    0    0    0  0.00000000000E+00  0.00000000000E+00  0.45593999997E+02  0.45594000000E+02  0.51100000000E-03 0. -1.
         11   -1    0    0    0    0 -0.00000000000E+00 -0.00000000000E+00 -0.45593999997E+02  0.45594000000E+02  0.51100000000E-03 0.  1.
    9900012    2    1    2    0    0  0.17172668259E+02  0.25251099269E+02  0.26844880209E+02  0.50528854130E+02  0.29999982615E+02 0.  0.
        -12    1    1    2    0    0 -0.17172668259E+02 -0.25251099269E+02 -0.26844880209E+02  0.40659145870E+02  0.00000000000E+00 0.  1.
         11    1    3    3    0    0  0.13688474644E+02  0.80633359651E+01  0.22350877086E+01  0.16043295868E+02  0.51100000000E-03 0. -1.
        -11    1    3    3    0    0 -0.34073178741E+01 -0.10076894388E+00 -0.26470133501E+00  0.34190695420E+01  0.51100000000E-03 0.  1.
        -12    1    3    3    0    0  0.68915114886E+01  0.17288532248E+02  0.24874493835E+02  0.31066488721E+02  0.00000000000E+00 0.  1.
</event>
<event>
 7    1  0.6090311E-013  0.5052886E+02  0.7816164E-02  0.1300439E+00
        -11   -1    0    0    0    0  0.00000000000E+00  0.00000000000E+00  0.45593999997E+02  0.45594000000E+02  0.51100000000E-03 0.  1.
         11   -1    0    0    0    0 -0.00000000000E+00 -0.00000000000E+00 -0.45593999997E+02  0.45594000000E+02  0.51100000000E-03 0. -1.
    9900012    2    1    2    0    0 -0.24717658252E+02 -0.18593012239E+02 -0.26391345200E+02  0.50528857916E+02  0.29999994120E+02 0.  0.
        -12    1    1    2    0    0  0.24717658252E+02  0.18593012239E+02  0.26391345200E+02  0.40659142084E+02  0.00000000000E+00 0.  1.
         11    1    3    3    0    0  0.19784475145E+00 -0.22786303488E+01  0.23427993916E+01  0.32741423400E+01  0.51100000000E-03 0. -1.
        -11    1    3    3    0    0 -0.56637180807E+01  0.17747557727E+01  0.24188077948E+01  0.64092192940E+01  0.51100000000E-03 0.  1.
         12    1    3    3    0    0 -0.19251784923E+02 -0.18089137663E+02 -0.31152952386E+02  0.40845496282E+02  0.00000000000E+00 0. -1.
</event>
<event>
 7    1  0.6090311E-013  0.5052886E+02  0.7816164E-02  0.1300439E+00
        -11   -1    0    0    0    0  0.00000000000E+00  0.00000000000E+00  0.45593999997E+02  0.45594000000E+02  0.51100000000E-03 0. -1.
         11   -1    0    0    0    0 -0.00000000000E+00 -0.00000000000E+00 -0.45593999997E+02  0.45594000000E+02  0.51100000000E-03 0.  1.
    9900012    2    1    2    0    0 -0.15224337604E+02  0.11620646904E+02  0.35865660435E+02  0.50528862178E+02  0.30000007077E+02 0.  0.
        -12    1    1    2    0    0  0.15224337604E+02 -0.11620646904E+02 -0.35865660435E+02  0.40659137822E+02  0.00000000000E+00 0.  1.
         11    1    3    3    0    0  0.32640844206E+01 -0.40398892252E+01  0.16604620505E+02  0.17397941672E+02  0.51100000000E-03 0. -1.
        -11    1    3    3    0    0 -0.10160498809E+02  0.70193477202E+01  0.16848705111E+02  0.20889850231E+02  0.51100000000E-03 0.  1.
        -12    1    3    3    0    0 -0.83279232150E+01  0.86411884094E+01  0.24123348188E+01  0.12241070275E+02  0.00000000000E+00 0.  1.
</event>
<event>
 7    1  0.6090311E-013  0.5052886E+02  0.7816164E-02  0.1300439E+00
        -11   -1    0    0    0    0  0.00000000000E+00  0.00000000000E+00  0.45593999997E+02  0.45594000000E+02  0.51100000000E-03 0.  1.
         11   -1    0    0    0    0 -0.00000000000E+00 -0.00000000000E+00 -0.45593999997E+02  0.45594000000E+02  0.51100000000E-03 0. -1.
    9900012    2    1    2    0    0  0.73108140026E+01 -0.17458036625E+02 -0.35985194699E+02  0.50528864721E+02  0.30000014805E+02 0.  0.
        -12    1    1    2    0    0 -0.73108140026E+01  0.17458036625E+02  0.35985194699E+02  0.40659135279E+02  0.00000000000E+00 0.  1.
         11    1    3    3    0    0 -0.32653966264E+01 -0.89332404716E-01 -0.89138731407E+00  0.33860547856E+01  0.51100000000E-03 0. -1.
        -11    1    3    3    0    0 -0.74974282427E+01 -0.23847136421E+01 -0.70001355495E+01  0.10530915790E+02  0.51100000000E-03 0.  1.
        -12    1    3    3    0    0  0.18073638872E+02 -0.14983990578E+02 -0.28093671835E+02  0.36611894145E+02  0.00000000000E+00 0.  1.
</event>
<event>
 7    1  0.6090311E-013  0.5052884E+02  0.7816164E-02  0.1300439E+00
        -11   -1    0    0    0    0  0.00000000000E+00  0.00000000000E+00  0.45593999997E+02  0.45594000000E+02  0.51100000000E-03 0.  1.
         11   -1    0    0    0    0 -0.00000000000E+00 -0.00000000000E+00 -0.45593999997E+02  0.45594000000E+02  0.51100000000E-03 0. -1.
    9900012    2    1    2    0    0 -0.36423762643E+01 -0.76256172756E+01 -0.39771225046E+02  0.50528840081E+02  0.29999939910E+02 0.  0.
        -12    1    1    2    0    0  0.36423762643E+01  0.76256172756E+01  0.39771225046E+02  0.40659159919E+02  0.00000000000E+00 0.  1.
         11    1    3    3    0    0  0.12990610437E+01 -0.21788020855E+01 -0.37401355773E+01  0.45192203443E+01  0.51100000000E-03 0. -1.
        -11    1    3    3    0    0  0.14578254305E+01 -0.11953430699E+02 -0.39770708933E+01  0.12681752781E+02  0.51100000000E-03 0.  1.
         12    1    3    3    0    0 -0.63992627386E+01  0.65066155088E+01 -0.32054018575E+02  0.33327866955E+02  0.00000000000E+00 0. -1.
</event>
<event>
 7    1  0.6090311E-013  0.5052885E+02  0.7816164E-02  0.1300439E+00
        -11   -1    0    0    0    0  0.00000000000E+00  0.00000000000E+00  0.45593999997E+02  0.45594000000E+02  0.51100000000E-03 0.  1.
         11   -1    0    0    0    0 -0.00000000000E+00 -0.00000000000E+00 -0.45593999997E+02  0.45594000000E+02  0.51100000000E-03 0. -1.
    9900012    2    1    2    0    0  0.78080635912E+01  0.21717366483E+02 -0.33474712671E+02  0.50528852783E+02  0.29999978519E+02 0.  0.
        -12    1    1    2    0    0 -0.78080635912E+01 -0.21717366483E+02  0.33474712671E+02  0.40659147217E+02  0.00000000000E+00 0.  1.
         11    1    3    3    0    0  0.11231827750E+02  0.11347157708E+02 -0.88219005863E+01  0.18241103938E+02  0.51100000000E-03 0. -1.
        -11    1    3    3    0    0  0.16917406006E+01  0.34948913780E+00  0.24181973399E+01  0.29718357211E+01  0.51100000000E-03 0.  1.
         12    1    3    3    0    0 -0.51155047599E+01  0.10020719637E+02 -0.27071009425E+02  0.29315913123E+02  0.00000000000E+00 0. -1.
</event>
<event>
 7    1  0.6090311E-013  0.5052886E+02  0.7816164E-02  0.1300439E+00
        -11   -1    0    0    0    0  0.00000000000E+00  0.00000000000E+00  0.45593999997E+02  0.45594000000E+02  0.51100000000E-03 0.  1.
         11   -1    0    0    0    0 -0.00000000000E+00 -0.00000000000E+00 -0.45593999997E+02  0.45594000000E+02  0.51100000000E-03 0. -1.
    9900012    2    1    2    0    0 -0.39129636117E+02 -0.10616865964E+02 -0.30528013910E+01  0.50528857586E+02  0.29999993117E+02 0.  0.
        -12    1    1    2    0    0  0.39129636117E+02  0.10616865964E+02  0.30528013910E+01  0.40659142414E+02  0.00000000000E+00 0.  1.
         11    1    3    3    0    0 -0.76205464034E+00 -0.95063697066E+00 -0.76839017343E+01  0.77798961464E+01  0.51100000000E-03 0. -1.
        -11    1    3    3    0    0 -0.33605765272E+01  0.35899434047E+01 -0.59414471016E+00  0.49531986071E+01  0.51100000000E-03 0.  1.
         12    1    3    3    0    0 -0.35007004949E+02 -0.13256172398E+02  0.52252450535E+01  0.37795762832E+02  0.00000000000E+00 0. -1.
</event>
<event>
 7    1  0.6090311E-013  0.5052886E+02  0.7816164E-02  0.1300439E+00
        -11   -1    0    0    0    0  0.00000000000E+00  0.00000000000E+00  0.45593999997E+02  0.45594000000E+02  0.51100000000E-03 0.  1.
         11   -1    0    0    0    0 -0.00000000000E+00 -0.00000000000E+00 -0.45593999997E+02  0.45594000000E+02  0.51100000000E-03 0. -1.
    9900012    2    1    2    0    0  0.22987406423E+02 -0.21103890417E+01 -0.33470747381E+02  0.50528861713E+02  0.30000005664E+02 0.  0.
        -12    1    1    2    0    0 -0.22987406423E+02  0.21103890417E+01  0.33470747381E+02  0.40659138287E+02  0.00000000000E+00 0.  1.
         11    1    3    3    0    0  0.11189241936E+02  0.47708223767E+01 -0.96484339940E+01  0.15525854568E+02  0.51100000000E-03 0. -1.
        -11    1    3    3    0    0  0.51568164069E+01 -0.18104396516E+01 -0.25836156092E+02  0.26407904292E+02  0.51100000000E-03 0.  1.
        -12    1    3    3    0    0  0.66413480800E+01 -0.50707717668E+01  0.20138427053E+01  0.85951028541E+01  0.00000000000E+00 0.  1.
</event>
<event>
 7    1  0.6090311E-013  0.5052888E+02  0.7816164E-02  0.1300439E+00
        -11   -1    0    0    0    0  0.00000000000E+00  0.00000000000E+00  0.45593999997E+02  0.45594000000E+02  0.51100000000E-03 0.  1.
         11   -1    0    0    0    0 -0.00000000000E+00 -0.00000000000E+00 -0.45593999997E+02  0.45594000000E+02  0.51100000000E-03 0. -1.
    9900012    2    1    2    0    0  0.20506137074E+02 -0.19355314089E+02 -0.29292224627E+02  0.50528877226E+02  0.30000052815E+02 0.  0.
        -12    1    1    2    0    0 -0.20506137074E+02  0.19355314089E+02  0.29292224627E+02  0.40659122774E+02  0.00000000000E+00 0.  1.
         11    1    3    3    0    0 -0.13534693756E-01  0.14285873795E+00  0.26372465971E+01  0.26411477963E+01  0.51100000000E-03 0. -1.
        -11    1    3    3    0    0 -0.45244303353E-01 -0.17630962105E+01  0.30989866743E+01  0.35657080592E+01  0.51100000000E-03 0.  1.
         12    1    3    3    0    0  0.20564916071E+02 -0.17735076616E+02 -0.35028457899E+02  0.44322021370E+02  0.00000000000E+00 0. -1.
</event>
<event>
 7    1  0.6090311E-013  0.5052885E+02  0.7816164E-02  0.1300439E+00
        -11   -1    0    0    0    0  0.00000000000E+00  0.00000000000E+00  0.45593999997E+02  0.45594000000E+02  0.51100000000E-03 0. -1.
         11   -1    0    0    0    0 -0.00000000000E+00 -0.00000000000E+00 -0.45593999997E+02  0.45594000000E+02  0.51100000000E-03 0.  1.
    9900012    2    1    2    0    0  0.88230818549E+01 -0.42480102006E+01  0.39462311679E+02  0.50528850880E+02  0.29999972736E+02 0.  0.
        -12    1    1    2    0    0 -0.88230818549E+01  0.42480102006E+01 -0.39462311679E+02  0.40659149120E+02  0.00000000000E+00 0.  1.
         11    1    3    3    0    0 -0.93860273267E+01 -0.33694047046E+01  0.18723621348E+02  0.21213778392E+02  0.51100000000E-03 0. -1.
        -11    1    3    3    0    0  0.48421286444E+00 -0.27785218958E+01  0.37287080966E+01  0.46752444165E+01  0.51100000000E-03 0.  1.
        -12    1    3    3    0    0  0.17724896317E+02  0.18999163998E+01  0.17009982234E+02  0.24639828072E+02  0.00000000000E+00 0.  1.
</event>
<event>
 7    1  0.6090311E-013  0.5052887E+02  0.7816164E-02  0.1300439E+00
        -11   -1    0    0    0    0  0.00000000000E+00  0.00000000000E+00  0.45593999997E+02  0.45594000000E+02  0.51100000000E-03 0.  1.
         11   -1    0    0    0    0 -0.00000000000E+00 -0.00000000000E+00 -0.45593999997E+02  0.45594000000E+02  0.51100000000E-03 0. -1.
    9900012    2    1    2    0    0  0.38431151456E+01  0.16536067737E+02 -0.36945285153E+02  0.50528866153E+02  0.30000019157E+02 0.  0.
        -12    1    1    2    0    0 -0.38431151456E+01 -0.16536067737E+02  0.36945285153E+02  0.40659133847E+02  0.00000000000E+00 0.  1.
         11    1    3    3    0    0  0.45441221303E+01  0.12103312036E+02 -0.73570575979E+01  0.14874995964E+02  0.51100000000E-03 0. -1.
        -11    1    3    3    0    0  0.27855199667E+00  0.42779802858E+01  0.15059723936E+01  0.45438595546E+01  0.51100000000E-03 0.  1.
         12    1    3    3    0    0 -0.97955898133E+00  0.15477541526E+00 -0.31094199948E+02  0.31110010634E+02  0.00000000000E+00 0. -1.
</event>
<event>
 7    1  0.6090311E-013  0.5052884E+02  0.7816164E-02  0.1300439E+00
        -11   -1    0    0    0    0  0.00000000000E+00  0.00000000000E+00  0.45593999997E+02  0.45594000000E+02  0.51100000000E-03 0.  1.
         11   -1    0    0    0    0 -0.00000000000E+00 -0.00000000000E+00 -0.45593999997E+02  0.45594000000E+02  0.51100000000E-03 0. -1.
    9900012    2    1    2    0    0 -0.28176516937E+02 -0.65599669808E+01 -0.28569527132E+02  0.50528841695E+02  0.29999944817E+02 0.  0.
        -12    1    1    2    0    0  0.28176516937E+02  0.65599669808E+01  0.28569527132E+02  0.40659158305E+02  0.00000000000E+00 0.  1.
         11    1    3    3    0    0 -0.34112333389E+01 -0.23647026899E+01  0.19279556249E+00  0.41551777452E+01  0.51100000000E-03 0. -1.
        -11    1    3    3    0    0  0.51116147438E+01 -0.40082180234E+01 -0.53750481489E+01  0.84312252891E+01  0.51100000000E-03 0.  1.
         12    1    3    3    0    0 -0.29876898342E+02 -0.18704626757E+00 -0.23387274546E+02  0.37942438661E+02  0.00000000000E+00 0. -1.
</event>
<event>
 7    1  0.6090311E-013  0.5052884E+02  0.7816164E-02  0.1300439E+00
        -11   -1    0    0    0    0  0.00000000000E+00  0.00000000000E+00  0.45593999997E+02  0.45594000000E+02  0.51100000000E-03 0.  1.
         11   -1    0    0    0    0 -0.00000000000E+00 -0.00000000000E+00 -0.45593999997E+02  0.45594000000E+02  0.51100000000E-03 0. -1.
    9900012    2    1    2    0    0 -0.13422439462E+02 -0.38292129392E+02 -0.25920229826E+01  0.50528835749E+02  0.29999926742E+02 0.  0.
        -12    1    1    2    0    0  0.13422439462E+02  0.38292129392E+02  0.25920229826E+01  0.40659164251E+02  0.00000000000E+00 0.  1.
         11    1    3    3    0    0 -0.10265294976E+02 -0.14794337746E+02  0.34187766694E+00  0.18010152439E+02  0.51100000000E-03 0. -1.
        -11    1    3    3    0    0 -0.63372569361E+01 -0.22171301155E+02  0.52409745958E+01  0.23647309262E+02  0.51100000000E-03 0.  1.
        -12    1    3    3    0    0  0.31801124500E+01 -0.13264904915E+01 -0.81748752454E+01  0.88713740478E+01  0.00000000000E+00 0.  1.
</event>
<event>
 7    1  0.6090311E-013  0.5052887E+02  0.7816164E-02  0.1300439E+00
        -11   -1    0    0    0    0  0.00000000000E+00  0.00000000000E+00  0.45593999997E+02  0.45594000000E+02  0.51100000000E-03 0.  1.
         11   -1    0    0    0    0 -0.00000000000E+00 -0.00000000000E+00 -0.45593999997E+02  0.45594000000E+02  0.51100000000E-03 0. -1.
    9900012    2    1    2    0    0 -0.29708969894E+02  0.17657368681E+02 -0.21418672259E+02  0.50528867173E+02  0.30000022260E+02 0.  0.
        -12    1    1    2    0    0  0.29708969894E+02 -0.17657368681E+02  0.21418672259E+02  0.40659132827E+02  0.00000000000E+00 0.  1.
         11    1    3    3    0    0 -0.14147916689E+02  0.35212853286E+01 -0.10467212629E+02  0.17947856069E+02  0.51100000000E-03 0. -1.
        -11    1    3    3    0    0 -0.10452778653E+02 -0.37576621090E+01 -0.81178008004E+01  0.13757881239E+02  0.51100000000E-03 0.  1.
        -12    1    3    3    0    0 -0.51082745515E+01  0.17893745462E+02 -0.28336588297E+01  0.18823129865E+02  0.00000000000E+00 0.  1.
</event>
<event>
 7    1  0.6090311E-013  0.5052887E+02  0.7816164E-02  0.1300439E+00
        -11   -1    0    0    0    0  0.00000000000E+00  0.00000000000E+00  0.45593999997E+02  0.45594000000E+02  0.51100000000E-03 0.  1.
         11   -1    0    0    0    0 -0.00000000000E+00 -0.00000000000E+00 -0.45593999997E+02  0.45594000000E+02  0.51100000000E-03 0. -1.
    9900012    2    1    2    0    0 -0.18489449631E+02 -0.23680390046E+02 -0.27396065798E+02  0.50528867673E+02  0.30000023780E+02 0.  0.
        -12    1    1    2    0    0  0.18489449631E+02  0.23680390046E+02  0.27396065798E+02  0.40659132327E+02  0.00000000000E+00 0.  1.
         11    1    3    3    0    0 -0.16679236952E+02 -0.20603868148E+02 -0.88795357524E+01  0.27956439033E+02  0.51100000000E-03 0. -1.
        -11    1    3    3    0    0  0.21977133440E+01 -0.69745108014E+01 -0.10152589153E+02  0.12511946756E+02  0.51100000000E-03 0.  1.
        -12    1    3    3    0    0 -0.40079260226E+01  0.38979889034E+01 -0.83639408922E+01  0.10060481884E+02  0.00000000000E+00 0.  1.
</event>
<event>
 7    1  0.6090311E-013  0.5052886E+02  0.7816164E-02  0.1300439E+00
        -11   -1    0    0    0    0  0.00000000000E+00  0.00000000000E+00  0.45593999997E+02  0.45594000000E+02  0.51100000000E-03 0. -1.
         11   -1    0    0    0    0 -0.00000000000E+00 -0.00000000000E+00 -0.45593999997E+02  0.45594000000E+02  0.51100000000E-03 0.  1.
    9900012    2    1    2    0    0  0.13001751073E+01 -0.31539066222E+02  0.25627382029E+02  0.50528857571E+02  0.29999993072E+02 0.  0.
        -12    1    1    2    0    0 -0.13001751073E+01  0.31539066222E+02 -0.25627382029E+02  0.40659142429E+02  0.00000000000E+00 0.  1.
         11    1    3    3    0    0 -0.22306991319E+01 -0.13127940959E+02  0.23784722484E+02  0.27258611050E+02  0.51100000000E-03 0. -1.
        -11    1    3    3    0    0 -0.21026111504E+01  0.89100632233E+00 -0.17080591395E+01  0.28517244259E+01  0.51100000000E-03 0.  1.
        -12    1    3    3    0    0  0.56334853897E+01 -0.19302131585E+02  0.35507186839E+01  0.20418522095E+02  0.00000000000E+00 0.  1.
</event>
<event>
 7    1  0.6090311E-013  0.5052883E+02  0.7816164E-02  0.1300439E+00
        -11   -1    0    0    0    0  0.00000000000E+00  0.00000000000E+00  0.45593999997E+02  0.45594000000E+02  0.51100000000E-03 0. -1.
         11   -1    0    0    0    0 -0.00000000000E+00 -0.00000000000E+00 -0.45593999997E+02  0.45594000000E+02  0.51100000000E-03 0.  1.
    9900012    2    1    2    0    0 -0.24908218653E+02  0.29616267422E+02  0.12474990232E+02  0.50528830877E+02  0.29999911934E+02 0.  0.
        -12    1    1    2    0    0  0.24908218653E+02 -0.29616267422E+02 -0.12474990232E+02  0.40659169123E+02  0.00000000000E+00 0.  1.
         11    1    3    3    0    0 -0.28983197780E+01  0.10606705175E+02  0.31187787702E+01  0.11429314655E+02  0.51100000000E-03 0. -1.
        -11    1    3    3    0    0 -0.24673049938E+02  0.20236626355E+02  0.12970106325E+02  0.34445668782E+02  0.51100000000E-03 0.  1.
        -12    1    3    3    0    0  0.26631510634E+01 -0.12270641077E+01 -0.36138948638E+01  0.46538474403E+01  0.00000000000E+00 0.  1.
</event>
<event>
 7    1  0.6090311E-013  0.5052886E+02  0.7816164E-02  0.1300439E+00
        -11   -1    0    0    0    0  0.00000000000E+00  0.00000000000E+00  0.45593999997E+02  0.45594000000E+02  0.51100000000E-03 0.  1.
         11   -1    0    0    0    0 -0.00000000000E+00 -0.00000000000E+00 -0.45593999997E+02  0.45594000000E+02  0.51100000000E-03 0. -1.
    9900012    2    1    2    0    0 -0.30734460662E+02  0.37349208264E-01 -0.26618742524E+02  0.50528856862E+02  0.29999990919E+02 0.  0.
        -12    1    1    2    0    0  0.30734460662E+02 -0.37349208264E-01  0.26618742524E+02  0.40659143138E+02  0.00000000000E+00 0.  1.
         11    1    3    3    0    0 -0.85834794984E+01  0.62894078351E+01 -0.49386024133E+01  0.11731264436E+02  0.51100000000E-03 0. -1.
        -11    1    3    3    0    0 -0.48002850812E+01  0.35197490327E+01  0.33359988461E+01  0.68235077985E+01  0.51100000000E-03 0.  1.
         12    1    3    3    0    0 -0.17350696082E+02 -0.97718076595E+01 -0.25016138957E+02  0.31974084628E+02  0.00000000000E+00 0. -1.
</event>
<event>
 7    1  0.6090311E-013  0.5052886E+02  0.7816164E-02  0.1300439E+00
        -11   -1    0    0    0    0  0.00000000000E+00  0.00000000000E+00  0.45593999997E+02  0.45594000000E+02  0.51100000000E-03 0.  1.
         11   -1    0    0    0    0 -0.00000000000E+00 -0.00000000000E+00 -0.45593999997E+02  0.45594000000E+02  0.51100000000E-03 0. -1.
    9900012    2    1    2    0    0  0.27321507517E+02  0.27426307536E+02 -0.12429744774E+02  0.50528859905E+02  0.30000000169E+02 0.  0.
        -12    1    1    2    0    0 -0.27321507517E+02 -0.27426307536E+02  0.12429744774E+02  0.40659140095E+02  0.00000000000E+00 0.  1.
         11    1    3    3    0    0  0.13270956500E+00 -0.19266770244E-01  0.34571590755E+01  0.34597589760E+01  0.51100000000E-03 0. -1.
        -11    1    3    3    0    0  0.12926458436E+02  0.86118834245E+01  0.41658677521E+01  0.16081427741E+02  0.51100000000E-03 0.  1.
         12    1    3    3    0    0  0.14262339516E+02  0.18833690882E+02 -0.20052771601E+02  0.30987673188E+02  0.00000000000E+00 0. -1.
</event>
<event>
 7    1  0.6090311E-013  0.5052885E+02  0.7816164E-02  0.1300439E+00
        -11   -1    0    0    0    0  0.00000000000E+00  0.00000000000E+00  0.45593999997E+02  0.45594000000E+02  0.51100000000E-03 0.  1.
         11   -1    0    0    0    0 -0.00000000000E+00 -0.00000000000E+00 -0.45593999997E+02  0.45594000000E+02  0.51100000000E-03 0. -1.
    9900012    2    1    2    0    0 -0.26007688921E+02 -0.25269555359E+02 -0.18390655016E+02  0.50528849702E+02  0.29999969155E+02 0.  0.
        -12    1    1    2    0    0  0.26007688921E+02  0.25269555359E+02  0.18390655016E+02  0.40659150298E+02  0.00000000000E+00 0.  1.
         11    1    3    3    0    0 -0.10811914743E+02 -0.17093386730E+02 -0.39073320653E+01  0.20599723650E+02  0.51100000000E-03 0. -1.
        -11    1    3    3    0    0 -0.76190648494E+01 -0.14064303161E+02 -0.12059347313E+02  0.20032040097E+02  0.51100000000E-03 0.  1.
        -12    1    3    3    0    0 -0.75767093287E+01  0.58881345318E+01 -0.24239756371E+01  0.98970859553E+01  0.00000000000E+00 0.  1.
</event>
<event>
 7    1  0.6090311E-013  0.5052887E+02  0.7816164E-02  0.1300439E+00
        -11   -1    0    0    0    0  0.00000000000E+00  0.00000000000E+00  0.45593999997E+02  0.45594000000E+02  0.51100000000E-03 0.  1.
         11   -1    0    0    0    0 -0.00000000000E+00 -0.00000000000E+00 -0.45593999997E+02  0.45594000000E+02  0.51100000000E-03 0. -1.
    9900012    2    1    2    0    0  0.27205622467E+02  0.26889843228E+02 -0.13782435437E+02  0.50528867087E+02  0.30000021997E+02 0.  0.
        -12    1    1    2    0    0 -0.27205622467E+02 -0.26889843228E+02  0.13782435437E+02  0.40659132913E+02  0.00000000000E+00 0.  1.
         11    1    3    3    0    0  0.50912985638E+01 -0.16564582544E+01  0.75808969344E+00  0.54073907995E+01  0.51100000000E-03 0. -1.
        -11    1    3    3    0    0  0.13462546929E+02  0.11375357975E+02  0.43639465725E+01  0.18157174032E+02  0.51100000000E-03 0.  1.
         12    1    3    3    0    0  0.86517769750E+01  0.17170943507E+02 -0.18904471703E+02  0.26964302256E+02  0.00000000000E+00 0. -1.
</event>
<event>
 7    1  0.6090311E-013  0.5052883E+02  0.7816164E-02  0.1300439E+00
        -11   -1    0    0    0    0  0.00000000000E+00  0.00000000000E+00  0.45593999997E+02  0.45594000000E+02  0.51100000000E-03 0. -1.
         11   -1    0    0    0    0 -0.00000000000E+00 -0.00000000000E+00 -0.45593999997E+02  0.45594000000E+02  0.51100000000E-03 0.  1.
    9900012    2    1    2    0    0 -0.29459374471E+02  0.14277446709E+02  0.24113639034E+02  0.50528833552E+02  0.29999920065E+02 0.  0.
        -12    1    1    2    0    0  0.29459374471E+02 -0.14277446709E+02 -0.24113639034E+02  0.40659166448E+02  0.00000000000E+00 0.  1.
         11    1    3    3    0    0  0.20610520115E+01  0.10136377109E+01  0.17700877187E+01  0.28997599204E+01  0.51100000000E-03 0. -1.
        -11    1    3    3    0    0 -0.66590384084E+01  0.36728504799E+01 -0.52719352302E+01  0.92534277165E+01  0.51100000000E-03 0.  1.
         12    1    3    3    0    0 -0.24861388075E+02  0.95909585181E+01  0.27615486545E+02  0.38375645915E+02  0.00000000000E+00 0. -1.
</event>
<event>
 7    1  0.6090311E-013  0.5052886E+02  0.7816164E-02  0.1300439E+00
        -11   -1    0    0    0    0  0.00000000000E+00  0.00000000000E+00  0.45593999997E+02  0.45594000000E+02  0.51100000000E-03 0. -1.
         11   -1    0    0    0    0 -0.00000000000E+00 -0.00000000000E+00 -0.45593999997E+02  0.45594000000E+02  0.51100000000E-03 0.  1.
    9900012    2    1    2    0    0 -0.35695658179E+02 -0.12115521663E+02 -0.15238114410E+02  0.50528855779E+02  0.29999987627E+02 0.  0.
        -12    1    1    2    0    0  0.35695658179E+02  0.12115521663E+02  0.15238114410E+02  0.40659144221E+02  0.00000000000E+00 0.  1.
         11    1    3    3    0    0 -0.10629060072E+02 -0.93057397202E+01 -0.51253378009E+01  0.15028066994E+02  0.51100000000E-03 0. -1.
        -11    1    3    3    0    0 -0.93367427181E+01 -0.91888115249E+01  0.37047006224E+01  0.13613736768E+02  0.51100000000E-03 0.  1.
        -12    1    3    3    0    0 -0.15729855389E+02  0.63790295822E+01 -0.13817477231E+02  0.21887052017E+02  0.00000000000E+00 0.  1.
</event>
<event>
 7    1  0.6090311E-013  0.5052885E+02  0.7816164E-02  0.1300439E+00
        -11   -1    0    0    0    0  0.00000000000E+00  0.00000000000E+00  0.45593999997E+02  0.45594000000E+02  0.51100000000E-03 0.  1.
         11   -1    0    0    0    0 -0.00000000000E+00 -0.00000000000E+00 -0.45593999997E+02  0.45594000000E+02  0.51100000000E-03 0. -1.
    9900012    2    1    2    0    0 -0.17570211054E+02  0.96694089458E+01 -0.35368867458E+02  0.50528848864E+02  0.29999966607E+02 0.  0.
        -12    1    1    2    0    0  0.17570211054E+02 -0.96694089458E+01  0.35368867458E+02  0.40659151136E+02  0.00000000000E+00 0.  1.
         11    1    3    3    0    0  0.39814480216E-01  0.15301032422E+01 -0.72383641846E+01  0.73984266878E+01  0.51100000000E-03 0. -1.
        -11    1    3    3    0    0 -0.14892378618E+02 -0.63534544328E+01 -0.21622783486E+02  0.27012850462E+02  0.51100000000E-03 0.  1.
        -12    1    3    3    0    0 -0.27176469157E+01  0.14492760136E+02 -0.65077197879E+01  0.16117571714E+02  0.00000000000E+00 0.  1.
</event>
<event>
 7    1  0.6090311E-013  0.5052886E+02  0.7816164E-02  0.1300439E+00
        -11   -1    0    0    0    0  0.00000000000E+00  0.00000000000E+00  0.45593999997E+02  0.45594000000E+02  0.51100000000E-03 0.  1.
         11   -1    0    0    0    0 -0.00000000000E+00 -0.00000000000E+00 -0.45593999997E+02  0.45594000000E+02  0.51100000000E-03 0. -1.
    9900012    2    1    2    0    0 -0.35170776598E+02  0.19203839796E+02 -0.68843816109E+01  0.50528859581E+02  0.29999999183E+02 0.  0.
        -12    1    1    2    0    0  0.35170776598E+02 -0.19203839796E+02  0.68843816109E+01  0.40659140419E+02  0.00000000000E+00 0.  1.
         11    1    3    3    0    0 -0.23370412520E+02  0.59505055738E+01 -0.65115224102E+01  0.24979684191E+02  0.51100000000E-03 0. -1.
        -11    1    3    3    0    0 -0.11911896054E+02 -0.12336412216E-01 -0.23353346692E+01  0.12138665828E+02  0.51100000000E-03 0.  1.
        -12    1    3    3    0    0  0.11153197554E+00  0.13265670634E+02  0.19624754684E+01  0.13410509563E+02  0.00000000000E+00 0.  1.
</event>
<event>
 7    1  0.6090311E-013  0.5052886E+02  0.7816164E-02  0.1300439E+00
        -11   -1    0    0    0    0  0.00000000000E+00  0.00000000000E+00  0.45593999997E+02  0.45594000000E+02  0.51100000000E-03 0. -1.
         11   -1    0    0    0    0 -0.00000000000E+00 -0.00000000000E+00 -0.45593999997E+02  0.45594000000E+02  0.51100000000E-03 0.  1.
    9900012    2    1    2    0    0  0.39076343746E+02 -0.60202759630E+01  0.94847907185E+01  0.50528860582E+02  0.30000002225E+02 0.  0.
        -12    1    1    2    0    0 -0.39076343746E+02  0.60202759630E+01 -0.94847907185E+01  0.40659139418E+02  0.00000000000E+00 0.  1.
         11    1    3    3    0    0  0.17833966944E+02 -0.98205395582E+01  0.60330165298E+01  0.21234186184E+02  0.51100000000E-03 0. -1.
        -11    1    3    3    0    0  0.64438234977E+01 -0.72885808249E+01  0.46113781922E+01  0.10766200853E+02  0.51100000000E-03 0.  1.
        -12    1    3    3    0    0  0.14798553304E+02  0.11088844420E+02 -0.11596040036E+01  0.18528473545E+02  0.00000000000E+00 0.  1.
</event>
<event>
 7    1  0.6090311E-013  0.5052886E+02  0.7816164E-02  0.1300439E+00
        -11   -1    0    0    0    0  0.00000000000E+00  0.00000000000E+00  0.45593999997E+02  0.45594000000E+02  0.51100000000E-03 0. -1.
         11   -1    0    0    0    0 -0.00000000000E+00 -0.00000000000E+00 -0.45593999997E+02  0.45594000000E+02  0.51100000000E-03 0.  1.
    9900012    2    1    2    0    0  0.37668687377E+02 -0.13664600743E+02  0.68930913075E+01  0.50528855519E+02  0.29999986836E+02 0.  0.
        -12    1    1    2    0    0 -0.37668687377E+02  0.13664600743E+02 -0.68930913075E+01  0.40659144481E+02  0.00000000000E+00 0.  1.
         11    1    3    3    0    0  0.11911454251E+02 -0.23801148013E+01 -0.19173285343E+01  0.12297310186E+02  0.51100000000E-03 0. -1.
        -11    1    3    3    0    0  0.27533485197E+02 -0.12724923257E+02  0.12769830153E+01  0.30358642343E+02  0.51100000000E-03 0.  1.
         12    1    3    3    0    0 -0.17762520714E+01  0.14404373156E+01  0.75334368265E+01  0.78729029906E+01  0.00000000000E+00 0. -1.
</event>
<event>
 7    1  0.6090311E-013  0.5052885E+02  0.7816164E-02  0.1300439E+00
        -11   -1    0    0    0    0  0.00000000000E+00  0.00000000000E+00  0.45593999997E+02  0.45594000000E+02  0.51100000000E-03 0.  1.
         11   -1    0    0    0    0 -0.00000000000E+00 -0.00000000000E+00 -0.45593999997E+02  0.45594000000E+02  0.51100000000E-03 0. -1.
    9900012    2    1    2    0    0  0.90485617518E+01 -0.37848949605E+02  0.11779107367E+02  0.50528845725E+02  0.29999957066E+02 0.  0.
        -12    1    1    2    0    0 -0.90485617518E+01  0.37848949605E+02 -0.11779107367E+02  0.40659154275E+02  0.00000000000E+00 0.  1.
         11    1    3    3    0    0 -0.79551501338E+00 -0.12910061473E+02 -0.69613231362E+01  0.14688858071E+02  0.51100000000E-03 0. -1.
        -11    1    3    3    0    0 -0.44555009247E+00 -0.18274528697E+02  0.10750637223E+02  0.21206911962E+02  0.51100000000E-03 0.  1.
        -12    1    3    3    0    0  0.10289626858E+02 -0.66643594355E+01  0.79897932804E+01  0.14633075692E+02  0.00000000000E+00 0.  1.
</event>
<event>
 7    1  0.6090311E-013  0.5052886E+02  0.7816164E-02  0.1300439E+00
        -11   -1    0    0    0    0  0.00000000000E+00  0.00000000000E+00  0.45593999997E+02  0.45594000000E+02  0.51100000000E-03 0.  1.
         11   -1    0    0    0    0 -0.00000000000E+00 -0.00000000000E+00 -0.45593999997E+02  0.45594000000E+02  0.51100000000E-03 0. -1.
    9900012    2    1    2    0    0  0.12882159363E+02 -0.31266152605E+02 -0.22575273147E+02  0.50528864665E+02  0.30000014636E+02 0.  0.
        -12    1    1    2    0    0 -0.12882159363E+02  0.31266152605E+02  0.22575273147E+02  0.40659135335E+02  0.00000000000E+00 0.  1.
         11    1    3    3    0    0 -0.39764547932E+01  0.10202930481E+01 -0.11917964969E+01  0.42747596163E+01  0.51100000000E-03 0. -1.
        -11    1    3    3    0    0 -0.47383476518E-01  0.13130535460E+01  0.16802436272E+01  0.21329729760E+01  0.51100000000E-03 0.  1.
         12    1    3    3    0    0  0.16905997632E+02 -0.33599499199E+02 -0.23063720277E+02  0.44121132073E+02  0.00000000000E+00 0. -1.
</event>
<event>
 7    1  0.6090311E-013  0.5052887E+02  0.7816164E-02  0.1300439E+00
        -11   -1    0    0    0    0  0.00000000000E+00  0.00000000000E+00  0.45593999997E+02  0.45594000000E+02  0.51100000000E-03 0. -1.
         11   -1    0    0    0    0 -0.00000000000E+00 -0.00000000000E+00 -0.45593999997E+02  0.45594000000E+02  0.51100000000E-03 0.  1.
    9900012    2    1    2    0    0  0.32339724403E+02  0.17548294529E+02  0.17302158748E+02  0.50528866799E+02  0.30000021122E+02 0.  0.
        -12    1    1    2    0    0 -0.32339724403E+02 -0.17548294529E+02 -0.17302158748E+02  0.40659133201E+02  0.00000000000E+00 0.  1.
         11    1    3    3    0    0 -0.10560539368E+01  0.30267304263E+00  0.48773571068E+01  0.49995473292E+01  0.51100000000E-03 0.  1.
        -11    1    3    3    0    0  0.70135350184E+00 -0.35884003567E+01 -0.19961875036E+01  0.41657266671E+01  0.51100000000E-03 0. -1.
         12    1    3    3    0    0  0.32694424838E+02  0.20834021843E+02  0.14420989145E+02  0.41363592803E+02  0.00000000000E+00 0. -1.
</event>
<event>
 7    1  0.6090311E-013  0.5052899E+02  0.7816164E-02  0.1300438E+00
        -11   -1    0    0    0    0  0.00000000000E+00  0.00000000000E+00  0.45593999997E+02  0.45594000000E+02  0.51100000000E-03 0. -1.
         11   -1    0    0    0    0 -0.00000000000E+00 -0.00000000000E+00 -0.45593999997E+02  0.45594000000E+02  0.51100000000E-03 0.  1.
    9900012    2    1    2    0    0 -0.15013184648E+02  0.35323950838E+01  0.37620230848E+02  0.50528987501E+02  0.30000388005E+02 0.  0.
        -12    1    1    2    0    0  0.15013184648E+02 -0.35323950838E+01 -0.37620230848E+02  0.40659012499E+02  0.00000000000E+00 0.  1.
         11    1    3    3    0    0  0.47697407275E+00  0.52694989122E+01  0.85796104416E+00  0.53601511607E+01  0.51100000000E-03 0.  1.
        -11    1    3    3    0    0  0.40061719182E+01 -0.22776134180E+01  0.14547817128E+01  0.48325279526E+01  0.51100000000E-03 0. -1.
         12    1    3    3    0    0 -0.19496330639E+02  0.54050958970E+00  0.35307488091E+02  0.40336308388E+02  0.00000000000E+00 0. -1.
</event>
<event>
 7    1  0.6090311E-013  0.5052889E+02  0.7816164E-02  0.1300439E+00
        -11   -1    0    0    0    0  0.00000000000E+00  0.00000000000E+00  0.45593999997E+02  0.45594000000E+02  0.51100000000E-03 0.  1.
         11   -1    0    0    0    0 -0.00000000000E+00 -0.00000000000E+00 -0.45593999997E+02  0.45594000000E+02  0.51100000000E-03 0. -1.
    9900012    2    1    2    0    0 -0.13683192238E+02  0.37978628949E+02  0.48535473855E+01  0.50528893653E+02  0.30000102748E+02 0.  0.
        -12    1    1    2    0    0  0.13683192238E+02 -0.37978628949E+02 -0.48535473855E+01  0.40659106347E+02  0.00000000000E+00 0.  1.
         11    1    3    3    0    0 -0.75828985948E+01  0.10985623407E+02  0.13655673852E+02  0.19096117442E+02  0.51100000000E-03 0. -1.
        -11    1    3    3    0    0 -0.29426086603E+01 -0.51896288773E-01 -0.71728512849E+00  0.30292139523E+01  0.51100000000E-03 0.  1.
         12    1    3    3    0    0 -0.31576849825E+01  0.27044901832E+02 -0.80848413384E+01  0.28403562259E+02  0.00000000000E+00 0. -1.
</event>
<event>
 7    1  0.6090311E-013  0.5052886E+02  0.7816164E-02  0.1300439E+00
        -11   -1    0    0    0    0  0.00000000000E+00  0.00000000000E+00  0.45593999997E+02  0.45594000000E+02  0.51100000000E-03 0.  1.
         11   -1    0    0    0    0 -0.00000000000E+00 -0.00000000000E+00 -0.45593999997E+02  0.45594000000E+02  0.51100000000E-03 0. -1.
    9900012    2    1    2    0    0 -0.37304945862E+01  0.34654085281E+02 -0.20936662111E+02  0.50528855434E+02  0.29999986576E+02 0.  0.
        -12    1    1    2    0    0  0.37304945862E+01 -0.34654085281E+02  0.20936662111E+02  0.40659144566E+02  0.00000000000E+00 0.  1.
         11    1    3    3    0    0  0.34564476988E+01  0.87469693874E+01 -0.36899092381E+00  0.94123673282E+01  0.51100000000E-03 0. -1.
        -11    1    3    3    0    0 -0.54726658469E+01  0.11197233253E+02  0.34215917903E+01  0.12924217370E+02  0.51100000000E-03 0.  1.
        -12    1    3    3    0    0 -0.17142764381E+01  0.14709882641E+02 -0.23989262977E+02  0.28192270735E+02  0.00000000000E+00 0.  1.
</event>
<event>
 7    1  0.6090311E-013  0.5052887E+02  0.7816164E-02  0.1300439E+00
        -11   -1    0    0    0    0  0.00000000000E+00  0.00000000000E+00  0.45593999997E+02  0.45594000000E+02  0.51100000000E-03 0.  1.
         11   -1    0    0    0    0 -0.00000000000E+00 -0.00000000000E+00 -0.45593999997E+02  0.45594000000E+02  0.51100000000E-03 0. -1.
    9900012    2    1    2    0    0 -0.26944691834E+02 -0.12336869663E+02 -0.27837931356E+02  0.50528865808E+02  0.30000018109E+02 0.  0.
        -12    1    1    2    0    0  0.26944691834E+02  0.12336869663E+02  0.27837931356E+02  0.40659134192E+02  0.00000000000E+00 0.  1.
         11    1    3    3    0    0 -0.21060454356E+02 -0.16934898347E+01 -0.18033945384E+02  0.27778297858E+02  0.51100000000E-03 0. -1.
        -11    1    3    3    0    0 -0.71362977673E+01 -0.36969679439E+01  0.26269798052E+01  0.84554917633E+01  0.51100000000E-03 0.  1.
        -12    1    3    3    0    0  0.12520602890E+01 -0.69464118845E+01 -0.12430965777E+02  0.14295076186E+02  0.00000000000E+00 0.  1.
</event>
<event>
 7    1  0.6090311E-013  0.5052886E+02  0.7816164E-02  0.1300439E+00
        -11   -1    0    0    0    0  0.00000000000E+00  0.00000000000E+00  0.45593999997E+02  0.45594000000E+02  0.51100000000E-03 0.  1.
         11   -1    0    0    0    0 -0.00000000000E+00 -0.00000000000E+00 -0.45593999997E+02  0.45594000000E+02  0.51100000000E-03 0. -1.
    9900012    2    1    2    0    0  0.15696948273E+02  0.54767284325E+01 -0.37104940433E+02  0.50528863955E+02  0.30000012478E+02 0.  0.
        -12    1    1    2    0    0 -0.15696948273E+02 -0.54767284325E+01  0.37104940433E+02  0.40659136045E+02  0.00000000000E+00 0.  1.
         11    1    3    3    0    0  0.40637447437E+01 -0.63271503255E+01 -0.27218946796E+02  0.28238589156E+02  0.51100000000E-03 0. -1.
        -11    1    3    3    0    0  0.73373840737E+01  0.53283901400E+01 -0.11198299223E+02  0.14409401524E+02  0.51100000000E-03 0.  1.
        -12    1    3    3    0    0  0.42958194554E+01  0.64754886180E+01  0.13123055860E+01  0.78808732756E+01  0.00000000000E+00 0.  1.
</event>
<event>
 7    1  0.6090311E-013  0.5052886E+02  0.7816164E-02  0.1300439E+00
        -11   -1    0    0    0    0  0.00000000000E+00  0.00000000000E+00  0.45593999997E+02  0.45594000000E+02  0.51100000000E-03 0.  1.
         11   -1    0    0    0    0 -0.00000000000E+00 -0.00000000000E+00 -0.45593999997E+02  0.45594000000E+02  0.51100000000E-03 0. -1.
    9900012    2    1    2    0    0 -0.33646215989E+02 -0.21869942436E+02 -0.65424571521E+01  0.50528856156E+02  0.29999988773E+02 0.  0.
        -12    1    1    2    0    0  0.33646215989E+02  0.21869942436E+02  0.65424571521E+01  0.40659143844E+02  0.00000000000E+00 0.  1.
         11    1    3    3    0    0 -0.27338528831E+02 -0.16629187070E+02 -0.17848421450E+01  0.32048567566E+02  0.51100000000E-03 0. -1.
        -11    1    3    3    0    0 -0.71712738138E+01  0.14591486416E+01 -0.81227265875E+01  0.10933204944E+02  0.51100000000E-03 0.  1.
        -12    1    3    3    0    0  0.86358665661E+00 -0.66999040073E+01  0.33651115804E+01  0.75470836466E+01  0.00000000000E+00 0.  1.
</event>
<event>
 7    1  0.6090311E-013  0.5052886E+02  0.7816164E-02  0.1300439E+00
        -11   -1    0    0    0    0  0.00000000000E+00  0.00000000000E+00  0.45593999997E+02  0.45594000000E+02  0.51100000000E-03 0.  1.
         11   -1    0    0    0    0 -0.00000000000E+00 -0.00000000000E+00 -0.45593999997E+02  0.45594000000E+02  0.51100000000E-03 0. -1.
    9900012    2    1    2    0    0 -0.28820523581E+02  0.26957721364E+02 -0.97890078859E+01  0.50528855936E+02  0.29999988102E+02 0.  0.
        -12    1    1    2    0    0  0.28820523581E+02 -0.26957721364E+02  0.97890078859E+01  0.40659144064E+02  0.00000000000E+00 0.  1.
         11    1    3    3    0    0 -0.80158645609E+01  0.47015669635E+01 -0.70080694110E+01  0.11639237677E+02  0.51100000000E-03 0. -1.
        -11    1    3    3    0    0 -0.12910024986E+02 -0.18806767278E+01  0.15141027345E+01  0.13133856914E+02  0.51100000000E-03 0.  1.
        -12    1    3    3    0    0 -0.78946340350E+01  0.24136831128E+02 -0.42950412093E+01  0.25755761345E+02  0.00000000000E+00 0.  1.
</event>
<event>
 7    1  0.6090311E-013  0.5052885E+02  0.7816164E-02  0.1300439E+00
        -11   -1    0    0    0    0  0.00000000000E+00  0.00000000000E+00  0.45593999997E+02  0.45594000000E+02  0.51100000000E-03 0.  1.
         11   -1    0    0    0    0 -0.00000000000E+00 -0.00000000000E+00 -0.45593999997E+02  0.45594000000E+02  0.51100000000E-03 0. -1.
    9900012    2    1    2    0    0 -0.20667554836E+02 -0.69927308453E+01 -0.34309185854E+02  0.50528851687E+02  0.29999975189E+02 0.  0.
        -12    1    1    2    0    0  0.20667554836E+02  0.69927308453E+01  0.34309185854E+02  0.40659148313E+02  0.00000000000E+00 0.  1.
         11    1    3    3    0    0 -0.85218875803E+01  0.62050333678E+01 -0.17770709589E+02  0.20662118153E+02  0.51100000000E-03 0. -1.
        -11    1    3    3    0    0 -0.12828642170E+02 -0.82033734642E+01 -0.18924202527E+02  0.24289809338E+02  0.51100000000E-03 0.  1.
        -12    1    3    3    0    0  0.68297491494E+00 -0.49943907489E+01  0.23857262623E+01  0.55769241958E+01  0.00000000000E+00 0.  1.
</event>
<event>
 7    1  0.6090311E-013  0.5052885E+02  0.7816164E-02  0.1300439E+00
        -11   -1    0    0    0    0  0.00000000000E+00  0.00000000000E+00  0.45593999997E+02  0.45594000000E+02  0.51100000000E-03 0.  1.
         11   -1    0    0    0    0 -0.00000000000E+00 -0.00000000000E+00 -0.45593999997E+02  0.45594000000E+02  0.51100000000E-03 0. -1.
    9900012    2    1    2    0    0 -0.11558112198E+02  0.80221996504E+01 -0.38147355996E+02  0.50528850792E+02  0.29999972467E+02 0.  0.
        -12    1    1    2    0    0  0.11558112198E+02 -0.80221996504E+01  0.38147355996E+02  0.40659149208E+02  0.00000000000E+00 0.  1.
         11    1    3    3    0    0 -0.73002116785E+00  0.87869181281E+01 -0.18096430818E+02  0.20130168149E+02  0.51100000000E-03 0.  1.
        -11    1    3    3    0    0 -0.18448251166E+01  0.66897920480E+01 -0.16957280118E+02  0.18322282790E+02  0.51100000000E-03 0. -1.
        -12    1    3    3    0    0 -0.89832659133E+01 -0.74545105257E+01 -0.30936450596E+01  0.12076399853E+02  0.00000000000E+00 0.  1.
</event>
<event>
 7    1  0.6090311E-013  0.5052886E+02  0.7816164E-02  0.1300439E+00
        -11   -1    0    0    0    0  0.00000000000E+00  0.00000000000E+00  0.45593999997E+02  0.45594000000E+02  0.51100000000E-03 0.  1.
         11   -1    0    0    0    0 -0.00000000000E+00 -0.00000000000E+00 -0.45593999997E+02  0.45594000000E+02  0.51100000000E-03 0. -1.
    9900012    2    1    2    0    0  0.15506482847E+02 -0.36059603543E+02  0.10602811585E+02  0.50528860419E+02  0.30000001730E+02 0.  0.
        -12    1    1    2    0    0 -0.15506482847E+02  0.36059603543E+02 -0.10602811585E+02  0.40659139581E+02  0.00000000000E+00 0.  1.
         11    1    3    3    0    0  0.47011580868E+01 -0.35925604283E+01  0.11354459707E+01  0.60246672607E+01  0.51100000000E-03 0. -1.
        -11    1    3    3    0    0  0.31040272255E+01  0.31430316816E+01 -0.37022405736E+01  0.57636983521E+01  0.51100000000E-03 0.  1.
         12    1    3    3    0    0  0.77012975344E+01 -0.35610074796E+02  0.13169606188E+02  0.38740494806E+02  0.00000000000E+00 0. -1.
</event>
<event>
 7    1  0.6090311E-013  0.5052886E+02  0.7816164E-02  0.1300439E+00
        -11   -1    0    0    0    0  0.00000000000E+00  0.00000000000E+00  0.45593999997E+02  0.45594000000E+02  0.51100000000E-03 0. -1.
         11   -1    0    0    0    0 -0.00000000000E+00 -0.00000000000E+00 -0.45593999997E+02  0.45594000000E+02  0.51100000000E-03 0.  1.
    9900012    2    1    2    0    0  0.30313087822E+02  0.76482041140E+01  0.25995910942E+02  0.50528859513E+02  0.29999998974E+02 0.  0.
        -12    1    1    2    0    0 -0.30313087822E+02 -0.76482041140E+01 -0.25995910942E+02  0.40659140487E+02  0.00000000000E+00 0.  1.
         11    1    3    3    0    0  0.15668102182E+01  0.23831297725E+01  0.84833861211E+01  0.89499744197E+01  0.51100000000E-03 0. -1.
        -11    1    3    3    0    0  0.23692129625E+01 -0.67078591324E+01 -0.10256737066E+01  0.71875274618E+01  0.51100000000E-03 0.  1.
        -12    1    3    3    0    0  0.26377064641E+02  0.11972933474E+02  0.18538198528E+02  0.34391357631E+02  0.00000000000E+00 0.  1.
</event>
<event>
 7    1  0.6090311E-013  0.5052886E+02  0.7816164E-02  0.1300439E+00
        -11   -1    0    0    0    0  0.00000000000E+00  0.00000000000E+00  0.45593999997E+02  0.45594000000E+02  0.51100000000E-03 0.  1.
         11   -1    0    0    0    0 -0.00000000000E+00 -0.00000000000E+00 -0.45593999997E+02  0.45594000000E+02  0.51100000000E-03 0. -1.
    9900012    2    1    2    0    0 -0.22910856260E+02 -0.26205658799E+02 -0.21012422521E+02  0.50528858496E+02  0.29999995884E+02 0.  0.
        -12    1    1    2    0    0  0.22910856260E+02  0.26205658799E+02  0.21012422521E+02  0.40659141504E+02  0.00000000000E+00 0.  1.
         11    1    3    3    0    0 -0.19796853901E+01 -0.13458728662E+02 -0.10253164574E+02  0.17034785454E+02  0.51100000000E-03 0. -1.
        -11    1    3    3    0    0  0.20928324455E+01 -0.61991385072E+01  0.13312522678E+01  0.66769378264E+01  0.51100000000E-03 0.  1.
        -12    1    3    3    0    0 -0.23024003315E+02 -0.65477916296E+01 -0.12090510215E+02  0.26817135215E+02  0.00000000000E+00 0.  1.
</event>
<event>
 7    1  0.6090311E-013  0.5052886E+02  0.7816164E-02  0.1300439E+00
        -11   -1    0    0    0    0  0.00000000000E+00  0.00000000000E+00  0.45593999997E+02  0.45594000000E+02  0.51100000000E-03 0. -1.
         11   -1    0    0    0    0 -0.00000000000E+00 -0.00000000000E+00 -0.45593999997E+02  0.45594000000E+02  0.51100000000E-03 0.  1.
    9900012    2    1    2    0    0  0.16288850317E+02 -0.36474006679E+02  0.75819510331E+01  0.50528858477E+02  0.29999995828E+02 0.  0.
        -12    1    1    2    0    0 -0.16288850317E+02  0.36474006679E+02 -0.75819510331E+01  0.40659141523E+02  0.00000000000E+00 0.  1.
         11    1    3    3    0    0  0.92135589286E+01 -0.28212517019E+02  0.24218885076E+01  0.29777530604E+02  0.51100000000E-03 0. -1.
        -11    1    3    3    0    0  0.35885426307E+01 -0.56756499686E+01 -0.58566836717E+01  0.89101843230E+01  0.51100000000E-03 0.  1.
         12    1    3    3    0    0  0.34867487573E+01 -0.25858396919E+01  0.11016746197E+02  0.11841143550E+02  0.00000000000E+00 0. -1.
</event>
<event>
 7    1  0.6090311E-013  0.5052886E+02  0.7816164E-02  0.1300439E+00
        -11   -1    0    0    0    0  0.00000000000E+00  0.00000000000E+00  0.45593999997E+02  0.45594000000E+02  0.51100000000E-03 0. -1.
         11   -1    0    0    0    0 -0.00000000000E+00 -0.00000000000E+00 -0.45593999997E+02  0.45594000000E+02  0.51100000000E-03 0.  1.
    9900012    2    1    2    0    0 -0.17659523576E+01 -0.31921116199E+02  0.25121497757E+02  0.50528857158E+02  0.29999991818E+02 0.  0.
        -12    1    1    2    0    0  0.17659523576E+01  0.31921116199E+02 -0.25121497757E+02  0.40659142842E+02  0.00000000000E+00 0.  1.
         11    1    3    3    0    0 -0.50184739011E+01 -0.25057938727E+02  0.16064372105E+02  0.30185251778E+02  0.51100000000E-03 0. -1.
        -11    1    3    3    0    0  0.76063300653E+01 -0.99545301572E+01  0.81011452315E+01  0.14919030868E+02  0.51100000000E-03 0.  1.
        -12    1    3    3    0    0 -0.43538085218E+01  0.30913526857E+01  0.95598042020E+00  0.54245745119E+01  0.00000000000E+00 0.  1.
</event>
<event>
 7    1  0.6090311E-013  0.5052885E+02  0.7816164E-02  0.1300439E+00
        -11   -1    0    0    0    0  0.00000000000E+00  0.00000000000E+00  0.45593999997E+02  0.45594000000E+02  0.51100000000E-03 0.  1.
         11   -1    0    0    0    0 -0.00000000000E+00 -0.00000000000E+00 -0.45593999997E+02  0.45594000000E+02  0.51100000000E-03 0. -1.
    9900012    2    1    2    0    0 -0.37287616727E+02  0.12767258354E+02 -0.99898437903E+01  0.50528853108E+02  0.29999979506E+02 0.  0.
        -12    1    1    2    0    0  0.37287616727E+02 -0.12767258354E+02  0.99898437903E+01  0.40659146892E+02  0.00000000000E+00 0.  1.
         11    1    3    3    0    0 -0.29068130274E+02 -0.30853404322E+01 -0.37475467155E+01  0.29470657099E+02  0.51100000000E-03 0. -1.
        -11    1    3    3    0    0 -0.56166149284E+01  0.66122574992E+01  0.13997415586E+01  0.87879229162E+01  0.51100000000E-03 0.  1.
        -12    1    3    3    0    0 -0.26028715243E+01  0.92403412874E+01 -0.76420386334E+01  0.12270273092E+02  0.00000000000E+00 0.  1.
</event>
<event>
 7    1  0.6090311E-013  0.5052885E+02  0.7816164E-02  0.1300439E+00
        -11   -1    0    0    0    0  0.00000000000E+00  0.00000000000E+00  0.45593999997E+02  0.45594000000E+02  0.51100000000E-03 0.  1.
         11   -1    0    0    0    0 -0.00000000000E+00 -0.00000000000E+00 -0.45593999997E+02  0.45594000000E+02  0.51100000000E-03 0. -1.
    9900012    2    1    2    0    0 -0.69110530093E+01  0.38322199759E+02  0.11696684827E+02  0.50528854854E+02  0.29999984813E+02 0.  0.
        -12    1    1    2    0    0  0.69110530093E+01 -0.38322199759E+02 -0.11696684827E+02  0.40659145146E+02  0.00000000000E+00 0.  1.
         11    1    3    3    0    0 -0.75980207147E+01  0.32469911121E+01  0.75689330768E+01  0.11205428071E+02  0.51100000000E-03 0.  1.
        -11    1    3    3    0    0 -0.52010399205E+01  0.25560995572E+01  0.22682395689E+01  0.62232927140E+01  0.51100000000E-03 0. -1.
        -12    1    3    3    0    0  0.58880076259E+01  0.32519109090E+02  0.18595121811E+01  0.33100134069E+02  0.00000000000E+00 0.  1.
</event>
<event>
 7    1  0.6090311E-013  0.5052890E+02  0.7816164E-02  0.1300439E+00
        -11   -1    0    0    0    0  0.00000000000E+00  0.00000000000E+00  0.45593999997E+02  0.45594000000E+02  0.51100000000E-03 0. -1.
         11   -1    0    0    0    0 -0.00000000000E+00 -0.00000000000E+00 -0.45593999997E+02  0.45594000000E+02  0.51100000000E-03 0.  1.
    9900012    2    1    2    0    0 -0.16609424444E+02  0.95645411364E+01  0.35858178754E+02  0.50528900021E+02  0.30000122105E+02 0.  0.
        -12    1    1    2    0    0  0.16609424444E+02 -0.95645411364E+01 -0.35858178754E+02  0.40659099979E+02  0.00000000000E+00 0.  1.
         11    1    3    3    0    0  0.12403850464E+01  0.83093478411E+00  0.10109710768E+01  0.18030725049E+01  0.51100000000E-03 0. -1.
        -11    1    3    3    0    0 -0.99767419708E+00  0.15643777834E+02  0.13724343858E+02  0.20834604708E+02  0.51100000000E-03 0.  1.
         12    1    3    3    0    0 -0.16852135294E+02 -0.69101714818E+01  0.21122863819E+02  0.27891222809E+02  0.00000000000E+00 0. -1.
</event>
<event>
 7    1  0.6090311E-013  0.5052886E+02  0.7816164E-02  0.1300439E+00
        -11   -1    0    0    0    0  0.00000000000E+00  0.00000000000E+00  0.45593999997E+02  0.45594000000E+02  0.51100000000E-03 0. -1.
         11   -1    0    0    0    0 -0.00000000000E+00 -0.00000000000E+00 -0.45593999997E+02  0.45594000000E+02  0.51100000000E-03 0.  1.
    9900012    2    1    2    0    0  0.25430995166E+02 -0.31663197151E+02  0.19678548878E+01  0.50528855619E+02  0.29999987138E+02 0.  0.
        -12    1    1    2    0    0 -0.25430995166E+02  0.31663197151E+02 -0.19678548878E+01  0.40659144381E+02  0.00000000000E+00 0.  1.
         11    1    3    3    0    0  0.30390912375E+01 -0.88724562105E+01 -0.78497978594E+01  0.12230121890E+02  0.51100000000E-03 0. -1.
        -11    1    3    3    0    0  0.70156563919E+00 -0.10830910313E+02 -0.16944140364E+01  0.10985074043E+02  0.51100000000E-03 0.  1.
         12    1    3    3    0    0  0.21690338289E+02 -0.11959830628E+02  0.11512066784E+02  0.27313659685E+02  0.00000000000E+00 0. -1.
</event>
<event>
 7    1  0.6090311E-013  0.5052886E+02  0.7816164E-02  0.1300439E+00
        -11   -1    0    0    0    0  0.00000000000E+00  0.00000000000E+00  0.45593999997E+02  0.45594000000E+02  0.51100000000E-03 0. -1.
         11   -1    0    0    0    0 -0.00000000000E+00 -0.00000000000E+00 -0.45593999997E+02  0.45594000000E+02  0.51100000000E-03 0.  1.
    9900012    2    1    2    0    0 -0.16931343306E+02  0.29707247913E+02  0.21999426623E+02  0.50528859128E+02  0.29999997805E+02 0.  0.
        -12    1    1    2    0    0  0.16931343306E+02 -0.29707247913E+02 -0.21999426623E+02  0.40659140872E+02  0.00000000000E+00 0.  1.
         11    1    3    3    0    0 -0.50484973506E+01 -0.20790764578E+01 -0.63784036331E+00  0.54969741682E+01  0.51100000000E-03 0. -1.
        -11    1    3    3    0    0  0.11110043637E+01  0.85599764890E+00 -0.26648448322E+01  0.30113885356E+01  0.51100000000E-03 0.  1.
         12    1    3    3    0    0 -0.12993850319E+02  0.30930326722E+02  0.25302111819E+02  0.42020496424E+02  0.00000000000E+00 0. -1.
</event>
<event>
 7    1  0.6090311E-013  0.5052884E+02  0.7816164E-02  0.1300439E+00
        -11   -1    0    0    0    0  0.00000000000E+00  0.00000000000E+00  0.45593999997E+02  0.45594000000E+02  0.51100000000E-03 0. -1.
         11   -1    0    0    0    0 -0.00000000000E+00 -0.00000000000E+00 -0.45593999997E+02  0.45594000000E+02  0.51100000000E-03 0.  1.
    9900012    2    1    2    0    0 -0.23002360760E+02  0.31369745723E+02  0.11832072486E+02  0.50528837607E+02  0.29999932389E+02 0.  0.
        -12    1    1    2    0    0  0.23002360760E+02 -0.31369745723E+02 -0.11832072486E+02  0.40659162393E+02  0.00000000000E+00 0.  1.
         11    1    3    3    0    0 -0.22325862583E+01  0.10371449287E+02  0.74125252078E+01  0.12942060575E+02  0.51100000000E-03 0. -1.
        -11    1    3    3    0    0 -0.17955838971E+02  0.22247820047E+02  0.10752585685E+02  0.30544979116E+02  0.51100000000E-03 0.  1.
        -12    1    3    3    0    0 -0.28139355298E+01 -0.12495236103E+01 -0.63330384075E+01  0.70417979160E+01  0.00000000000E+00 0.  1.
</event>
<event>
 7    1  0.6090311E-013  0.5052884E+02  0.7816164E-02  0.1300439E+00
        -11   -1    0    0    0    0  0.00000000000E+00  0.00000000000E+00  0.45593999997E+02  0.45594000000E+02  0.51100000000E-03 0. -1.
         11   -1    0    0    0    0 -0.00000000000E+00 -0.00000000000E+00 -0.45593999997E+02  0.45594000000E+02  0.51100000000E-03 0.  1.
    9900012    2    1    2    0    0  0.36634195627E+00 -0.33606001365E+02  0.22883833483E+02  0.50528839051E+02  0.29999936780E+02 0.  0.
        -12    1    1    2    0    0 -0.36634195627E+00  0.33606001365E+02 -0.22883833483E+02  0.40659160949E+02  0.00000000000E+00 0.  1.
         11    1    3    3    0    0  0.37815955501E+01  0.27737929674E+01 -0.70246036965E+00  0.47421348739E+01  0.51100000000E-03 0. -1.
        -11    1    3    3    0    0  0.28545925073E+01 -0.19292110956E+02  0.58209692272E+01  0.20352344497E+02  0.51100000000E-03 0.  1.
        -12    1    3    3    0    0 -0.62698461011E+01 -0.17087683377E+02  0.17765324626E+02  0.25434359681E+02  0.00000000000E+00 0.  1.
</event>
<event>
 7    1  0.6090311E-013  0.5052887E+02  0.7816164E-02  0.1300439E+00
        -11   -1    0    0    0    0  0.00000000000E+00  0.00000000000E+00  0.45593999997E+02  0.45594000000E+02  0.51100000000E-03 0. -1.
         11   -1    0    0    0    0 -0.00000000000E+00 -0.00000000000E+00 -0.45593999997E+02  0.45594000000E+02  0.51100000000E-03 0.  1.
    9900012    2    1    2    0    0 -0.13385379849E+02  0.74670199802E+01  0.37659526837E+02  0.50528871349E+02  0.30000034951E+02 0.  0.
        -12    1    1    2    0    0  0.13385379849E+02 -0.74670199802E+01 -0.37659526837E+02  0.40659128651E+02  0.00000000000E+00 0.  1.
         11    1    3    3    0    0 -0.17137932894E+02  0.17166621284E+01  0.27184232010E+02  0.32181332213E+02  0.51100000000E-03 0. -1.
        -11    1    3    3    0    0  0.45267537909E+00 -0.33585642150E+01 -0.79959156336E+00  0.34819844219E+01  0.51100000000E-03 0.  1.
         12    1    3    3    0    0  0.32998776659E+01  0.91089220668E+01  0.11274886390E+02  0.14865554714E+02  0.00000000000E+00 0. -1.
</event>
<event>
 7    1  0.6090311E-013  0.5052886E+02  0.7816164E-02  0.1300439E+00
        -11   -1    0    0    0    0  0.00000000000E+00  0.00000000000E+00  0.45593999997E+02  0.45594000000E+02  0.51100000000E-03 0.  1.
         11   -1    0    0    0    0 -0.00000000000E+00 -0.00000000000E+00 -0.45593999997E+02  0.45594000000E+02  0.51100000000E-03 0. -1.
    9900012    2    1    2    0    0  0.14983922559E+02 -0.10453875830E+02 -0.36323057309E+02  0.50528856534E+02  0.29999989920E+02 0.  0.
        -12    1    1    2    0    0 -0.14983922559E+02  0.10453875830E+02  0.36323057309E+02  0.40659143466E+02  0.00000000000E+00 0.  1.
         11    1    3    3    0    0  0.15998585763E+01  0.24737843432E+01 -0.98528978693E+01  0.10283907483E+02  0.51100000000E-03 0.  1.
        -11    1    3    3    0    0  0.10954536881E+02 -0.13967814007E+02 -0.30580003448E+02  0.35358709217E+02  0.51100000000E-03 0. -1.
        -12    1    3    3    0    0  0.24295271021E+01  0.10401538339E+01  0.41098440076E+01  0.48862398329E+01  0.00000000000E+00 0.  1.
</event>
<event>
 7    1  0.6090311E-013  0.5052886E+02  0.7816164E-02  0.1300439E+00
        -11   -1    0    0    0    0  0.00000000000E+00  0.00000000000E+00  0.45593999997E+02  0.45594000000E+02  0.51100000000E-03 0.  1.
         11   -1    0    0    0    0 -0.00000000000E+00 -0.00000000000E+00 -0.45593999997E+02  0.45594000000E+02  0.51100000000E-03 0. -1.
    9900012    2    1    2    0    0  0.91273010739E+01 -0.38794151734E+02 -0.80542971274E+01  0.50528861595E+02  0.30000005303E+02 0.  0.
        -12    1    1    2    0    0 -0.91273010739E+01  0.38794151734E+02  0.80542971274E+01  0.40659138405E+02  0.00000000000E+00 0.  1.
         11    1    3    3    0    0  0.15005453423E+02 -0.21170970748E+02 -0.15546321853E+02  0.30249987740E+02  0.51100000000E-03 0. -1.
        -11    1    3    3    0    0  0.36997744926E+00 -0.56914144302E+00  0.33555127013E+00  0.75723194012E+00  0.51100000000E-03 0.  1.
         12    1    3    3    0    0 -0.62481297984E+01 -0.17054039543E+02  0.71564734558E+01  0.19521641914E+02  0.00000000000E+00 0. -1.
</event>
<event>
 7    1  0.6090311E-013  0.5052886E+02  0.7816164E-02  0.1300439E+00
        -11   -1    0    0    0    0  0.00000000000E+00  0.00000000000E+00  0.45593999997E+02  0.45594000000E+02  0.51100000000E-03 0.  1.
         11   -1    0    0    0    0 -0.00000000000E+00 -0.00000000000E+00 -0.45593999997E+02  0.45594000000E+02  0.51100000000E-03 0. -1.
    9900012    2    1    2    0    0 -0.24982256364E+02 -0.29452506160E+02 -0.12712295874E+02  0.50528859349E+02  0.29999998476E+02 0.  0.
        -12    1    1    2    0    0  0.24982256364E+02  0.29452506160E+02  0.12712295874E+02  0.40659140651E+02  0.00000000000E+00 0.  1.
         11    1    3    3    0    0 -0.20962899473E+02 -0.94265262772E+01 -0.89422501397E+01  0.24663057186E+02  0.51100000000E-03 0. -1.
        -11    1    3    3    0    0  0.12782676266E+01 -0.21013917748E+00 -0.51473453362E+01  0.53078518132E+01  0.51100000000E-03 0.  1.
        -12    1    3    3    0    0 -0.52976245177E+01 -0.19815840705E+02  0.13772996014E+01  0.20557950349E+02  0.00000000000E+00 0.  1.
</event>
<event>
 7    1  0.6090311E-013  0.5052879E+02  0.7816164E-02  0.1300439E+00
        -11   -1    0    0    0    0  0.00000000000E+00  0.00000000000E+00  0.45593999997E+02  0.45594000000E+02  0.51100000000E-03 0.  1.
         11   -1    0    0    0    0 -0.00000000000E+00 -0.00000000000E+00 -0.45593999997E+02  0.45594000000E+02  0.51100000000E-03 0. -1.
    9900012    2    1    2    0    0 -0.27409335289E+02  0.29129428672E+02 -0.73058908694E+01  0.50528790500E+02  0.29999789205E+02 0.  0.
        -12    1    1    2    0    0  0.27409335289E+02 -0.29129428672E+02  0.73058908694E+01  0.40659209500E+02  0.00000000000E+00 0.  1.
         11    1    3    3    0    0 -0.47402429657E+01  0.61964049795E+00  0.28029187046E+01  0.55416794608E+01  0.51100000000E-03 0. -1.
        -11    1    3    3    0    0 -0.83305367562E+00 -0.28684329003E+01 -0.57906925562E+01  0.65156738924E+01  0.51100000000E-03 0.  1.
         12    1    3    3    0    0 -0.21836038648E+02  0.31378221074E+02 -0.43181170178E+01  0.38471437147E+02  0.00000000000E+00 0. -1.
</event>
<event>
 7    1  0.6090311E-013  0.5052886E+02  0.7816164E-02  0.1300439E+00
        -11   -1    0    0    0    0  0.00000000000E+00  0.00000000000E+00  0.45593999997E+02  0.45594000000E+02  0.51100000000E-03 0.  1.
         11   -1    0    0    0    0 -0.00000000000E+00 -0.00000000000E+00 -0.45593999997E+02  0.45594000000E+02  0.51100000000E-03 0. -1.
    9900012    2    1    2    0    0 -0.26709739670E+02  0.13904289700E+02 -0.27320798041E+02  0.50528862394E+02  0.30000007732E+02 0.  0.
        -12    1    1    2    0    0  0.26709739670E+02 -0.13904289700E+02  0.27320798041E+02  0.40659137606E+02  0.00000000000E+00 0.  1.
         11    1    3    3    0    0 -0.30983631588E+01  0.61465721222E+00 -0.97166150091E+01  0.10217155438E+02  0.51100000000E-03 0. -1.
        -11    1    3    3    0    0  0.26178146178E+01 -0.40117457771E+01 -0.16089433375E+01  0.50532916478E+01  0.51100000000E-03 0.  1.
         12    1    3    3    0    0 -0.26229191129E+02  0.17301378264E+02 -0.15995239694E+02  0.35258415308E+02  0.00000000000E+00 0. -1.
</event>
<event>
 7    1  0.6090311E-013  0.5052886E+02  0.7816164E-02  0.1300439E+00
        -11   -1    0    0    0    0  0.00000000000E+00  0.00000000000E+00  0.45593999997E+02  0.45594000000E+02  0.51100000000E-03 0.  1.
         11   -1    0    0    0    0 -0.00000000000E+00 -0.00000000000E+00 -0.45593999997E+02  0.45594000000E+02  0.51100000000E-03 0. -1.
    9900012    2    1    2    0    0 -0.34885111379E+02 -0.29854555395E+01 -0.20670794773E+02  0.50528859610E+02  0.29999999270E+02 0.  0.
        -12    1    1    2    0    0  0.34885111379E+02  0.29854555395E+01  0.20670794773E+02  0.40659140390E+02  0.00000000000E+00 0.  1.
         11    1    3    3    0    0 -0.10742586486E+02  0.12795858587E+01 -0.12631106365E+02  0.16630855439E+02  0.51100000000E-03 0. -1.
        -11    1    3    3    0    0 -0.27770579001E+02 -0.61214927962E+01 -0.87673953027E+01  0.29758107345E+02  0.51100000000E-03 0.  1.
        -12    1    3    3    0    0  0.36280541079E+01  0.18564513979E+01  0.72770689469E+00  0.41398968257E+01  0.00000000000E+00 0.  1.
</event>
<event>
 7    1  0.6090311E-013  0.5052887E+02  0.7816164E-02  0.1300439E+00
        -11   -1    0    0    0    0  0.00000000000E+00  0.00000000000E+00  0.45593999997E+02  0.45594000000E+02  0.51100000000E-03 0.  1.
         11   -1    0    0    0    0 -0.00000000000E+00 -0.00000000000E+00 -0.45593999997E+02  0.45594000000E+02  0.51100000000E-03 0. -1.
    9900012    2    1    2    0    0  0.21699982057E+02  0.31359794008E+02 -0.14101039011E+02  0.50528865691E+02  0.30000017755E+02 0.  0.
        -12    1    1    2    0    0 -0.21699982057E+02 -0.31359794008E+02  0.14101039011E+02  0.40659134309E+02  0.00000000000E+00 0.  1.
         11    1    3    3    0    0  0.23960269477E-01  0.10620674320E+02 -0.58219685753E+01  0.12111755259E+02  0.51100000000E-03 0. -1.
        -11    1    3    3    0    0 -0.35266903923E+01  0.50443976630E+01 -0.60706378078E+01  0.86450064523E+01  0.51100000000E-03 0.  1.
        -12    1    3    3    0    0  0.25202712180E+02  0.15694722025E+02 -0.22084326284E+01  0.29772103980E+02  0.00000000000E+00 0.  1.
</event>
<event>
 7    1  0.6090311E-013  0.5052882E+02  0.7816164E-02  0.1300439E+00
        -11   -1    0    0    0    0  0.00000000000E+00  0.00000000000E+00  0.45593999997E+02  0.45594000000E+02  0.51100000000E-03 0.  1.
         11   -1    0    0    0    0 -0.00000000000E+00 -0.00000000000E+00 -0.45593999997E+02  0.45594000000E+02  0.51100000000E-03 0. -1.
    9900012    2    1    2    0    0  0.21841161359E+02  0.48795031446E+01 -0.33945886816E+02  0.50528817615E+02  0.29999871624E+02 0.  0.
        -12    1    1    2    0    0 -0.21841161359E+02 -0.48795031446E+01  0.33945886816E+02  0.40659182385E+02  0.00000000000E+00 0.  1.
         11    1    3    3    0    0  0.10380266646E+02  0.55314143899E+01 -0.19806123091E+02  0.23035385670E+02  0.51100000000E-03 0. -1.
        -11    1    3    3    0    0 -0.31982166278E+01 -0.27089959167E+01 -0.11780453386E+02  0.12503852635E+02  0.51100000000E-03 0.  1.
        -12    1    3    3    0    0  0.14659111340E+02  0.20570846713E+01 -0.23593103392E+01  0.14989579311E+02  0.00000000000E+00 0.  1.
</event>
<event>
 7    1  0.6090311E-013  0.5052886E+02  0.7816164E-02  0.1300439E+00
        -11   -1    0    0    0    0  0.00000000000E+00  0.00000000000E+00  0.45593999997E+02  0.45594000000E+02  0.51100000000E-03 0. -1.
         11   -1    0    0    0    0 -0.00000000000E+00 -0.00000000000E+00 -0.45593999997E+02  0.45594000000E+02  0.51100000000E-03 0.  1.
    9900012    2    1    2    0    0 -0.23464546031E+02 -0.12986763283E+00  0.33204883360E+02  0.50528855088E+02  0.29999985525E+02 0.  0.
        -12    1    1    2    0    0  0.23464546031E+02  0.12986763283E+00 -0.33204883360E+02  0.40659144912E+02  0.00000000000E+00 0.  1.
         11    1    3    3    0    0  0.23167601353E+01 -0.21110347723E+01  0.12081889035E+01  0.33591019666E+01  0.51100000000E-03 0. -1.
        -11    1    3    3    0    0 -0.86833977632E+01 -0.90378345845E+01  0.53025580972E+01  0.13608856430E+02  0.51100000000E-03 0.  1.
         12    1    3    3    0    0 -0.17097908403E+02  0.11019001724E+02  0.26694136359E+02  0.33560896691E+02  0.00000000000E+00 0. -1.
</event>
<event>
 7    1  0.6090311E-013  0.5052886E+02  0.7816164E-02  0.1300439E+00
        -11   -1    0    0    0    0  0.00000000000E+00  0.00000000000E+00  0.45593999997E+02  0.45594000000E+02  0.51100000000E-03 0.  1.
         11   -1    0    0    0    0 -0.00000000000E+00 -0.00000000000E+00 -0.45593999997E+02  0.45594000000E+02  0.51100000000E-03 0. -1.
    9900012    2    1    2    0    0 -0.96140477985E+01 -0.78667161872E+01 -0.38714987143E+02  0.50528863657E+02  0.30000011573E+02 0.  0.
        -12    1    1    2    0    0  0.96140477985E+01  0.78667161872E+01  0.38714987143E+02  0.40659136343E+02  0.00000000000E+00 0.  1.
         11    1    3    3    0    0 -0.14270130007E+02 -0.21173244406E+01 -0.17906145429E+02  0.22994558434E+02  0.51100000000E-03 0. -1.
        -11    1    3    3    0    0 -0.27142370414E+01 -0.91339548833E+01 -0.83575429870E+01  0.12674570587E+02  0.51100000000E-03 0.  1.
         12    1    3    3    0    0  0.73703192498E+01  0.33845631366E+01 -0.12451298727E+02  0.14859734636E+02  0.00000000000E+00 0. -1.
</event>
<event>
 7    1  0.6090311E-013  0.5052886E+02  0.7816164E-02  0.1300439E+00
        -11   -1    0    0    0    0  0.00000000000E+00  0.00000000000E+00  0.45593999997E+02  0.45594000000E+02  0.51100000000E-03 0. -1.
         11   -1    0    0    0    0 -0.00000000000E+00 -0.00000000000E+00 -0.45593999997E+02  0.45594000000E+02  0.51100000000E-03 0.  1.
    9900012    2    1    2    0    0  0.18768044412E+02 -0.20891432839E+02  0.29401948320E+02  0.50528855615E+02  0.29999987126E+02 0.  0.
        -12    1    1    2    0    0 -0.18768044412E+02  0.20891432839E+02 -0.29401948320E+02  0.40659144385E+02  0.00000000000E+00 0.  1.
         11    1    3    3    0    0  0.49425720894E+01 -0.12669927479E+02  0.16867602790E+02  0.21667304985E+02  0.51100000000E-03 0. -1.
        -11    1    3    3    0    0  0.17711856432E+02 -0.29812666750E+01  0.13219707218E+02  0.22301535114E+02  0.51100000000E-03 0.  1.
        -12    1    3    3    0    0 -0.38863841089E+01 -0.52402386852E+01 -0.68536168785E+00  0.65600155155E+01  0.00000000000E+00 0.  1.
</event>
<event>
 7    1  0.6090311E-013  0.5052886E+02  0.7816164E-02  0.1300439E+00
        -11   -1    0    0    0    0  0.00000000000E+00  0.00000000000E+00  0.45593999997E+02  0.45594000000E+02  0.51100000000E-03 0.  1.
         11   -1    0    0    0    0 -0.00000000000E+00 -0.00000000000E+00 -0.45593999997E+02  0.45594000000E+02  0.51100000000E-03 0. -1.
    9900012    2    1    2    0    0 -0.13225174111E+02  0.28786646657E+02 -0.25487043055E+02  0.50528860564E+02  0.30000002170E+02 0.  0.
        -12    1    1    2    0    0  0.13225174111E+02 -0.28786646657E+02  0.25487043055E+02  0.40659139436E+02  0.00000000000E+00 0.  1.
         11    1    3    3    0    0 -0.29348070602E+01  0.11801562793E+02 -0.68508958782E+01  0.13957963728E+02  0.51100000000E-03 0. -1.
        -11    1    3    3    0    0  0.28586112750E+01  0.17280126894E+02 -0.14632053460E+02  0.22822607927E+02  0.51100000000E-03 0.  1.
        -12    1    3    3    0    0 -0.13148978326E+02 -0.29504303057E+00 -0.40040937173E+01  0.13748288908E+02  0.00000000000E+00 0.  1.
</event>
<event>
 7    1  0.6090311E-013  0.5052886E+02  0.7816164E-02  0.1300439E+00
        -11   -1    0    0    0    0  0.00000000000E+00  0.00000000000E+00  0.45593999997E+02  0.45594000000E+02  0.51100000000E-03 0. -1.
         11   -1    0    0    0    0 -0.00000000000E+00 -0.00000000000E+00 -0.45593999997E+02  0.45594000000E+02  0.51100000000E-03 0.  1.
    9900012    2    1    2    0    0  0.23408180047E+02 -0.31272069099E+02  0.11281854968E+02  0.50528862646E+02  0.30000008499E+02 0.  0.
        -12    1    1    2    0    0 -0.23408180047E+02  0.31272069099E+02 -0.11281854968E+02  0.40659137354E+02  0.00000000000E+00 0.  1.
         11    1    3    3    0    0  0.28217963529E+01 -0.36735694942E+01 -0.10489085407E+01  0.47495112248E+01  0.51100000000E-03 0. -1.
        -11    1    3    3    0    0  0.22379263654E+02 -0.10399045676E+02  0.14057953387E+02  0.28400662781E+02  0.51100000000E-03 0.  1.
         12    1    3    3    0    0 -0.17928799598E+01 -0.17199453929E+02 -0.17271898786E+01  0.17378688641E+02  0.00000000000E+00 0. -1.
</event>
<event>
 7    1  0.6090311E-013  0.5052884E+02  0.7816164E-02  0.1300439E+00
        -11   -1    0    0    0    0  0.00000000000E+00  0.00000000000E+00  0.45593999997E+02  0.45594000000E+02  0.51100000000E-03 0.  1.
         11   -1    0    0    0    0 -0.00000000000E+00 -0.00000000000E+00 -0.45593999997E+02  0.45594000000E+02  0.51100000000E-03 0. -1.
    9900012    2    1    2    0    0  0.26246845448E+01 -0.13636869637E+02 -0.38214054600E+02  0.50528841728E+02  0.29999944916E+02 0.  0.
        -12    1    1    2    0    0 -0.26246845448E+01  0.13636869637E+02  0.38214054600E+02  0.40659158272E+02  0.00000000000E+00 0.  1.
         11    1    3    3    0    0  0.16678852526E+01 -0.24636497240E+01 -0.11638779061E+02  0.12013017501E+02  0.51100000000E-03 0. -1.
        -11    1    3    3    0    0 -0.80149181055E+01 -0.67496298644E+01 -0.26517458785E+02  0.28512664488E+02  0.51100000000E-03 0.  1.
        -12    1    3    3    0    0  0.89717173978E+01 -0.44235900486E+01 -0.57816753348E-01  0.10003159739E+02  0.00000000000E+00 0.  1.
</event>
<event>
 7    1  0.6090311E-013  0.5052885E+02  0.7816164E-02  0.1300439E+00
        -11   -1    0    0    0    0  0.00000000000E+00  0.00000000000E+00  0.45593999997E+02  0.45594000000E+02  0.51100000000E-03 0.  1.
         11   -1    0    0    0    0 -0.00000000000E+00 -0.00000000000E+00 -0.45593999997E+02  0.45594000000E+02  0.51100000000E-03 0. -1.
    9900012    2    1    2    0    0 -0.55514248007E+00  0.28715157466E+02 -0.28780166856E+02  0.50528850283E+02  0.29999970919E+02 0.  0.
        -12    1    1    2    0    0  0.55514248007E+00 -0.28715157466E+02  0.28780166856E+02  0.40659149717E+02  0.00000000000E+00 0.  1.
         11    1    3    3    0    0 -0.28701466865E+01  0.19150941100E+02 -0.93333268540E+01  0.21496680614E+02  0.51100000000E-03 0. -1.
        -11    1    3    3    0    0 -0.46767989659E+01  0.12947701292E+02 -0.11786870223E+02  0.18123071683E+02  0.51100000000E-03 0.  1.
        -12    1    3    3    0    0  0.69918031723E+01 -0.33834849256E+01 -0.76599697781E+01  0.10909097985E+02  0.00000000000E+00 0.  1.
</event>
<event>
 7    1  0.6090311E-013  0.5052887E+02  0.7816164E-02  0.1300439E+00
        -11   -1    0    0    0    0  0.00000000000E+00  0.00000000000E+00  0.45593999997E+02  0.45594000000E+02  0.51100000000E-03 0. -1.
         11   -1    0    0    0    0 -0.00000000000E+00 -0.00000000000E+00 -0.45593999997E+02  0.45594000000E+02  0.51100000000E-03 0.  1.
    9900012    2    1    2    0    0 -0.20338155466E+02  0.12114065953E+02  0.33057131203E+02  0.50528867138E+02  0.30000022153E+02 0.  0.
        -12    1    1    2    0    0  0.20338155466E+02 -0.12114065953E+02 -0.33057131203E+02  0.40659132862E+02  0.00000000000E+00 0.  1.
         11    1    3    3    0    0 -0.48731262229E+01 -0.21246808400E+01 -0.14637695590E+01  0.55140048457E+01  0.51100000000E-03 0. -1.
        -11    1    3    3    0    0 -0.81417425468E+00 -0.46921169506E+01  0.78071130056E+01  0.91449360271E+01  0.51100000000E-03 0.  1.
         12    1    3    3    0    0 -0.14650854988E+02  0.18930863744E+02  0.26713787757E+02  0.35869926265E+02  0.00000000000E+00 0. -1.
</event>
<event>
 7    1  0.6090311E-013  0.5052886E+02  0.7816164E-02  0.1300439E+00
        -11   -1    0    0    0    0  0.00000000000E+00  0.00000000000E+00  0.45593999997E+02  0.45594000000E+02  0.51100000000E-03 0. -1.
         11   -1    0    0    0    0 -0.00000000000E+00 -0.00000000000E+00 -0.45593999997E+02  0.45594000000E+02  0.51100000000E-03 0.  1.
    9900012    2    1    2    0    0 -0.37879131244E+02  0.13522863846E+02  0.59556177955E+01  0.50528858178E+02  0.29999994917E+02 0.  0.
        -12    1    1    2    0    0  0.37879131244E+02 -0.13522863846E+02 -0.59556177955E+01  0.40659141822E+02  0.00000000000E+00 0.  1.
         11    1    3    3    0    0 -0.23425595157E+01  0.19889278944E+01  0.13612995606E+01  0.33610349610E+01  0.51100000000E-03 0. -1.
        -11    1    3    3    0    0 -0.25924892917E+00 -0.61701197220E+01 -0.31688018374E+01  0.69411016948E+01  0.51100000000E-03 0.  1.
        -12    1    3    3    0    0 -0.35277322799E+02  0.17704055674E+02  0.77631200722E+01  0.40226721522E+02  0.00000000000E+00 0.  1.
</event>
<event>
 7    1  0.6090311E-013  0.5052885E+02  0.7816164E-02  0.1300439E+00
        -11   -1    0    0    0    0  0.00000000000E+00  0.00000000000E+00  0.45593999997E+02  0.45594000000E+02  0.51100000000E-03 0.  1.
         11   -1    0    0    0    0 -0.00000000000E+00 -0.00000000000E+00 -0.45593999997E+02  0.45594000000E+02  0.51100000000E-03 0. -1.
    9900012    2    1    2    0    0 -0.86511720145E+01 -0.34254130128E+02  0.20124069619E+02  0.50528851139E+02  0.29999973523E+02 0.  0.
        -12    1    1    2    0    0  0.86511720145E+01  0.34254130128E+02 -0.20124069619E+02  0.40659148861E+02  0.00000000000E+00 0.  1.
         11    1    3    3    0    0  0.38224070010E+01 -0.18364344999E+01  0.51260422086E+01  0.66527885837E+01  0.51100000000E-03 0. -1.
        -11    1    3    3    0    0 -0.32794320510E+01 -0.12205267800E+02  0.17439029664E+02  0.21537014476E+02  0.51100000000E-03 0.  1.
         12    1    3    3    0    0 -0.91941469644E+01 -0.20212427828E+02 -0.24410022535E+01  0.22339048079E+02  0.00000000000E+00 0. -1.
</event>
<event>
 7    1  0.6090311E-013  0.5052886E+02  0.7816164E-02  0.1300439E+00
        -11   -1    0    0    0    0  0.00000000000E+00  0.00000000000E+00  0.45593999997E+02  0.45594000000E+02  0.51100000000E-03 0. -1.
         11   -1    0    0    0    0 -0.00000000000E+00 -0.00000000000E+00 -0.45593999997E+02  0.45594000000E+02  0.51100000000E-03 0.  1.
    9900012    2    1    2    0    0 -0.16534318613E+02  0.35456593797E+02 -0.11073030947E+02  0.50528858961E+02  0.29999997297E+02 0.  0.
        -12    1    1    2    0    0  0.16534318613E+02 -0.35456593797E+02  0.11073030947E+02  0.40659141039E+02  0.00000000000E+00 0.  1.
         11    1    3    3    0    0  0.34409323784E+01  0.13795726408E+02  0.28744218797E+01  0.14506012001E+02  0.51100000000E-03 0. -1.
        -11    1    3    3    0    0 -0.13734049739E+01  0.88177910843E+01  0.91336734487E+00  0.89707257787E+01  0.51100000000E-03 0.  1.
        -12    1    3    3    0    0 -0.18601846018E+02  0.12843076305E+02 -0.14860820172E+02  0.27052121181E+02  0.00000000000E+00 0.  1.
</event>
<event>
 7    1  0.6090311E-013  0.5052886E+02  0.7816164E-02  0.1300439E+00
        -11   -1    0    0    0    0  0.00000000000E+00  0.00000000000E+00  0.45593999997E+02  0.45594000000E+02  0.51100000000E-03 0.  1.
         11   -1    0    0    0    0 -0.00000000000E+00 -0.00000000000E+00 -0.45593999997E+02  0.45594000000E+02  0.51100000000E-03 0. -1.
    9900012    2    1    2    0    0 -0.29153375581E+01 -0.58274045170E+01 -0.40133623975E+02  0.50528860685E+02  0.30000002538E+02 0.  0.
        -12    1    1    2    0    0  0.29153375581E+01  0.58274045170E+01  0.40133623975E+02  0.40659139315E+02  0.00000000000E+00 0.  1.
         11    1    3    3    0    0  0.61516264577E+01 -0.64588380045E+01 -0.18091121311E+02  0.20170467694E+02  0.51100000000E-03 0. -1.
        -11    1    3    3    0    0  0.23848743976E+01  0.27487046737E+01 -0.17473247464E+02  0.17848175831E+02  0.51100000000E-03 0.  1.
        -12    1    3    3    0    0 -0.11451838413E+02 -0.21172711862E+01 -0.45692552000E+01  0.12510217161E+02  0.00000000000E+00 0.  1.
</event>
<event>
 7    1  0.6090311E-013  0.5052885E+02  0.7816164E-02  0.1300439E+00
        -11   -1    0    0    0    0  0.00000000000E+00  0.00000000000E+00  0.45593999997E+02  0.45594000000E+02  0.51100000000E-03 0.  1.
         11   -1    0    0    0    0 -0.00000000000E+00 -0.00000000000E+00 -0.45593999997E+02  0.45594000000E+02  0.51100000000E-03 0. -1.
    9900012    2    1    2    0    0 -0.36259715525E+02 -0.17605787281E+02  0.53325163811E+01  0.50528850394E+02  0.29999971257E+02 0.  0.
        -12    1    1    2    0    0  0.36259715525E+02  0.17605787281E+02 -0.53325163811E+01  0.40659149606E+02  0.00000000000E+00 0.  1.
         11    1    3    3    0    0 -0.12950869350E+02 -0.88642981869E+01  0.50435687104E+01  0.16484489221E+02  0.51100000000E-03 0. -1.
        -11    1    3    3    0    0 -0.11921229948E+02 -0.16206779734E+02  0.24129923368E+01  0.20263217047E+02  0.51100000000E-03 0.  1.
        -12    1    3    3    0    0 -0.11387616227E+02  0.74652906400E+01 -0.21240446661E+01  0.13781144126E+02  0.00000000000E+00 0.  1.
</event>
<event>
 7    1  0.6090311E-013  0.5052886E+02  0.7816164E-02  0.1300439E+00
        -11   -1    0    0    0    0  0.00000000000E+00  0.00000000000E+00  0.45593999997E+02  0.45594000000E+02  0.51100000000E-03 0. -1.
         11   -1    0    0    0    0 -0.00000000000E+00 -0.00000000000E+00 -0.45593999997E+02  0.45594000000E+02  0.51100000000E-03 0.  1.
    9900012    2    1    2    0    0  0.56649842357E+01  0.31668400453E+02  0.24863351397E+02  0.50528857407E+02  0.29999992575E+02 0.  0.
        -12    1    1    2    0    0 -0.56649842357E+01 -0.31668400453E+02 -0.24863351397E+02  0.40659142593E+02  0.00000000000E+00 0.  1.
         11    1    3    3    0    0 -0.99153723792E+00 -0.60983411997E+00  0.21626678344E+01  0.24560488942E+01  0.51100000000E-03 0. -1.
        -11    1    3    3    0    0  0.11843922639E+02  0.34816128489E+01  0.11084740134E+02  0.16591310847E+02  0.51100000000E-03 0.  1.
         12    1    3    3    0    0 -0.51874011650E+01  0.28796621725E+02  0.11615943428E+02  0.31481497666E+02  0.00000000000E+00 0. -1.
</event>
<event>
 7    1  0.6090311E-013  0.5052885E+02  0.7816164E-02  0.1300439E+00
        -11   -1    0    0    0    0  0.00000000000E+00  0.00000000000E+00  0.45593999997E+02  0.45594000000E+02  0.51100000000E-03 0.  1.
         11   -1    0    0    0    0 -0.00000000000E+00 -0.00000000000E+00 -0.45593999997E+02  0.45594000000E+02  0.51100000000E-03 0. -1.
    9900012    2    1    2    0    0  0.27587594478E+02 -0.19269819547E+02 -0.22820287156E+02  0.50528845799E+02  0.29999957290E+02 0.  0.
        -12    1    1    2    0    0 -0.27587594478E+02  0.19269819547E+02  0.22820287156E+02  0.40659154201E+02  0.00000000000E+00 0.  1.
         11    1    3    3    0    0  0.38502336817E+00 -0.42003456243E+01  0.15143529051E+01  0.44815634928E+01  0.51100000000E-03 0.  1.
        -11    1    3    3    0    0  0.14921784282E+02 -0.13107681807E+02 -0.13418007716E+01  0.19906566708E+02  0.51100000000E-03 0. -1.
         12    1    3    3    0    0  0.12280786828E+02 -0.19617921157E+01 -0.22992839289E+02  0.26140715599E+02  0.00000000000E+00 0. -1.
</event>
<event>
 7    1  0.6090311E-013  0.5052885E+02  0.7816164E-02  0.1300439E+00
        -11   -1    0    0    0    0  0.00000000000E+00  0.00000000000E+00  0.45593999997E+02  0.45594000000E+02  0.51100000000E-03 0.  1.
         11   -1    0    0    0    0 -0.00000000000E+00 -0.00000000000E+00 -0.45593999997E+02  0.45594000000E+02  0.51100000000E-03 0. -1.
    9900012    2    1    2    0    0 -0.78043751561E+01 -0.27182966020E+02 -0.29212065229E+02  0.50528847671E+02  0.29999962980E+02 0.  0.
        -12    1    1    2    0    0  0.78043751561E+01  0.27182966020E+02  0.29212065229E+02  0.40659152329E+02  0.00000000000E+00 0.  1.
         11    1    3    3    0    0  0.26029557671E+01  0.21162523032E+01 -0.10806825864E+02  0.11315537462E+02  0.51100000000E-03 0. -1.
        -11    1    3    3    0    0  0.34080957443E+01 -0.21407055633E+01 -0.32979929770E+01  0.52033157552E+01  0.51100000000E-03 0.  1.
         12    1    3    3    0    0 -0.13815426668E+02 -0.27158512760E+02 -0.15107246388E+02  0.34009994454E+02  0.00000000000E+00 0. -1.
</event>
<event>
 7    1  0.6090311E-013  0.5052884E+02  0.7816164E-02  0.1300439E+00
        -11   -1    0    0    0    0  0.00000000000E+00  0.00000000000E+00  0.45593999997E+02  0.45594000000E+02  0.51100000000E-03 0.  1.
         11   -1    0    0    0    0 -0.00000000000E+00 -0.00000000000E+00 -0.45593999997E+02  0.45594000000E+02  0.51100000000E-03 0. -1.
    9900012    2    1    2    0    0 -0.37656085692E+02 -0.15062118998E+02  0.28842830009E+01  0.50528839817E+02  0.29999939109E+02 0.  0.
        -12    1    1    2    0    0  0.37656085692E+02  0.15062118998E+02 -0.28842830009E+01  0.40659160183E+02  0.00000000000E+00 0.  1.
         11    1    3    3    0    0 -0.46375194124E+00 -0.28473575630E+01  0.37973530401E+01  0.47688993831E+01  0.51100000000E-03 0. -1.
        -11    1    3    3    0    0 -0.36710740608E+01  0.64199626077E+01  0.35449973361E-01  0.73955366002E+01  0.51100000000E-03 0.  1.
         12    1    3    3    0    0 -0.33521259690E+02 -0.18634724042E+02 -0.94852001253E+00  0.38364403834E+02  0.00000000000E+00 0. -1.
</event>
<event>
 7    1  0.6090311E-013  0.5052886E+02  0.7816164E-02  0.1300439E+00
        -11   -1    0    0    0    0  0.00000000000E+00  0.00000000000E+00  0.45593999997E+02  0.45594000000E+02  0.51100000000E-03 0.  1.
         11   -1    0    0    0    0 -0.00000000000E+00 -0.00000000000E+00 -0.45593999997E+02  0.45594000000E+02  0.51100000000E-03 0. -1.
    9900012    2    1    2    0    0 -0.15718864308E+02 -0.25577331029E+01 -0.37410439151E+02  0.50528860176E+02  0.30000000991E+02 0.  0.
        -12    1    1    2    0    0  0.15718864308E+02  0.25577331029E+01  0.37410439151E+02  0.40659139824E+02  0.00000000000E+00 0.  1.
         11    1    3    3    0    0  0.37273013407E+01 -0.59002650624E+01 -0.10723382380E+02  0.12794406317E+02  0.51100000000E-03 0.  1.
        -11    1    3    3    0    0 -0.13632698558E+01 -0.51332170938E+01 -0.11426510343E+02  0.12600538136E+02  0.51100000000E-03 0. -1.
        -12    1    3    3    0    0 -0.18082895793E+02  0.84757490533E+01 -0.15260546428E+02  0.25133915723E+02  0.00000000000E+00 0.  1.
</event>
<event>
 7    1  0.6090311E-013  0.5052887E+02  0.7816164E-02  0.1300439E+00
        -11   -1    0    0    0    0  0.00000000000E+00  0.00000000000E+00  0.45593999997E+02  0.45594000000E+02  0.51100000000E-03 0.  1.
         11   -1    0    0    0    0 -0.00000000000E+00 -0.00000000000E+00 -0.45593999997E+02  0.45594000000E+02  0.51100000000E-03 0. -1.
    9900012    2    1    2    0    0  0.35534290936E+02 -0.99526989090E+01 -0.17071109630E+02  0.50528870251E+02  0.30000031616E+02 0.  0.
        -12    1    1    2    0    0 -0.35534290936E+02  0.99526989090E+01  0.17071109630E+02  0.40659129749E+02  0.00000000000E+00 0.  1.
         11    1    3    3    0    0  0.16570784443E+02 -0.90824160164E+01 -0.30540323404E+01  0.19141794366E+02  0.51100000000E-03 0.  1.
        -11    1    3    3    0    0  0.15650587917E+02  0.78012035348E+01 -0.13496494768E+02  0.22089704616E+02  0.51100000000E-03 0. -1.
         12    1    3    3    0    0  0.33129185754E+01 -0.86714864275E+01 -0.52058252156E+00  0.92973712688E+01  0.00000000000E+00 0. -1.
</event>
<event>
 7    1  0.6090311E-013  0.5052887E+02  0.7816164E-02  0.1300439E+00
        -11   -1    0    0    0    0  0.00000000000E+00  0.00000000000E+00  0.45593999997E+02  0.45594000000E+02  0.51100000000E-03 0.  1.
         11   -1    0    0    0    0 -0.00000000000E+00 -0.00000000000E+00 -0.45593999997E+02  0.45594000000E+02  0.51100000000E-03 0. -1.
    9900012    2    1    2    0    0 -0.30432375681E+02 -0.17906094575E+02 -0.20159548422E+02  0.50528866892E+02  0.30000021405E+02 0.  0.
        -12    1    1    2    0    0  0.30432375681E+02  0.17906094575E+02  0.20159548422E+02  0.40659133108E+02  0.00000000000E+00 0.  1.
         11    1    3    3    0    0 -0.22747501368E+02 -0.16782769397E+02 -0.13430374860E+02  0.31296727246E+02  0.51100000000E-03 0.  1.
        -11    1    3    3    0    0 -0.11713682259E+02 -0.26880416307E+01 -0.10057414815E+01  0.12060159040E+02  0.51100000000E-03 0. -1.
        -12    1    3    3    0    0  0.40288079465E+01  0.15647164528E+01 -0.57234320797E+01  0.71719806064E+01  0.00000000000E+00 0.  1.
</event>
<event>
 7    1  0.6090311E-013  0.5052887E+02  0.7816164E-02  0.1300439E+00
        -11   -1    0    0    0    0  0.00000000000E+00  0.00000000000E+00  0.45593999997E+02  0.45594000000E+02  0.51100000000E-03 0.  1.
         11   -1    0    0    0    0 -0.00000000000E+00 -0.00000000000E+00 -0.45593999997E+02  0.45594000000E+02  0.51100000000E-03 0. -1.
    9900012    2    1    2    0    0 -0.13565512248E+01  0.21202501975E+02 -0.34666681538E+02  0.50528866585E+02  0.30000020472E+02 0.  0.
        -12    1    1    2    0    0  0.13565512248E+01 -0.21202501975E+02  0.34666681538E+02  0.40659133415E+02  0.00000000000E+00 0.  1.
         11    1    3    3    0    0  0.33264766122E+01  0.35987560202E+01 -0.10068433291E+02  0.11197760523E+02  0.51100000000E-03 0. -1.
        -11    1    3    3    0    0  0.57247410790E+01 -0.33160423413E+01 -0.22218032750E+01  0.69789116118E+01  0.51100000000E-03 0.  1.
         12    1    3    3    0    0 -0.10407768916E+02  0.20919788296E+02 -0.22376444972E+02  0.32352194450E+02  0.00000000000E+00 0. -1.
</event>
<event>
 7    1  0.6090311E-013  0.5052886E+02  0.7816164E-02  0.1300439E+00
        -11   -1    0    0    0    0  0.00000000000E+00  0.00000000000E+00  0.45593999997E+02  0.45594000000E+02  0.51100000000E-03 0. -1.
         11   -1    0    0    0    0 -0.00000000000E+00 -0.00000000000E+00 -0.45593999997E+02  0.45594000000E+02  0.51100000000E-03 0.  1.
    9900012    2    1    2    0    0  0.13512476159E+02 -0.83781558112E+01  0.37421724179E+02  0.50528856536E+02  0.29999989926E+02 0.  0.
        -12    1    1    2    0    0 -0.13512476159E+02  0.83781558112E+01 -0.37421724179E+02  0.40659143464E+02  0.00000000000E+00 0.  1.
         11    1    3    3    0    0  0.99659411484E+01  0.78036293980E+01  0.14917436317E+02  0.19563908640E+02  0.51100000000E-03 0. -1.
        -11    1    3    3    0    0  0.11678705584E+01  0.10633155657E+01 -0.88331897046E+00  0.18096447988E+01  0.51100000000E-03 0.  1.
        -12    1    3    3    0    0  0.23786644524E+01 -0.17245100775E+02  0.23387606832E+02  0.29155303097E+02  0.00000000000E+00 0.  1.
</event>
<event>
 7    1  0.6090311E-013  0.5052885E+02  0.7816164E-02  0.1300439E+00
        -11   -1    0    0    0    0  0.00000000000E+00  0.00000000000E+00  0.45593999997E+02  0.45594000000E+02  0.51100000000E-03 0.  1.
         11   -1    0    0    0    0 -0.00000000000E+00 -0.00000000000E+00 -0.45593999997E+02  0.45594000000E+02  0.51100000000E-03 0. -1.
    9900012    2    1    2    0    0 -0.16839057301E+02 -0.29143611005E+02 -0.22809266611E+02  0.50528849043E+02  0.29999967151E+02 0.  0.
        -12    1    1    2    0    0  0.16839057301E+02  0.29143611005E+02  0.22809266611E+02  0.40659150957E+02  0.00000000000E+00 0.  1.
         11    1    3    3    0    0 -0.91732769564E+01 -0.78172874193E+01 -0.15526661755E+02  0.19655437371E+02  0.51100000000E-03 0. -1.
        -11    1    3    3    0    0 -0.10052696753E+02 -0.46228956558E+01 -0.85054864632E+01  0.13956044443E+02  0.51100000000E-03 0.  1.
         12    1    3    3    0    0  0.23869164087E+01 -0.16703427930E+02  0.12228816071E+01  0.16917367230E+02  0.00000000000E+00 0. -1.
</event>
<event>
 7    1  0.6090311E-013  0.5052891E+02  0.7816164E-02  0.1300439E+00
        -11   -1    0    0    0    0  0.00000000000E+00  0.00000000000E+00  0.45593999997E+02  0.45594000000E+02  0.51100000000E-03 0.  1.
         11   -1    0    0    0    0 -0.00000000000E+00 -0.00000000000E+00 -0.45593999997E+02  0.45594000000E+02  0.51100000000E-03 0. -1.
    9900012    2    1    2    0    0 -0.34618506212E+02  0.16893172893E+02 -0.13013115938E+02  0.50528911850E+02  0.30000158059E+02 0.  0.
        -12    1    1    2    0    0  0.34618506212E+02 -0.16893172893E+02  0.13013115938E+02  0.40659088150E+02  0.00000000000E+00 0.  1.
         11    1    3    3    0    0 -0.61372089957E+01 -0.39488532350E+01 -0.18736731155E+01  0.75345489138E+01  0.51100000000E-03 0. -1.
        -11    1    3    3    0    0 -0.14303271947E+01 -0.32309794748E+01  0.24687404744E+01  0.43104227219E+01  0.51100000000E-03 0.  1.
         12    1    3    3    0    0 -0.27050970022E+02  0.24073005602E+02 -0.13608183297E+02  0.38683940214E+02  0.00000000000E+00 0. -1.
</event>
<event>
 7    1  0.6090311E-013  0.5052886E+02  0.7816164E-02  0.1300439E+00
        -11   -1    0    0    0    0  0.00000000000E+00  0.00000000000E+00  0.45593999997E+02  0.45594000000E+02  0.51100000000E-03 0.  1.
         11   -1    0    0    0    0 -0.00000000000E+00 -0.00000000000E+00 -0.45593999997E+02  0.45594000000E+02  0.51100000000E-03 0. -1.
    9900012    2    1    2    0    0 -0.12174717994E+02 -0.38770427274E+02  0.13399846850E+01  0.50528863902E+02  0.30000012316E+02 0.  0.
        -12    1    1    2    0    0  0.12174717994E+02  0.38770427274E+02 -0.13399846850E+01  0.40659136098E+02  0.00000000000E+00 0.  1.
         11    1    3    3    0    0  0.10484667320E+01 -0.10229467661E+02  0.25372027844E+01  0.10591444157E+02  0.51100000000E-03 0. -1.
        -11    1    3    3    0    0 -0.24868041519E+01 -0.22757893945E+02  0.84344948076E+01  0.24397676829E+02  0.51100000000E-03 0.  1.
        -12    1    3    3    0    0 -0.10736380575E+02 -0.57830656685E+01 -0.96317129070E+01  0.15539742916E+02  0.00000000000E+00 0.  1.
</event>
<event>
 7    1  0.6090311E-013  0.5052885E+02  0.7816164E-02  0.1300439E+00
        -11   -1    0    0    0    0  0.00000000000E+00  0.00000000000E+00  0.45593999997E+02  0.45594000000E+02  0.51100000000E-03 0.  1.
         11   -1    0    0    0    0 -0.00000000000E+00 -0.00000000000E+00 -0.45593999997E+02  0.45594000000E+02  0.51100000000E-03 0. -1.
    9900012    2    1    2    0    0  0.67152133594E-01 -0.38288545553E+02 -0.13680257628E+02  0.50528847541E+02  0.29999962585E+02 0.  0.
        -12    1    1    2    0    0 -0.67152133594E-01  0.38288545553E+02  0.13680257628E+02  0.40659152459E+02  0.00000000000E+00 0.  1.
         11    1    3    3    0    0 -0.15844163146E+01 -0.18536055215E+02 -0.17202394808E+02  0.25338076198E+02  0.51100000000E-03 0. -1.
        -11    1    3    3    0    0 -0.44611630964E+01 -0.94589623674E+01 -0.38349077195E+01  0.11139141023E+02  0.51100000000E-03 0.  1.
         12    1    3    3    0    0  0.61127315446E+01 -0.10293527970E+02  0.73570448999E+01  0.14051630320E+02  0.00000000000E+00 0. -1.
</event>
<event>
 7    1  0.6090311E-013  0.5052883E+02  0.7816164E-02  0.1300439E+00
        -11   -1    0    0    0    0  0.00000000000E+00  0.00000000000E+00  0.45593999997E+02  0.45594000000E+02  0.51100000000E-03 0.  1.
         11   -1    0    0    0    0 -0.00000000000E+00 -0.00000000000E+00 -0.45593999997E+02  0.45594000000E+02  0.51100000000E-03 0. -1.
    9900012    2    1    2    0    0  0.23048176369E+02  0.18216607839E+02 -0.28108809580E+02  0.50528826237E+02  0.29999897830E+02 0.  0.
        -12    1    1    2    0    0 -0.23048176369E+02 -0.18216607839E+02  0.28108809580E+02  0.40659173763E+02  0.00000000000E+00 0.  1.
         11    1    3    3    0    0 -0.22052015350E+01 -0.23467788652E+01 -0.29903362955E+01  0.43945871562E+01  0.51100000000E-03 0. -1.
        -11    1    3    3    0    0  0.93408127634E+01 -0.26543275240E+01 -0.10904682834E+02  0.14601655579E+02  0.51100000000E-03 0.  1.
         12    1    3    3    0    0  0.15912565140E+02  0.23217714229E+02 -0.14213790450E+02  0.31532583502E+02  0.00000000000E+00 0. -1.
</event>
<event>
 7    1  0.6090311E-013  0.5052886E+02  0.7816164E-02  0.1300439E+00
        -11   -1    0    0    0    0  0.00000000000E+00  0.00000000000E+00  0.45593999997E+02  0.45594000000E+02  0.51100000000E-03 0. -1.
         11   -1    0    0    0    0 -0.00000000000E+00 -0.00000000000E+00 -0.45593999997E+02  0.45594000000E+02  0.51100000000E-03 0.  1.
    9900012    2    1    2    0    0 -0.30958480076E+02 -0.23801212284E+02  0.11324332218E+02  0.50528859638E+02  0.29999999356E+02 0.  0.
        -12    1    1    2    0    0  0.30958480076E+02  0.23801212284E+02 -0.11324332218E+02  0.40659140362E+02  0.00000000000E+00 0.  1.
         11    1    3    3    0    0 -0.22224558742E+02 -0.12235789342E+02  0.12329196118E+01  0.25400111085E+02  0.51100000000E-03 0. -1.
        -11    1    3    3    0    0 -0.94715765041E+01 -0.73914731757E+01 -0.21223847664E+01  0.12200375180E+02  0.51100000000E-03 0.  1.
         12    1    3    3    0    0  0.73765517054E+00 -0.41739497665E+01  0.12213797373E+02  0.12928373373E+02  0.00000000000E+00 0. -1.
</event>
<event>
 7    1  0.6090311E-013  0.5052886E+02  0.7816164E-02  0.1300439E+00
        -11   -1    0    0    0    0  0.00000000000E+00  0.00000000000E+00  0.45593999997E+02  0.45594000000E+02  0.51100000000E-03 0.  1.
         11   -1    0    0    0    0 -0.00000000000E+00 -0.00000000000E+00 -0.45593999997E+02  0.45594000000E+02  0.51100000000E-03 0. -1.
    9900012    2    1    2    0    0 -0.17604679416E+02 -0.19764282744E+02 -0.30864445686E+02  0.50528860595E+02  0.30000002264E+02 0.  0.
        -12    1    1    2    0    0  0.17604679416E+02  0.19764282744E+02  0.30864445686E+02  0.40659139405E+02  0.00000000000E+00 0.  1.
         11    1    3    3    0    0 -0.24497429912E+02 -0.14345058890E+02 -0.27514373099E+02  0.39534105708E+02  0.51100000000E-03 0. -1.
        -11    1    3    3    0    0 -0.37671018190E+00 -0.17388836560E+01 -0.20984123864E+01  0.27511746100E+01  0.51100000000E-03 0.  1.
         12    1    3    3    0    0  0.72694606782E+01 -0.36803401982E+01 -0.12516602007E+01  0.82435802770E+01  0.00000000000E+00 0. -1.
</event>
<event>
 7    1  0.6090311E-013  0.5052885E+02  0.7816164E-02  0.1300439E+00
        -11   -1    0    0    0    0  0.00000000000E+00  0.00000000000E+00  0.45593999997E+02  0.45594000000E+02  0.51100000000E-03 0. -1.
         11   -1    0    0    0    0 -0.00000000000E+00 -0.00000000000E+00 -0.45593999997E+02  0.45594000000E+02  0.51100000000E-03 0.  1.
    9900012    2    1    2    0    0  0.40084417633E+02 -0.31297176649E+01  0.60506572743E+01  0.50528854374E+02  0.29999983354E+02 0.  0.
        -12    1    1    2    0    0 -0.40084417633E+02  0.31297176649E+01 -0.60506572743E+01  0.40659145626E+02  0.00000000000E+00 0.  1.
         11    1    3    3    0    0  0.11577539593E+01  0.14872038329E+01 -0.98833126122E-01  0.18873096510E+01  0.51100000000E-03 0. -1.
        -11    1    3    3    0    0  0.31302031106E+02 -0.45103900259E+01 -0.79525661544E+01  0.32609877005E+02  0.51100000000E-03 0.  1.
         12    1    3    3    0    0  0.76246325670E+01 -0.10653147189E+00  0.14102056555E+02  0.16031667718E+02  0.00000000000E+00 0. -1.
</event>
<event>
 7    1  0.6090311E-013  0.5052886E+02  0.7816164E-02  0.1300439E+00
        -11   -1    0    0    0    0  0.00000000000E+00  0.00000000000E+00  0.45593999997E+02  0.45594000000E+02  0.51100000000E-03 0. -1.
         11   -1    0    0    0    0 -0.00000000000E+00 -0.00000000000E+00 -0.45593999997E+02  0.45594000000E+02  0.51100000000E-03 0.  1.
    9900012    2    1    2    0    0 -0.36474324200E+02  0.17200498333E+02 -0.51896347519E+01  0.50528858622E+02  0.29999996268E+02 0.  0.
        -12    1    1    2    0    0  0.36474324200E+02 -0.17200498333E+02  0.51896347519E+01  0.40659141378E+02  0.00000000000E+00 0.  1.
         11    1    3    3    0    0  0.14000333052E+01 -0.13622628724E+01 -0.64520645327E+01  0.67412899644E+01  0.51100000000E-03 0. -1.
        -11    1    3    3    0    0 -0.35013626447E+00  0.27961711580E+01 -0.10808387043E+01  0.30181751298E+01  0.51100000000E-03 0.  1.
         12    1    3    3    0    0 -0.37524221241E+02  0.15766590047E+02  0.23432684852E+01  0.40769393528E+02  0.00000000000E+00 0. -1.
</event>
<event>
 7    1  0.6090311E-013  0.5052887E+02  0.7816164E-02  0.1300439E+00
        -11   -1    0    0    0    0  0.00000000000E+00  0.00000000000E+00  0.45593999997E+02  0.45594000000E+02  0.51100000000E-03 0. -1.
         11   -1    0    0    0    0 -0.00000000000E+00 -0.00000000000E+00 -0.45593999997E+02  0.45594000000E+02  0.51100000000E-03 0.  1.
    9900012    2    1    2    0    0 -0.32419682623E+02 -0.22601489915E+02  0.95551864568E+01  0.50528871185E+02  0.30000034453E+02 0.  0.
        -12    1    1    2    0    0  0.32419682623E+02  0.22601489915E+02 -0.95551864568E+01  0.40659128815E+02  0.00000000000E+00 0.  1.
         11    1    3    3    0    0 -0.31336557760E+02 -0.20941596539E+02  0.91148779567E+01  0.38776427353E+02  0.51100000000E-03 0. -1.
        -11    1    3    3    0    0 -0.41211670086E+01 -0.18489112557E+01  0.46989073022E+01  0.65178386326E+01  0.51100000000E-03 0.  1.
        -12    1    3    3    0    0  0.30380421449E+01  0.18901787943E+00 -0.42585988021E+01  0.52346051991E+01  0.00000000000E+00 0.  1.
</event>
<event>
 7    1  0.6090311E-013  0.5052887E+02  0.7816164E-02  0.1300439E+00
        -11   -1    0    0    0    0  0.00000000000E+00  0.00000000000E+00  0.45593999997E+02  0.45594000000E+02  0.51100000000E-03 0.  1.
         11   -1    0    0    0    0 -0.00000000000E+00 -0.00000000000E+00 -0.45593999997E+02  0.45594000000E+02  0.51100000000E-03 0. -1.
    9900012    2    1    2    0    0  0.33205928848E+02 -0.23039181632E+02 -0.44415563118E+01  0.50528867896E+02  0.30000024458E+02 0.  0.
        -12    1    1    2    0    0 -0.33205928848E+02  0.23039181632E+02  0.44415563118E+01  0.40659132104E+02  0.00000000000E+00 0.  1.
         11    1    3    3    0    0  0.25328607351E+02 -0.17104588650E+02 -0.13767556891E+02  0.33520902825E+02  0.51100000000E-03 0. -1.
        -11    1    3    3    0    0  0.18981802612E+01 -0.56735660663E+01  0.66927868865E-01  0.59830527169E+01  0.51100000000E-03 0.  1.
        -12    1    3    3    0    0  0.59791412361E+01 -0.26102691554E+00  0.92590727099E+01  0.11024912354E+02  0.00000000000E+00 0.  1.
</event>
<event>
 7    1  0.6090311E-013  0.5052886E+02  0.7816164E-02  0.1300439E+00
        -11   -1    0    0    0    0  0.00000000000E+00  0.00000000000E+00  0.45593999997E+02  0.45594000000E+02  0.51100000000E-03 0. -1.
         11   -1    0    0    0    0 -0.00000000000E+00 -0.00000000000E+00 -0.45593999997E+02  0.45594000000E+02  0.51100000000E-03 0.  1.
    9900012    2    1    2    0    0 -0.23449928613E+02 -0.31937636543E+02 -0.91243354222E+01  0.50528864780E+02  0.30000014986E+02 0.  0.
        -12    1    1    2    0    0  0.23449928613E+02  0.31937636543E+02  0.91243354222E+01  0.40659135220E+02  0.00000000000E+00 0.  1.
         11    1    3    3    0    0  0.97237508267E+00 -0.87273710550E+01 -0.36145125654E+00  0.87888091403E+01  0.51100000000E-03 0. -1.
        -11    1    3    3    0    0 -0.12898441162E+02 -0.55748073727E+01 -0.14206005583E+02  0.19981462822E+02  0.51100000000E-03 0.  1.
         12    1    3    3    0    0 -0.11523862534E+02 -0.17635458115E+02  0.54431214171E+01  0.21758592818E+02  0.00000000000E+00 0. -1.
</event>
<event>
 7    1  0.6090311E-013  0.5052887E+02  0.7816164E-02  0.1300439E+00
        -11   -1    0    0    0    0  0.00000000000E+00  0.00000000000E+00  0.45593999997E+02  0.45594000000E+02  0.51100000000E-03 0.  1.
         11   -1    0    0    0    0 -0.00000000000E+00 -0.00000000000E+00 -0.45593999997E+02  0.45594000000E+02  0.51100000000E-03 0. -1.
    9900012    2    1    2    0    0 -0.29370240923E+02  0.66467711685E+01 -0.27319851379E+02  0.50528869435E+02  0.30000029136E+02 0.  0.
        -12    1    1    2    0    0  0.29370240923E+02 -0.66467711685E+01  0.27319851379E+02  0.40659130565E+02  0.00000000000E+00 0.  1.
         11    1    3    3    0    0 -0.16260684812E+02  0.12985557792E+02 -0.15491136287E+02  0.25942434070E+02  0.51100000000E-03 0. -1.
        -11    1    3    3    0    0 -0.99761565431E+01  0.38480828697E+01 -0.76091196426E+01  0.13123648241E+02  0.51100000000E-03 0.  1.
        -12    1    3    3    0    0 -0.31333995683E+01 -0.10186869493E+02 -0.42195954496E+01  0.11462787125E+02  0.00000000000E+00 0.  1.
</event>
<event>
 7    1  0.6090311E-013  0.5052887E+02  0.7816164E-02  0.1300439E+00
        -11   -1    0    0    0    0  0.00000000000E+00  0.00000000000E+00  0.45593999997E+02  0.45594000000E+02  0.51100000000E-03 0.  1.
         11   -1    0    0    0    0 -0.00000000000E+00 -0.00000000000E+00 -0.45593999997E+02  0.45594000000E+02  0.51100000000E-03 0. -1.
    9900012    2    1    2    0    0 -0.28547295896E+02  0.20199740114E+02 -0.20740952237E+02  0.50528871832E+02  0.30000036421E+02 0.  0.
        -12    1    1    2    0    0  0.28547295896E+02 -0.20199740114E+02  0.20740952237E+02  0.40659128168E+02  0.00000000000E+00 0.  1.
         11    1    3    3    0    0 -0.85405900231E+01  0.11361789878E+02 -0.80290511472E+01  0.16324754509E+02  0.51100000000E-03 0.  1.
        -11    1    3    3    0    0 -0.16056077331E+02  0.13733747269E+02 -0.12943130647E+01  0.21168105250E+02  0.51100000000E-03 0. -1.
        -12    1    3    3    0    0 -0.39506285421E+01 -0.48957970333E+01 -0.11417588025E+02  0.13036012073E+02  0.00000000000E+00 0.  1.
</event>
<event>
 7    1  0.6090311E-013  0.5052886E+02  0.7816164E-02  0.1300439E+00
        -11   -1    0    0    0    0  0.00000000000E+00  0.00000000000E+00  0.45593999997E+02  0.45594000000E+02  0.51100000000E-03 0. -1.
         11   -1    0    0    0    0 -0.00000000000E+00 -0.00000000000E+00 -0.45593999997E+02  0.45594000000E+02  0.51100000000E-03 0.  1.
    9900012    2    1    2    0    0  0.33918079742E+02  0.22166446606E+02  0.33731298260E+01  0.50528862118E+02  0.30000006894E+02 0.  0.
        -12    1    1    2    0    0 -0.33918079742E+02 -0.22166446606E+02 -0.33731298260E+01  0.40659137882E+02  0.00000000000E+00 0.  1.
         11    1    3    3    0    0  0.16618694115E+02  0.45227731388E+01  0.83532359075E+01  0.19141917912E+02  0.51100000000E-03 0.  1.
        -11    1    3    3    0    0  0.85027196605E+01  0.98540260982E+01  0.68546207449E+01  0.14709993127E+02  0.51100000000E-03 0. -1.
         12    1    3    3    0    0  0.87966659660E+01  0.77896473685E+01 -0.11834726826E+02  0.16676951079E+02  0.00000000000E+00 0. -1.
</event>
<event>
 7    1  0.6090311E-013  0.5052887E+02  0.7816164E-02  0.1300439E+00
        -11   -1    0    0    0    0  0.00000000000E+00  0.00000000000E+00  0.45593999997E+02  0.45594000000E+02  0.51100000000E-03 0. -1.
         11   -1    0    0    0    0 -0.00000000000E+00 -0.00000000000E+00 -0.45593999997E+02  0.45594000000E+02  0.51100000000E-03 0.  1.
    9900012    2    1    2    0    0  0.20637079159E+02 -0.32563924079E+02  0.12917692866E+02  0.50528868472E+02  0.30000026207E+02 0.  0.
        -12    1    1    2    0    0 -0.20637079159E+02  0.32563924079E+02 -0.12917692866E+02  0.40659131528E+02  0.00000000000E+00 0.  1.
         11    1    3    3    0    0  0.20226523214E+01 -0.48913223256E+00 -0.27517985479E+00  0.20990705009E+01  0.51100000000E-03 0. -1.
        -11    1    3    3    0    0 -0.11915610353E+01  0.14121090845E+01 -0.51101079631E+01  0.54338819847E+01  0.51100000000E-03 0.  1.
         12    1    3    3    0    0  0.19805987873E+02 -0.33486900931E+02  0.18302980684E+02  0.42995915986E+02  0.00000000000E+00 0. -1.
</event>
<event>
 7    1  0.6090311E-013  0.5052883E+02  0.7816164E-02  0.1300439E+00
        -11   -1    0    0    0    0  0.00000000000E+00  0.00000000000E+00  0.45593999997E+02  0.45594000000E+02  0.51100000000E-03 0.  1.
         11   -1    0    0    0    0 -0.00000000000E+00 -0.00000000000E+00 -0.45593999997E+02  0.45594000000E+02  0.51100000000E-03 0. -1.
    9900012    2    1    2    0    0  0.18734175509E+02  0.34396315582E+02 -0.10912932613E+02  0.50528831836E+02  0.29999914848E+02 0.  0.
        -12    1    1    2    0    0 -0.18734175509E+02 -0.34396315582E+02  0.10912932613E+02  0.40659168164E+02  0.00000000000E+00 0.  1.
         11    1    3    3    0    0 -0.46107759683E+01  0.72326915075E+01 -0.21807679318E+01  0.88502446580E+01  0.51100000000E-03 0.  1.
        -11    1    3    3    0    0  0.41936598747E+00  0.14583786473E+02 -0.26131722517E+01  0.14821989246E+02  0.51100000000E-03 0. -1.
         12    1    3    3    0    0  0.22925585490E+02  0.12579837601E+02 -0.61189924296E+01  0.26856597932E+02  0.00000000000E+00 0. -1.
</event>
<event>
 7    1  0.6090311E-013  0.5052887E+02  0.7816164E-02  0.1300439E+00
        -11   -1    0    0    0    0  0.00000000000E+00  0.00000000000E+00  0.45593999997E+02  0.45594000000E+02  0.51100000000E-03 0.  1.
         11   -1    0    0    0    0 -0.00000000000E+00 -0.00000000000E+00 -0.45593999997E+02  0.45594000000E+02  0.51100000000E-03 0. -1.
    9900012    2    1    2    0    0 -0.48139276019E+01  0.36417024770E+02 -0.17429618282E+02  0.50528865903E+02  0.30000018400E+02 0.  0.
        -12    1    1    2    0    0  0.48139276019E+01 -0.36417024770E+02  0.17429618282E+02  0.40659134097E+02  0.00000000000E+00 0.  1.
         11    1    3    3    0    0  0.34894990082E+01  0.20515553579E+02 -0.20967112071E+02  0.29541231031E+02  0.51100000000E-03 0. -1.
        -11    1    3    3    0    0  0.19030636838E+01  0.36666141379E+01  0.28895498832E+01  0.50413499591E+01  0.51100000000E-03 0.  1.
        -12    1    3    3    0    0 -0.10206490294E+02  0.12234857053E+02  0.64794390590E+00  0.15946284913E+02  0.00000000000E+00 0.  1.
</event>
<event>
 7    1  0.6090311E-013  0.5052885E+02  0.7816164E-02  0.1300439E+00
        -11   -1    0    0    0    0  0.00000000000E+00  0.00000000000E+00  0.45593999997E+02  0.45594000000E+02  0.51100000000E-03 0. -1.
         11   -1    0    0    0    0 -0.00000000000E+00 -0.00000000000E+00 -0.45593999997E+02  0.45594000000E+02  0.51100000000E-03 0.  1.
    9900012    2    1    2    0    0 -0.82119997126E+01  0.36791046734E+02  0.15236416352E+02  0.50528850448E+02  0.29999971421E+02 0.  0.
        -12    1    1    2    0    0  0.82119997126E+01 -0.36791046734E+02 -0.15236416352E+02  0.40659149552E+02  0.00000000000E+00 0.  1.
         11    1    3    3    0    0 -0.77308796770E+01  0.12519137040E+01  0.38578488543E+01  0.87302225943E+01  0.51100000000E-03 0. -1.
        -11    1    3    3    0    0 -0.53211004721E+01  0.12375257342E+01  0.48413198421E+00  0.54845204180E+01  0.51100000000E-03 0.  1.
        -12    1    3    3    0    0  0.48399804365E+01  0.34301607296E+02  0.10894435513E+02  0.36314107436E+02  0.00000000000E+00 0.  1.
</event>
<event>
 7    1  0.6090311E-013  0.5052886E+02  0.7816164E-02  0.1300439E+00
        -11   -1    0    0    0    0  0.00000000000E+00  0.00000000000E+00  0.45593999997E+02  0.45594000000E+02  0.51100000000E-03 0.  1.
         11   -1    0    0    0    0 -0.00000000000E+00 -0.00000000000E+00 -0.45593999997E+02  0.45594000000E+02  0.51100000000E-03 0. -1.
    9900012    2    1    2    0    0 -0.12360022443E+02 -0.35348612904E+02  0.15838904519E+02  0.50528862215E+02  0.30000007189E+02 0.  0.
        -12    1    1    2    0    0  0.12360022443E+02  0.35348612904E+02 -0.15838904519E+02  0.40659137785E+02  0.00000000000E+00 0.  1.
         11    1    3    3    0    0 -0.19238682384E+01 -0.24647412221E+02  0.12665328389E+02  0.27777810238E+02  0.51100000000E-03 0. -1.
        -11    1    3    3    0    0 -0.40843257084E+01  0.69689156770E+00  0.78610837506E+01  0.88861697229E+01  0.51100000000E-03 0.  1.
         12    1    3    3    0    0 -0.63518284967E+01 -0.11398092252E+02 -0.46875076206E+01  0.13864882254E+02  0.00000000000E+00 0. -1.
</event>
<event>
 7    1  0.6090311E-013  0.5052884E+02  0.7816164E-02  0.1300439E+00
        -11   -1    0    0    0    0  0.00000000000E+00  0.00000000000E+00  0.45593999997E+02  0.45594000000E+02  0.51100000000E-03 0. -1.
         11   -1    0    0    0    0 -0.00000000000E+00 -0.00000000000E+00 -0.45593999997E+02  0.45594000000E+02  0.51100000000E-03 0.  1.
    9900012    2    1    2    0    0  0.20171771483E+02 -0.22304382308E+02  0.27363874800E+02  0.50528837699E+02  0.29999932671E+02 0.  0.
        -12    1    1    2    0    0 -0.20171771483E+02  0.22304382308E+02 -0.27363874800E+02  0.40659162301E+02  0.00000000000E+00 0.  1.
         11    1    3    3    0    0  0.20729622276E+02 -0.19142182249E+02  0.18740223300E+02  0.33872353779E+02  0.51100000000E-03 0. -1.
        -11    1    3    3    0    0 -0.64621099313E+00  0.26551996529E+01 -0.27526529746E+01  0.38787591449E+01  0.51100000000E-03 0.  1.
         12    1    3    3    0    0  0.88360200588E-01 -0.58173997123E+01  0.11376304475E+02  0.12777724775E+02  0.00000000000E+00 0. -1.
</event>
<event>
 7    1  0.6090311E-013  0.5052886E+02  0.7816164E-02  0.1300439E+00
        -11   -1    0    0    0    0  0.00000000000E+00  0.00000000000E+00  0.45593999997E+02  0.45594000000E+02  0.51100000000E-03 0. -1.
         11   -1    0    0    0    0 -0.00000000000E+00 -0.00000000000E+00 -0.45593999997E+02  0.45594000000E+02  0.51100000000E-03 0.  1.
    9900012    2    1    2    0    0  0.12261572627E+01 -0.67455870737E+01  0.40076913120E+02  0.50528863612E+02  0.30000011436E+02 0.  0.
        -12    1    1    2    0    0 -0.12261572627E+01  0.67455870737E+01 -0.40076913120E+02  0.40659136388E+02  0.00000000000E+00 0.  1.
         11    1    3    3    0    0  0.15512726104E+01  0.21587368572E+01  0.15404658190E+02  0.15632341019E+02  0.51100000000E-03 0. -1.
        -11    1    3    3    0    0 -0.54287186786E+01 -0.91460724085E+00 -0.25525507828E+01  0.60681964913E+01  0.51100000000E-03 0.  1.
         12    1    3    3    0    0  0.51036033309E+01 -0.79897166900E+01  0.27224805713E+02  0.28828326102E+02  0.00000000000E+00 0. -1.
</event>
<event>
 7    1  0.6090311E-013  0.5052884E+02  0.7816164E-02  0.1300439E+00
        -11   -1    0    0    0    0  0.00000000000E+00  0.00000000000E+00  0.45593999997E+02  0.45594000000E+02  0.51100000000E-03 0.  1.
         11   -1    0    0    0    0 -0.00000000000E+00 -0.00000000000E+00 -0.45593999997E+02  0.45594000000E+02  0.51100000000E-03 0. -1.
    9900012    2    1    2    0    0  0.52448852086E+00 -0.66513785632E+01 -0.40107994361E+02  0.50528841909E+02  0.29999945466E+02 0.  0.
        -12    1    1    2    0    0 -0.52448852086E+00  0.66513785632E+01  0.40107994361E+02  0.40659158091E+02  0.00000000000E+00 0.  1.
         11    1    3    3    0    0 -0.21926843577E+01 -0.50288627104E+01 -0.65417293938E+01  0.85376547468E+01  0.51100000000E-03 0. -1.
        -11    1    3    3    0    0 -0.10962304121E+02 -0.15720155723E+01 -0.11044536121E+02  0.15640496251E+02  0.51100000000E-03 0.  1.
         12    1    3    3    0    0  0.13679476999E+02 -0.50500280410E-01 -0.22521728847E+02  0.26350690911E+02  0.00000000000E+00 0. -1.
</event>
<event>
 7    1  0.6090311E-013  0.5052886E+02  0.7816164E-02  0.1300439E+00
        -11   -1    0    0    0    0  0.00000000000E+00  0.00000000000E+00  0.45593999997E+02  0.45594000000E+02  0.51100000000E-03 0. -1.
         11   -1    0    0    0    0 -0.00000000000E+00 -0.00000000000E+00 -0.45593999997E+02  0.45594000000E+02  0.51100000000E-03 0.  1.
    9900012    2    1    2    0    0  0.34302068819E+02 -0.15794421754E+02  0.15068841626E+02  0.50528859924E+02  0.30000000224E+02 0.  0.
        -12    1    1    2    0    0 -0.34302068819E+02  0.15794421754E+02 -0.15068841626E+02  0.40659140076E+02  0.00000000000E+00 0.  1.
         11    1    3    3    0    0  0.22153945927E+00  0.13286768501E+01  0.43815778471E+01  0.45839597070E+01  0.51100000000E-03 0. -1.
        -11    1    3    3    0    0  0.17748011360E+02  0.24877399922E+01 -0.83975653248E+00  0.17941180251E+02  0.51100000000E-03 0.  1.
         12    1    3    3    0    0  0.16332518000E+02 -0.19610838596E+02  0.11527020311E+02  0.28003719966E+02  0.00000000000E+00 0. -1.
</event>
<event>
 7    1  0.6090311E-013  0.5052886E+02  0.7816164E-02  0.1300439E+00
        -11   -1    0    0    0    0  0.00000000000E+00  0.00000000000E+00  0.45593999997E+02  0.45594000000E+02  0.51100000000E-03 0.  1.
         11   -1    0    0    0    0 -0.00000000000E+00 -0.00000000000E+00 -0.45593999997E+02  0.45594000000E+02  0.51100000000E-03 0. -1.
    9900012    2    1    2    0    0 -0.39761162258E+02  0.41222323248E+01 -0.74312247600E+01  0.50528856811E+02  0.29999990763E+02 0.  0.
        -12    1    1    2    0    0  0.39761162258E+02 -0.41222323248E+01  0.74312247600E+01  0.40659143189E+02  0.00000000000E+00 0.  1.
         11    1    3    3    0    0 -0.22900993434E+01 -0.69524614789E+01 -0.13598380008E+01  0.74451618698E+01  0.51100000000E-03 0. -1.
        -11    1    3    3    0    0 -0.17998347920E+02  0.64914212163E+00  0.45481631236E+01  0.18575459655E+02  0.51100000000E-03 0.  1.
         12    1    3    3    0    0 -0.19472714994E+02  0.10425551682E+02 -0.10619549883E+02  0.24508235286E+02  0.00000000000E+00 0. -1.
</event>
<event>
 7    1  0.6090311E-013  0.5052872E+02  0.7816164E-02  0.1300439E+00
        -11   -1    0    0    0    0  0.00000000000E+00  0.00000000000E+00  0.45593999997E+02  0.45594000000E+02  0.51100000000E-03 0. -1.
         11   -1    0    0    0    0 -0.00000000000E+00 -0.00000000000E+00 -0.45593999997E+02  0.45594000000E+02  0.51100000000E-03 0.  1.
    9900012    2    1    2    0    0  0.19727870749E+02 -0.24896204840E+02  0.25380444196E+02  0.50528722494E+02  0.29999582490E+02 0.  0.
        -12    1    1    2    0    0 -0.19727870749E+02  0.24896204840E+02 -0.25380444196E+02  0.40659277506E+02  0.00000000000E+00 0.  1.
         11    1    3    3    0    0  0.28753281497E+01 -0.22896945568E+02  0.18532409391E+02  0.29597091519E+02  0.51100000000E-03 0. -1.
        -11    1    3    3    0    0  0.97779501839E+01 -0.14701150283E+01  0.91512697568E+01  0.13472760906E+02  0.51100000000E-03 0.  1.
        -12    1    3    3    0    0  0.70745924150E+01 -0.52914424410E+00 -0.23032349517E+01  0.74588700694E+01  0.00000000000E+00 0.  1.
</event>
<event>
 7    1  0.6090311E-013  0.5052880E+02  0.7816164E-02  0.1300439E+00
        -11   -1    0    0    0    0  0.00000000000E+00  0.00000000000E+00  0.45593999997E+02  0.45594000000E+02  0.51100000000E-03 0.  1.
         11   -1    0    0    0    0 -0.00000000000E+00 -0.00000000000E+00 -0.45593999997E+02  0.45594000000E+02  0.51100000000E-03 0. -1.
    9900012    2    1    2    0    0  0.88238005144E+01 -0.58164877856E+01 -0.39261678725E+02  0.50528801754E+02  0.29999823411E+02 0.  0.
        -12    1    1    2    0    0 -0.88238005144E+01  0.58164877856E+01  0.39261678725E+02  0.40659198246E+02  0.00000000000E+00 0.  1.
         11    1    3    3    0    0  0.11317087880E+02 -0.87765356168E+00 -0.16560342757E+02  0.20077143879E+02  0.51100000000E-03 0. -1.
        -11    1    3    3    0    0  0.82382190956E+01  0.52059110589E+00 -0.90460395300E+01  0.12246228007E+02  0.51100000000E-03 0.  1.
         12    1    3    3    0    0 -0.10731506461E+02 -0.54594253298E+01 -0.13655296438E+02  0.18205429867E+02  0.00000000000E+00 0. -1.
</event>
<event>
 7    1  0.6090311E-013  0.5052885E+02  0.7816164E-02  0.1300439E+00
        -11   -1    0    0    0    0  0.00000000000E+00  0.00000000000E+00  0.45593999997E+02  0.45594000000E+02  0.51100000000E-03 0.  1.
         11   -1    0    0    0    0 -0.00000000000E+00 -0.00000000000E+00 -0.45593999997E+02  0.45594000000E+02  0.51100000000E-03 0. -1.
    9900012    2    1    2    0    0 -0.12970994742E+02  0.10410340517E+02 -0.37101808816E+02  0.50528854514E+02  0.29999983780E+02 0.  0.
        -12    1    1    2    0    0  0.12970994742E+02 -0.10410340517E+02  0.37101808816E+02  0.40659145486E+02  0.00000000000E+00 0.  1.
         11    1    3    3    0    0 -0.17606414155E+02  0.53644151405E+01 -0.29155027004E+02  0.34478665419E+02  0.51100000000E-03 0. -1.
        -11    1    3    3    0    0 -0.12115659254E+01  0.41082100838E+01 -0.90630652089E+01  0.10024192403E+02  0.51100000000E-03 0.  1.
        -12    1    3    3    0    0  0.58469853381E+01  0.93771529296E+00  0.11162833970E+01  0.60259966924E+01  0.00000000000E+00 0.  1.
</event>
<event>
 7    1  0.6090311E-013  0.5052886E+02  0.7816164E-02  0.1300439E+00
        -11   -1    0    0    0    0  0.00000000000E+00  0.00000000000E+00  0.45593999997E+02  0.45594000000E+02  0.51100000000E-03 0.  1.
         11   -1    0    0    0    0 -0.00000000000E+00 -0.00000000000E+00 -0.45593999997E+02  0.45594000000E+02  0.51100000000E-03 0. -1.
    9900012    2    1    2    0    0  0.70124948795E+01 -0.25857155789E+02 -0.30584276568E+02  0.50528861259E+02  0.30000004284E+02 0.  0.
        -12    1    1    2    0    0 -0.70124948795E+01  0.25857155789E+02  0.30584276568E+02  0.40659138741E+02  0.00000000000E+00 0.  1.
         11    1    3    3    0    0  0.53410440363E+01 -0.19435642404E+02 -0.13530589173E+02  0.24276486374E+02  0.51100000000E-03 0. -1.
        -11    1    3    3    0    0 -0.39462486166E+01 -0.64258766103E+00  0.27626319611E+01  0.48598284599E+01  0.51100000000E-03 0.  1.
        -12    1    3    3    0    0  0.56176994597E+01 -0.57789257243E+01 -0.19816319356E+02  0.21392546425E+02  0.00000000000E+00 0.  1.
</event>
<event>
 7    1  0.6090311E-013  0.5052887E+02  0.7816164E-02  0.1300439E+00
        -11   -1    0    0    0    0  0.00000000000E+00  0.00000000000E+00  0.45593999997E+02  0.45594000000E+02  0.51100000000E-03 0.  1.
         11   -1    0    0    0    0 -0.00000000000E+00 -0.00000000000E+00 -0.45593999997E+02  0.45594000000E+02  0.51100000000E-03 0. -1.
    9900012    2    1    2    0    0 -0.63065869068E+01 -0.11866838954E+01 -0.40149517410E+02  0.50528868119E+02  0.30000025134E+02 0.  0.
        -12    1    1    2    0    0  0.63065869068E+01  0.11866838954E+01  0.40149517410E+02  0.40659131881E+02  0.00000000000E+00 0.  1.
         11    1    3    3    0    0 -0.86051656484E+01  0.43491361585E+01 -0.23500700728E+01  0.99240460886E+01  0.51100000000E-03 0. -1.
        -11    1    3    3    0    0  0.30485900732E+00 -0.12432515379E+00  0.11677000419E+01  0.12132268573E+01  0.51100000000E-03 0.  1.
         12    1    3    3    0    0  0.19937197343E+01 -0.54114949000E+01 -0.38967147379E+02  0.39391595173E+02  0.00000000000E+00 0. -1.
</event>
<event>
 7    1  0.6090311E-013  0.5052885E+02  0.7816164E-02  0.1300439E+00
        -11   -1    0    0    0    0  0.00000000000E+00  0.00000000000E+00  0.45593999997E+02  0.45594000000E+02  0.51100000000E-03 0.  1.
         11   -1    0    0    0    0 -0.00000000000E+00 -0.00000000000E+00 -0.45593999997E+02  0.45594000000E+02  0.51100000000E-03 0. -1.
    9900012    2    1    2    0    0 -0.24145302711E+02 -0.17209894811E+02 -0.27820679471E+02  0.50528851846E+02  0.29999975671E+02 0.  0.
        -12    1    1    2    0    0  0.24145302711E+02  0.17209894811E+02  0.27820679471E+02  0.40659148154E+02  0.00000000000E+00 0.  1.
         11    1    3    3    0    0 -0.13234349426E+02 -0.28917817173E+00 -0.70049724893E+01  0.14976690842E+02  0.51100000000E-03 0. -1.
        -11    1    3    3    0    0 -0.14045631312E+02 -0.72463001433E+01 -0.19796536721E+02  0.25331630250E+02  0.51100000000E-03 0.  1.
        -12    1    3    3    0    0  0.31346780275E+01 -0.96744164957E+01 -0.10191702611E+01  0.10220530754E+02  0.00000000000E+00 0.  1.
</event>
<event>
 7    1  0.6090311E-013  0.5052886E+02  0.7816164E-02  0.1300439E+00
        -11   -1    0    0    0    0  0.00000000000E+00  0.00000000000E+00  0.45593999997E+02  0.45594000000E+02  0.51100000000E-03 0.  1.
         11   -1    0    0    0    0 -0.00000000000E+00 -0.00000000000E+00 -0.45593999997E+02  0.45594000000E+02  0.51100000000E-03 0. -1.
    9900012    2    1    2    0    0 -0.30832079007E+01  0.16311985047E+02 -0.37115749970E+02  0.50528856834E+02  0.29999990833E+02 0.  0.
        -12    1    1    2    0    0  0.30832079007E+01 -0.16311985047E+02  0.37115749970E+02  0.40659143166E+02  0.00000000000E+00 0.  1.
         11    1    3    3    0    0 -0.32725475908E+01  0.76460446613E+01 -0.17658207279E+02  0.19518807629E+02  0.51100000000E-03 0. -1.
        -11    1    3    3    0    0 -0.10335370616E+02  0.23551286205E+01 -0.14048599109E+02  0.17599137870E+02  0.51100000000E-03 0.  1.
        -12    1    3    3    0    0  0.10524710306E+02  0.63108117652E+01 -0.54089435823E+01  0.13410911335E+02  0.00000000000E+00 0.  1.
</event>
<event>
 7    1  0.6090311E-013  0.5052894E+02  0.7816164E-02  0.1300438E+00
        -11   -1    0    0    0    0  0.00000000000E+00  0.00000000000E+00  0.45593999997E+02  0.45594000000E+02  0.51100000000E-03 0.  1.
         11   -1    0    0    0    0 -0.00000000000E+00 -0.00000000000E+00 -0.45593999997E+02  0.45594000000E+02  0.51100000000E-03 0. -1.
    9900012    2    1    2    0    0 -0.31608087979E+01  0.36550536075E+02 -0.17527875788E+02  0.50528944068E+02  0.30000255988E+02 0.  0.
        -12    1    1    2    0    0  0.31608087979E+01 -0.36550536075E+02  0.17527875788E+02  0.40659055932E+02  0.00000000000E+00 0.  1.
         11    1    3    3    0    0 -0.62535943738E+01  0.85935254642E+01  0.21167792283E+01  0.10836829659E+02  0.51100000000E-03 0. -1.
        -11    1    3    3    0    0  0.10593877157E+02  0.23068446128E+02 -0.12846368855E+02  0.28450178084E+02  0.51100000000E-03 0.  1.
         12    1    3    3    0    0 -0.75010915808E+01  0.48885644825E+01 -0.67982861621E+01  0.11241936325E+02  0.00000000000E+00 0. -1.
</event>
<event>
 7    1  0.6090311E-013  0.5052891E+02  0.7816164E-02  0.1300439E+00
        -11   -1    0    0    0    0  0.00000000000E+00  0.00000000000E+00  0.45593999997E+02  0.45594000000E+02  0.51100000000E-03 0. -1.
         11   -1    0    0    0    0 -0.00000000000E+00 -0.00000000000E+00 -0.45593999997E+02  0.45594000000E+02  0.51100000000E-03 0.  1.
    9900012    2    1    2    0    0 -0.74503277508E+01  0.28765069363E+02  0.27752933621E+02  0.50528906015E+02  0.30000140324E+02 0.  0.
        -12    1    1    2    0    0  0.74503277508E+01 -0.28765069363E+02 -0.27752933621E+02  0.40659093985E+02  0.00000000000E+00 0.  1.
         11    1    3    3    0    0 -0.88361978358E+01  0.14935370219E+02  0.88249965261E+01  0.19468544879E+02  0.51100000000E-03 0. -1.
        -11    1    3    3    0    0 -0.69973122566E+01  0.77426930936E+01  0.11701659329E+01  0.10501474360E+02  0.51100000000E-03 0.  1.
        -12    1    3    3    0    0  0.83831823415E+01  0.60870060511E+01  0.17757771162E+02  0.20558886777E+02  0.00000000000E+00 0.  1.
</event>
<event>
 7    1  0.6090311E-013  0.5052886E+02  0.7816164E-02  0.1300439E+00
        -11   -1    0    0    0    0  0.00000000000E+00  0.00000000000E+00  0.45593999997E+02  0.45594000000E+02  0.51100000000E-03 0. -1.
         11   -1    0    0    0    0 -0.00000000000E+00 -0.00000000000E+00 -0.45593999997E+02  0.45594000000E+02  0.51100000000E-03 0.  1.
    9900012    2    1    2    0    0 -0.47830508546E+01 -0.38044786940E+02 -0.13523389028E+02  0.50528862779E+02  0.30000008902E+02 0.  0.
        -12    1    1    2    0    0  0.47830508546E+01  0.38044786940E+02  0.13523389028E+02  0.40659137221E+02  0.00000000000E+00 0.  1.
         11    1    3    3    0    0 -0.24777923133E+01 -0.90249528106E+01 -0.10869158976E+00  0.93595428363E+01  0.51100000000E-03 0. -1.
        -11    1    3    3    0    0  0.62438451141E+01 -0.29566495084E+01  0.46481419712E+01  0.83266200928E+01  0.51100000000E-03 0.  1.
         12    1    3    3    0    0 -0.85491036554E+01 -0.26063184621E+02 -0.18062839410E+02  0.32842699850E+02  0.00000000000E+00 0. -1.
</event>
<event>
 7    1  0.6090311E-013  0.5052886E+02  0.7816164E-02  0.1300439E+00
        -11   -1    0    0    0    0  0.00000000000E+00  0.00000000000E+00  0.45593999997E+02  0.45594000000E+02  0.51100000000E-03 0.  1.
         11   -1    0    0    0    0 -0.00000000000E+00 -0.00000000000E+00 -0.45593999997E+02  0.45594000000E+02  0.51100000000E-03 0. -1.
    9900012    2    1    2    0    0 -0.20343941000E+02  0.21815581293E+02 -0.27629157728E+02  0.50528857371E+02  0.29999992464E+02 0.  0.
        -12    1    1    2    0    0  0.20343941000E+02 -0.21815581293E+02  0.27629157728E+02  0.40659142629E+02  0.00000000000E+00 0.  1.
         11    1    3    3    0    0  0.47484133215E+01  0.30596095098E+01 -0.75664307243E+01  0.94424315508E+01  0.51100000000E-03 0. -1.
        -11    1    3    3    0    0  0.11971154652E+01 -0.19204128885E+01 -0.22560500633E+01  0.31954394453E+01  0.51100000000E-03 0.  1.
         12    1    3    3    0    0 -0.26289469787E+02  0.20676384672E+02 -0.17806676941E+02  0.37890986375E+02  0.00000000000E+00 0. -1.
</event>
<event>
 7    1  0.6090311E-013  0.5052886E+02  0.7816164E-02  0.1300439E+00
        -11   -1    0    0    0    0  0.00000000000E+00  0.00000000000E+00  0.45593999997E+02  0.45594000000E+02  0.51100000000E-03 0.  1.
         11   -1    0    0    0    0 -0.00000000000E+00 -0.00000000000E+00 -0.45593999997E+02  0.45594000000E+02  0.51100000000E-03 0. -1.
    9900012    2    1    2    0    0  0.33821761230E+02 -0.21520318704E+02  0.67918901871E+01  0.50528862993E+02  0.30000009554E+02 0.  0.
        -12    1    1    2    0    0 -0.33821761230E+02  0.21520318704E+02 -0.67918901871E+01  0.40659137007E+02  0.00000000000E+00 0.  1.
         11    1    3    3    0    0  0.15588780979E+02 -0.41094467560E+01  0.80941614765E+01  0.18039209942E+02  0.51100000000E-03 0. -1.
        -11    1    3    3    0    0  0.59479180815E+01  0.36732713531E+01 -0.38055692729E+01  0.79594603894E+01  0.51100000000E-03 0.  1.
         12    1    3    3    0    0  0.12285062169E+02 -0.21084143301E+02  0.25032979835E+01  0.24530192662E+02  0.00000000000E+00 0. -1.
</event>
<event>
 7    1  0.6090311E-013  0.5052885E+02  0.7816164E-02  0.1300439E+00
        -11   -1    0    0    0    0  0.00000000000E+00  0.00000000000E+00  0.45593999997E+02  0.45594000000E+02  0.51100000000E-03 0.  1.
         11   -1    0    0    0    0 -0.00000000000E+00 -0.00000000000E+00 -0.45593999997E+02  0.45594000000E+02  0.51100000000E-03 0. -1.
    9900012    2    1    2    0    0  0.11016824916E+02  0.18980111462E+02 -0.34227935030E+02  0.50528848524E+02  0.29999965573E+02 0.  0.
        -12    1    1    2    0    0 -0.11016824916E+02 -0.18980111462E+02  0.34227935030E+02  0.40659151476E+02  0.00000000000E+00 0.  1.
         11    1    3    3    0    0  0.11121829476E+02  0.11451951723E+02 -0.61808718862E+01  0.17118570814E+02  0.51100000000E-03 0. -1.
        -11    1    3    3    0    0  0.63152370410E+01 -0.84482815926E+00 -0.51266681032E+01  0.81779385914E+01  0.51100000000E-03 0.  1.
         12    1    3    3    0    0 -0.64202416014E+01  0.83729878981E+01 -0.22920395041E+02  0.25232339118E+02  0.00000000000E+00 0. -1.
</event>
<event>
 7    1  0.6090311E-013  0.5052885E+02  0.7816164E-02  0.1300439E+00
        -11   -1    0    0    0    0  0.00000000000E+00  0.00000000000E+00  0.45593999997E+02  0.45594000000E+02  0.51100000000E-03 0.  1.
         11   -1    0    0    0    0 -0.00000000000E+00 -0.00000000000E+00 -0.45593999997E+02  0.45594000000E+02  0.51100000000E-03 0. -1.
    9900012    2    1    2    0    0 -0.34548988451E+02  0.17900977789E+02 -0.11793585354E+02  0.50528852637E+02  0.29999978075E+02 0.  0.
        -12    1    1    2    0    0  0.34548988451E+02 -0.17900977789E+02  0.11793585354E+02  0.40659147363E+02  0.00000000000E+00 0.  1.
         11    1    3    3    0    0  0.12032875894E+01 -0.16881926122E+01  0.55213918342E+00  0.21454028195E+01  0.51100000000E-03 0.  1.
        -11    1    3    3    0    0 -0.14758359757E+02 -0.35639383974E+01 -0.68231478569E+01  0.16645305241E+02  0.51100000000E-03 0. -1.
        -12    1    3    3    0    0 -0.20993916283E+02  0.23153108799E+02 -0.55225766802E+01  0.31738144576E+02  0.00000000000E+00 0.  1.
</event>
<event>
 7    1  0.6090311E-013  0.5052886E+02  0.7816164E-02  0.1300439E+00
        -11   -1    0    0    0    0  0.00000000000E+00  0.00000000000E+00  0.45593999997E+02  0.45594000000E+02  0.51100000000E-03 0.  1.
         11   -1    0    0    0    0 -0.00000000000E+00 -0.00000000000E+00 -0.45593999997E+02  0.45594000000E+02  0.51100000000E-03 0. -1.
    9900012    2    1    2    0    0  0.26843271457E+02  0.24331711620E+02 -0.18454597764E+02  0.50528860911E+02  0.30000003224E+02 0.  0.
        -12    1    1    2    0    0 -0.26843271457E+02 -0.24331711620E+02  0.18454597764E+02  0.40659139089E+02  0.00000000000E+00 0.  1.
         11    1    3    3    0    0  0.19281380898E+02  0.15788959682E+02 -0.24947558742E+02  0.35262495439E+02  0.51100000000E-03 0. -1.
        -11    1    3    3    0    0  0.25583402681E+01  0.65889690651E+01  0.30857778058E+00  0.70749444362E+01  0.51100000000E-03 0.  1.
        -12    1    3    3    0    0  0.50035502914E+01  0.19537828731E+01  0.61843831979E+01  0.81914210350E+01  0.00000000000E+00 0.  1.
</event>
<event>
 7    1  0.6090311E-013  0.5052886E+02  0.7816164E-02  0.1300439E+00
        -11   -1    0    0    0    0  0.00000000000E+00  0.00000000000E+00  0.45593999997E+02  0.45594000000E+02  0.51100000000E-03 0. -1.
         11   -1    0    0    0    0 -0.00000000000E+00 -0.00000000000E+00 -0.45593999997E+02  0.45594000000E+02  0.51100000000E-03 0.  1.
    9900012    2    1    2    0    0  0.10154142270E+02 -0.17099968533E+02  0.35463366853E+02  0.50528856900E+02  0.29999991034E+02 0.  0.
        -12    1    1    2    0    0 -0.10154142270E+02  0.17099968533E+02 -0.35463366853E+02  0.40659143100E+02  0.00000000000E+00 0.  1.
         11    1    3    3    0    0  0.19728228527E+01 -0.89217618634E+01  0.96580675717E+00  0.91881797822E+01  0.51100000000E-03 0. -1.
        -11    1    3    3    0    0 -0.56308275561E+01  0.12099476158E+01  0.60489035018E+01  0.83522108471E+01  0.51100000000E-03 0.  1.
         12    1    3    3    0    0  0.13812146974E+02 -0.93881542850E+01  0.28448656594E+02  0.32988466271E+02  0.00000000000E+00 0. -1.
</event>
<event>
 7    1  0.6090311E-013  0.5052886E+02  0.7816164E-02  0.1300439E+00
        -11   -1    0    0    0    0  0.00000000000E+00  0.00000000000E+00  0.45593999997E+02  0.45594000000E+02  0.51100000000E-03 0. -1.
         11   -1    0    0    0    0 -0.00000000000E+00 -0.00000000000E+00 -0.45593999997E+02  0.45594000000E+02  0.51100000000E-03 0.  1.
    9900012    2    1    2    0    0  0.39334343363E+02 -0.48115718107E+01  0.91007807755E+01  0.50528855865E+02  0.29999987887E+02 0.  0.
        -12    1    1    2    0    0 -0.39334343363E+02  0.48115718107E+01 -0.91007807755E+01  0.40659144135E+02  0.00000000000E+00 0.  1.
         11    1    3    3    0    0  0.20936625191E+02 -0.11016945398E+01 -0.13132942924E+01  0.21006683399E+02  0.51100000000E-03 0. -1.
        -11    1    3    3    0    0  0.10347233828E+02 -0.38716555091E+01 -0.50038731096E+01  0.12128219598E+02  0.51100000000E-03 0.  1.
        -12    1    3    3    0    0  0.80504843440E+01  0.16177823821E+00  0.15417948178E+02  0.17393952868E+02  0.00000000000E+00 0.  1.
</event>
<event>
 7    1  0.6090311E-013  0.5052887E+02  0.7816164E-02  0.1300439E+00
        -11   -1    0    0    0    0  0.00000000000E+00  0.00000000000E+00  0.45593999997E+02  0.45594000000E+02  0.51100000000E-03 0.  1.
         11   -1    0    0    0    0 -0.00000000000E+00 -0.00000000000E+00 -0.45593999997E+02  0.45594000000E+02  0.51100000000E-03 0. -1.
    9900012    2    1    2    0    0  0.26020477768E+02 -0.25506240533E+02 -0.18042496363E+02  0.50528865179E+02  0.30000016197E+02 0.  0.
        -12    1    1    2    0    0 -0.26020477768E+02  0.25506240533E+02  0.18042496363E+02  0.40659134821E+02  0.00000000000E+00 0.  1.
         11    1    3    3    0    0  0.26036626486E+02 -0.18270146864E+02 -0.67307917287E+01  0.32511655491E+02  0.51100000000E-03 0. -1.
        -11    1    3    3    0    0  0.16621125166E+01 -0.69281307311E+00  0.22406955040E+01  0.28745998982E+01  0.51100000000E-03 0.  1.
         12    1    3    3    0    0 -0.16782612343E+01 -0.65432805960E+01 -0.13552400139E+02  0.15142609790E+02  0.00000000000E+00 0. -1.
</event>
<event>
 7    1  0.6090311E-013  0.5052886E+02  0.7816164E-02  0.1300439E+00
        -11   -1    0    0    0    0  0.00000000000E+00  0.00000000000E+00  0.45593999997E+02  0.45594000000E+02  0.51100000000E-03 0.  1.
         11   -1    0    0    0    0 -0.00000000000E+00 -0.00000000000E+00 -0.45593999997E+02  0.45594000000E+02  0.51100000000E-03 0. -1.
    9900012    2    1    2    0    0 -0.13855243129E+02  0.37878110590E+02 -0.51426451978E+01  0.50528858056E+02  0.29999994546E+02 0.  0.
        -12    1    1    2    0    0  0.13855243129E+02 -0.37878110590E+02  0.51426451978E+01  0.40659141944E+02  0.00000000000E+00 0.  1.
         11    1    3    3    0    0  0.18464752591E+01  0.11325312910E+02 -0.95464105579E+01  0.14926692138E+02  0.51100000000E-03 0. -1.
        -11    1    3    3    0    0  0.12160426454E+01  0.51380262380E+01 -0.44560069604E+01  0.69089848480E+01  0.51100000000E-03 0.  1.
        -12    1    3    3    0    0 -0.16917761034E+02  0.21414771442E+02  0.88597723205E+01  0.28693181069E+02  0.00000000000E+00 0.  1.
</event>
<event>
 7    1  0.6090311E-013  0.5052886E+02  0.7816164E-02  0.1300439E+00
        -11   -1    0    0    0    0  0.00000000000E+00  0.00000000000E+00  0.45593999997E+02  0.45594000000E+02  0.51100000000E-03 0. -1.
         11   -1    0    0    0    0 -0.00000000000E+00 -0.00000000000E+00 -0.45593999997E+02  0.45594000000E+02  0.51100000000E-03 0.  1.
    9900012    2    1    2    0    0  0.34365743511E+02 -0.10706864285E+02  0.18908320230E+02  0.50528857808E+02  0.29999993793E+02 0.  0.
        -12    1    1    2    0    0 -0.34365743511E+02  0.10706864285E+02 -0.18908320230E+02  0.40659142192E+02  0.00000000000E+00 0.  1.
         11    1    3    3    0    0  0.77405700793E+01 -0.86210212400E+01  0.13450181211E+02  0.17752346528E+02  0.51100000000E-03 0. -1.
        -11    1    3    3    0    0  0.17011207230E+01  0.27218907749E+01  0.66298571597E+01  0.73659695441E+01  0.51100000000E-03 0.  1.
         12    1    3    3    0    0  0.24924052709E+02 -0.48077338197E+01 -0.11717181406E+01  0.25410541736E+02  0.00000000000E+00 0. -1.
</event>
<event>
 7    1  0.6090311E-013  0.5052888E+02  0.7816164E-02  0.1300439E+00
        -11   -1    0    0    0    0  0.00000000000E+00  0.00000000000E+00  0.45593999997E+02  0.45594000000E+02  0.51100000000E-03 0.  1.
         11   -1    0    0    0    0 -0.00000000000E+00 -0.00000000000E+00 -0.45593999997E+02  0.45594000000E+02  0.51100000000E-03 0. -1.
    9900012    2    1    2    0    0 -0.18751888054E+02 -0.25995391676E+02 -0.25015408487E+02  0.50528876107E+02  0.30000049415E+02 0.  0.
        -12    1    1    2    0    0  0.18751888054E+02  0.25995391676E+02  0.25015408487E+02  0.40659123893E+02  0.00000000000E+00 0.  1.
         11    1    3    3    0    0 -0.57054540218E+01 -0.12072762730E+02 -0.95254637044E+01  0.16402385941E+02  0.51100000000E-03 0. -1.
        -11    1    3    3    0    0  0.40165153813E+01 -0.12408225721E+02 -0.46076008622E+01  0.13832080369E+02  0.51100000000E-03 0.  1.
         12    1    3    3    0    0 -0.17062949414E+02 -0.15144032251E+01 -0.10882343920E+02  0.20294409797E+02  0.00000000000E+00 0. -1.
</event>
<event>
 7    1  0.6090311E-013  0.5052894E+02  0.7816164E-02  0.1300439E+00
        -11   -1    0    0    0    0  0.00000000000E+00  0.00000000000E+00  0.45593999997E+02  0.45594000000E+02  0.51100000000E-03 0. -1.
         11   -1    0    0    0    0 -0.00000000000E+00 -0.00000000000E+00 -0.45593999997E+02  0.45594000000E+02  0.51100000000E-03 0.  1.
    9900012    2    1    2    0    0 -0.39110168967E+02  0.94697054518E+01  0.58205256117E+01  0.50528940046E+02  0.30000243763E+02 0.  0.
        -12    1    1    2    0    0  0.39110168967E+02 -0.94697054518E+01 -0.58205256117E+01  0.40659059954E+02  0.00000000000E+00 0.  1.
         11    1    3    3    0    0 -0.23767095230E+02 -0.53971801428E+01  0.11736408281E+02  0.27050834530E+02  0.51100000000E-03 0. -1.
        -11    1    3    3    0    0 -0.49397787591E+01  0.48143718689E+00 -0.14831510068E+01  0.51800514596E+01  0.51100000000E-03 0.  1.
        -12    1    3    3    0    0 -0.10403294977E+02  0.14385448408E+02 -0.44327316620E+01  0.18298054057E+02  0.00000000000E+00 0.  1.
</event>
<event>
 7    1  0.6090311E-013  0.5052887E+02  0.7816164E-02  0.1300439E+00
        -11   -1    0    0    0    0  0.00000000000E+00  0.00000000000E+00  0.45593999997E+02  0.45594000000E+02  0.51100000000E-03 0.  1.
         11   -1    0    0    0    0 -0.00000000000E+00 -0.00000000000E+00 -0.45593999997E+02  0.45594000000E+02  0.51100000000E-03 0. -1.
    9900012    2    1    2    0    0 -0.27529569327E+02  0.24068456397E+02 -0.17776306349E+02  0.50528870053E+02  0.30000031013E+02 0.  0.
        -12    1    1    2    0    0  0.27529569327E+02 -0.24068456397E+02  0.17776306349E+02  0.40659129947E+02  0.00000000000E+00 0.  1.
         11    1    3    3    0    0 -0.13893211141E+02  0.96198453195E+01 -0.80683267532E+01  0.18725934867E+02  0.51100000000E-03 0. -1.
        -11    1    3    3    0    0 -0.18512558694E+02  0.84791283836E+01 -0.13102774786E+01  0.20404099462E+02  0.51100000000E-03 0.  1.
        -12    1    3    3    0    0  0.48762005079E+01  0.59694826937E+01 -0.83977021168E+01  0.11398835724E+02  0.00000000000E+00 0.  1.
</event>
<event>
 7    1  0.6090311E-013  0.5052886E+02  0.7816164E-02  0.1300439E+00
        -11   -1    0    0    0    0  0.00000000000E+00  0.00000000000E+00  0.45593999997E+02  0.45594000000E+02  0.51100000000E-03 0.  1.
         11   -1    0    0    0    0 -0.00000000000E+00 -0.00000000000E+00 -0.45593999997E+02  0.45594000000E+02  0.51100000000E-03 0. -1.
    9900012    2    1    2    0    0  0.31682066189E+01 -0.11334318059E+01 -0.40519664490E+02  0.50528863128E+02  0.30000009963E+02 0.  0.
        -12    1    1    2    0    0 -0.31682066189E+01  0.11334318059E+01  0.40519664490E+02  0.40659136872E+02  0.00000000000E+00 0.  1.
         11    1    3    3    0    0  0.39504117140E+00  0.64093551123E+01 -0.11574437368E+02  0.13236445562E+02  0.51100000000E-03 0.  1.
        -11    1    3    3    0    0  0.84767731397E+00  0.52609877799E+01 -0.21926328892E+02  0.22564583935E+02  0.51100000000E-03 0. -1.
        -12    1    3    3    0    0  0.19254881335E+01 -0.12803774698E+02 -0.70188982306E+01  0.14727833630E+02  0.00000000000E+00 0.  1.
</event>
<event>
 7    1  0.6090311E-013  0.5052886E+02  0.7816164E-02  0.1300439E+00
        -11   -1    0    0    0    0  0.00000000000E+00  0.00000000000E+00  0.45593999997E+02  0.45594000000E+02  0.51100000000E-03 0.  1.
         11   -1    0    0    0    0 -0.00000000000E+00 -0.00000000000E+00 -0.45593999997E+02  0.45594000000E+02  0.51100000000E-03 0. -1.
    9900012    2    1    2    0    0 -0.84077416019E+01 -0.39410491577E+02 -0.54118664939E+01  0.50528864936E+02  0.30000015460E+02 0.  0.
        -12    1    1    2    0    0  0.84077416019E+01  0.39410491577E+02  0.54118664939E+01  0.40659135064E+02  0.00000000000E+00 0.  1.
         11    1    3    3    0    0  0.17679231463E+01 -0.21156747510E+02 -0.13380291378E+02  0.25095133295E+02  0.51100000000E-03 0. -1.
        -11    1    3    3    0    0 -0.86468935258E+01 -0.45660601467E+01  0.55904053624E+00  0.97943963311E+01  0.51100000000E-03 0.  1.
        -12    1    3    3    0    0 -0.15287712224E+01 -0.13687683920E+02  0.74093843475E+01  0.15639335310E+02  0.00000000000E+00 0.  1.
</event>
<event>
 7    1  0.6090311E-013  0.5052886E+02  0.7816164E-02  0.1300439E+00
        -11   -1    0    0    0    0  0.00000000000E+00  0.00000000000E+00  0.45593999997E+02  0.45594000000E+02  0.51100000000E-03 0.  1.
         11   -1    0    0    0    0 -0.00000000000E+00 -0.00000000000E+00 -0.45593999997E+02  0.45594000000E+02  0.51100000000E-03 0. -1.
    9900012    2    1    2    0    0  0.76375745789E+01  0.28723624482E+02 -0.27745033331E+02  0.50528855600E+02  0.29999987081E+02 0.  0.
        -12    1    1    2    0    0 -0.76375745789E+01 -0.28723624482E+02  0.27745033331E+02  0.40659144400E+02  0.00000000000E+00 0.  1.
         11    1    3    3    0    0  0.14007839887E+01  0.82058293834E+01 -0.13856507425E+02  0.16164796006E+02  0.51100000000E-03 0. -1.
        -11    1    3    3    0    0 -0.44986846119E+01  0.16148919970E+02 -0.15289758918E+02  0.22689259738E+02  0.51100000000E-03 0.  1.
        -12    1    3    3    0    0  0.10735475202E+02  0.43688751285E+01  0.14012330121E+01  0.11674799855E+02  0.00000000000E+00 0.  1.
</event>
<event>
 7    1  0.6090311E-013  0.5052886E+02  0.7816164E-02  0.1300439E+00
        -11   -1    0    0    0    0  0.00000000000E+00  0.00000000000E+00  0.45593999997E+02  0.45594000000E+02  0.51100000000E-03 0. -1.
         11   -1    0    0    0    0 -0.00000000000E+00 -0.00000000000E+00 -0.45593999997E+02  0.45594000000E+02  0.51100000000E-03 0.  1.
    9900012    2    1    2    0    0 -0.13989220215E+02  0.16633556449E+02  0.34362653014E+02  0.50528863210E+02  0.30000010212E+02 0.  0.
        -12    1    1    2    0    0  0.13989220215E+02 -0.16633556449E+02 -0.34362653014E+02  0.40659136790E+02  0.00000000000E+00 0.  1.
         11    1    3    3    0    0  0.23902525209E+01  0.34671789119E+01  0.27152968870E+01  0.50107358907E+01  0.51100000000E-03 0. -1.
        -11    1    3    3    0    0 -0.10983084962E+01  0.16788213532E+02  0.18793861597E+02  0.25224187383E+02  0.51100000000E-03 0.  1.
         12    1    3    3    0    0 -0.15281164240E+02 -0.36218359949E+01  0.12853494530E+02  0.20293939936E+02  0.00000000000E+00 0. -1.
</event>
<event>
 7    1  0.6090311E-013  0.5052886E+02  0.7816164E-02  0.1300439E+00
        -11   -1    0    0    0    0  0.00000000000E+00  0.00000000000E+00  0.45593999997E+02  0.45594000000E+02  0.51100000000E-03 0.  1.
         11   -1    0    0    0    0 -0.00000000000E+00 -0.00000000000E+00 -0.45593999997E+02  0.45594000000E+02  0.51100000000E-03 0. -1.
    9900012    2    1    2    0    0 -0.12913500811E+02 -0.48658713405E+01 -0.38245663319E+02  0.50528856258E+02  0.29999989082E+02 0.  0.
        -12    1    1    2    0    0  0.12913500811E+02  0.48658713405E+01  0.38245663319E+02  0.40659143742E+02  0.00000000000E+00 0.  1.
         11    1    3    3    0    0 -0.17349568031E+02  0.68886160196E+01 -0.26970831698E+02  0.32800705850E+02  0.51100000000E-03 0. -1.
        -11    1    3    3    0    0 -0.11899899864E+01 -0.14783186810E+01 -0.99887523598E+00  0.21445872070E+01  0.51100000000E-03 0.  1.
        -12    1    3    3    0    0  0.56260572062E+01 -0.10276168679E+02 -0.10275956386E+02  0.15583563201E+02  0.00000000000E+00 0.  1.
</event>
<event>
 7    1  0.6090311E-013  0.5052887E+02  0.7816164E-02  0.1300439E+00
        -11   -1    0    0    0    0  0.00000000000E+00  0.00000000000E+00  0.45593999997E+02  0.45594000000E+02  0.51100000000E-03 0. -1.
         11   -1    0    0    0    0 -0.00000000000E+00 -0.00000000000E+00 -0.45593999997E+02  0.45594000000E+02  0.51100000000E-03 0.  1.
    9900012    2    1    2    0    0 -0.20156586713E+02 -0.11149387054E+02  0.33504748780E+02  0.50528868056E+02  0.30000024943E+02 0.  0.
        -12    1    1    2    0    0  0.20156586713E+02  0.11149387054E+02 -0.33504748780E+02  0.40659131944E+02  0.00000000000E+00 0.  1.
         11    1    3    3    0    0 -0.22947784862E+01  0.50380553915E+01  0.14489608532E+01  0.57225429875E+01  0.51100000000E-03 0. -1.
        -11    1    3    3    0    0 -0.38357094110E+01 -0.20628044347E+01 -0.24304805468E+01  0.49874908291E+01  0.51100000000E-03 0.  1.
        -12    1    3    3    0    0 -0.14026098816E+02 -0.14124638011E+02  0.34486268474E+02  0.39818834239E+02  0.00000000000E+00 0.  1.
</event>
<event>
 7    1  0.6090311E-013  0.5052885E+02  0.7816164E-02  0.1300439E+00
        -11   -1    0    0    0    0  0.00000000000E+00  0.00000000000E+00  0.45593999997E+02  0.45594000000E+02  0.51100000000E-03 0.  1.
         11   -1    0    0    0    0 -0.00000000000E+00 -0.00000000000E+00 -0.45593999997E+02  0.45594000000E+02  0.51100000000E-03 0. -1.
    9900012    2    1    2    0    0 -0.14218305128E+02 -0.37658766662E+02 -0.57291781267E+01  0.50528851101E+02  0.29999973406E+02 0.  0.
        -12    1    1    2    0    0  0.14218305128E+02  0.37658766662E+02  0.57291781267E+01  0.40659148899E+02  0.00000000000E+00 0.  1.
         11    1    3    3    0    0 -0.92584097439E+01 -0.17876428889E+02 -0.22069754267E+01  0.20252298674E+02  0.51100000000E-03 0.  1.
        -11    1    3    3    0    0 -0.13551566687E+02 -0.13216162682E+02 -0.82954617531E-01  0.18929310538E+02  0.51100000000E-03 0. -1.
        -12    1    3    3    0    0  0.85916713029E+01 -0.65661750915E+01 -0.34392480825E+01  0.11347241889E+02  0.00000000000E+00 0.  1.
</event>
<event>
 7    1  0.6090311E-013  0.5052885E+02  0.7816164E-02  0.1300439E+00
        -11   -1    0    0    0    0  0.00000000000E+00  0.00000000000E+00  0.45593999997E+02  0.45594000000E+02  0.51100000000E-03 0. -1.
         11   -1    0    0    0    0 -0.00000000000E+00 -0.00000000000E+00 -0.45593999997E+02  0.45594000000E+02  0.51100000000E-03 0.  1.
    9900012    2    1    2    0    0  0.13983047265E+01 -0.35654593776E+02 -0.19492602055E+02  0.50528845455E+02  0.29999956246E+02 0.  0.
        -12    1    1    2    0    0 -0.13983047265E+01  0.35654593776E+02  0.19492602055E+02  0.40659154545E+02  0.00000000000E+00 0.  1.
         11    1    3    3    0    0  0.46002816724E+01 -0.11665390516E+02 -0.22642551255E+01  0.12742479307E+02  0.51100000000E-03 0.  1.
        -11    1    3    3    0    0  0.95730880707E+01 -0.55493410750E+01 -0.41387296537E+01  0.11813902191E+02  0.51100000000E-03 0. -1.
        -12    1    3    3    0    0 -0.12775065017E+02 -0.18439862185E+02 -0.13089617276E+02  0.25972463957E+02  0.00000000000E+00 0.  1.
</event>
<event>
 7    1  0.6090311E-013  0.5052886E+02  0.7816164E-02  0.1300439E+00
        -11   -1    0    0    0    0  0.00000000000E+00  0.00000000000E+00  0.45593999997E+02  0.45594000000E+02  0.51100000000E-03 0.  1.
         11   -1    0    0    0    0 -0.00000000000E+00 -0.00000000000E+00 -0.45593999997E+02  0.45594000000E+02  0.51100000000E-03 0. -1.
    9900012    2    1    2    0    0  0.16392630222E+02 -0.17916395941E+02 -0.32610582774E+02  0.50528859847E+02  0.29999999990E+02 0.  0.
        -12    1    1    2    0    0 -0.16392630222E+02  0.17916395941E+02  0.32610582774E+02  0.40659140153E+02  0.00000000000E+00 0.  1.
         11    1    3    3    0    0  0.42242233740E+01 -0.88107726057E+01 -0.68045234345E+01  0.11906944043E+02  0.51100000000E-03 0. -1.
        -11    1    3    3    0    0  0.24394443639E+01 -0.11449899985E+02 -0.85417732167E+00  0.11738003137E+02  0.51100000000E-03 0.  1.
         12    1    3    3    0    0  0.97289624839E+01  0.23442766497E+01 -0.24951882018E+02  0.26883912667E+02  0.00000000000E+00 0. -1.
</event>
<event>
 7    1  0.6090311E-013  0.5052888E+02  0.7816164E-02  0.1300439E+00
        -11   -1    0    0    0    0  0.00000000000E+00  0.00000000000E+00  0.45593999997E+02  0.45594000000E+02  0.51100000000E-03 0. -1.
         11   -1    0    0    0    0 -0.00000000000E+00 -0.00000000000E+00 -0.45593999997E+02  0.45594000000E+02  0.51100000000E-03 0.  1.
    9900012    2    1    2    0    0 -0.37579309003E+02  0.78156752921E+01  0.13411744990E+02  0.50528878648E+02  0.30000057140E+02 0.  0.
        -12    1    1    2    0    0  0.37579309003E+02 -0.78156752921E+01 -0.13411744990E+02  0.40659121352E+02  0.00000000000E+00 0.  1.
         11    1    3    3    0    0 -0.37610581702E-01  0.53035545426E+01  0.28607851567E+01  0.60260432555E+01  0.51100000000E-03 0. -1.
        -11    1    3    3    0    0 -0.52081608219E+01  0.82465857971E+01 -0.73065076408E+00  0.97808469600E+01  0.51100000000E-03 0.  1.
         12    1    3    3    0    0 -0.32333537599E+02 -0.57344650477E+01  0.11281610598E+02  0.34721988433E+02  0.00000000000E+00 0. -1.
</event>
<event>
 7    1  0.6090311E-013  0.5052886E+02  0.7816164E-02  0.1300439E+00
        -11   -1    0    0    0    0  0.00000000000E+00  0.00000000000E+00  0.45593999997E+02  0.45594000000E+02  0.51100000000E-03 0. -1.
         11   -1    0    0    0    0 -0.00000000000E+00 -0.00000000000E+00 -0.45593999997E+02  0.45594000000E+02  0.51100000000E-03 0.  1.
    9900012    2    1    2    0    0 -0.37652813418E+02 -0.15330789345E+02  0.63112994018E+00  0.50528858528E+02  0.29999995981E+02 0.  0.
        -12    1    1    2    0    0  0.37652813418E+02  0.15330789345E+02 -0.63112994018E+00  0.40659141472E+02  0.00000000000E+00 0.  1.
         11    1    3    3    0    0  0.13485204835E+01  0.36062345363E+01  0.12394184539E+00  0.38521158948E+01  0.51100000000E-03 0. -1.
        -11    1    3    3    0    0 -0.10921796964E+02  0.14028133666E+01 -0.39939937487E+01  0.11713476025E+02  0.51100000000E-03 0.  1.
         12    1    3    3    0    0 -0.28079536938E+02 -0.20339837248E+02  0.45011818435E+01  0.34963266608E+02  0.00000000000E+00 0. -1.
</event>
<event>
 7    1  0.6090311E-013  0.5052885E+02  0.7816164E-02  0.1300439E+00
        -11   -1    0    0    0    0  0.00000000000E+00  0.00000000000E+00  0.45593999997E+02  0.45594000000E+02  0.51100000000E-03 0.  1.
         11   -1    0    0    0    0 -0.00000000000E+00 -0.00000000000E+00 -0.45593999997E+02  0.45594000000E+02  0.51100000000E-03 0. -1.
    9900012    2    1    2    0    0  0.25590386877E+02 -0.42584735381E+01 -0.31307567294E+02  0.50528852600E+02  0.29999977963E+02 0.  0.
        -12    1    1    2    0    0 -0.25590386877E+02  0.42584735381E+01  0.31307567294E+02  0.40659147400E+02  0.00000000000E+00 0.  1.
         11    1    3    3    0    0  0.18579842854E+01  0.88371170851E+01 -0.86280851616E+01  0.12489619602E+02  0.51100000000E-03 0. -1.
        -11    1    3    3    0    0  0.40740992628E+01 -0.48092739549E+00 -0.11370456987E+02  0.12087881051E+02  0.51100000000E-03 0.  1.
        -12    1    3    3    0    0  0.19658303329E+02 -0.12614663228E+02 -0.11309025146E+02  0.25951351947E+02  0.00000000000E+00 0.  1.
</event>
<event>
 7    1  0.6090311E-013  0.5052889E+02  0.7816164E-02  0.1300439E+00
        -11   -1    0    0    0    0  0.00000000000E+00  0.00000000000E+00  0.45593999997E+02  0.45594000000E+02  0.51100000000E-03 0. -1.
         11   -1    0    0    0    0 -0.00000000000E+00 -0.00000000000E+00 -0.45593999997E+02  0.45594000000E+02  0.51100000000E-03 0.  1.
    9900012    2    1    2    0    0 -0.87937940684E+01 -0.29583489773E+02  0.26469790666E+02  0.50528886641E+02  0.30000081433E+02 0.  0.
        -12    1    1    2    0    0  0.87937940684E+01  0.29583489773E+02 -0.26469790666E+02  0.40659113359E+02  0.00000000000E+00 0.  1.
         11    1    3    3    0    0 -0.84085019329E+01 -0.64112952210E+01  0.17719666647E+02  0.20634781257E+02  0.51100000000E-03 0. -1.
        -11    1    3    3    0    0 -0.64966919404E+01 -0.42515034394E+01 -0.85744765376E+00  0.78113702002E+01  0.51100000000E-03 0.  1.
        -12    1    3    3    0    0  0.61113998049E+01 -0.18920691113E+02  0.96075716728E+01  0.22082735184E+02  0.00000000000E+00 0.  1.
</event>
<event>
 7    1  0.6090311E-013  0.5052884E+02  0.7816164E-02  0.1300439E+00
        -11   -1    0    0    0    0  0.00000000000E+00  0.00000000000E+00  0.45593999997E+02  0.45594000000E+02  0.51100000000E-03 0.  1.
         11   -1    0    0    0    0 -0.00000000000E+00 -0.00000000000E+00 -0.45593999997E+02  0.45594000000E+02  0.51100000000E-03 0. -1.
    9900012    2    1    2    0    0  0.30901743181E+02 -0.16171974913E+02 -0.20897763123E+02  0.50528843494E+02  0.29999950284E+02 0.  0.
        -12    1    1    2    0    0 -0.30901743181E+02  0.16171974913E+02  0.20897763123E+02  0.40659156506E+02  0.00000000000E+00 0.  1.
         11    1    3    3    0    0  0.26629543770E+02 -0.66283375859E+01 -0.17208311192E+02  0.32391255532E+02  0.51100000000E-03 0. -1.
        -11    1    3    3    0    0  0.20928282893E+01  0.23724190008E+01  0.29483394947E+01  0.43244662331E+01  0.51100000000E-03 0.  1.
         12    1    3    3    0    0  0.21793711218E+01 -0.11916056328E+02 -0.66377914259E+01  0.13813121729E+02  0.00000000000E+00 0. -1.
</event>
<event>
 7    1  0.6090311E-013  0.5052871E+02  0.7816164E-02  0.1300439E+00
        -11   -1    0    0    0    0  0.00000000000E+00  0.00000000000E+00  0.45593999997E+02  0.45594000000E+02  0.51100000000E-03 0.  1.
         11   -1    0    0    0    0 -0.00000000000E+00 -0.00000000000E+00 -0.45593999997E+02  0.45594000000E+02  0.51100000000E-03 0. -1.
    9900012    2    1    2    0    0  0.11723628985E+02 -0.98173925187E+01 -0.37674298942E+02  0.50528714797E+02  0.29999559093E+02 0.  0.
        -12    1    1    2    0    0 -0.11723628985E+02  0.98173925187E+01  0.37674298942E+02  0.40659285203E+02  0.00000000000E+00 0.  1.
         11    1    3    3    0    0  0.60862093074E+01  0.55728090305E+01 -0.15775672103E+02  0.17803650603E+02  0.51100000000E-03 0.  1.
        -11    1    3    3    0    0 -0.83253791324E+00 -0.19680334613E+00 -0.14676186011E+02  0.14701098157E+02  0.51100000000E-03 0. -1.
        -12    1    3    3    0    0  0.64699575912E+01 -0.15193398203E+02 -0.72224408283E+01  0.18023966037E+02  0.00000000000E+00 0.  1.
</event>
<event>
 7    1  0.6090311E-013  0.5052875E+02  0.7816164E-02  0.1300439E+00
        -11   -1    0    0    0    0  0.00000000000E+00  0.00000000000E+00  0.45593999997E+02  0.45594000000E+02  0.51100000000E-03 0. -1.
         11   -1    0    0    0    0 -0.00000000000E+00 -0.00000000000E+00 -0.45593999997E+02  0.45594000000E+02  0.51100000000E-03 0.  1.
    9900012    2    1    2    0    0  0.12286231256E+02  0.17765045592E+02  0.34447439898E+02  0.50528752112E+02  0.29999672517E+02 0.  0.
        -12    1    1    2    0    0 -0.12286231256E+02 -0.17765045592E+02 -0.34447439898E+02  0.40659247888E+02  0.00000000000E+00 0.  1.
         11    1    3    3    0    0 -0.53261556600E+01  0.10770447176E+02  0.22405036651E+02  0.25423535043E+02  0.51100000000E-03 0. -1.
        -11    1    3    3    0    0  0.10596937637E+02  0.68091651404E+01  0.12906472163E+02  0.18034323973E+02  0.51100000000E-03 0.  1.
        -12    1    3    3    0    0  0.70154492789E+01  0.18543327506E+00 -0.86406891632E+00  0.70708930961E+01  0.00000000000E+00 0.  1.
</event>
<event>
 7    1  0.6090311E-013  0.5052885E+02  0.7816164E-02  0.1300439E+00
        -11   -1    0    0    0    0  0.00000000000E+00  0.00000000000E+00  0.45593999997E+02  0.45594000000E+02  0.51100000000E-03 0.  1.
         11   -1    0    0    0    0 -0.00000000000E+00 -0.00000000000E+00 -0.45593999997E+02  0.45594000000E+02  0.51100000000E-03 0. -1.
    9900012    2    1    2    0    0 -0.58411139105E+01  0.75847872471E+01 -0.39516055153E+02  0.50528853130E+02  0.29999979574E+02 0.  0.
        -12    1    1    2    0    0  0.58411139105E+01 -0.75847872471E+01  0.39516055153E+02  0.40659146870E+02  0.00000000000E+00 0.  1.
         11    1    3    3    0    0 -0.74545798096E+00  0.56325244460E+01 -0.19355273437E+01  0.60022750350E+01  0.51100000000E-03 0. -1.
        -11    1    3    3    0    0  0.55454051694E+00  0.60784826742E+01  0.19673526645E+00  0.61068954332E+01  0.51100000000E-03 0.  1.
        -12    1    3    3    0    0 -0.56501964465E+01 -0.41262198731E+01 -0.37777263076E+02  0.38419682662E+02  0.00000000000E+00 0.  1.
</event>
<event>
 7    1  0.6090311E-013  0.5052886E+02  0.7816164E-02  0.1300439E+00
        -11   -1    0    0    0    0  0.00000000000E+00  0.00000000000E+00  0.45593999997E+02  0.45594000000E+02  0.51100000000E-03 0. -1.
         11   -1    0    0    0    0 -0.00000000000E+00 -0.00000000000E+00 -0.45593999997E+02  0.45594000000E+02  0.51100000000E-03 0.  1.
    9900012    2    1    2    0    0 -0.13898968921E+02 -0.25098150170E+02  0.28810883930E+02  0.50528861890E+02  0.30000006201E+02 0.  0.
        -12    1    1    2    0    0  0.13898968921E+02  0.25098150170E+02 -0.28810883930E+02  0.40659138110E+02  0.00000000000E+00 0.  1.
         11    1    3    3    0    0 -0.77419326760E+01 -0.16314709047E+02  0.13419995267E+02  0.22498967222E+02  0.51100000000E-03 0. -1.
        -11    1    3    3    0    0 -0.36000118409E+01 -0.14930922737E+02  0.59360754849E+01  0.16466011401E+02  0.51100000000E-03 0.  1.
        -12    1    3    3    0    0 -0.25570244041E+01  0.61474816130E+01  0.94548131782E+01  0.11563883267E+02  0.00000000000E+00 0.  1.
</event>
<event>
 7    1  0.6090311E-013  0.5052888E+02  0.7816164E-02  0.1300439E+00
        -11   -1    0    0    0    0  0.00000000000E+00  0.00000000000E+00  0.45593999997E+02  0.45594000000E+02  0.51100000000E-03 0.  1.
         11   -1    0    0    0    0 -0.00000000000E+00 -0.00000000000E+00 -0.45593999997E+02  0.45594000000E+02  0.51100000000E-03 0. -1.
    9900012    2    1    2    0    0  0.31381456624E+02 -0.19859770767E+01 -0.25776428738E+02  0.50528877982E+02  0.30000055113E+02 0.  0.
        -12    1    1    2    0    0 -0.31381456624E+02  0.19859770767E+01  0.25776428738E+02  0.40659122018E+02  0.00000000000E+00 0.  1.
         11    1    3    3    0    0  0.18199070411E+02 -0.33347243358E+01 -0.11014519854E+01  0.18534825248E+02  0.51100000000E-03 0. -1.
        -11    1    3    3    0    0  0.44912768955E+01  0.35695880211E+01  0.22119505208E-02  0.57370316320E+01  0.51100000000E-03 0.  1.
         12    1    3    3    0    0  0.86911093175E+01 -0.22208407620E+01 -0.24677188703E+02  0.26257021102E+02  0.00000000000E+00 0. -1.
</event>
<event>
 7    1  0.6090311E-013  0.5052886E+02  0.7816164E-02  0.1300439E+00
        -11   -1    0    0    0    0  0.00000000000E+00  0.00000000000E+00  0.45593999997E+02  0.45594000000E+02  0.51100000000E-03 0.  1.
         11   -1    0    0    0    0 -0.00000000000E+00 -0.00000000000E+00 -0.45593999997E+02  0.45594000000E+02  0.51100000000E-03 0. -1.
    9900012    2    1    2    0    0  0.19927329619E+02  0.27179489779E+02 -0.22745162141E+02  0.50528861652E+02  0.30000005478E+02 0.  0.
        -12    1    1    2    0    0 -0.19927329619E+02 -0.27179489779E+02  0.22745162141E+02  0.40659138348E+02  0.00000000000E+00 0.  1.
         11    1    3    3    0    0 -0.37879455995E+01  0.73712340736E+01 -0.10699938435E+02  0.13534116388E+02  0.51100000000E-03 0. -1.
        -11    1    3    3    0    0 -0.14502930507E+01  0.46741507778E+01 -0.45620485816E+01  0.66905398100E+01  0.51100000000E-03 0.  1.
         12    1    3    3    0    0  0.25165568269E+02  0.15134104928E+02 -0.74831751243E+01  0.30304205454E+02  0.00000000000E+00 0. -1.
</event>
<event>
 7    1  0.6090311E-013  0.5052887E+02  0.7816164E-02  0.1300439E+00
        -11   -1    0    0    0    0  0.00000000000E+00  0.00000000000E+00  0.45593999997E+02  0.45594000000E+02  0.51100000000E-03 0.  1.
         11   -1    0    0    0    0 -0.00000000000E+00 -0.00000000000E+00 -0.45593999997E+02  0.45594000000E+02  0.51100000000E-03 0. -1.
    9900012    2    1    2    0    0 -0.37016251379E+02 -0.10345099796E+02 -0.13264270454E+02  0.50528870317E+02  0.30000031815E+02 0.  0.
        -12    1    1    2    0    0  0.37016251379E+02  0.10345099796E+02  0.13264270454E+02  0.40659129683E+02  0.00000000000E+00 0.  1.
         11    1    3    3    0    0 -0.15711034250E+02 -0.28510199774E+01 -0.93607282503E+01  0.18509136819E+02  0.51100000000E-03 0. -1.
        -11    1    3    3    0    0 -0.24847197184E+02 -0.99588956073E+01 -0.56603908014E+01  0.27360607338E+02  0.51100000000E-03 0.  1.
        -12    1    3    3    0    0  0.35419800552E+01  0.24648157886E+01  0.17568485981E+01  0.46591261605E+01  0.00000000000E+00 0.  1.
</event>
<event>
 7    1  0.6090311E-013  0.5052886E+02  0.7816164E-02  0.1300439E+00
        -11   -1    0    0    0    0  0.00000000000E+00  0.00000000000E+00  0.45593999997E+02  0.45594000000E+02  0.51100000000E-03 0.  1.
         11   -1    0    0    0    0 -0.00000000000E+00 -0.00000000000E+00 -0.45593999997E+02  0.45594000000E+02  0.51100000000E-03 0. -1.
    9900012    2    1    2    0    0  0.10640794098E+02 -0.25835168957E+02 -0.29537825665E+02  0.50528860817E+02  0.30000002941E+02 0.  0.
        -12    1    1    2    0    0 -0.10640794098E+02  0.25835168957E+02  0.29537825665E+02  0.40659139183E+02  0.00000000000E+00 0.  1.
         11    1    3    3    0    0  0.34443127738E+01  0.34968639976E+00  0.20677397185E+01  0.40325077640E+01  0.51100000000E-03 0. -1.
        -11    1    3    3    0    0  0.45099192098E+00 -0.76874321649E+00  0.29451704315E+01  0.30770747435E+01  0.51100000000E-03 0.  1.
        -12    1    3    3    0    0  0.67454894032E+01 -0.25416112140E+02 -0.34550735815E+02  0.43419278310E+02  0.00000000000E+00 0.  1.
</event>
<event>
 7    1  0.6090311E-013  0.5052888E+02  0.7816164E-02  0.1300439E+00
        -11   -1    0    0    0    0  0.00000000000E+00  0.00000000000E+00  0.45593999997E+02  0.45594000000E+02  0.51100000000E-03 0.  1.
         11   -1    0    0    0    0 -0.00000000000E+00 -0.00000000000E+00 -0.45593999997E+02  0.45594000000E+02  0.51100000000E-03 0. -1.
    9900012    2    1    2    0    0 -0.23689771579E+02 -0.16776291681E+02 -0.28469546739E+02  0.50528876404E+02  0.30000050317E+02 0.  0.
        -12    1    1    2    0    0  0.23689771579E+02  0.16776291681E+02  0.28469546739E+02  0.40659123596E+02  0.00000000000E+00 0.  1.
         11    1    3    3    0    0 -0.12707697434E+02 -0.15035906900E+02 -0.83223999091E+01  0.21373497863E+02  0.51100000000E-03 0. -1.
        -11    1    3    3    0    0 -0.11955333099E+02 -0.25442922832E+01 -0.38581143184E+01  0.12817505962E+02  0.51100000000E-03 0.  1.
        -12    1    3    3    0    0  0.97325895336E+00  0.80390750152E+00 -0.16289032512E+02  0.16337872580E+02  0.00000000000E+00 0.  1.
</event>
<event>
 7    1  0.6090311E-013  0.5052886E+02  0.7816164E-02  0.1300439E+00
        -11   -1    0    0    0    0  0.00000000000E+00  0.00000000000E+00  0.45593999997E+02  0.45594000000E+02  0.51100000000E-03 0.  1.
         11   -1    0    0    0    0 -0.00000000000E+00 -0.00000000000E+00 -0.45593999997E+02  0.45594000000E+02  0.51100000000E-03 0. -1.
    9900012    2    1    2    0    0 -0.89759663057E+01 -0.34912290256E+02 -0.18807710043E+02  0.50528856636E+02  0.29999990229E+02 0.  0.
        -12    1    1    2    0    0  0.89759663057E+01  0.34912290256E+02  0.18807710043E+02  0.40659143364E+02  0.00000000000E+00 0.  1.
         11    1    3    3    0    0 -0.22945258429E+01 -0.26509386300E+02 -0.73217000433E+01  0.27597458264E+02  0.51100000000E-03 0. -1.
        -11    1    3    3    0    0  0.34892486232E+01 -0.57630667257E+01  0.77769160264E+00  0.67817843175E+01  0.51100000000E-03 0.  1.
        -12    1    3    3    0    0 -0.10170689086E+02 -0.26398372303E+01 -0.12263701603E+02  0.16149614054E+02  0.00000000000E+00 0.  1.
</event>
<event>
 7    1  0.6090311E-013  0.5052884E+02  0.7816164E-02  0.1300439E+00
        -11   -1    0    0    0    0  0.00000000000E+00  0.00000000000E+00  0.45593999997E+02  0.45594000000E+02  0.51100000000E-03 0.  1.
         11   -1    0    0    0    0 -0.00000000000E+00 -0.00000000000E+00 -0.45593999997E+02  0.45594000000E+02  0.51100000000E-03 0. -1.
    9900012    2    1    2    0    0  0.25206120997E+01  0.37909452276E+02 -0.14480586350E+02  0.50528838200E+02  0.29999934194E+02 0.  0.
        -12    1    1    2    0    0 -0.25206120997E+01 -0.37909452276E+02  0.14480586350E+02  0.40659161800E+02  0.00000000000E+00 0.  1.
         11    1    3    3    0    0  0.85419343093E+01  0.30472130575E+02 -0.63272332210E+01  0.32273042373E+02  0.51100000000E-03 0. -1.
        -11    1    3    3    0    0 -0.20961666693E+01  0.91251138560E+01 -0.99124626876E+01  0.13635194696E+02  0.51100000000E-03 0.  1.
        -12    1    3    3    0    0 -0.39251555403E+01 -0.16877921556E+01  0.17591095583E+01  0.46206011313E+01  0.00000000000E+00 0.  1.
</event>
<event>
 7    1  0.6090311E-013  0.5052886E+02  0.7816164E-02  0.1300439E+00
        -11   -1    0    0    0    0  0.00000000000E+00  0.00000000000E+00  0.45593999997E+02  0.45594000000E+02  0.51100000000E-03 0. -1.
         11   -1    0    0    0    0 -0.00000000000E+00 -0.00000000000E+00 -0.45593999997E+02  0.45594000000E+02  0.51100000000E-03 0.  1.
    9900012    2    1    2    0    0 -0.32588341105E+02  0.22046838824E+02 -0.10251950363E+02  0.50528861245E+02  0.30000004239E+02 0.  0.
        -12    1    1    2    0    0  0.32588341105E+02 -0.22046838824E+02  0.10251950363E+02  0.40659138755E+02  0.00000000000E+00 0.  1.
         11    1    3    3    0    0 -0.16830515036E+02  0.65649843297E+01 -0.59162654819E+01  0.19009667360E+02  0.51100000000E-03 0. -1.
        -11    1    3    3    0    0 -0.11270003458E+02  0.11006607823E+01  0.64121808808E+01  0.13013089410E+02  0.51100000000E-03 0.  1.
         12    1    3    3    0    0 -0.44878226111E+01  0.14381193712E+02 -0.10747865762E+02  0.18506104474E+02  0.00000000000E+00 0. -1.
</event>
<event>
 7    1  0.6090311E-013  0.5052885E+02  0.7816164E-02  0.1300439E+00
        -11   -1    0    0    0    0  0.00000000000E+00  0.00000000000E+00  0.45593999997E+02  0.45594000000E+02  0.51100000000E-03 0.  1.
         11   -1    0    0    0    0 -0.00000000000E+00 -0.00000000000E+00 -0.45593999997E+02  0.45594000000E+02  0.51100000000E-03 0. -1.
    9900012    2    1    2    0    0  0.82682778196E+01 -0.48193115007E+01 -0.39516784970E+02  0.50528850036E+02  0.29999970168E+02 0.  0.
        -12    1    1    2    0    0 -0.82682778196E+01  0.48193115007E+01  0.39516784970E+02  0.40659149964E+02  0.00000000000E+00 0.  1.
         11    1    3    3    0    0  0.75130487864E+01 -0.43495400354E+01 -0.42618857321E+01  0.96709912026E+01  0.51100000000E-03 0.  1.
        -11    1    3    3    0    0  0.10549815497E+02  0.12525429120E+01 -0.16386423552E+02  0.19529012978E+02  0.51100000000E-03 0. -1.
         12    1    3    3    0    0 -0.97945864643E+01 -0.17223143772E+01 -0.18868475686E+02  0.21328845855E+02  0.00000000000E+00 0. -1.
</event>
<event>
 7    1  0.6090311E-013  0.5052886E+02  0.7816164E-02  0.1300439E+00
        -11   -1    0    0    0    0  0.00000000000E+00  0.00000000000E+00  0.45593999997E+02  0.45594000000E+02  0.51100000000E-03 0. -1.
         11   -1    0    0    0    0 -0.00000000000E+00 -0.00000000000E+00 -0.45593999997E+02  0.45594000000E+02  0.51100000000E-03 0.  1.
    9900012    2    1    2    0    0  0.38134382635E+02  0.13020928011E+02  0.54212806786E+01  0.50528856017E+02  0.29999988348E+02 0.  0.
        -12    1    1    2    0    0 -0.38134382635E+02 -0.13020928011E+02 -0.54212806786E+01  0.40659143983E+02  0.00000000000E+00 0.  1.
         11    1    3    3    0    0  0.10170580683E+02  0.75072953429E+01  0.54888903060E+01  0.13781440848E+02  0.51100000000E-03 0. -1.
        -11    1    3    3    0    0  0.52470886911E+01  0.13501889642E+00 -0.10065476258E+02  0.11351827271E+02  0.51100000000E-03 0.  1.
         12    1    3    3    0    0  0.22716713262E+02  0.53786137718E+01  0.99978666305E+01  0.25395587898E+02  0.00000000000E+00 0. -1.
</event>
<event>
 7    1  0.6090311E-013  0.5052887E+02  0.7816164E-02  0.1300439E+00
        -11   -1    0    0    0    0  0.00000000000E+00  0.00000000000E+00  0.45593999997E+02  0.45594000000E+02  0.51100000000E-03 0.  1.
         11   -1    0    0    0    0 -0.00000000000E+00 -0.00000000000E+00 -0.45593999997E+02  0.45594000000E+02  0.51100000000E-03 0. -1.
    9900012    2    1    2    0    0  0.18733438371E+02  0.35938716513E+02 -0.32605935388E+01  0.50528873988E+02  0.30000042975E+02 0.  0.
        -12    1    1    2    0    0 -0.18733438371E+02 -0.35938716513E+02  0.32605935388E+01  0.40659126012E+02  0.00000000000E+00 0.  1.
         11    1    3    3    0    0  0.83306685254E+01 -0.12450127391E+01  0.23719885043E+01  0.87507956510E+01  0.51100000000E-03 0. -1.
        -11    1    3    3    0    0  0.53662022830E+01  0.35349113513E+01  0.23297148880E+01  0.68351515656E+01  0.51100000000E-03 0.  1.
         12    1    3    3    0    0  0.50365675622E+01  0.33648817901E+02 -0.79622969312E+01  0.34942926772E+02  0.00000000000E+00 0. -1.
</event>
<event>
 7    1  0.6090311E-013  0.5052886E+02  0.7816164E-02  0.1300439E+00
        -11   -1    0    0    0    0  0.00000000000E+00  0.00000000000E+00  0.45593999997E+02  0.45594000000E+02  0.51100000000E-03 0.  1.
         11   -1    0    0    0    0 -0.00000000000E+00 -0.00000000000E+00 -0.45593999997E+02  0.45594000000E+02  0.51100000000E-03 0. -1.
    9900012    2    1    2    0    0 -0.16311099663E+02  0.36361096942E+02  0.80612920172E+01  0.50528858691E+02  0.29999996476E+02 0.  0.
        -12    1    1    2    0    0  0.16311099663E+02 -0.36361096942E+02 -0.80612920172E+01  0.40659141309E+02  0.00000000000E+00 0.  1.
         11    1    3    3    0    0 -0.41644237940E+01  0.13235217501E+02 -0.29341548139E+01  0.14181772546E+02  0.51100000000E-03 0. -1.
        -11    1    3    3    0    0  0.41844001130E+01  0.11091044258E+02 -0.23226785161E+01  0.12079540669E+02  0.51100000000E-03 0.  1.
         12    1    3    3    0    0 -0.16331075982E+02  0.12034835183E+02  0.13318125347E+02  0.24267545475E+02  0.00000000000E+00 0. -1.
</event>
<event>
 7    1  0.6090311E-013  0.5052901E+02  0.7816164E-02  0.1300438E+00
        -11   -1    0    0    0    0  0.00000000000E+00  0.00000000000E+00  0.45593999997E+02  0.45594000000E+02  0.51100000000E-03 0.  1.
         11   -1    0    0    0    0 -0.00000000000E+00 -0.00000000000E+00 -0.45593999997E+02  0.45594000000E+02  0.51100000000E-03 0. -1.
    9900012    2    1    2    0    0  0.22916550226E+02  0.30263761171E+02  0.14563321887E+02  0.50529005191E+02  0.30000441775E+02 0.  0.
        -12    1    1    2    0    0 -0.22916550226E+02 -0.30263761171E+02 -0.14563321887E+02  0.40658994809E+02  0.00000000000E+00 0.  1.
         11    1    3    3    0    0  0.48398164523E+01  0.35665001772E+01 -0.35450501810E+01  0.69793357745E+01  0.51100000000E-03 0. -1.
        -11    1    3    3    0    0  0.15564938834E+02  0.44771208970E+01  0.27653047239E+01  0.16430424307E+02  0.51100000000E-03 0.  1.
        -12    1    3    3    0    0  0.25117949391E+01  0.22220140097E+02  0.15343067344E+02  0.27119245109E+02  0.00000000000E+00 0.  1.
</event>
<event>
 7    1  0.6090311E-013  0.5052885E+02  0.7816164E-02  0.1300439E+00
        -11   -1    0    0    0    0  0.00000000000E+00  0.00000000000E+00  0.45593999997E+02  0.45594000000E+02  0.51100000000E-03 0. -1.
         11   -1    0    0    0    0 -0.00000000000E+00 -0.00000000000E+00 -0.45593999997E+02  0.45594000000E+02  0.51100000000E-03 0.  1.
    9900012    2    1    2    0    0 -0.18577407450E+02 -0.28451911129E+02  0.22327897349E+02  0.50528852020E+02  0.29999976200E+02 0.  0.
        -12    1    1    2    0    0  0.18577407450E+02  0.28451911129E+02 -0.22327897349E+02  0.40659147980E+02  0.00000000000E+00 0.  1.
         11    1    3    3    0    0 -0.10687325007E+02 -0.97200231632E+01  0.79241696976E+01  0.16476960635E+02  0.51100000000E-03 0.  1.
        -11    1    3    3    0    0 -0.16190269663E+02 -0.11771384796E+02  0.96615954943E+01  0.22226937700E+02  0.51100000000E-03 0. -1.
        -12    1    3    3    0    0  0.83001872199E+01 -0.69605031696E+01  0.47421321570E+01  0.11824953685E+02  0.00000000000E+00 0.  1.
</event>
<event>
 7    1  0.6090311E-013  0.5052886E+02  0.7816164E-02  0.1300439E+00
        -11   -1    0    0    0    0  0.00000000000E+00  0.00000000000E+00  0.45593999997E+02  0.45594000000E+02  0.51100000000E-03 0.  1.
         11   -1    0    0    0    0 -0.00000000000E+00 -0.00000000000E+00 -0.45593999997E+02  0.45594000000E+02  0.51100000000E-03 0. -1.
    9900012    2    1    2    0    0  0.14502859425E+02  0.48934335348E+01 -0.37668120823E+02  0.50528856506E+02  0.29999989837E+02 0.  0.
        -12    1    1    2    0    0 -0.14502859425E+02 -0.48934335348E+01  0.37668120823E+02  0.40659143494E+02  0.00000000000E+00 0.  1.
         11    1    3    3    0    0 -0.42105384359E+01 -0.99506787550E+00 -0.35021371804E+01  0.55663056948E+01  0.51100000000E-03 0. -1.
        -11    1    3    3    0    0 -0.41949962295E+01  0.27378148958E+01 -0.11677028728E+02  0.12706164800E+02  0.51100000000E-03 0.  1.
         12    1    3    3    0    0  0.22908394091E+02  0.31506865145E+01 -0.22488954915E+02  0.32256386011E+02  0.00000000000E+00 0. -1.
</event>
<event>
 7    1  0.6090311E-013  0.5052886E+02  0.7816164E-02  0.1300439E+00
        -11   -1    0    0    0    0  0.00000000000E+00  0.00000000000E+00  0.45593999997E+02  0.45594000000E+02  0.51100000000E-03 0.  1.
         11   -1    0    0    0    0 -0.00000000000E+00 -0.00000000000E+00 -0.45593999997E+02  0.45594000000E+02  0.51100000000E-03 0. -1.
    9900012    2    1    2    0    0 -0.16938646363E+01 -0.14310395369E+01 -0.40598625999E+02  0.50528862225E+02  0.30000007220E+02 0.  0.
        -12    1    1    2    0    0  0.16938646363E+01  0.14310395369E+01  0.40598625999E+02  0.40659137775E+02  0.00000000000E+00 0.  1.
         11    1    3    3    0    0 -0.91658553538E-01 -0.30178503305E+01 -0.10717188128E+02  0.11134358694E+02  0.51100000000E-03 0. -1.
        -11    1    3    3    0    0 -0.76652690373E+01  0.16183428242E+01 -0.32020611490E+02  0.32965056398E+02  0.51100000000E-03 0.  1.
        -12    1    3    3    0    0  0.60630629546E+01 -0.31532030589E-01  0.21391736185E+01  0.64294471325E+01  0.00000000000E+00 0.  1.
</event>
<event>
 7    1  0.6090311E-013  0.5052886E+02  0.7816164E-02  0.1300439E+00
        -11   -1    0    0    0    0  0.00000000000E+00  0.00000000000E+00  0.45593999997E+02  0.45594000000E+02  0.51100000000E-03 0.  1.
         11   -1    0    0    0    0 -0.00000000000E+00 -0.00000000000E+00 -0.45593999997E+02  0.45594000000E+02  0.51100000000E-03 0. -1.
    9900012    2    1    2    0    0  0.64127433972E+01  0.14145733915E+02 -0.37575800467E+02  0.50528857773E+02  0.29999993688E+02 0.  0.
        -12    1    1    2    0    0 -0.64127433972E+01 -0.14145733915E+02  0.37575800467E+02  0.40659142227E+02  0.00000000000E+00 0.  1.
         11    1    3    3    0    0 -0.35023526313E+01  0.12622131404E+02 -0.21265762098E+02  0.24976335059E+02  0.51100000000E-03 0. -1.
        -11    1    3    3    0    0 -0.36829853353E+01  0.20359307405E+01 -0.93822380035E+01  0.10282790729E+02  0.51100000000E-03 0.  1.
         12    1    3    3    0    0  0.13598081364E+02 -0.51232822930E+00 -0.69278003657E+01  0.15269731985E+02  0.00000000000E+00 0. -1.
</event>
<event>
 7    1  0.6090311E-013  0.5052886E+02  0.7816164E-02  0.1300439E+00
        -11   -1    0    0    0    0  0.00000000000E+00  0.00000000000E+00  0.45593999997E+02  0.45594000000E+02  0.51100000000E-03 0. -1.
         11   -1    0    0    0    0 -0.00000000000E+00 -0.00000000000E+00 -0.45593999997E+02  0.45594000000E+02  0.51100000000E-03 0.  1.
    9900012    2    1    2    0    0 -0.88163150481E+01  0.26844504871E+00  0.39690882890E+02  0.50528860088E+02  0.30000000724E+02 0.  0.
        -12    1    1    2    0    0  0.88163150481E+01 -0.26844504871E+00 -0.39690882890E+02  0.40659139912E+02  0.00000000000E+00 0.  1.
         11    1    3    3    0    0 -0.86257144196E+01  0.16492153952E+01  0.31983078116E+02  0.33166853132E+02  0.51100000000E-03 0. -1.
        -11    1    3    3    0    0 -0.23410838310E+01  0.65750669481E+01  0.53379421169E+01  0.87866834005E+01  0.51100000000E-03 0.  1.
         12    1    3    3    0    0  0.21504832025E+01 -0.79558372946E+01  0.23698626574E+01  0.85753235553E+01  0.00000000000E+00 0. -1.
</event>
<event>
 7    1  0.6090311E-013  0.5052886E+02  0.7816164E-02  0.1300439E+00
        -11   -1    0    0    0    0  0.00000000000E+00  0.00000000000E+00  0.45593999997E+02  0.45594000000E+02  0.51100000000E-03 0. -1.
         11   -1    0    0    0    0 -0.00000000000E+00 -0.00000000000E+00 -0.45593999997E+02  0.45594000000E+02  0.51100000000E-03 0.  1.
    9900012    2    1    2    0    0 -0.12676297884E+02  0.38596918842E+02 -0.16598018475E+01  0.50528860630E+02  0.30000002371E+02 0.  0.
        -12    1    1    2    0    0  0.12676297884E+02 -0.38596918842E+02  0.16598018475E+01  0.40659139370E+02  0.00000000000E+00 0.  1.
         11    1    3    3    0    0 -0.19215744559E+01  0.16666025723E+02  0.86635935144E+01  0.18881385400E+02  0.51100000000E-03 0. -1.
        -11    1    3    3    0    0 -0.65831204143E+01 -0.16205315456E+00  0.67235387547E+00  0.66193500897E+01  0.51100000000E-03 0.  1.
        -12    1    3    3    0    0 -0.41716030137E+01  0.22092946274E+02 -0.10995749237E+02  0.25028125140E+02  0.00000000000E+00 0.  1.
</event>
<event>
 7    1  0.6090311E-013  0.5052888E+02  0.7816164E-02  0.1300439E+00
        -11   -1    0    0    0    0  0.00000000000E+00  0.00000000000E+00  0.45593999997E+02  0.45594000000E+02  0.51100000000E-03 0.  1.
         11   -1    0    0    0    0 -0.00000000000E+00 -0.00000000000E+00 -0.45593999997E+02  0.45594000000E+02  0.51100000000E-03 0. -1.
    9900012    2    1    2    0    0 -0.66702491081E+01 -0.33943136238E+02 -0.21366689645E+02  0.50528878671E+02  0.30000057209E+02 0.  0.
        -12    1    1    2    0    0  0.66702491081E+01  0.33943136238E+02  0.21366689645E+02  0.40659121329E+02  0.00000000000E+00 0.  1.
         11    1    3    3    0    0  0.52367443817E+01 -0.16075389682E+02 -0.67061248018E+01  0.18188286211E+02  0.51100000000E-03 0. -1.
        -11    1    3    3    0    0  0.18761537741E+01  0.31650940142E+01 -0.19468947893E+01  0.41627121789E+01  0.51100000000E-03 0.  1.
         12    1    3    3    0    0 -0.13783147264E+02 -0.21032840570E+02 -0.12713670054E+02  0.28177880282E+02  0.00000000000E+00 0. -1.
</event>
<event>
 7    1  0.6090311E-013  0.5052885E+02  0.7816164E-02  0.1300439E+00
        -11   -1    0    0    0    0  0.00000000000E+00  0.00000000000E+00  0.45593999997E+02  0.45594000000E+02  0.51100000000E-03 0.  1.
         11   -1    0    0    0    0 -0.00000000000E+00 -0.00000000000E+00 -0.45593999997E+02  0.45594000000E+02  0.51100000000E-03 0. -1.
    9900012    2    1    2    0    0 -0.16594688329E+01  0.62190026912E+01 -0.40146435346E+02  0.50528854630E+02  0.29999984133E+02 0.  0.
        -12    1    1    2    0    0  0.16594688329E+01 -0.62190026912E+01  0.40146435346E+02  0.40659145370E+02  0.00000000000E+00 0.  1.
         11    1    3    3    0    0 -0.45883301387E+01 -0.32834505591E+01 -0.74923464421E+01  0.93791831470E+01  0.51100000000E-03 0. -1.
        -11    1    3    3    0    0  0.79074594944E+01  0.27406220656E+01 -0.10327231734E+01  0.84324043058E+01  0.51100000000E-03 0.  1.
         12    1    3    3    0    0 -0.49785981887E+01  0.67618311847E+01 -0.31621365730E+02  0.32717267177E+02  0.00000000000E+00 0. -1.
</event>
<event>
 7    1  0.6090311E-013  0.5052886E+02  0.7816164E-02  0.1300439E+00
        -11   -1    0    0    0    0  0.00000000000E+00  0.00000000000E+00  0.45593999997E+02  0.45594000000E+02  0.51100000000E-03 0.  1.
         11   -1    0    0    0    0 -0.00000000000E+00 -0.00000000000E+00 -0.45593999997E+02  0.45594000000E+02  0.51100000000E-03 0. -1.
    9900012    2    1    2    0    0 -0.14778152232E+01 -0.33987424029E+02 -0.22267400691E+02  0.50528855107E+02  0.29999985582E+02 0.  0.
        -12    1    1    2    0    0  0.14778152232E+01  0.33987424029E+02  0.22267400691E+02  0.40659144893E+02  0.00000000000E+00 0.  1.
         11    1    3    3    0    0 -0.52292125003E+01 -0.95415981301E+01 -0.35037282716E+01  0.11430786076E+02  0.51100000000E-03 0. -1.
        -11    1    3    3    0    0 -0.44701536349E+01 -0.10906306516E+01  0.35151487171E+01  0.57903384618E+01  0.51100000000E-03 0.  1.
        -12    1    3    3    0    0  0.82215509120E+01 -0.23355195247E+02 -0.22278821136E+02  0.33307730569E+02  0.00000000000E+00 0.  1.
</event>
<event>
 7    1  0.6090311E-013  0.5052888E+02  0.7816164E-02  0.1300439E+00
        -11   -1    0    0    0    0  0.00000000000E+00  0.00000000000E+00  0.45593999997E+02  0.45594000000E+02  0.51100000000E-03 0.  1.
         11   -1    0    0    0    0 -0.00000000000E+00 -0.00000000000E+00 -0.45593999997E+02  0.45594000000E+02  0.51100000000E-03 0. -1.
    9900012    2    1    2    0    0 -0.11836979262E+02  0.38795550844E+02  0.28205428252E+01  0.50528876729E+02  0.30000051305E+02 0.  0.
        -12    1    1    2    0    0  0.11836979262E+02 -0.38795550844E+02 -0.28205428252E+01  0.40659123271E+02  0.00000000000E+00 0.  1.
         11    1    3    3    0    0  0.23742365770E+01 -0.39426274808E+01  0.12701813550E+01  0.47743765784E+01  0.51100000000E-03 0.  1.
        -11    1    3    3    0    0  0.17433288817E+00  0.94375003942E+01  0.77982205978E+00  0.94712685714E+01  0.51100000000E-03 0. -1.
        -12    1    3    3    0    0 -0.14385548727E+02  0.33300677931E+02  0.77053941042E+00  0.36283231579E+02  0.00000000000E+00 0.  1.
</event>
<event>
 7    1  0.6090311E-013  0.5052887E+02  0.7816164E-02  0.1300439E+00
        -11   -1    0    0    0    0  0.00000000000E+00  0.00000000000E+00  0.45593999997E+02  0.45594000000E+02  0.51100000000E-03 0.  1.
         11   -1    0    0    0    0 -0.00000000000E+00 -0.00000000000E+00 -0.45593999997E+02  0.45594000000E+02  0.51100000000E-03 0. -1.
    9900012    2    1    2    0    0  0.15871229215E+02 -0.33629424007E+02 -0.16441748167E+02  0.50528866233E+02  0.30000019403E+02 0.  0.
        -12    1    1    2    0    0 -0.15871229215E+02  0.33629424007E+02  0.16441748167E+02  0.40659133767E+02  0.00000000000E+00 0.  1.
         11    1    3    3    0    0 -0.43655296676E+01 -0.13827867833E+01 -0.84593744672E+01  0.96193017005E+01  0.51100000000E-03 0. -1.
        -11    1    3    3    0    0  0.34174827760E+01  0.35781077946E+00 -0.70085951043E+00  0.35069105197E+01  0.51100000000E-03 0.  1.
         12    1    3    3    0    0  0.16819276106E+02 -0.32604448003E+02 -0.72815141898E+01  0.37402654013E+02  0.00000000000E+00 0. -1.
</event>
<event>
 7    1  0.6090311E-013  0.5052886E+02  0.7816164E-02  0.1300439E+00
        -11   -1    0    0    0    0  0.00000000000E+00  0.00000000000E+00  0.45593999997E+02  0.45594000000E+02  0.51100000000E-03 0. -1.
         11   -1    0    0    0    0 -0.00000000000E+00 -0.00000000000E+00 -0.45593999997E+02  0.45594000000E+02  0.51100000000E-03 0.  1.
    9900012    2    1    2    0    0 -0.34445891499E+02 -0.16758953487E+02  0.13630244510E+02  0.50528861685E+02  0.30000005578E+02 0.  0.
        -12    1    1    2    0    0  0.34445891499E+02  0.16758953487E+02 -0.13630244510E+02  0.40659138315E+02  0.00000000000E+00 0.  1.
         11    1    3    3    0    0 -0.14581503036E+02 -0.12161035757E+02 -0.24588176666E+01  0.19145673298E+02  0.51100000000E-03 0. -1.
        -11    1    3    3    0    0 -0.14585630360E+02 -0.10266450527E+02  0.63358927039E+01  0.18928395496E+02  0.51100000000E-03 0.  1.
        -12    1    3    3    0    0 -0.52787581029E+01  0.56685327980E+01  0.97531694727E+01  0.12454792891E+02  0.00000000000E+00 0.  1.
</event>
<event>
 7    1  0.6090311E-013  0.5052881E+02  0.7816164E-02  0.1300439E+00
        -11   -1    0    0    0    0  0.00000000000E+00  0.00000000000E+00  0.45593999997E+02  0.45594000000E+02  0.51100000000E-03 0.  1.
         11   -1    0    0    0    0 -0.00000000000E+00 -0.00000000000E+00 -0.45593999997E+02  0.45594000000E+02  0.51100000000E-03 0. -1.
    9900012    2    1    2    0    0 -0.25708956471E+02 -0.31166342903E+02  0.45692515619E+01  0.50528813675E+02  0.29999859647E+02 0.  0.
        -12    1    1    2    0    0  0.25708956471E+02  0.31166342903E+02 -0.45692515619E+01  0.40659186325E+02  0.00000000000E+00 0.  1.
         11    1    3    3    0    0 -0.15758234633E+02 -0.17829111559E+02  0.47060201133E+01  0.24255840602E+02  0.51100000000E-03 0. -1.
        -11    1    3    3    0    0 -0.10016019422E+02 -0.84886411954E+01  0.90078395044E+01  0.15922275189E+02  0.51100000000E-03 0.  1.
        -12    1    3    3    0    0  0.65297583775E-01 -0.48485901485E+01 -0.91446080557E+01  0.10350697884E+02  0.00000000000E+00 0.  1.
</event>
<event>
 7    1  0.6090311E-013  0.5052887E+02  0.7816164E-02  0.1300439E+00
        -11   -1    0    0    0    0  0.00000000000E+00  0.00000000000E+00  0.45593999997E+02  0.45594000000E+02  0.51100000000E-03 0.  1.
         11   -1    0    0    0    0 -0.00000000000E+00 -0.00000000000E+00 -0.45593999997E+02  0.45594000000E+02  0.51100000000E-03 0. -1.
    9900012    2    1    2    0    0 -0.73661182230E+01 -0.12481588977E+02 -0.37988351163E+02  0.50528873286E+02  0.30000040841E+02 0.  0.
        -12    1    1    2    0    0  0.73661182230E+01  0.12481588977E+02  0.37988351163E+02  0.40659126714E+02  0.00000000000E+00 0.  1.
         11    1    3    3    0    0 -0.42005404306E+01  0.66802400929E+01 -0.13239363594E+02  0.15412686211E+02  0.51100000000E-03 0.  1.
        -11    1    3    3    0    0 -0.24850523981E+01  0.57050322937E+00 -0.10402072863E+02  0.10709999042E+02  0.51100000000E-03 0. -1.
        -12    1    3    3    0    0 -0.68052539441E+00 -0.19732332299E+02 -0.14346914706E+02  0.24406188034E+02  0.00000000000E+00 0.  1.
</event>
<event>
 7    1  0.6090311E-013  0.5052886E+02  0.7816164E-02  0.1300439E+00
        -11   -1    0    0    0    0  0.00000000000E+00  0.00000000000E+00  0.45593999997E+02  0.45594000000E+02  0.51100000000E-03 0. -1.
         11   -1    0    0    0    0 -0.00000000000E+00 -0.00000000000E+00 -0.45593999997E+02  0.45594000000E+02  0.51100000000E-03 0.  1.
    9900012    2    1    2    0    0 -0.96649309270E+01 -0.27774664763E+02  0.28077086327E+02  0.50528859956E+02  0.30000000321E+02 0.  0.
        -12    1    1    2    0    0  0.96649309270E+01  0.27774664763E+02 -0.28077086327E+02  0.40659140044E+02  0.00000000000E+00 0.  1.
         11    1    3    3    0    0  0.19381651754E+01 -0.76694186500E+00  0.31891237616E+01  0.38098811923E+01  0.51100000000E-03 0. -1.
        -11    1    3    3    0    0  0.75075997513E+01 -0.14844696414E+01  0.48125950228E+01  0.90403968528E+01  0.51100000000E-03 0.  1.
         12    1    3    3    0    0 -0.19110695854E+02 -0.25523253256E+02  0.20075367543E+02  0.37678581911E+02  0.00000000000E+00 0. -1.
</event>
<event>
 7    1  0.6090311E-013  0.5052886E+02  0.7816164E-02  0.1300439E+00
        -11   -1    0    0    0    0  0.00000000000E+00  0.00000000000E+00  0.45593999997E+02  0.45594000000E+02  0.51100000000E-03 0. -1.
         11   -1    0    0    0    0 -0.00000000000E+00 -0.00000000000E+00 -0.45593999997E+02  0.45594000000E+02  0.51100000000E-03 0.  1.
    9900012    2    1    2    0    0 -0.44678239881E+01 -0.39330500836E+02  0.92906308358E+01  0.50528861193E+02  0.30000004083E+02 0.  0.
        -12    1    1    2    0    0  0.44678239881E+01  0.39330500836E+02 -0.92906308358E+01  0.40659138807E+02  0.00000000000E+00 0.  1.
         11    1    3    3    0    0  0.22348379844E+01 -0.78551948766E+01  0.34836838486E+01  0.88788873618E+01  0.51100000000E-03 0. -1.
        -11    1    3    3    0    0 -0.64089863926E+01 -0.16448362608E+02  0.15726328907E+02  0.23641936473E+02  0.51100000000E-03 0.  1.
        -12    1    3    3    0    0 -0.29367557998E+00 -0.15026943351E+02 -0.99193819196E+01  0.18008037358E+02  0.00000000000E+00 0.  1.
</event>
<event>
 7    1  0.6090311E-013  0.5052885E+02  0.7816164E-02  0.1300439E+00
        -11   -1    0    0    0    0  0.00000000000E+00  0.00000000000E+00  0.45593999997E+02  0.45594000000E+02  0.51100000000E-03 0. -1.
         11   -1    0    0    0    0 -0.00000000000E+00 -0.00000000000E+00 -0.45593999997E+02  0.45594000000E+02  0.51100000000E-03 0.  1.
    9900012    2    1    2    0    0 -0.59694767353E-02  0.39691745870E+02  0.88165752689E+01  0.50528846968E+02  0.29999960844E+02 0.  0.
        -12    1    1    2    0    0  0.59694767353E-02 -0.39691745870E+02 -0.88165752689E+01  0.40659153032E+02  0.00000000000E+00 0.  1.
         11    1    3    3    0    0 -0.11697388332E+02  0.20758944514E+02  0.31411928716E+01  0.24033929434E+02  0.51100000000E-03 0. -1.
        -11    1    3    3    0    0 -0.10134929658E+01  0.10622099461E+02  0.29495094120E+01  0.11070491000E+02  0.51100000000E-03 0.  1.
        -12    1    3    3    0    0  0.12704911821E+02  0.83107018940E+01  0.27258729852E+01  0.15424426533E+02  0.00000000000E+00 0.  1.
</event>
<event>
 7    1  0.6090311E-013  0.5052882E+02  0.7816164E-02  0.1300439E+00
        -11   -1    0    0    0    0  0.00000000000E+00  0.00000000000E+00  0.45593999997E+02  0.45594000000E+02  0.51100000000E-03 0.  1.
         11   -1    0    0    0    0 -0.00000000000E+00 -0.00000000000E+00 -0.45593999997E+02  0.45594000000E+02  0.51100000000E-03 0. -1.
    9900012    2    1    2    0    0  0.34471763668E+02  0.10930095344E+02  0.18584916755E+02  0.50528823847E+02  0.29999890565E+02 0.  0.
        -12    1    1    2    0    0 -0.34471763668E+02 -0.10930095344E+02 -0.18584916755E+02  0.40659176153E+02  0.00000000000E+00 0.  1.
         11    1    3    3    0    0  0.15667380760E+02  0.15786885468E+01  0.21425256392E+02  0.26589484559E+02  0.51100000000E-03 0.  1.
        -11    1    3    3    0    0  0.15633791058E+02  0.60725178339E+01  0.24550093340E+01  0.16950456241E+02  0.51100000000E-03 0. -1.
        -12    1    3    3    0    0  0.31705918511E+01  0.32788889633E+01 -0.52953489708E+01  0.69888830469E+01  0.00000000000E+00 0.  1.
</event>
<event>
 7    1  0.6090311E-013  0.5052886E+02  0.7816164E-02  0.1300439E+00
        -11   -1    0    0    0    0  0.00000000000E+00  0.00000000000E+00  0.45593999997E+02  0.45594000000E+02  0.51100000000E-03 0.  1.
         11   -1    0    0    0    0 -0.00000000000E+00 -0.00000000000E+00 -0.45593999997E+02  0.45594000000E+02  0.51100000000E-03 0. -1.
    9900012    2    1    2    0    0  0.31989834976E+02 -0.25091768472E+02  0.46846406065E+00  0.50528857788E+02  0.29999993732E+02 0.  0.
        -12    1    1    2    0    0 -0.31989834976E+02  0.25091768472E+02 -0.46846406065E+00  0.40659142212E+02  0.00000000000E+00 0.  1.
         11    1    3    3    0    0  0.50532510859E+01  0.15221350080E+01  0.34099400435E+00  0.52885270815E+01  0.51100000000E-03 0. -1.
        -11    1    3    3    0    0  0.14076903010E+02  0.15438829207E+01 -0.15108443160E+01  0.14241679102E+02  0.51100000000E-03 0.  1.
         12    1    3    3    0    0  0.12859680880E+02 -0.28157786400E+02  0.16383143723E+01  0.30998651604E+02  0.00000000000E+00 0. -1.
</event>
<event>
 7    1  0.6090311E-013  0.5052885E+02  0.7816164E-02  0.1300439E+00
        -11   -1    0    0    0    0  0.00000000000E+00  0.00000000000E+00  0.45593999997E+02  0.45594000000E+02  0.51100000000E-03 0. -1.
         11   -1    0    0    0    0 -0.00000000000E+00 -0.00000000000E+00 -0.45593999997E+02  0.45594000000E+02  0.51100000000E-03 0.  1.
    9900012    2    1    2    0    0 -0.51700980375E+01  0.20737735387E+02  0.34588772151E+02  0.50528846767E+02  0.29999960234E+02 0.  0.
        -12    1    1    2    0    0  0.51700980375E+01 -0.20737735387E+02 -0.34588772151E+02  0.40659153233E+02  0.00000000000E+00 0.  1.
         11    1    3    3    0    0  0.52437565350E+00 -0.68525108796E+01  0.37553408514E+01  0.78316320363E+01  0.51100000000E-03 0. -1.
        -11    1    3    3    0    0 -0.76515482803E+01  0.16070385795E+02  0.19837820457E+02  0.26652253402E+02  0.51100000000E-03 0.  1.
        -12    1    3    3    0    0  0.19570745893E+01  0.11519860472E+02  0.10995610843E+02  0.16044961329E+02  0.00000000000E+00 0.  1.
</event>
<event>
 7    1  0.6090311E-013  0.5052886E+02  0.7816164E-02  0.1300439E+00
        -11   -1    0    0    0    0  0.00000000000E+00  0.00000000000E+00  0.45593999997E+02  0.45594000000E+02  0.51100000000E-03 0.  1.
         11   -1    0    0    0    0 -0.00000000000E+00 -0.00000000000E+00 -0.45593999997E+02  0.45594000000E+02  0.51100000000E-03 0. -1.
    9900012    2    1    2    0    0  0.26289144445E+02 -0.30685538656E+02  0.45215648229E+01  0.50528856542E+02  0.29999989946E+02 0.  0.
        -12    1    1    2    0    0 -0.26289144445E+02  0.30685538656E+02 -0.45215648229E+01  0.40659143458E+02  0.00000000000E+00 0.  1.
         11    1    3    3    0    0 -0.13897572118E+01 -0.14101775639E+02 -0.22748532436E+01  0.14351531585E+02  0.51100000000E-03 0. -1.
        -11    1    3    3    0    0  0.11582699399E+01  0.71462193436E+00  0.41914092295E+01  0.44068339375E+01  0.51100000000E-03 0.  1.
        -12    1    3    3    0    0  0.26520631717E+02 -0.17298384951E+02  0.26050088371E+01  0.31770491020E+02  0.00000000000E+00 0.  1.
</event>
<event>
 7    1  0.6090311E-013  0.5052883E+02  0.7816164E-02  0.1300439E+00
        -11   -1    0    0    0    0  0.00000000000E+00  0.00000000000E+00  0.45593999997E+02  0.45594000000E+02  0.51100000000E-03 0.  1.
         11   -1    0    0    0    0 -0.00000000000E+00 -0.00000000000E+00 -0.45593999997E+02  0.45594000000E+02  0.51100000000E-03 0. -1.
    9900012    2    1    2    0    0 -0.16219800422E+02  0.34214619675E+02  0.14813714142E+02  0.50528828195E+02  0.29999903781E+02 0.  0.
        -12    1    1    2    0    0  0.16219800422E+02 -0.34214619675E+02 -0.14813714142E+02  0.40659171805E+02  0.00000000000E+00 0.  1.
         11    1    3    3    0    0  0.48753239509E+01  0.29702864129E+01 -0.24300029948E+01  0.62045386466E+01  0.51100000000E-03 0. -1.
        -11    1    3    3    0    0 -0.35373542107E+01  0.17483386579E+02  0.11717996780E+02  0.21342285020E+02  0.51100000000E-03 0.  1.
        -12    1    3    3    0    0 -0.17557770162E+02  0.13760946683E+02  0.55257203566E+01  0.22982004528E+02  0.00000000000E+00 0.  1.
</event>
<event>
 7    1  0.6090311E-013  0.5052886E+02  0.7816164E-02  0.1300439E+00
        -11   -1    0    0    0    0  0.00000000000E+00  0.00000000000E+00  0.45593999997E+02  0.45594000000E+02  0.51100000000E-03 0. -1.
         11   -1    0    0    0    0 -0.00000000000E+00 -0.00000000000E+00 -0.45593999997E+02  0.45594000000E+02  0.51100000000E-03 0.  1.
    9900012    2    1    2    0    0  0.30451661173E+02 -0.23127091292E+02  0.13820269424E+02  0.50528857525E+02  0.29999992933E+02 0.  0.
        -12    1    1    2    0    0 -0.30451661173E+02  0.23127091292E+02 -0.13820269424E+02  0.40659142475E+02  0.00000000000E+00 0.  1.
         11    1    3    3    0    0  0.10799439933E+02 -0.10211488699E+02  0.19189905881E+01  0.14986157928E+02  0.51100000000E-03 0. -1.
        -11    1    3    3    0    0  0.17712331911E+02 -0.19643398237E+02  0.10102713119E+02  0.28313505764E+02  0.51100000000E-03 0.  1.
        -12    1    3    3    0    0  0.19398893293E+01  0.67277956437E+01  0.17985657166E+01  0.72291938327E+01  0.00000000000E+00 0.  1.
</event>
<event>
 7    1  0.6090311E-013  0.5052886E+02  0.7816164E-02  0.1300439E+00
        -11   -1    0    0    0    0  0.00000000000E+00  0.00000000000E+00  0.45593999997E+02  0.45594000000E+02  0.51100000000E-03 0.  1.
         11   -1    0    0    0    0 -0.00000000000E+00 -0.00000000000E+00 -0.45593999997E+02  0.45594000000E+02  0.51100000000E-03 0. -1.
    9900012    2    1    2    0    0  0.87444585726E+01  0.12527104379E+02 -0.37679853847E+02  0.50528864670E+02  0.30000014650E+02 0.  0.
        -12    1    1    2    0    0 -0.87444585726E+01 -0.12527104379E+02  0.37679853847E+02  0.40659135330E+02  0.00000000000E+00 0.  1.
         11    1    3    3    0    0  0.19394740258E+01 -0.43445167046E+01 -0.23159894851E+02  0.23643542769E+02  0.51100000000E-03 0. -1.
        -11    1    3    3    0    0  0.11097054983E+01 -0.23193990426E+01 -0.21656284447E+01  0.33616967492E+01  0.51100000000E-03 0.  1.
        -12    1    3    3    0    0  0.56952790485E+01  0.19191020126E+02 -0.12354330552E+02  0.23523625152E+02  0.00000000000E+00 0.  1.
</event>
<event>
 7    1  0.6090311E-013  0.5052886E+02  0.7816164E-02  0.1300439E+00
        -11   -1    0    0    0    0  0.00000000000E+00  0.00000000000E+00  0.45593999997E+02  0.45594000000E+02  0.51100000000E-03 0. -1.
         11   -1    0    0    0    0 -0.00000000000E+00 -0.00000000000E+00 -0.45593999997E+02  0.45594000000E+02  0.51100000000E-03 0.  1.
    9900012    2    1    2    0    0  0.27283582054E+02  0.16507307836E+02  0.25224596145E+02  0.50528864343E+02  0.30000013658E+02 0.  0.
        -12    1    1    2    0    0 -0.27283582054E+02 -0.16507307836E+02 -0.25224596145E+02  0.40659135657E+02  0.00000000000E+00 0.  1.
         11    1    3    3    0    0  0.36669982483E+01 -0.51528587436E+00  0.76777115576E+01  0.85240630399E+01  0.51100000000E-03 0. -1.
        -11    1    3    3    0    0 -0.10602575122E+01  0.23519511934E+01 -0.49165780581E+01  0.55523472938E+01  0.51100000000E-03 0.  1.
         12    1    3    3    0    0  0.24676841318E+02  0.14670642517E+02  0.22463462646E+02  0.36452454009E+02  0.00000000000E+00 0. -1.
</event>
<event>
 7    1  0.6090311E-013  0.5052886E+02  0.7816164E-02  0.1300439E+00
        -11   -1    0    0    0    0  0.00000000000E+00  0.00000000000E+00  0.45593999997E+02  0.45594000000E+02  0.51100000000E-03 0.  1.
         11   -1    0    0    0    0 -0.00000000000E+00 -0.00000000000E+00 -0.45593999997E+02  0.45594000000E+02  0.51100000000E-03 0. -1.
    9900012    2    1    2    0    0  0.45610574114E+01  0.83752064128E+01 -0.39524906428E+02  0.50528861355E+02  0.30000004576E+02 0.  0.
        -12    1    1    2    0    0 -0.45610574114E+01 -0.83752064128E+01  0.39524906428E+02  0.40659138645E+02  0.00000000000E+00 0.  1.
         11    1    3    3    0    0  0.25668917655E+01  0.37212858813E+01 -0.13447917042E+02  0.14187437224E+02  0.51100000000E-03 0. -1.
        -11    1    3    3    0    0  0.10151107312E+02  0.28130293842E+01 -0.25919135094E+02  0.27977842630E+02  0.51100000000E-03 0.  1.
        -12    1    3    3    0    0 -0.81569416658E+01  0.18408911473E+01 -0.15785429240E+00  0.83635815016E+01  0.00000000000E+00 0.  1.
</event>
<event>
 7    1  0.6090311E-013  0.5052886E+02  0.7816164E-02  0.1300439E+00
        -11   -1    0    0    0    0  0.00000000000E+00  0.00000000000E+00  0.45593999997E+02  0.45594000000E+02  0.51100000000E-03 0.  1.
         11   -1    0    0    0    0 -0.00000000000E+00 -0.00000000000E+00 -0.45593999997E+02  0.45594000000E+02  0.51100000000E-03 0. -1.
    9900012    2    1    2    0    0 -0.27737375279E+02  0.24433243712E+01 -0.29628267730E+02  0.50528855025E+02  0.29999985335E+02 0.  0.
        -12    1    1    2    0    0  0.27737375279E+02 -0.24433243712E+01  0.29628267730E+02  0.40659144975E+02  0.00000000000E+00 0.  1.
         11    1    3    3    0    0 -0.63889491640E+00  0.31748577234E+01  0.42680832411E+00  0.32665079037E+01  0.51100000000E-03 0. -1.
        -11    1    3    3    0    0  0.39262029026E+01  0.22748832292E+01 -0.75804203979E+01  0.88347573033E+01  0.51100000000E-03 0.  1.
         12    1    3    3    0    0 -0.31024683265E+02 -0.30064165814E+01 -0.22474655657E+02  0.38427589818E+02  0.00000000000E+00 0. -1.
</event>
<event>
 7    1  0.6090311E-013  0.5052887E+02  0.7816164E-02  0.1300439E+00
        -11   -1    0    0    0    0  0.00000000000E+00  0.00000000000E+00  0.45593999997E+02  0.45594000000E+02  0.51100000000E-03 0.  1.
         11   -1    0    0    0    0 -0.00000000000E+00 -0.00000000000E+00 -0.45593999997E+02  0.45594000000E+02  0.51100000000E-03 0. -1.
    9900012    2    1    2    0    0 -0.25325017470E+02 -0.31779973060E+02 -0.13571272809E+01  0.50528868283E+02  0.30000025632E+02 0.  0.
        -12    1    1    2    0    0  0.25325017470E+02  0.31779973060E+02  0.13571272809E+01  0.40659131717E+02  0.00000000000E+00 0.  1.
         11    1    3    3    0    0 -0.16329952931E+02 -0.77678144321E+01 -0.12363640553E+01  0.18125531720E+02  0.51100000000E-03 0. -1.
        -11    1    3    3    0    0 -0.13079467659E+02 -0.77961542643E+01  0.26418962936E+01  0.15454193988E+02  0.51100000000E-03 0.  1.
         12    1    3    3    0    0  0.40844031204E+01 -0.16216004364E+02 -0.27626595191E+01  0.16949142574E+02  0.00000000000E+00 0. -1.
</event>
<event>
 7    1  0.6090311E-013  0.5052886E+02  0.7816164E-02  0.1300439E+00
        -11   -1    0    0    0    0  0.00000000000E+00  0.00000000000E+00  0.45593999997E+02  0.45594000000E+02  0.51100000000E-03 0.  1.
         11   -1    0    0    0    0 -0.00000000000E+00 -0.00000000000E+00 -0.45593999997E+02  0.45594000000E+02  0.51100000000E-03 0. -1.
    9900012    2    1    2    0    0 -0.33151156392E+02 -0.18624714987E+02 -0.14397443444E+02  0.50528861345E+02  0.30000004543E+02 0.  0.
        -12    1    1    2    0    0  0.33151156392E+02  0.18624714987E+02  0.14397443444E+02  0.40659138655E+02  0.00000000000E+00 0.  1.
         11    1    3    3    0    0 -0.87783851315E+01  0.11893294259E+01 -0.27203493776E+01  0.92668684569E+01  0.51100000000E-03 0. -1.
        -11    1    3    3    0    0  0.13430461496E+01 -0.91954369137E+01  0.30525588990E+01  0.97815105729E+01  0.51100000000E-03 0.  1.
         12    1    3    3    0    0 -0.25715817411E+02 -0.10618607499E+02 -0.14729652965E+02  0.31480482315E+02  0.00000000000E+00 0. -1.
</event>
<event>
 7    1  0.6090311E-013  0.5052885E+02  0.7816164E-02  0.1300439E+00
        -11   -1    0    0    0    0  0.00000000000E+00  0.00000000000E+00  0.45593999997E+02  0.45594000000E+02  0.51100000000E-03 0. -1.
         11   -1    0    0    0    0 -0.00000000000E+00 -0.00000000000E+00 -0.45593999997E+02  0.45594000000E+02  0.51100000000E-03 0.  1.
    9900012    2    1    2    0    0  0.17615755485E+02 -0.84725428381E+01  0.35652035312E+02  0.50528850411E+02  0.29999971308E+02 0.  0.
        -12    1    1    2    0    0 -0.17615755485E+02  0.84725428381E+01 -0.35652035312E+02  0.40659149589E+02  0.00000000000E+00 0.  1.
         11    1    3    3    0    0  0.13193040707E+02 -0.37133547987E+01  0.19957444192E+02  0.24210429693E+02  0.51100000000E-03 0. -1.
        -11    1    3    3    0    0  0.53590122506E+01 -0.95717263792E+01  0.17859092866E+02  0.20959106766E+02  0.51100000000E-03 0.  1.
        -12    1    3    3    0    0 -0.93629747260E+00  0.48125383398E+01 -0.21645017459E+01  0.53593139521E+01  0.00000000000E+00 0.  1.
</event>
<event>
 7    1  0.6090311E-013  0.5052886E+02  0.7816164E-02  0.1300439E+00
        -11   -1    0    0    0    0  0.00000000000E+00  0.00000000000E+00  0.45593999997E+02  0.45594000000E+02  0.51100000000E-03 0.  1.
         11   -1    0    0    0    0 -0.00000000000E+00 -0.00000000000E+00 -0.45593999997E+02  0.45594000000E+02  0.51100000000E-03 0. -1.
    9900012    2    1    2    0    0 -0.31581997860E+02 -0.21135922313E+02 -0.14457367523E+02  0.50528864784E+02  0.30000014998E+02 0.  0.
        -12    1    1    2    0    0  0.31581997860E+02  0.21135922313E+02  0.14457367523E+02  0.40659135216E+02  0.00000000000E+00 0.  1.
         11    1    3    3    0    0 -0.77458966828E+01  0.91214243611E+00 -0.22369176739E+01  0.81138597588E+01  0.51100000000E-03 0. -1.
        -11    1    3    3    0    0 -0.18501850032E+02 -0.14092670266E+02 -0.19526937078E+02  0.30368126082E+02  0.51100000000E-03 0.  1.
        -12    1    3    3    0    0 -0.53342511444E+01 -0.79553944831E+01  0.73064872287E+01  0.12046878943E+02  0.00000000000E+00 0.  1.
</event>
<event>
 7    1  0.6090311E-013  0.5052887E+02  0.7816164E-02  0.1300439E+00
        -11   -1    0    0    0    0  0.00000000000E+00  0.00000000000E+00  0.45593999997E+02  0.45594000000E+02  0.51100000000E-03 0. -1.
         11   -1    0    0    0    0 -0.00000000000E+00 -0.00000000000E+00 -0.45593999997E+02  0.45594000000E+02  0.51100000000E-03 0.  1.
    9900012    2    1    2    0    0  0.34776983768E+02 -0.17333038974E+02  0.11970478885E+02  0.50528865666E+02  0.30000017678E+02 0.  0.
        -12    1    1    2    0    0 -0.34776983768E+02  0.17333038974E+02 -0.11970478885E+02  0.40659134334E+02  0.00000000000E+00 0.  1.
         11    1    3    3    0    0  0.31151638827E+02 -0.17997267665E+02  0.60288693791E+01  0.36478397872E+02  0.51100000000E-03 0. -1.
        -11    1    3    3    0    0  0.73891878977E+01 -0.83482519006E+00  0.76278268861E+00  0.74752169585E+01  0.51100000000E-03 0.  1.
        -12    1    3    3    0    0 -0.37638429572E+01  0.14990538810E+01  0.51788268176E+01  0.65752508357E+01  0.00000000000E+00 0.  1.
</event>
<event>
 7    1  0.6090311E-013  0.5052886E+02  0.7816164E-02  0.1300439E+00
        -11   -1    0    0    0    0  0.00000000000E+00  0.00000000000E+00  0.45593999997E+02  0.45594000000E+02  0.51100000000E-03 0.  1.
         11   -1    0    0    0    0 -0.00000000000E+00 -0.00000000000E+00 -0.45593999997E+02  0.45594000000E+02  0.51100000000E-03 0. -1.
    9900012    2    1    2    0    0 -0.92297770848E+01 -0.26944360745E+02 -0.29016863094E+02  0.50528859517E+02  0.29999998988E+02 0.  0.
        -12    1    1    2    0    0  0.92297770848E+01  0.26944360745E+02  0.29016863094E+02  0.40659140483E+02  0.00000000000E+00 0.  1.
         11    1    3    3    0    0  0.25387916276E+01  0.13275961491E+01  0.12034053115E+01  0.31074360924E+01  0.51100000000E-03 0. -1.
        -11    1    3    3    0    0  0.40162426717E+01  0.16416409017E+00 -0.34740921646E+01  0.53128590867E+01  0.51100000000E-03 0.  1.
         12    1    3    3    0    0 -0.15784811384E+02 -0.28436120985E+02 -0.26746176241E+02  0.42108564338E+02  0.00000000000E+00 0. -1.
</event>
<event>
 7    1  0.6090311E-013  0.5052886E+02  0.7816164E-02  0.1300439E+00
        -11   -1    0    0    0    0  0.00000000000E+00  0.00000000000E+00  0.45593999997E+02  0.45594000000E+02  0.51100000000E-03 0.  1.
         11   -1    0    0    0    0 -0.00000000000E+00 -0.00000000000E+00 -0.45593999997E+02  0.45594000000E+02  0.51100000000E-03 0. -1.
    9900012    2    1    2    0    0 -0.95918413247E+01  0.27886427604E+01 -0.39413015366E+02  0.50528859224E+02  0.29999998097E+02 0.  0.
        -12    1    1    2    0    0  0.95918413247E+01 -0.27886427604E+01  0.39413015366E+02  0.40659140776E+02  0.00000000000E+00 0.  1.
         11    1    3    3    0    0 -0.79539804488E+01 -0.25128544718E+01 -0.75700066432E+01  0.11264335019E+02  0.51100000000E-03 0. -1.
        -11    1    3    3    0    0 -0.54047981019E+00 -0.10947174759E+01  0.33045465908E+01  0.35228615086E+01  0.51100000000E-03 0.  1.
         12    1    3    3    0    0 -0.10973810657E+01  0.63962147080E+01 -0.35147555313E+02  0.35741662696E+02  0.00000000000E+00 0. -1.
</event>
<event>
 7    1  0.6090311E-013  0.5052885E+02  0.7816164E-02  0.1300439E+00
        -11   -1    0    0    0    0  0.00000000000E+00  0.00000000000E+00  0.45593999997E+02  0.45594000000E+02  0.51100000000E-03 0.  1.
         11   -1    0    0    0    0 -0.00000000000E+00 -0.00000000000E+00 -0.45593999997E+02  0.45594000000E+02  0.51100000000E-03 0. -1.
    9900012    2    1    2    0    0 -0.22351645251E+02 -0.18287409723E+02 -0.28620636191E+02  0.50528853234E+02  0.29999979890E+02 0.  0.
        -12    1    1    2    0    0  0.22351645251E+02  0.18287409723E+02  0.28620636191E+02  0.40659146766E+02  0.00000000000E+00 0.  1.
         11    1    3    3    0    0 -0.17803610518E+02 -0.17787661869E+02 -0.15488489318E+02  0.29551019675E+02  0.51100000000E-03 0. -1.
        -11    1    3    3    0    0  0.30202915240E+01 -0.40513550699E+01  0.40256052085E+00  0.50692893019E+01  0.51100000000E-03 0.  1.
         12    1    3    3    0    0 -0.75683262569E+01  0.35516072159E+01 -0.13534707394E+02  0.15908544257E+02  0.00000000000E+00 0. -1.
</event>
<event>
 7    1  0.6090311E-013  0.5052888E+02  0.7816164E-02  0.1300439E+00
        -11   -1    0    0    0    0  0.00000000000E+00  0.00000000000E+00  0.45593999997E+02  0.45594000000E+02  0.51100000000E-03 0.  1.
         11   -1    0    0    0    0 -0.00000000000E+00 -0.00000000000E+00 -0.45593999997E+02  0.45594000000E+02  0.51100000000E-03 0. -1.
    9900012    2    1    2    0    0 -0.22827449774E+02 -0.29516330974E+02  0.16151099589E+02  0.50528877096E+02  0.30000052422E+02 0.  0.
        -12    1    1    2    0    0  0.22827449774E+02  0.29516330974E+02 -0.16151099589E+02  0.40659122904E+02  0.00000000000E+00 0.  1.
         11    1    3    3    0    0  0.12803847534E+01  0.21201872185E+01  0.19228930293E+01  0.31356174546E+01  0.51100000000E-03 0. -1.
        -11    1    3    3    0    0  0.32638925568E+01 -0.22655645146E+00  0.24805878743E+01  0.41058055131E+01  0.51100000000E-03 0.  1.
         12    1    3    3    0    0 -0.27371727085E+02 -0.31409961741E+02  0.11747618685E+02  0.43287454129E+02  0.00000000000E+00 0. -1.
</event>
<event>
 7    1  0.6090311E-013  0.5052885E+02  0.7816164E-02  0.1300439E+00
        -11   -1    0    0    0    0  0.00000000000E+00  0.00000000000E+00  0.45593999997E+02  0.45594000000E+02  0.51100000000E-03 0. -1.
         11   -1    0    0    0    0 -0.00000000000E+00 -0.00000000000E+00 -0.45593999997E+02  0.45594000000E+02  0.51100000000E-03 0.  1.
    9900012    2    1    2    0    0  0.55284612459E+01 -0.15123936764E+02  0.37334561549E+02  0.50528845642E+02  0.29999956815E+02 0.  0.
        -12    1    1    2    0    0 -0.55284612459E+01  0.15123936764E+02 -0.37334561549E+02  0.40659154358E+02  0.00000000000E+00 0.  1.
         11    1    3    3    0    0  0.11902533923E+01  0.31665165911E+00  0.22167501559E+02  0.22201691311E+02  0.51100000000E-03 0. -1.
        -11    1    3    3    0    0  0.38913431774E+01  0.16613381399E+01  0.93409325774E+01  0.10254541326E+02  0.51100000000E-03 0.  1.
         12    1    3    3    0    0  0.44686467616E+00 -0.17101926563E+02  0.58261274127E+01  0.18072613005E+02  0.00000000000E+00 0. -1.
</event>
<event>
 7    1  0.6090311E-013  0.5052886E+02  0.7816164E-02  0.1300439E+00
        -11   -1    0    0    0    0  0.00000000000E+00  0.00000000000E+00  0.45593999997E+02  0.45594000000E+02  0.51100000000E-03 0.  1.
         11   -1    0    0    0    0 -0.00000000000E+00 -0.00000000000E+00 -0.45593999997E+02  0.45594000000E+02  0.51100000000E-03 0. -1.
    9900012    2    1    2    0    0  0.32767972299E+02 -0.23304465062E+02 -0.60272455612E+01  0.50528858476E+02  0.29999995825E+02 0.  0.
        -12    1    1    2    0    0 -0.32767972299E+02  0.23304465062E+02  0.60272455612E+01  0.40659141524E+02  0.00000000000E+00 0.  1.
         11    1    3    3    0    0 -0.11165439068E+00 -0.31824466288E+01  0.46693503044E+01  0.56518373804E+01  0.51100000000E-03 0. -1.
        -11    1    3    3    0    0  0.58640453494E+01 -0.10588999701E+02  0.39098381558E+01  0.12720093443E+02  0.51100000000E-03 0.  1.
         12    1    3    3    0    0  0.27015581340E+02 -0.95330187319E+01 -0.14606434021E+02  0.32156927653E+02  0.00000000000E+00 0. -1.
</event>
<event>
 7    1  0.6090311E-013  0.5052886E+02  0.7816164E-02  0.1300439E+00
        -11   -1    0    0    0    0  0.00000000000E+00  0.00000000000E+00  0.45593999997E+02  0.45594000000E+02  0.51100000000E-03 0.  1.
         11   -1    0    0    0    0 -0.00000000000E+00 -0.00000000000E+00 -0.45593999997E+02  0.45594000000E+02  0.51100000000E-03 0. -1.
    9900012    2    1    2    0    0  0.34799348800E+02  0.16707428060E+02 -0.12768436399E+02  0.50528858379E+02  0.29999995530E+02 0.  0.
        -12    1    1    2    0    0 -0.34799348800E+02 -0.16707428060E+02  0.12768436399E+02  0.40659141621E+02  0.00000000000E+00 0.  1.
         11    1    3    3    0    0  0.17434396819E+02  0.12238744605E+02 -0.22924310612E+01  0.21424292342E+02  0.51100000000E-03 0. -1.
        -11    1    3    3    0    0  0.10540587761E+02  0.98966413641E+01  0.12267427860E+01  0.14510423796E+02  0.51100000000E-03 0.  1.
        -12    1    3    3    0    0  0.68243642203E+01 -0.54279579093E+01 -0.11702748124E+02  0.14594142240E+02  0.00000000000E+00 0.  1.
</event>
<event>
 7    1  0.6090311E-013  0.5052886E+02  0.7816164E-02  0.1300439E+00
        -11   -1    0    0    0    0  0.00000000000E+00  0.00000000000E+00  0.45593999997E+02  0.45594000000E+02  0.51100000000E-03 0.  1.
         11   -1    0    0    0    0 -0.00000000000E+00 -0.00000000000E+00 -0.45593999997E+02  0.45594000000E+02  0.51100000000E-03 0. -1.
    9900012    2    1    2    0    0  0.11570094241E+02 -0.53777852858E+01 -0.38605413959E+02  0.50528860286E+02  0.30000001327E+02 0.  0.
        -12    1    1    2    0    0 -0.11570094241E+02  0.53777852858E+01  0.38605413959E+02  0.40659139714E+02  0.00000000000E+00 0.  1.
         11    1    3    3    0    0  0.12866162005E+02 -0.16195970614E+01 -0.19086169223E+02  0.23074728065E+02  0.51100000000E-03 0. -1.
        -11    1    3    3    0    0 -0.17792418197E+01 -0.48636044821E+01  0.22535750349E+01  0.56479156076E+01  0.51100000000E-03 0.  1.
         12    1    3    3    0    0  0.48317405564E+00  0.11054162577E+01 -0.21772819770E+02  0.21806216614E+02  0.00000000000E+00 0. -1.
</event>
<event>
 7    1  0.6090311E-013  0.5052886E+02  0.7816164E-02  0.1300439E+00
        -11   -1    0    0    0    0  0.00000000000E+00  0.00000000000E+00  0.45593999997E+02  0.45594000000E+02  0.51100000000E-03 0.  1.
         11   -1    0    0    0    0 -0.00000000000E+00 -0.00000000000E+00 -0.45593999997E+02  0.45594000000E+02  0.51100000000E-03 0. -1.
    9900012    2    1    2    0    0  0.55358152444E+01  0.32870014973E+01 -0.40146183966E+02  0.50528859376E+02  0.29999998560E+02 0.  0.
        -12    1    1    2    0    0 -0.55358152444E+01 -0.32870014973E+01  0.40146183966E+02  0.40659140624E+02  0.00000000000E+00 0.  1.
         11    1    3    3    0    0 -0.16018937240E+01  0.85937522313E-01 -0.27736028355E+02  0.27782381430E+02  0.51100000000E-03 0. -1.
        -11    1    3    3    0    0  0.65448498081E+01 -0.17050339663E+00 -0.16299455551E+02  0.17565203726E+02  0.51100000000E-03 0.  1.
        -12    1    3    3    0    0  0.59285916033E+00  0.33715673716E+01  0.38892999399E+01  0.51812742205E+01  0.00000000000E+00 0.  1.
</event>
<event>
 7    1  0.6090311E-013  0.5052887E+02  0.7816164E-02  0.1300439E+00
        -11   -1    0    0    0    0  0.00000000000E+00  0.00000000000E+00  0.45593999997E+02  0.45594000000E+02  0.51100000000E-03 0. -1.
         11   -1    0    0    0    0 -0.00000000000E+00 -0.00000000000E+00 -0.45593999997E+02  0.45594000000E+02  0.51100000000E-03 0.  1.
    9900012    2    1    2    0    0 -0.50045942920E+01 -0.36721778855E+02  0.16722147646E+02  0.50528865378E+02  0.30000016802E+02 0.  0.
        -12    1    1    2    0    0  0.50045942920E+01  0.36721778855E+02 -0.16722147646E+02  0.40659134622E+02  0.00000000000E+00 0.  1.
         11    1    3    3    0    0 -0.28225404135E+00 -0.31575070057E+02  0.64346569118E+01  0.32225293269E+02  0.51100000000E-03 0. -1.
        -11    1    3    3    0    0  0.21841299565E+01 -0.29360961054E+01 -0.18989538212E+01  0.41227551326E+01  0.51100000000E-03 0.  1.
         12    1    3    3    0    0 -0.69064702071E+01 -0.22106126930E+01  0.12186444556E+02  0.14180816976E+02  0.00000000000E+00 0. -1.
</event>
<event>
 7    1  0.6090311E-013  0.5052888E+02  0.7816164E-02  0.1300439E+00
        -11   -1    0    0    0    0  0.00000000000E+00  0.00000000000E+00  0.45593999997E+02  0.45594000000E+02  0.51100000000E-03 0. -1.
         11   -1    0    0    0    0 -0.00000000000E+00 -0.00000000000E+00 -0.45593999997E+02  0.45594000000E+02  0.51100000000E-03 0.  1.
    9900012    2    1    2    0    0 -0.71061386183E+01  0.32505013799E+02  0.23368582323E+02  0.50528883336E+02  0.30000071387E+02 0.  0.
        -12    1    1    2    0    0  0.71061386183E+01 -0.32505013799E+02 -0.23368582323E+02  0.40659116664E+02  0.00000000000E+00 0.  1.
         11    1    3    3    0    0 -0.86859432712E+01  0.18670210276E+02  0.19580174829E+02  0.28414883580E+02  0.51100000000E-03 0. -1.
        -11    1    3    3    0    0 -0.29653941222E+01  0.14077853586E+02 -0.22401030362E+01  0.14560136873E+02  0.51100000000E-03 0.  1.
        -12    1    3    3    0    0  0.45451987752E+01 -0.24305006344E+00  0.60285105300E+01  0.75538628826E+01  0.00000000000E+00 0.  1.
</event>
<event>
 7    1  0.6090311E-013  0.5052886E+02  0.7816164E-02  0.1300439E+00
        -11   -1    0    0    0    0  0.00000000000E+00  0.00000000000E+00  0.45593999997E+02  0.45594000000E+02  0.51100000000E-03 0.  1.
         11   -1    0    0    0    0 -0.00000000000E+00 -0.00000000000E+00 -0.45593999997E+02  0.45594000000E+02  0.51100000000E-03 0. -1.
    9900012    2    1    2    0    0  0.39608442064E+02 -0.60319966237E+01 -0.69247291745E+01  0.50528861542E+02  0.30000005144E+02 0.  0.
        -12    1    1    2    0    0 -0.39608442064E+02  0.60319966237E+01  0.69247291745E+01  0.40659138458E+02  0.00000000000E+00 0.  1.
         11    1    3    3    0    0 -0.33462618932E+00  0.12593020681E+01 -0.19165827044E+01  0.23175646505E+01  0.51100000000E-03 0. -1.
        -11    1    3    3    0    0  0.10775737408E+02 -0.12146308553E+02 -0.86864163972E+01  0.18414753820E+02  0.51100000000E-03 0.  1.
         12    1    3    3    0    0  0.29167330845E+02  0.48550098616E+01  0.36782699271E+01  0.29796543072E+02  0.00000000000E+00 0. -1.
</event>
<event>
 7    1  0.6090311E-013  0.5052886E+02  0.7816164E-02  0.1300439E+00
        -11   -1    0    0    0    0  0.00000000000E+00  0.00000000000E+00  0.45593999997E+02  0.45594000000E+02  0.51100000000E-03 0. -1.
         11   -1    0    0    0    0 -0.00000000000E+00 -0.00000000000E+00 -0.45593999997E+02  0.45594000000E+02  0.51100000000E-03 0.  1.
    9900012    2    1    2    0    0 -0.17788575007E+02  0.23274785621E+02  0.28196042645E+02  0.50528857519E+02  0.29999992914E+02 0.  0.
        -12    1    1    2    0    0  0.17788575007E+02 -0.23274785621E+02 -0.28196042645E+02  0.40659142481E+02  0.00000000000E+00 0.  1.
         11    1    3    3    0    0 -0.12745072926E+02  0.11078301470E+02  0.45399584168E+01  0.17486476776E+02  0.51100000000E-03 0. -1.
        -11    1    3    3    0    0 -0.10683013168E+02  0.10737529449E+02  0.98767735346E+01  0.18082366127E+02  0.51100000000E-03 0.  1.
        -12    1    3    3    0    0  0.56395110876E+01  0.14589547018E+01  0.13779310694E+02  0.14960014616E+02  0.00000000000E+00 0.  1.
</event>
<event>
 7    1  0.6090311E-013  0.5052888E+02  0.7816164E-02  0.1300439E+00
        -11   -1    0    0    0    0  0.00000000000E+00  0.00000000000E+00  0.45593999997E+02  0.45594000000E+02  0.51100000000E-03 0.  1.
         11   -1    0    0    0    0 -0.00000000000E+00 -0.00000000000E+00 -0.45593999997E+02  0.45594000000E+02  0.51100000000E-03 0. -1.
    9900012    2    1    2    0    0  0.27521622330E+02 -0.12769527555E+01 -0.29901395612E+02  0.50528883389E+02  0.30000071550E+02 0.  0.
        -12    1    1    2    0    0 -0.27521622330E+02  0.12769527555E+01  0.29901395612E+02  0.40659116611E+02  0.00000000000E+00 0.  1.
         11    1    3    3    0    0  0.10927441159E+02 -0.13404707694E+02 -0.87162957517E+01  0.19366697461E+02  0.51100000000E-03 0.  1.
        -11    1    3    3    0    0  0.10769974250E+02  0.17299926548E+01 -0.93626531669E+01  0.14375134591E+02  0.51100000000E-03 0. -1.
        -12    1    3    3    0    0  0.58242069209E+01  0.10397762284E+02 -0.11822446694E+02  0.16787051337E+02  0.00000000000E+00 0.  1.
</event>
<event>
 7    1  0.6090311E-013  0.5052885E+02  0.7816164E-02  0.1300439E+00
        -11   -1    0    0    0    0  0.00000000000E+00  0.00000000000E+00  0.45593999997E+02  0.45594000000E+02  0.51100000000E-03 0.  1.
         11   -1    0    0    0    0 -0.00000000000E+00 -0.00000000000E+00 -0.45593999997E+02  0.45594000000E+02  0.51100000000E-03 0. -1.
    9900012    2    1    2    0    0 -0.13258355549E+02 -0.35414406376E+01 -0.38273234547E+02  0.50528852489E+02  0.29999977626E+02 0.  0.
        -12    1    1    2    0    0  0.13258355549E+02  0.35414406376E+01  0.38273234547E+02  0.40659147511E+02  0.00000000000E+00 0.  1.
         11    1    3    3    0    0 -0.84811301885E+01 -0.56631589340E+01 -0.18058163730E+02  0.20738809415E+02  0.51100000000E-03 0. -1.
        -11    1    3    3    0    0  0.10558024007E+01 -0.58669270885E+01 -0.18892273991E+02  0.19810440908E+02  0.51100000000E-03 0.  1.
        -12    1    3    3    0    0 -0.58330277608E+01  0.79886453850E+01 -0.13227968252E+01  0.99796021657E+01  0.00000000000E+00 0.  1.
</event>
<event>
 7    1  0.6090311E-013  0.5052886E+02  0.7816164E-02  0.1300439E+00
        -11   -1    0    0    0    0  0.00000000000E+00  0.00000000000E+00  0.45593999997E+02  0.45594000000E+02  0.51100000000E-03 0. -1.
         11   -1    0    0    0    0 -0.00000000000E+00 -0.00000000000E+00 -0.45593999997E+02  0.45594000000E+02  0.51100000000E-03 0.  1.
    9900012    2    1    2    0    0 -0.37896350356E+02 -0.14209250982E+02  0.38896984891E+01  0.50528856648E+02  0.29999990268E+02 0.  0.
        -12    1    1    2    0    0  0.37896350356E+02  0.14209250982E+02 -0.38896984891E+01  0.40659143352E+02  0.00000000000E+00 0.  1.
         11    1    3    3    0    0 -0.28923217975E+02 -0.95695728853E+00  0.54191081820E+01  0.29442062412E+02  0.51100000000E-03 0. -1.
        -11    1    3    3    0    0 -0.92077924445E+01 -0.17694224988E+01  0.64140176705E+00  0.93981750446E+01  0.51100000000E-03 0.  1.
        -12    1    3    3    0    0  0.23466006409E+00 -0.11482871195E+02 -0.21708114599E+01  0.11688619192E+02  0.00000000000E+00 0.  1.
</event>
<event>
 7    1  0.6090311E-013  0.5052885E+02  0.7816164E-02  0.1300439E+00
        -11   -1    0    0    0    0  0.00000000000E+00  0.00000000000E+00  0.45593999997E+02  0.45594000000E+02  0.51100000000E-03 0.  1.
         11   -1    0    0    0    0 -0.00000000000E+00 -0.00000000000E+00 -0.45593999997E+02  0.45594000000E+02  0.51100000000E-03 0. -1.
    9900012    2    1    2    0    0 -0.22797595923E+02 -0.16663827100E+02 -0.29253253715E+02  0.50528851381E+02  0.29999974258E+02 0.  0.
        -12    1    1    2    0    0  0.22797595923E+02  0.16663827100E+02  0.29253253715E+02  0.40659148619E+02  0.00000000000E+00 0.  1.
         11    1    3    3    0    0 -0.11242984440E+01  0.55764088445E+00  0.13528795291E+01  0.18453437698E+01  0.51100000000E-03 0.  1.
        -11    1    3    3    0    0 -0.14122797548E+02  0.31726909780E+01 -0.55405333130E+01  0.15498931843E+02  0.51100000000E-03 0. -1.
         12    1    3    3    0    0 -0.75504999312E+01 -0.20394158963E+02 -0.25065599931E+02  0.33184575768E+02  0.00000000000E+00 0. -1.
</event>
<event>
 7    1  0.6090311E-013  0.5052887E+02  0.7816164E-02  0.1300439E+00
        -11   -1    0    0    0    0  0.00000000000E+00  0.00000000000E+00  0.45593999997E+02  0.45594000000E+02  0.51100000000E-03 0.  1.
         11   -1    0    0    0    0 -0.00000000000E+00 -0.00000000000E+00 -0.45593999997E+02  0.45594000000E+02  0.51100000000E-03 0. -1.
    9900012    2    1    2    0    0 -0.96431548667E+01 -0.22189266427E+02 -0.32677378490E+02  0.50528867626E+02  0.30000023637E+02 0.  0.
        -12    1    1    2    0    0  0.96431548667E+01  0.22189266427E+02  0.32677378490E+02  0.40659132374E+02  0.00000000000E+00 0.  1.
         11    1    3    3    0    0 -0.10996080847E+02  0.77698301941E+00 -0.13274848602E+02  0.17255118147E+02  0.51100000000E-03 0. -1.
        -11    1    3    3    0    0  0.24158522813E+01 -0.62472311034E+01  0.11099998020E+01  0.67894284388E+01  0.51100000000E-03 0.  1.
         12    1    3    3    0    0 -0.10629263011E+01 -0.16719018343E+02 -0.20512529690E+02  0.26484321040E+02  0.00000000000E+00 0. -1.
</event>
<event>
 7    1  0.6090311E-013  0.5052885E+02  0.7816164E-02  0.1300439E+00
        -11   -1    0    0    0    0  0.00000000000E+00  0.00000000000E+00  0.45593999997E+02  0.45594000000E+02  0.51100000000E-03 0.  1.
         11   -1    0    0    0    0 -0.00000000000E+00 -0.00000000000E+00 -0.45593999997E+02  0.45594000000E+02  0.51100000000E-03 0. -1.
    9900012    2    1    2    0    0 -0.11288389147E+02  0.67907745742E+01 -0.38465877868E+02  0.50528854546E+02  0.29999983878E+02 0.  0.
        -12    1    1    2    0    0  0.11288389147E+02 -0.67907745742E+01  0.38465877868E+02  0.40659145454E+02  0.00000000000E+00 0.  1.
         11    1    3    3    0    0 -0.25070045584E+01 -0.65934577916E+01 -0.32803317888E+01  0.77794173568E+01  0.51100000000E-03 0. -1.
        -11    1    3    3    0    0  0.38885098573E+01 -0.18339401753E+01 -0.84312645507E+01  0.94641464307E+01  0.51100000000E-03 0.  1.
        -12    1    3    3    0    0 -0.12669894446E+02  0.15218172541E+02 -0.26754281529E+02  0.33285290759E+02  0.00000000000E+00 0.  1.
</event>
<event>
 7    1  0.6090311E-013  0.5052886E+02  0.7816164E-02  0.1300439E+00
        -11   -1    0    0    0    0  0.00000000000E+00  0.00000000000E+00  0.45593999997E+02  0.45594000000E+02  0.51100000000E-03 0.  1.
         11   -1    0    0    0    0 -0.00000000000E+00 -0.00000000000E+00 -0.45593999997E+02  0.45594000000E+02  0.51100000000E-03 0. -1.
    9900012    2    1    2    0    0  0.14416463223E+02  0.82343451039E+01 -0.37115046446E+02  0.50528861743E+02  0.30000005753E+02 0.  0.
        -12    1    1    2    0    0 -0.14416463223E+02 -0.82343451039E+01  0.37115046446E+02  0.40659138257E+02  0.00000000000E+00 0.  1.
         11    1    3    3    0    0  0.10365572010E+02  0.86948826410E+01 -0.10591316479E+02  0.17182027013E+02  0.51100000000E-03 0. -1.
        -11    1    3    3    0    0 -0.48267222342E+00  0.75773596251E+01 -0.31552769230E+01  0.82222335217E+01  0.51100000000E-03 0.  1.
        -12    1    3    3    0    0  0.45335634357E+01 -0.80378971622E+01 -0.23368453044E+02  0.25124601208E+02  0.00000000000E+00 0.  1.
</event>
<event>
 7    1  0.6090311E-013  0.5052886E+02  0.7816164E-02  0.1300439E+00
        -11   -1    0    0    0    0  0.00000000000E+00  0.00000000000E+00  0.45593999997E+02  0.45594000000E+02  0.51100000000E-03 0. -1.
         11   -1    0    0    0    0 -0.00000000000E+00 -0.00000000000E+00 -0.45593999997E+02  0.45594000000E+02  0.51100000000E-03 0.  1.
    9900012    2    1    2    0    0  0.24960193305E+02  0.24679289054E+02  0.20520399942E+02  0.50528863612E+02  0.30000011435E+02 0.  0.
        -12    1    1    2    0    0 -0.24960193305E+02 -0.24679289054E+02 -0.20520399942E+02  0.40659136388E+02  0.00000000000E+00 0.  1.
         11    1    3    3    0    0  0.63130909320E+01  0.11536355816E+02  0.14272424053E+02  0.19407336531E+02  0.51100000000E-03 0. -1.
        -11    1    3    3    0    0  0.15724114443E+02  0.10956744958E+02  0.13199006229E+02  0.23270406115E+02  0.51100000000E-03 0.  1.
         12    1    3    3    0    0  0.29229879300E+01  0.21861882803E+01 -0.69510303396E+01  0.78511209657E+01  0.00000000000E+00 0. -1.
</event>
<event>
 7    1  0.6090311E-013  0.5052887E+02  0.7816164E-02  0.1300439E+00
        -11   -1    0    0    0    0  0.00000000000E+00  0.00000000000E+00  0.45593999997E+02  0.45594000000E+02  0.51100000000E-03 0. -1.
         11   -1    0    0    0    0 -0.00000000000E+00 -0.00000000000E+00 -0.45593999997E+02  0.45594000000E+02  0.51100000000E-03 0.  1.
    9900012    2    1    2    0    0  0.39789767032E+01  0.36596192574E+02  0.17264171667E+02  0.50528865850E+02  0.30000018237E+02 0.  0.
        -12    1    1    2    0    0 -0.39789767032E+01 -0.36596192574E+02 -0.17264171667E+02  0.40659134150E+02  0.00000000000E+00 0.  1.
         11    1    3    3    0    0 -0.69050025987E+01 -0.16813052366E+00  0.10635949904E+01  0.69884592956E+01  0.51100000000E-03 0.  1.
        -11    1    3    3    0    0  0.78557269006E+01  0.73987482155E+01  0.57221773596E+01  0.12214631975E+02  0.51100000000E-03 0. -1.
         12    1    3    3    0    0  0.30282524013E+01  0.29365574882E+02  0.10478399317E+02  0.31325774579E+02  0.00000000000E+00 0. -1.
</event>
<event>
 7    1  0.6090311E-013  0.5052886E+02  0.7816164E-02  0.1300439E+00
        -11   -1    0    0    0    0  0.00000000000E+00  0.00000000000E+00  0.45593999997E+02  0.45594000000E+02  0.51100000000E-03 0.  1.
         11   -1    0    0    0    0 -0.00000000000E+00 -0.00000000000E+00 -0.45593999997E+02  0.45594000000E+02  0.51100000000E-03 0. -1.
    9900012    2    1    2    0    0 -0.30412275223E+02 -0.18153336835E+02 -0.19967862295E+02  0.50528860226E+02  0.30000001143E+02 0.  0.
        -12    1    1    2    0    0  0.30412275223E+02  0.18153336835E+02  0.19967862295E+02  0.40659139774E+02  0.00000000000E+00 0.  1.
         11    1    3    3    0    0 -0.43685170424E+01  0.34905044183E+01 -0.44620113820E+01  0.71538177275E+01  0.51100000000E-03 0. -1.
        -11    1    3    3    0    0 -0.89521523882E+01  0.52496942650E+00 -0.12267790663E+02  0.15195897910E+02  0.51100000000E-03 0.  1.
         12    1    3    3    0    0 -0.17091605793E+02 -0.22168810680E+02 -0.32380602495E+01  0.28179144588E+02  0.00000000000E+00 0. -1.
</event>
<event>
 7    1  0.6090311E-013  0.5052885E+02  0.7816164E-02  0.1300439E+00
        -11   -1    0    0    0    0  0.00000000000E+00  0.00000000000E+00  0.45593999997E+02  0.45594000000E+02  0.51100000000E-03 0. -1.
         11   -1    0    0    0    0 -0.00000000000E+00 -0.00000000000E+00 -0.45593999997E+02  0.45594000000E+02  0.51100000000E-03 0.  1.
    9900012    2    1    2    0    0  0.33904447915E+02  0.19942639064E+02 -0.10292998033E+02  0.50528852816E+02  0.29999978619E+02 0.  0.
        -12    1    1    2    0    0 -0.33904447915E+02 -0.19942639064E+02  0.10292998033E+02  0.40659147184E+02  0.00000000000E+00 0.  1.
         11    1    3    3    0    0  0.23415301732E+02  0.35657395468E+01 -0.59919152624E+01  0.24431412209E+02  0.51100000000E-03 0. -1.
        -11    1    3    3    0    0  0.37426183433E+00 -0.34263755018E+01  0.84982934732E-02  0.34467656552E+01  0.51100000000E-03 0.  1.
         12    1    3    3    0    0  0.10114884348E+02  0.19803275019E+02 -0.43095810638E+01  0.22650674952E+02  0.00000000000E+00 0. -1.
</event>
<event>
 7    1  0.6090311E-013  0.5052887E+02  0.7816164E-02  0.1300439E+00
        -11   -1    0    0    0    0  0.00000000000E+00  0.00000000000E+00  0.45593999997E+02  0.45594000000E+02  0.51100000000E-03 0. -1.
         11   -1    0    0    0    0 -0.00000000000E+00 -0.00000000000E+00 -0.45593999997E+02  0.45594000000E+02  0.51100000000E-03 0.  1.
    9900012    2    1    2    0    0  0.20003217880E+02 -0.25763631136E+02  0.24274919545E+02  0.50528866539E+02  0.30000020333E+02 0.  0.
        -12    1    1    2    0    0 -0.20003217880E+02  0.25763631136E+02 -0.24274919545E+02  0.40659133461E+02  0.00000000000E+00 0.  1.
         11    1    3    3    0    0  0.94053569998E+01 -0.22967034532E+02  0.91734966877E+01  0.26459373712E+02  0.51100000000E-03 0. -1.
        -11    1    3    3    0    0  0.30703507189E+01 -0.54399491167E+01 -0.78160659564E+00  0.62953164385E+01  0.51100000000E-03 0.  1.
        -12    1    3    3    0    0  0.75275101609E+01  0.26433525122E+01  0.15883029453E+02  0.17774176389E+02  0.00000000000E+00 0.  1.
</event>
<event>
 7    1  0.6090311E-013  0.5052886E+02  0.7816164E-02  0.1300439E+00
        -11   -1    0    0    0    0  0.00000000000E+00  0.00000000000E+00  0.45593999997E+02  0.45594000000E+02  0.51100000000E-03 0. -1.
         11   -1    0    0    0    0 -0.00000000000E+00 -0.00000000000E+00 -0.45593999997E+02  0.45594000000E+02  0.51100000000E-03 0.  1.
    9900012    2    1    2    0    0 -0.12448876484E+02 -0.38221152335E+02 -0.61102040083E+01  0.50528860750E+02  0.30000002736E+02 0.  0.
        -12    1    1    2    0    0  0.12448876484E+02  0.38221152335E+02  0.61102040083E+01  0.40659139250E+02  0.00000000000E+00 0.  1.
         11    1    3    3    0    0  0.44938284664E+00 -0.21319564214E+02  0.13218788459E+01  0.21365231737E+02  0.51100000000E-03 0. -1.
        -11    1    3    3    0    0 -0.13112492652E+02 -0.20638767219E+02 -0.62487568130E+01  0.25237732422E+02  0.51100000000E-03 0.  1.
         12    1    3    3    0    0  0.21423332196E+00  0.37371790976E+01 -0.11833260412E+01  0.39258965910E+01  0.00000000000E+00 0. -1.
</event>
<event>
 7    1  0.6090311E-013  0.5052886E+02  0.7816164E-02  0.1300439E+00
        -11   -1    0    0    0    0  0.00000000000E+00  0.00000000000E+00  0.45593999997E+02  0.45594000000E+02  0.51100000000E-03 0. -1.
         11   -1    0    0    0    0 -0.00000000000E+00 -0.00000000000E+00 -0.45593999997E+02  0.45594000000E+02  0.51100000000E-03 0.  1.
    9900012    2    1    2    0    0 -0.11056272754E+02  0.27928898200E+02  0.27402578373E+02  0.50528858059E+02  0.29999994556E+02 0.  0.
        -12    1    1    2    0    0  0.11056272754E+02 -0.27928898200E+02 -0.27402578373E+02  0.40659141941E+02  0.00000000000E+00 0.  1.
         11    1    3    3    0    0 -0.11265955715E+01  0.16651429464E+02  0.33920456023E+01  0.17030716204E+02  0.51100000000E-03 0. -1.
        -11    1    3    3    0    0 -0.75784872439E+00  0.85300289202E+01  0.22145619581E+02  0.23743719063E+02  0.51100000000E-03 0.  1.
         12    1    3    3    0    0 -0.91718284577E+01  0.27474398159E+01  0.18649131897E+01  0.97544227919E+01  0.00000000000E+00 0. -1.
</event>
<event>
 7    1  0.6090311E-013  0.5052885E+02  0.7816164E-02  0.1300439E+00
        -11   -1    0    0    0    0  0.00000000000E+00  0.00000000000E+00  0.45593999997E+02  0.45594000000E+02  0.51100000000E-03 0.  1.
         11   -1    0    0    0    0 -0.00000000000E+00 -0.00000000000E+00 -0.45593999997E+02  0.45594000000E+02  0.51100000000E-03 0. -1.
    9900012    2    1    2    0    0  0.36664016138E+01  0.37442192858E+02 -0.15420976068E+02  0.50528845929E+02  0.29999957687E+02 0.  0.
        -12    1    1    2    0    0 -0.36664016138E+01 -0.37442192858E+02  0.15420976068E+02  0.40659154071E+02  0.00000000000E+00 0.  1.
         11    1    3    3    0    0  0.78876824442E+01  0.25839419342E+01  0.94619328823E+00  0.83538956337E+01  0.51100000000E-03 0. -1.
        -11    1    3    3    0    0 -0.46969042680E+01  0.12328432851E+02  0.16864315640E+01  0.13300196162E+02  0.51100000000E-03 0.  1.
         12    1    3    3    0    0  0.47562343765E+00  0.22529818073E+02 -0.18053600921E+02  0.28874754133E+02  0.00000000000E+00 0. -1.
</event>
<event>
 7    1  0.6090311E-013  0.5052886E+02  0.7816164E-02  0.1300439E+00
        -11   -1    0    0    0    0  0.00000000000E+00  0.00000000000E+00  0.45593999997E+02  0.45594000000E+02  0.51100000000E-03 0.  1.
         11   -1    0    0    0    0 -0.00000000000E+00 -0.00000000000E+00 -0.45593999997E+02  0.45594000000E+02  0.51100000000E-03 0. -1.
    9900012    2    1    2    0    0 -0.21395510269E+02 -0.16942896029E+02 -0.30138613416E+02  0.50528860755E+02  0.30000002750E+02 0.  0.
        -12    1    1    2    0    0  0.21395510269E+02  0.16942896029E+02  0.30138613416E+02  0.40659139245E+02  0.00000000000E+00 0.  1.
         11    1    3    3    0    0  0.23864183638E+00  0.11751326497E+01 -0.74249565427E+00  0.14103853119E+01  0.51100000000E-03 0. -1.
        -11    1    3    3    0    0 -0.25928081709E+01  0.46109782159E+01  0.22529790568E+01  0.57497555783E+01  0.51100000000E-03 0.  1.
         12    1    3    3    0    0 -0.19041343934E+02 -0.22729006895E+02 -0.31649096819E+02  0.43368719864E+02  0.00000000000E+00 0. -1.
</event>
<event>
 7    1  0.6090311E-013  0.5052886E+02  0.7816164E-02  0.1300439E+00
        -11   -1    0    0    0    0  0.00000000000E+00  0.00000000000E+00  0.45593999997E+02  0.45594000000E+02  0.51100000000E-03 0.  1.
         11   -1    0    0    0    0 -0.00000000000E+00 -0.00000000000E+00 -0.45593999997E+02  0.45594000000E+02  0.51100000000E-03 0. -1.
    9900012    2    1    2    0    0  0.26031931220E+01 -0.25500753214E+02 -0.31561067797E+02  0.50528855525E+02  0.29999986854E+02 0.  0.
        -12    1    1    2    0    0 -0.26031931220E+01  0.25500753214E+02  0.31561067797E+02  0.40659144475E+02  0.00000000000E+00 0.  1.
         11    1    3    3    0    0  0.33373932700E+01 -0.19020238493E+01 -0.54345610905E+01  0.66550990278E+01  0.51100000000E-03 0. -1.
        -11    1    3    3    0    0  0.10933813084E+02 -0.58974249138E+01 -0.35875332638E+01  0.12930517560E+02  0.51100000000E-03 0.  1.
        -12    1    3    3    0    0 -0.11668013233E+02 -0.17701304451E+02 -0.22538973443E+02  0.30943238937E+02  0.00000000000E+00 0.  1.
</event>
<event>
 7    1  0.6090311E-013  0.5052887E+02  0.7816164E-02  0.1300439E+00
        -11   -1    0    0    0    0  0.00000000000E+00  0.00000000000E+00  0.45593999997E+02  0.45594000000E+02  0.51100000000E-03 0. -1.
         11   -1    0    0    0    0 -0.00000000000E+00 -0.00000000000E+00 -0.45593999997E+02  0.45594000000E+02  0.51100000000E-03 0.  1.
    9900012    2    1    2    0    0  0.26758751751E+02  0.30314841819E+02  0.42596238182E+01  0.50528870338E+02  0.30000031880E+02 0.  0.
        -12    1    1    2    0    0 -0.26758751751E+02 -0.30314841819E+02 -0.42596238182E+01  0.40659129662E+02  0.00000000000E+00 0.  1.
         11    1    3    3    0    0  0.14454743444E+02  0.87026299850E+01 -0.27882364658E+01  0.17101159012E+02  0.51100000000E-03 0. -1.
        -11    1    3    3    0    0  0.11323817355E+02  0.29610710796E+00  0.28375764756E+01  0.11677686390E+02  0.51100000000E-03 0.  1.
         12    1    3    3    0    0  0.98019095209E+00  0.21316104726E+02  0.42102838084E+01  0.21750024937E+02  0.00000000000E+00 0. -1.
</event>
<event>
 7    1  0.6090311E-013  0.5052886E+02  0.7816164E-02  0.1300439E+00
        -11   -1    0    0    0    0  0.00000000000E+00  0.00000000000E+00  0.45593999997E+02  0.45594000000E+02  0.51100000000E-03 0.  1.
         11   -1    0    0    0    0 -0.00000000000E+00 -0.00000000000E+00 -0.45593999997E+02  0.45594000000E+02  0.51100000000E-03 0. -1.
    9900012    2    1    2    0    0  0.18627427228E+02  0.15868495940E+02 -0.32471150090E+02  0.50528858387E+02  0.29999995554E+02 0.  0.
        -12    1    1    2    0    0 -0.18627427228E+02 -0.15868495940E+02  0.32471150090E+02  0.40659141613E+02  0.00000000000E+00 0.  1.
         11    1    3    3    0    0  0.86489929479E+01  0.11023674191E+00 -0.47887280325E+01  0.98868168579E+01  0.51100000000E-03 0. -1.
        -11    1    3    3    0    0  0.11227758094E+02 -0.16606638666E+01 -0.61203534964E+01  0.12894924718E+02  0.51100000000E-03 0.  1.
         12    1    3    3    0    0 -0.12493238135E+01  0.17418923065E+02 -0.21562068561E+02  0.27747116812E+02  0.00000000000E+00 0. -1.
</event>
<event>
 7    1  0.6090311E-013  0.5052886E+02  0.7816164E-02  0.1300439E+00
        -11   -1    0    0    0    0  0.00000000000E+00  0.00000000000E+00  0.45593999997E+02  0.45594000000E+02  0.51100000000E-03 0.  1.
         11   -1    0    0    0    0 -0.00000000000E+00 -0.00000000000E+00 -0.45593999997E+02  0.45594000000E+02  0.51100000000E-03 0. -1.
    9900012    2    1    2    0    0 -0.19276913291E+02 -0.27359036117E+01 -0.35694275864E+02  0.50528857313E+02  0.29999992288E+02 0.  0.
        -12    1    1    2    0    0  0.19276913291E+02  0.27359036117E+01  0.35694275864E+02  0.40659142687E+02  0.00000000000E+00 0.  1.
         11    1    3    3    0    0  0.34504108730E+00 -0.33728277487E+01  0.93385740089E+00  0.35166902452E+01  0.51100000000E-03 0. -1.
        -11    1    3    3    0    0  0.37754179592E+01 -0.24649104710E+01 -0.16200809423E+01  0.47910569729E+01  0.51100000000E-03 0.  1.
         12    1    3    3    0    0 -0.23397372338E+02  0.31018346080E+01 -0.35008052322E+02  0.42221110095E+02  0.00000000000E+00 0. -1.
</event>
<event>
 7    1  0.6090311E-013  0.5052886E+02  0.7816164E-02  0.1300439E+00
        -11   -1    0    0    0    0  0.00000000000E+00  0.00000000000E+00  0.45593999997E+02  0.45594000000E+02  0.51100000000E-03 0. -1.
         11   -1    0    0    0    0 -0.00000000000E+00 -0.00000000000E+00 -0.45593999997E+02  0.45594000000E+02  0.51100000000E-03 0.  1.
    9900012    2    1    2    0    0 -0.13016989384E+01  0.37436170726E+02  0.15811533938E+02  0.50528857065E+02  0.29999991535E+02 0.  0.
        -12    1    1    2    0    0  0.13016989384E+01 -0.37436170726E+02 -0.15811533938E+02  0.40659142935E+02  0.00000000000E+00 0.  1.
         11    1    3    3    0    0  0.10204708041E+00 -0.22182384131E+01 -0.64496086296E+00  0.23123516255E+01  0.51100000000E-03 0. -1.
        -11    1    3    3    0    0  0.64014547607E+01  0.22545383910E+01  0.47653184625E+00  0.68035762119E+01  0.51100000000E-03 0.  1.
         12    1    3    3    0    0 -0.78052007795E+01  0.37399870748E+02  0.15979962955E+02  0.41412929228E+02  0.00000000000E+00 0. -1.
</event>
<event>
 7    1  0.6090311E-013  0.5052890E+02  0.7816164E-02  0.1300439E+00
        -11   -1    0    0    0    0  0.00000000000E+00  0.00000000000E+00  0.45593999997E+02  0.45594000000E+02  0.51100000000E-03 0. -1.
         11   -1    0    0    0    0 -0.00000000000E+00 -0.00000000000E+00 -0.45593999997E+02  0.45594000000E+02  0.51100000000E-03 0.  1.
    9900012    2    1    2    0    0  0.36710108944E+02  0.39680065726E+01 -0.17023071458E+02  0.50528903396E+02  0.30000132361E+02 0.  0.
        -12    1    1    2    0    0 -0.36710108944E+02 -0.39680065726E+01  0.17023071458E+02  0.40659096604E+02  0.00000000000E+00 0.  1.
         11    1    3    3    0    0  0.31783625254E+01  0.14849600586E+01 -0.19862180278E+01  0.40313964124E+01  0.51100000000E-03 0. -1.
        -11    1    3    3    0    0  0.37852867498E+02 -0.17722938884E+01 -0.12268142575E+02  0.39830740966E+02  0.51100000000E-03 0.  1.
        -12    1    3    3    0    0 -0.43211210795E+01  0.42553404024E+01 -0.27687108551E+01  0.66667660169E+01  0.00000000000E+00 0.  1.
</event>
<event>
 7    1  0.6090311E-013  0.5052887E+02  0.7816164E-02  0.1300439E+00
        -11   -1    0    0    0    0  0.00000000000E+00  0.00000000000E+00  0.45593999997E+02  0.45594000000E+02  0.51100000000E-03 0. -1.
         11   -1    0    0    0    0 -0.00000000000E+00 -0.00000000000E+00 -0.45593999997E+02  0.45594000000E+02  0.51100000000E-03 0.  1.
    9900012    2    1    2    0    0 -0.79806312395E+01  0.37255774840E+02 -0.14194412601E+02  0.50528873313E+02  0.30000040921E+02 0.  0.
        -12    1    1    2    0    0  0.79806312395E+01 -0.37255774840E+02  0.14194412601E+02  0.40659126687E+02  0.00000000000E+00 0.  1.
         11    1    3    3    0    0 -0.69230791551E+01  0.10295357526E+02 -0.44290927423E+01  0.13173468578E+02  0.51100000000E-03 0. -1.
        -11    1    3    3    0    0 -0.96982968140E+01  0.25325700162E+02 -0.87867621963E+01  0.28507108586E+02  0.51100000000E-03 0.  1.
        -12    1    3    3    0    0  0.86407447296E+01  0.16347171519E+01 -0.97855766214E+00  0.88482961494E+01  0.00000000000E+00 0.  1.
</event>
<event>
 7    1  0.6090311E-013  0.5052885E+02  0.7816164E-02  0.1300439E+00
        -11   -1    0    0    0    0  0.00000000000E+00  0.00000000000E+00  0.45593999997E+02  0.45594000000E+02  0.51100000000E-03 0. -1.
         11   -1    0    0    0    0 -0.00000000000E+00 -0.00000000000E+00 -0.45593999997E+02  0.45594000000E+02  0.51100000000E-03 0.  1.
    9900012    2    1    2    0    0  0.18026397672E+02  0.94249635388E+01  0.35204908954E+02  0.50528848936E+02  0.29999966826E+02 0.  0.
        -12    1    1    2    0    0 -0.18026397672E+02 -0.94249635388E+01 -0.35204908954E+02  0.40659151064E+02  0.00000000000E+00 0.  1.
         11    1    3    3    0    0  0.30630026848E+01 -0.28697760243E+01  0.24647498310E+02  0.25002335352E+02  0.51100000000E-03 0. -1.
        -11    1    3    3    0    0 -0.19390229266E+01 -0.27369279799E+00 -0.16280184161E-01  0.19583112529E+01  0.51100000000E-03 0.  1.
         12    1    3    3    0    0  0.16902417914E+02  0.12568432361E+02  0.10573690829E+02  0.23568202331E+02  0.00000000000E+00 0. -1.
</event>
<event>
 7    1  0.6090311E-013  0.5052883E+02  0.7816164E-02  0.1300439E+00
        -11   -1    0    0    0    0  0.00000000000E+00  0.00000000000E+00  0.45593999997E+02  0.45594000000E+02  0.51100000000E-03 0.  1.
         11   -1    0    0    0    0 -0.00000000000E+00 -0.00000000000E+00 -0.45593999997E+02  0.45594000000E+02  0.51100000000E-03 0. -1.
    9900012    2    1    2    0    0  0.18707412180E+02  0.27022256946E+02 -0.23937388715E+02  0.50528828594E+02  0.29999904995E+02 0.  0.
        -12    1    1    2    0    0 -0.18707412180E+02 -0.27022256946E+02  0.23937388715E+02  0.40659171406E+02  0.00000000000E+00 0.  1.
         11    1    3    3    0    0 -0.27233608320E+01  0.50342914434E+01  0.40495138901E+00  0.57380110184E+01  0.51100000000E-03 0. -1.
        -11    1    3    3    0    0 -0.18634950147E+01  0.74617543959E+01 -0.12964288668E+02  0.15073923619E+02  0.51100000000E-03 0.  1.
        -12    1    3    3    0    0  0.23294268026E+02  0.14526211106E+02 -0.11378051436E+02  0.29716893957E+02  0.00000000000E+00 0.  1.
</event>
<event>
 7    1  0.6090311E-013  0.5052885E+02  0.7816164E-02  0.1300439E+00
        -11   -1    0    0    0    0  0.00000000000E+00  0.00000000000E+00  0.45593999997E+02  0.45594000000E+02  0.51100000000E-03 0. -1.
         11   -1    0    0    0    0 -0.00000000000E+00 -0.00000000000E+00 -0.45593999997E+02  0.45594000000E+02  0.51100000000E-03 0.  1.
    9900012    2    1    2    0    0 -0.40312547731E+02  0.57581325190E+00 -0.52662357771E+01  0.50528852140E+02  0.29999976565E+02 0.  0.
        -12    1    1    2    0    0  0.40312547731E+02 -0.57581325190E+00  0.52662357771E+01  0.40659147860E+02  0.00000000000E+00 0.  1.
         11    1    3    3    0    0 -0.33760214350E+02  0.48273719174E+01 -0.58157746607E+01  0.34595936579E+02  0.51100000000E-03 0. -1.
        -11    1    3    3    0    0 -0.10878096631E+02 -0.37136144277E+01 -0.26891214328E+00  0.11497662042E+02  0.51100000000E-03 0.  1.
         12    1    3    3    0    0  0.43257632501E+01 -0.53794423776E+00  0.81845102684E+00  0.44352535195E+01  0.00000000000E+00 0. -1.
</event>
<event>
 7    1  0.6090311E-013  0.5052881E+02  0.7816164E-02  0.1300439E+00
        -11   -1    0    0    0    0  0.00000000000E+00  0.00000000000E+00  0.45593999997E+02  0.45594000000E+02  0.51100000000E-03 0.  1.
         11   -1    0    0    0    0 -0.00000000000E+00 -0.00000000000E+00 -0.45593999997E+02  0.45594000000E+02  0.51100000000E-03 0. -1.
    9900012    2    1    2    0    0  0.27448170937E+02  0.27503634052E+02 -0.11971550703E+02  0.50528806697E+02  0.29999838435E+02 0.  0.
        -12    1    1    2    0    0 -0.27448170937E+02 -0.27503634052E+02  0.11971550703E+02  0.40659193303E+02  0.00000000000E+00 0.  1.
         11    1    3    3    0    0 -0.71446289323E-02 -0.74036163475E+00 -0.38720368325E-01  0.74140806846E+00  0.51100000000E-03 0. -1.
        -11    1    3    3    0    0  0.13342770419E+01  0.21028568746E+02 -0.31789464263E+01  0.21309310157E+02  0.51100000000E-03 0.  1.
         12    1    3    3    0    0  0.26121038524E+02  0.72154269410E+01 -0.87538839086E+01  0.28478088471E+02  0.00000000000E+00 0. -1.
</event>
<event>
 7    1  0.6090311E-013  0.5052885E+02  0.7816164E-02  0.1300439E+00
        -11   -1    0    0    0    0  0.00000000000E+00  0.00000000000E+00  0.45593999997E+02  0.45594000000E+02  0.51100000000E-03 0.  1.
         11   -1    0    0    0    0 -0.00000000000E+00 -0.00000000000E+00 -0.45593999997E+02  0.45594000000E+02  0.51100000000E-03 0. -1.
    9900012    2    1    2    0    0  0.30288219300E+02  0.26762502253E+02 -0.44225640639E+01  0.50528845703E+02  0.29999957000E+02 0.  0.
        -12    1    1    2    0    0 -0.30288219300E+02 -0.26762502253E+02  0.44225640639E+01  0.40659154297E+02  0.00000000000E+00 0.  1.
         11    1    3    3    0    0  0.19035817490E+02  0.30652456251E+02  0.97059537197E+00  0.36095394130E+02  0.51100000000E-03 0. -1.
        -11    1    3    3    0    0  0.42167819115E+01  0.82772725889E+00  0.16741473096E+00  0.43005127668E+01  0.51100000000E-03 0.  1.
         12    1    3    3    0    0  0.70356198989E+01 -0.47176812571E+01 -0.55605741668E+01  0.10132938807E+02  0.00000000000E+00 0. -1.
</event>
<event>
 7    1  0.6090311E-013  0.5052886E+02  0.7816164E-02  0.1300439E+00
        -11   -1    0    0    0    0  0.00000000000E+00  0.00000000000E+00  0.45593999997E+02  0.45594000000E+02  0.51100000000E-03 0. -1.
         11   -1    0    0    0    0 -0.00000000000E+00 -0.00000000000E+00 -0.45593999997E+02  0.45594000000E+02  0.51100000000E-03 0.  1.
    9900012    2    1    2    0    0 -0.28423630593E+02  0.20460485871E+02  0.20655050207E+02  0.50528863792E+02  0.30000011981E+02 0.  0.
        -12    1    1    2    0    0  0.28423630593E+02 -0.20460485871E+02 -0.20655050207E+02  0.40659136208E+02  0.00000000000E+00 0.  1.
         11    1    3    3    0    0 -0.15430411922E+02  0.12273577620E+02  0.38603903894E+01  0.20090817154E+02  0.51100000000E-03 0.  1.
        -11    1    3    3    0    0 -0.13670592209E+02  0.12521506985E+02  0.71992509267E+01  0.19887243215E+02  0.51100000000E-03 0. -1.
        -12    1    3    3    0    0  0.67737353783E+00 -0.43345987342E+01  0.95954088905E+01  0.10550803423E+02  0.00000000000E+00 0.  1.
</event>
<event>
 7    1  0.6090311E-013  0.5052888E+02  0.7816164E-02  0.1300439E+00
        -11   -1    0    0    0    0  0.00000000000E+00  0.00000000000E+00  0.45593999997E+02  0.45594000000E+02  0.51100000000E-03 0.  1.
         11   -1    0    0    0    0 -0.00000000000E+00 -0.00000000000E+00 -0.45593999997E+02  0.45594000000E+02  0.51100000000E-03 0. -1.
    9900012    2    1    2    0    0 -0.12232052831E+02  0.28429230498E+02 -0.26368923938E+02  0.50528875405E+02  0.30000047280E+02 0.  0.
        -12    1    1    2    0    0  0.12232052831E+02 -0.28429230498E+02  0.26368923938E+02  0.40659124595E+02  0.00000000000E+00 0.  1.
         11    1    3    3    0    0 -0.55006120341E+01  0.12207939780E+02  0.14788212293E+01  0.13471356238E+02  0.51100000000E-03 0. -1.
        -11    1    3    3    0    0 -0.47449278736E+01  0.26769581888E+00  0.16935118572E+00  0.47554896343E+01  0.51100000000E-03 0.  1.
         12    1    3    3    0    0 -0.19865129229E+01  0.15953594900E+02 -0.28017096353E+02  0.32302029532E+02  0.00000000000E+00 0. -1.
</event>
<event>
 7    1  0.6090311E-013  0.5052884E+02  0.7816164E-02  0.1300439E+00
        -11   -1    0    0    0    0  0.00000000000E+00  0.00000000000E+00  0.45593999997E+02  0.45594000000E+02  0.51100000000E-03 0. -1.
         11   -1    0    0    0    0 -0.00000000000E+00 -0.00000000000E+00 -0.45593999997E+02  0.45594000000E+02  0.51100000000E-03 0.  1.
    9900012    2    1    2    0    0 -0.31649026964E+02 -0.13425942025E+02  0.21708307939E+02  0.50528837925E+02  0.29999933358E+02 0.  0.
        -12    1    1    2    0    0  0.31649026964E+02  0.13425942025E+02 -0.21708307939E+02  0.40659162075E+02  0.00000000000E+00 0.  1.
         11    1    3    3    0    0 -0.11797099837E+02  0.77433766219E+01  0.49852493305E+01  0.14966100268E+02  0.51100000000E-03 0. -1.
        -11    1    3    3    0    0 -0.17901661607E+01  0.15073311070E+01  0.72021285066E+00  0.24485605487E+01  0.51100000000E-03 0.  1.
         12    1    3    3    0    0 -0.18061760966E+02 -0.22676649754E+02  0.16002845758E+02  0.33114177109E+02  0.00000000000E+00 0. -1.
</event>
<event>
 7    1  0.6090311E-013  0.5052886E+02  0.7816164E-02  0.1300439E+00
        -11   -1    0    0    0    0  0.00000000000E+00  0.00000000000E+00  0.45593999997E+02  0.45594000000E+02  0.51100000000E-03 0.  1.
         11   -1    0    0    0    0 -0.00000000000E+00 -0.00000000000E+00 -0.45593999997E+02  0.45594000000E+02  0.51100000000E-03 0. -1.
    9900012    2    1    2    0    0 -0.30329710707E+01 -0.74602881707E+01 -0.39853613574E+02  0.50528864151E+02  0.30000013073E+02 0.  0.
        -12    1    1    2    0    0  0.30329710707E+01  0.74602881707E+01  0.39853613574E+02  0.40659135849E+02  0.00000000000E+00 0.  1.
         11    1    3    3    0    0 -0.20430876928E+01 -0.72737320547E+01 -0.11297728565E+02  0.13591175678E+02  0.51100000000E-03 0. -1.
        -11    1    3    3    0    0  0.10881584465E+01 -0.66660531211E+01 -0.29322242019E+02  0.30090101866E+02  0.51100000000E-03 0.  1.
        -12    1    3    3    0    0 -0.20780418244E+01  0.64794970051E+01  0.76635701064E+00  0.68475866063E+01  0.00000000000E+00 0.  1.
</event>
<event>
 7    1  0.6090311E-013  0.5052888E+02  0.7816164E-02  0.1300439E+00
        -11   -1    0    0    0    0  0.00000000000E+00  0.00000000000E+00  0.45593999997E+02  0.45594000000E+02  0.51100000000E-03 0. -1.
         11   -1    0    0    0    0 -0.00000000000E+00 -0.00000000000E+00 -0.45593999997E+02  0.45594000000E+02  0.51100000000E-03 0.  1.
    9900012    2    1    2    0    0  0.24711611348E+02  0.24254111056E+02  0.21312874044E+02  0.50528877549E+02  0.30000053796E+02 0.  0.
        -12    1    1    2    0    0 -0.24711611348E+02 -0.24254111056E+02 -0.21312874044E+02  0.40659122451E+02  0.00000000000E+00 0.  1.
         11    1    3    3    0    0  0.12076780762E+02  0.69096378390E+01  0.12370667611E+02  0.18617871684E+02  0.51100000000E-03 0. -1.
        -11    1    3    3    0    0  0.32296886510E+01 -0.10977889258E+01  0.10607134184E+02  0.11142141857E+02  0.51100000000E-03 0.  1.
        -12    1    3    3    0    0  0.94051419352E+01  0.18442262142E+02 -0.16649277509E+01  0.20768864008E+02  0.00000000000E+00 0.  1.
</event>
<event>
 7    1  0.6090311E-013  0.5052886E+02  0.7816164E-02  0.1300439E+00
        -11   -1    0    0    0    0  0.00000000000E+00  0.00000000000E+00  0.45593999997E+02  0.45594000000E+02  0.51100000000E-03 0.  1.
         11   -1    0    0    0    0 -0.00000000000E+00 -0.00000000000E+00 -0.45593999997E+02  0.45594000000E+02  0.51100000000E-03 0. -1.
    9900012    2    1    2    0    0  0.35792818373E+01 -0.39056682494E+02  0.10720523794E+02  0.50528864048E+02  0.30000012761E+02 0.  0.
        -12    1    1    2    0    0 -0.35792818373E+01  0.39056682494E+02 -0.10720523794E+02  0.40659135952E+02  0.00000000000E+00 0.  1.
         11    1    3    3    0    0  0.58048574043E+01 -0.68799044187E+01 -0.76690336918E-01  0.90019628950E+01  0.51100000000E-03 0. -1.
        -11    1    3    3    0    0  0.86682645892E+01 -0.52271751375E+01  0.67782711247E+01  0.12182246534E+02  0.51100000000E-03 0.  1.
         12    1    3    3    0    0 -0.10893840156E+02 -0.26949602938E+02  0.40189430059E+01  0.29344654620E+02  0.00000000000E+00 0. -1.
</event>
<event>
 7    1  0.6090311E-013  0.5052886E+02  0.7816164E-02  0.1300439E+00
        -11   -1    0    0    0    0  0.00000000000E+00  0.00000000000E+00  0.45593999997E+02  0.45594000000E+02  0.51100000000E-03 0.  1.
         11   -1    0    0    0    0 -0.00000000000E+00 -0.00000000000E+00 -0.45593999997E+02  0.45594000000E+02  0.51100000000E-03 0. -1.
    9900012    2    1    2    0    0 -0.58788657615E+00 -0.14169545498E+02 -0.38105691704E+02  0.50528863629E+02  0.30000011486E+02 0.  0.
        -12    1    1    2    0    0  0.58788657615E+00  0.14169545498E+02  0.38105691704E+02  0.40659136371E+02  0.00000000000E+00 0.  1.
         11    1    3    3    0    0  0.42454977702E+01 -0.41339398172E+01  0.24176127077E+00  0.59306119838E+01  0.51100000000E-03 0. -1.
        -11    1    3    3    0    0  0.73514215732E+00  0.27214037791E+01  0.89714593832E+00  0.29582669954E+01  0.51100000000E-03 0.  1.
        -12    1    3    3    0    0 -0.55685265037E+01 -0.12757009460E+02 -0.39244598913E+02  0.41639984649E+02  0.00000000000E+00 0.  1.
</event>
<event>
 7    1  0.6090311E-013  0.5052886E+02  0.7816164E-02  0.1300439E+00
        -11   -1    0    0    0    0  0.00000000000E+00  0.00000000000E+00  0.45593999997E+02  0.45594000000E+02  0.51100000000E-03 0.  1.
         11   -1    0    0    0    0 -0.00000000000E+00 -0.00000000000E+00 -0.45593999997E+02  0.45594000000E+02  0.51100000000E-03 0. -1.
    9900012    2    1    2    0    0  0.27753534289E+02 -0.29473153534E+02  0.37736078668E+01  0.50528861284E+02  0.30000004359E+02 0.  0.
        -12    1    1    2    0    0 -0.27753534289E+02  0.29473153534E+02 -0.37736078668E+01  0.40659138716E+02  0.00000000000E+00 0.  1.
         11    1    3    3    0    0  0.25262476342E+02 -0.17274835753E+02  0.83490807331E+01  0.31722544200E+02  0.51100000000E-03 0. -1.
        -11    1    3    3    0    0  0.18964677893E+01 -0.48581988352E+01  0.46602615250E+01  0.69940491663E+01  0.51100000000E-03 0.  1.
         12    1    3    3    0    0  0.59459015796E+00 -0.73401189465E+01 -0.92357343913E+01  0.11812267917E+02  0.00000000000E+00 0. -1.
</event>
<event>
 7    1  0.6090311E-013  0.5052886E+02  0.7816164E-02  0.1300439E+00
        -11   -1    0    0    0    0  0.00000000000E+00  0.00000000000E+00  0.45593999997E+02  0.45594000000E+02  0.51100000000E-03 0. -1.
         11   -1    0    0    0    0 -0.00000000000E+00 -0.00000000000E+00 -0.45593999997E+02  0.45594000000E+02  0.51100000000E-03 0.  1.
    9900012    2    1    2    0    0 -0.35579746221E+02  0.10770673237E+02  0.16469368695E+02  0.50528857752E+02  0.29999993624E+02 0.  0.
        -12    1    1    2    0    0  0.35579746221E+02 -0.10770673237E+02 -0.16469368695E+02  0.40659142248E+02  0.00000000000E+00 0.  1.
         11    1    3    3    0    0 -0.64153463230E+00  0.55467551829E+01 -0.44572332051E+00  0.56014934869E+01  0.51100000000E-03 0. -1.
        -11    1    3    3    0    0 -0.10398015132E+02  0.72961046914E+01  0.15802273125E+02  0.20274705881E+02  0.51100000000E-03 0.  1.
        -12    1    3    3    0    0 -0.24540196456E+02 -0.20721866374E+01  0.11128188905E+01  0.24652658385E+02  0.00000000000E+00 0.  1.
</event>
<event>
 7    1  0.6090311E-013  0.5052887E+02  0.7816164E-02  0.1300439E+00
        -11   -1    0    0    0    0  0.00000000000E+00  0.00000000000E+00  0.45593999997E+02  0.45594000000E+02  0.51100000000E-03 0.  1.
         11   -1    0    0    0    0 -0.00000000000E+00 -0.00000000000E+00 -0.45593999997E+02  0.45594000000E+02  0.51100000000E-03 0. -1.
    9900012    2    1    2    0    0 -0.30585249436E+02 -0.22614603091E+02 -0.14362699419E+02  0.50528869529E+02  0.30000029420E+02 0.  0.
        -12    1    1    2    0    0  0.30585249436E+02  0.22614603091E+02  0.14362699419E+02  0.40659130471E+02  0.00000000000E+00 0.  1.
         11    1    3    3    0    0 -0.62953884903E+01 -0.11428401954E+02 -0.36705299246E+01  0.13554079742E+02  0.51100000000E-03 0. -1.
        -11    1    3    3    0    0  0.31349154965E+01  0.38195469357E-01 -0.62748980052E+01  0.70145206038E+01  0.51100000000E-03 0.  1.
         12    1    3    3    0    0 -0.27424776443E+02 -0.11224396606E+02 -0.44172714890E+01  0.29960269183E+02  0.00000000000E+00 0. -1.
</event>
<event>
 7    1  0.6090311E-013  0.5052886E+02  0.7816164E-02  0.1300439E+00
        -11   -1    0    0    0    0  0.00000000000E+00  0.00000000000E+00  0.45593999997E+02  0.45594000000E+02  0.51100000000E-03 0. -1.
         11   -1    0    0    0    0 -0.00000000000E+00 -0.00000000000E+00 -0.45593999997E+02  0.45594000000E+02  0.51100000000E-03 0.  1.
    9900012    2    1    2    0    0  0.30706997966E+02 -0.24817939758E+02 -0.97116321908E+01  0.50528860096E+02  0.30000000747E+02 0.  0.
        -12    1    1    2    0    0 -0.30706997966E+02  0.24817939758E+02  0.97116321908E+01  0.40659139904E+02  0.00000000000E+00 0.  1.
         11    1    3    3    0    0  0.13947795489E+01  0.40982689650E+01  0.19677714799E+01  0.47553489207E+01  0.51100000000E-03 0. -1.
        -11    1    3    3    0    0  0.64516088505E+01 -0.13659758623E+02 -0.10243353481E+02  0.18252083531E+02  0.51100000000E-03 0.  1.
         12    1    3    3    0    0  0.22860609567E+02 -0.15256450100E+02 -0.14360501892E+01  0.27521427644E+02  0.00000000000E+00 0. -1.
</event>
<event>
 7    1  0.6090311E-013  0.5052886E+02  0.7816164E-02  0.1300439E+00
        -11   -1    0    0    0    0  0.00000000000E+00  0.00000000000E+00  0.45593999997E+02  0.45594000000E+02  0.51100000000E-03 0.  1.
         11   -1    0    0    0    0 -0.00000000000E+00 -0.00000000000E+00 -0.45593999997E+02  0.45594000000E+02  0.51100000000E-03 0. -1.
    9900012    2    1    2    0    0  0.28975246724E+02 -0.62438229068E+01 -0.27831906524E+02  0.50528864889E+02  0.30000015317E+02 0.  0.
        -12    1    1    2    0    0 -0.28975246724E+02  0.62438229068E+01  0.27831906524E+02  0.40659135111E+02  0.00000000000E+00 0.  1.
         11    1    3    3    0    0  0.96610007335E+01  0.12083439639E-01 -0.51863431726E+01  0.10965091744E+02  0.51100000000E-03 0. -1.
        -11    1    3    3    0    0  0.19029138785E+02 -0.62818517246E+01 -0.27872776404E+02  0.34328726290E+02  0.51100000000E-03 0.  1.
        -12    1    3    3    0    0  0.28510720520E+00  0.25945378138E-01  0.52272130522E+01  0.52350468550E+01  0.00000000000E+00 0.  1.
</event>
<event>
 7    1  0.6090311E-013  0.5052886E+02  0.7816164E-02  0.1300439E+00
        -11   -1    0    0    0    0  0.00000000000E+00  0.00000000000E+00  0.45593999997E+02  0.45594000000E+02  0.51100000000E-03 0.  1.
         11   -1    0    0    0    0 -0.00000000000E+00 -0.00000000000E+00 -0.45593999997E+02  0.45594000000E+02  0.51100000000E-03 0. -1.
    9900012    2    1    2    0    0  0.11785894958E+02 -0.30772493360E+02 -0.23818316720E+02  0.50528857376E+02  0.29999992481E+02 0.  0.
        -12    1    1    2    0    0 -0.11785894958E+02  0.30772493360E+02  0.23818316720E+02  0.40659142624E+02  0.00000000000E+00 0.  1.
         11    1    3    3    0    0  0.10459455888E+01 -0.12226383677E+02 -0.12899048288E+02  0.17803480193E+02  0.51100000000E-03 0. -1.
        -11    1    3    3    0    0 -0.82749900653E+00 -0.19056674007E+02 -0.49886236886E+01  0.19716184859E+02  0.51100000000E-03 0.  1.
        -12    1    3    3    0    0  0.11567448376E+02  0.51056432457E+00 -0.59306447433E+01  0.13009192324E+02  0.00000000000E+00 0.  1.
</event>
<event>
 7    1  0.6090311E-013  0.5052886E+02  0.7816164E-02  0.1300439E+00
        -11   -1    0    0    0    0  0.00000000000E+00  0.00000000000E+00  0.45593999997E+02  0.45594000000E+02  0.51100000000E-03 0.  1.
         11   -1    0    0    0    0 -0.00000000000E+00 -0.00000000000E+00 -0.45593999997E+02  0.45594000000E+02  0.51100000000E-03 0. -1.
    9900012    2    1    2    0    0 -0.24267232423E+02  0.11957182483E+02 -0.30352805014E+02  0.50528861364E+02  0.30000004603E+02 0.  0.
        -12    1    1    2    0    0  0.24267232423E+02 -0.11957182483E+02  0.30352805014E+02  0.40659138636E+02  0.00000000000E+00 0.  1.
         11    1    3    3    0    0 -0.11992361776E+02  0.18622356671E+01 -0.20190150100E+02  0.23556884853E+02  0.51100000000E-03 0. -1.
        -11    1    3    3    0    0  0.31079016487E+00  0.35492023015E+01 -0.12137018964E+02  0.12649136615E+02  0.51100000000E-03 0.  1.
        -12    1    3    3    0    0 -0.12585660812E+02  0.65457445141E+01  0.19743640499E+01  0.14322839897E+02  0.00000000000E+00 0.  1.
</event>
<event>
 7    1  0.6090311E-013  0.5052879E+02  0.7816164E-02  0.1300439E+00
        -11   -1    0    0    0    0  0.00000000000E+00  0.00000000000E+00  0.45593999997E+02  0.45594000000E+02  0.51100000000E-03 0.  1.
         11   -1    0    0    0    0 -0.00000000000E+00 -0.00000000000E+00 -0.45593999997E+02  0.45594000000E+02  0.51100000000E-03 0. -1.
    9900012    2    1    2    0    0  0.31044866996E+02 -0.26166880944E+02  0.21638460029E+01  0.50528786350E+02  0.29999776589E+02 0.  0.
        -12    1    1    2    0    0 -0.31044866996E+02  0.26166880944E+02 -0.21638460029E+01  0.40659213650E+02  0.00000000000E+00 0.  1.
         11    1    3    3    0    0 -0.30658057166E+01 -0.82051620389E+01  0.19679762215E+01  0.89775709102E+01  0.51100000000E-03 0.  1.
        -11    1    3    3    0    0  0.29647222325E+01 -0.83674956873E+01 -0.10381331847E+01  0.89376888938E+01  0.51100000000E-03 0. -1.
         12    1    3    3    0    0  0.31145950480E+02 -0.95942232176E+01  0.12340029661E+01  0.32613526546E+02  0.00000000000E+00 0. -1.
</event>
<event>
 7    1  0.6090311E-013  0.5052886E+02  0.7816164E-02  0.1300439E+00
        -11   -1    0    0    0    0  0.00000000000E+00  0.00000000000E+00  0.45593999997E+02  0.45594000000E+02  0.51100000000E-03 0. -1.
         11   -1    0    0    0    0 -0.00000000000E+00 -0.00000000000E+00 -0.45593999997E+02  0.45594000000E+02  0.51100000000E-03 0.  1.
    9900012    2    1    2    0    0 -0.22377212207E+02  0.69494545929E+01  0.33228469151E+02  0.50528859485E+02  0.29999998891E+02 0.  0.
        -12    1    1    2    0    0  0.22377212207E+02 -0.69494545929E+01 -0.33228469151E+02  0.40659140515E+02  0.00000000000E+00 0.  1.
         11    1    3    3    0    0 -0.45009864464E+01  0.95181801430E+01  0.14072121078E+02  0.17574960145E+02  0.51100000000E-03 0. -1.
        -11    1    3    3    0    0 -0.28484268362E+01  0.74603166250E+01  0.24665688910E+01  0.83578598900E+01  0.51100000000E-03 0.  1.
        -12    1    3    3    0    0 -0.15027798924E+02 -0.10029042175E+02  0.16689779182E+02  0.24596039450E+02  0.00000000000E+00 0.  1.
</event>
<event>
 7    1  0.6090311E-013  0.5052886E+02  0.7816164E-02  0.1300439E+00
        -11   -1    0    0    0    0  0.00000000000E+00  0.00000000000E+00  0.45593999997E+02  0.45594000000E+02  0.51100000000E-03 0. -1.
         11   -1    0    0    0    0 -0.00000000000E+00 -0.00000000000E+00 -0.45593999997E+02  0.45594000000E+02  0.51100000000E-03 0.  1.
    9900012    2    1    2    0    0 -0.18362505622E+02 -0.99042301516E+01  0.34898286459E+02  0.50528858526E+02  0.29999995976E+02 0.  0.
        -12    1    1    2    0    0  0.18362505622E+02  0.99042301516E+01 -0.34898286459E+02  0.40659141474E+02  0.00000000000E+00 0.  1.
         11    1    3    3    0    0 -0.23218129292E+00 -0.82035492162E+01  0.26953071160E+02  0.28174814517E+02  0.51100000000E-03 0. -1.
        -11    1    3    3    0    0 -0.10796791617E+00 -0.27235646391E+01  0.18792103774E+01  0.33107239869E+01  0.51100000000E-03 0.  1.
        -12    1    3    3    0    0 -0.18022356413E+02  0.10228837037E+01  0.60660049223E+01  0.19043320022E+02  0.00000000000E+00 0.  1.
</event>
<event>
 7    1  0.6090311E-013  0.5052888E+02  0.7816164E-02  0.1300439E+00
        -11   -1    0    0    0    0  0.00000000000E+00  0.00000000000E+00  0.45593999997E+02  0.45594000000E+02  0.51100000000E-03 0. -1.
         11   -1    0    0    0    0 -0.00000000000E+00 -0.00000000000E+00 -0.45593999997E+02  0.45594000000E+02  0.51100000000E-03 0.  1.
    9900012    2    1    2    0    0 -0.24915649908E+02 -0.26999051222E+02  0.17419119530E+02  0.50528879222E+02  0.30000058884E+02 0.  0.
        -12    1    1    2    0    0  0.24915649908E+02  0.26999051222E+02 -0.17419119530E+02  0.40659120778E+02  0.00000000000E+00 0.  1.
         11    1    3    3    0    0 -0.26839028611E+02 -0.27276378590E+02  0.75494109034E+01  0.39004203504E+02  0.51100000000E-03 0.  1.
        -11    1    3    3    0    0  0.94209001867E+00 -0.23212269844E+01  0.20850402428E+01  0.32592976838E+01  0.51100000000E-03 0. -1.
        -12    1    3    3    0    0  0.98128868388E+00  0.25985543524E+01  0.77846683839E+01  0.82653780343E+01  0.00000000000E+00 0.  1.
</event>
<event>
 7    1  0.6090311E-013  0.5052885E+02  0.7816164E-02  0.1300439E+00
        -11   -1    0    0    0    0  0.00000000000E+00  0.00000000000E+00  0.45593999997E+02  0.45594000000E+02  0.51100000000E-03 0.  1.
         11   -1    0    0    0    0 -0.00000000000E+00 -0.00000000000E+00 -0.45593999997E+02  0.45594000000E+02  0.51100000000E-03 0. -1.
    9900012    2    1    2    0    0 -0.18323747782E+02 -0.27179368707E+02 -0.24055940848E+02  0.50528854581E+02  0.29999983985E+02 0.  0.
        -12    1    1    2    0    0  0.18323747782E+02  0.27179368707E+02  0.24055940848E+02  0.40659145419E+02  0.00000000000E+00 0.  1.
         11    1    3    3    0    0 -0.63305754501E+01  0.11592612047E+01 -0.14521245945E+02  0.15883534120E+02  0.51100000000E-03 0. -1.
        -11    1    3    3    0    0  0.44027864391E+00  0.10828684071E+01  0.33218553005E+00  0.12152352689E+01  0.51100000000E-03 0.  1.
         12    1    3    3    0    0 -0.12433450976E+02 -0.29421498319E+02 -0.98668804326E+01  0.33430085192E+02  0.00000000000E+00 0. -1.
</event>
<event>
 7    1  0.6090311E-013  0.5052884E+02  0.7816164E-02  0.1300439E+00
        -11   -1    0    0    0    0  0.00000000000E+00  0.00000000000E+00  0.45593999997E+02  0.45594000000E+02  0.51100000000E-03 0.  1.
         11   -1    0    0    0    0 -0.00000000000E+00 -0.00000000000E+00 -0.45593999997E+02  0.45594000000E+02  0.51100000000E-03 0. -1.
    9900012    2    1    2    0    0 -0.19539085096E+01 -0.18904330677E+02 -0.35944062083E+02  0.50528842657E+02  0.29999947741E+02 0.  0.
        -12    1    1    2    0    0  0.19539085096E+01  0.18904330677E+02  0.35944062083E+02  0.40659157343E+02  0.00000000000E+00 0.  1.
         11    1    3    3    0    0 -0.74184840612E+01 -0.13513535340E+02 -0.11870822463E+02  0.19456771813E+02  0.51100000000E-03 0. -1.
        -11    1    3    3    0    0 -0.58033798053E+01 -0.34535887971E+01 -0.36757375687E+01  0.76887931224E+01  0.51100000000E-03 0.  1.
         12    1    3    3    0    0  0.11267955357E+02 -0.19372065398E+01 -0.20397502051E+02  0.23383277722E+02  0.00000000000E+00 0. -1.
</event>
<event>
 7    1  0.6090311E-013  0.5052886E+02  0.7816164E-02  0.1300439E+00
        -11   -1    0    0    0    0  0.00000000000E+00  0.00000000000E+00  0.45593999997E+02  0.45594000000E+02  0.51100000000E-03 0. -1.
         11   -1    0    0    0    0 -0.00000000000E+00 -0.00000000000E+00 -0.45593999997E+02  0.45594000000E+02  0.51100000000E-03 0.  1.
    9900012    2    1    2    0    0  0.17726423892E+02  0.26041641558E+02  0.25705493813E+02  0.50528860668E+02  0.30000002486E+02 0.  0.
        -12    1    1    2    0    0 -0.17726423892E+02 -0.26041641558E+02 -0.25705493813E+02  0.40659139332E+02  0.00000000000E+00 0.  1.
         11    1    3    3    0    0  0.48631231750E+01 -0.15447799385E+01 -0.23819336854E+01  0.56311562237E+01  0.51100000000E-03 0. -1.
        -11    1    3    3    0    0  0.11119693521E+02  0.75918660168E+01  0.51410006489E+01  0.14412283010E+02  0.51100000000E-03 0.  1.
         12    1    3    3    0    0  0.17436071964E+01  0.19994555480E+02  0.22946426849E+02  0.30485421435E+02  0.00000000000E+00 0. -1.
</event>
<event>
 7    1  0.6090311E-013  0.5052886E+02  0.7816164E-02  0.1300439E+00
        -11   -1    0    0    0    0  0.00000000000E+00  0.00000000000E+00  0.45593999997E+02  0.45594000000E+02  0.51100000000E-03 0. -1.
         11   -1    0    0    0    0 -0.00000000000E+00 -0.00000000000E+00 -0.45593999997E+02  0.45594000000E+02  0.51100000000E-03 0.  1.
    9900012    2    1    2    0    0 -0.64935558248E+01 -0.53191379105E+01  0.39783242761E+02  0.50528857118E+02  0.29999991695E+02 0.  0.
        -12    1    1    2    0    0  0.64935558248E+01  0.53191379105E+01 -0.39783242761E+02  0.40659142882E+02  0.00000000000E+00 0.  1.
         11    1    3    3    0    0 -0.30743633666E+01  0.65763910250E+01  0.28704234105E+02  0.29608000351E+02  0.51100000000E-03 0. -1.
        -11    1    3    3    0    0 -0.38431808304E+01 -0.72639389049E+01  0.13402835464E+02  0.15721668043E+02  0.51100000000E-03 0.  1.
        -12    1    3    3    0    0  0.42398837214E+00 -0.46315900306E+01 -0.23238268075E+01  0.51991887235E+01  0.00000000000E+00 0.  1.
</event>
<event>
 7    1  0.6090311E-013  0.5052886E+02  0.7816164E-02  0.1300439E+00
        -11   -1    0    0    0    0  0.00000000000E+00  0.00000000000E+00  0.45593999997E+02  0.45594000000E+02  0.51100000000E-03 0.  1.
         11   -1    0    0    0    0 -0.00000000000E+00 -0.00000000000E+00 -0.45593999997E+02  0.45594000000E+02  0.51100000000E-03 0. -1.
    9900012    2    1    2    0    0  0.38108226014E+02  0.14004262173E+02 -0.21930515176E+01  0.50528859282E+02  0.29999998274E+02 0.  0.
        -12    1    1    2    0    0 -0.38108226014E+02 -0.14004262173E+02  0.21930515176E+01  0.40659140718E+02  0.00000000000E+00 0.  1.
         11    1    3    3    0    0  0.32176343044E+02  0.12242157016E+02 -0.68128725204E+01  0.35094197417E+02  0.51100000000E-03 0. -1.
        -11    1    3    3    0    0  0.28563851694E+01  0.72259900996E+01  0.21674989821E+00  0.77730849690E+01  0.51100000000E-03 0.  1.
         12    1    3    3    0    0  0.30754978001E+01 -0.54638849424E+01  0.44030711046E+01  0.76615768961E+01  0.00000000000E+00 0. -1.
</event>
<event>
 7    1  0.6090311E-013  0.5052886E+02  0.7816164E-02  0.1300439E+00
        -11   -1    0    0    0    0  0.00000000000E+00  0.00000000000E+00  0.45593999997E+02  0.45594000000E+02  0.51100000000E-03 0. -1.
         11   -1    0    0    0    0 -0.00000000000E+00 -0.00000000000E+00 -0.45593999997E+02  0.45594000000E+02  0.51100000000E-03 0.  1.
    9900012    2    1    2    0    0 -0.34206737460E+02  0.12959547685E+02 -0.17751476865E+02  0.50528859641E+02  0.29999999365E+02 0.  0.
        -12    1    1    2    0    0  0.34206737460E+02 -0.12959547685E+02  0.17751476865E+02  0.40659140359E+02  0.00000000000E+00 0.  1.
         11    1    3    3    0    0 -0.30560823518E+02 -0.81739688894E+00 -0.14268690241E+02  0.33737628744E+02  0.51100000000E-03 0. -1.
        -11    1    3    3    0    0  0.10807693787E+00 -0.83445334586E+00 -0.12995054437E+01  0.15481303789E+01  0.51100000000E-03 0.  1.
        -12    1    3    3    0    0 -0.37539908793E+01  0.14611397920E+02 -0.21832811808E+01  0.15243100518E+02  0.00000000000E+00 0.  1.
</event>
<event>
 7    1  0.6090311E-013  0.5052886E+02  0.7816164E-02  0.1300439E+00
        -11   -1    0    0    0    0  0.00000000000E+00  0.00000000000E+00  0.45593999997E+02  0.45594000000E+02  0.51100000000E-03 0. -1.
         11   -1    0    0    0    0 -0.00000000000E+00 -0.00000000000E+00 -0.45593999997E+02  0.45594000000E+02  0.51100000000E-03 0.  1.
    9900012    2    1    2    0    0 -0.13990864479E+02 -0.28933559377E+02  0.24905233696E+02  0.50528858192E+02  0.29999994960E+02 0.  0.
        -12    1    1    2    0    0  0.13990864479E+02  0.28933559377E+02 -0.24905233696E+02  0.40659141808E+02  0.00000000000E+00 0.  1.
         11    1    3    3    0    0 -0.36238934325E+00 -0.10234916764E+02 -0.12301151982E+00  0.10242069092E+02  0.51100000000E-03 0. -1.
        -11    1    3    3    0    0 -0.53419259817E+00 -0.50008837103E+01 -0.34365216007E+01  0.60912954771E+01  0.51100000000E-03 0.  1.
         12    1    3    3    0    0 -0.13094282538E+02 -0.13697758903E+02  0.28464766817E+02  0.34195493622E+02  0.00000000000E+00 0. -1.
</event>
<event>
 7    1  0.6090311E-013  0.5052884E+02  0.7816164E-02  0.1300439E+00
        -11   -1    0    0    0    0  0.00000000000E+00  0.00000000000E+00  0.45593999997E+02  0.45594000000E+02  0.51100000000E-03 0.  1.
         11   -1    0    0    0    0 -0.00000000000E+00 -0.00000000000E+00 -0.45593999997E+02  0.45594000000E+02  0.51100000000E-03 0. -1.
    9900012    2    1    2    0    0  0.22609272361E+02  0.23650877138E+02 -0.24137611799E+02  0.50528837571E+02  0.29999932280E+02 0.  0.
        -12    1    1    2    0    0 -0.22609272361E+02 -0.23650877138E+02  0.24137611799E+02  0.40659162429E+02  0.00000000000E+00 0.  1.
         11    1    3    3    0    0  0.98737433196E+01  0.99074256226E+01 -0.97614898716E+01  0.17056804343E+02  0.51100000000E-03 0. -1.
        -11    1    3    3    0    0  0.17393586995E+02  0.21912200770E+01 -0.10462309412E+02  0.20415636960E+02  0.51100000000E-03 0.  1.
        -12    1    3    3    0    0 -0.46580579543E+01  0.11552231438E+02 -0.39138125159E+01  0.13056396268E+02  0.00000000000E+00 0.  1.
</event>
<event>
 7    1  0.6090311E-013  0.5052885E+02  0.7816164E-02  0.1300439E+00
        -11   -1    0    0    0    0  0.00000000000E+00  0.00000000000E+00  0.45593999997E+02  0.45594000000E+02  0.51100000000E-03 0.  1.
         11   -1    0    0    0    0 -0.00000000000E+00 -0.00000000000E+00 -0.45593999997E+02  0.45594000000E+02  0.51100000000E-03 0. -1.
    9900012    2    1    2    0    0 -0.28246582641E+02 -0.55067200949E+01 -0.28722341768E+02  0.50528852029E+02  0.29999976226E+02 0.  0.
        -12    1    1    2    0    0  0.28246582641E+02  0.55067200949E+01  0.28722341768E+02  0.40659147971E+02  0.00000000000E+00 0.  1.
         11    1    3    3    0    0 -0.14595157450E+01 -0.25838602415E+01 -0.18834776382E+01  0.35148269136E+01  0.51100000000E-03 0. -1.
        -11    1    3    3    0    0  0.10460985550E+01  0.50838259226E+01 -0.14738929588E+02  0.15626120883E+02  0.51100000000E-03 0.  1.
        -12    1    3    3    0    0 -0.27833165451E+02 -0.80066857759E+01 -0.12099934542E+02  0.31387904232E+02  0.00000000000E+00 0.  1.
</event>
<event>
 7    1  0.6090311E-013  0.5052886E+02  0.7816164E-02  0.1300439E+00
        -11   -1    0    0    0    0  0.00000000000E+00  0.00000000000E+00  0.45593999997E+02  0.45594000000E+02  0.51100000000E-03 0.  1.
         11   -1    0    0    0    0 -0.00000000000E+00 -0.00000000000E+00 -0.45593999997E+02  0.45594000000E+02  0.51100000000E-03 0. -1.
    9900012    2    1    2    0    0  0.22517838132E+01  0.16959892385E+01 -0.40561301138E+02  0.50528855151E+02  0.29999985718E+02 0.  0.
        -12    1    1    2    0    0 -0.22517838132E+01 -0.16959892385E+01  0.40561301138E+02  0.40659144849E+02  0.00000000000E+00 0.  1.
         11    1    3    3    0    0 -0.85013161979E+01  0.58039909508E+01 -0.11019436271E+02  0.15079345610E+02  0.51100000000E-03 0. -1.
        -11    1    3    3    0    0 -0.18969758036E+01 -0.13739458587E+01  0.79000600004E+00  0.24719130574E+01  0.51100000000E-03 0.  1.
         12    1    3    3    0    0  0.12650075815E+02 -0.27340558536E+01 -0.30331870867E+02  0.32977596484E+02  0.00000000000E+00 0. -1.
</event>
<event>
 7    1  0.6090311E-013  0.5052886E+02  0.7816164E-02  0.1300439E+00
        -11   -1    0    0    0    0  0.00000000000E+00  0.00000000000E+00  0.45593999997E+02  0.45594000000E+02  0.51100000000E-03 0.  1.
         11   -1    0    0    0    0 -0.00000000000E+00 -0.00000000000E+00 -0.45593999997E+02  0.45594000000E+02  0.51100000000E-03 0. -1.
    9900012    2    1    2    0    0 -0.81097443387E+01 -0.30013372589E+02 -0.26202966475E+02  0.50528856631E+02  0.29999990217E+02 0.  0.
        -12    1    1    2    0    0  0.81097443387E+01  0.30013372589E+02  0.26202966475E+02  0.40659143369E+02  0.00000000000E+00 0.  1.
         11    1    3    3    0    0  0.10344067975E+01 -0.15923689819E+02 -0.53682321151E+01  0.16836027180E+02  0.51100000000E-03 0. -1.
        -11    1    3    3    0    0 -0.40592863817E+01 -0.90270345767E+01  0.17005591277E+01  0.10042761612E+02  0.51100000000E-03 0.  1.
         12    1    3    3    0    0 -0.50848647546E+01 -0.50626481928E+01 -0.22535293487E+02  0.23650067840E+02  0.00000000000E+00 0. -1.
</event>
<event>
 7    1  0.6090311E-013  0.5052886E+02  0.7816164E-02  0.1300439E+00
        -11   -1    0    0    0    0  0.00000000000E+00  0.00000000000E+00  0.45593999997E+02  0.45594000000E+02  0.51100000000E-03 0. -1.
         11   -1    0    0    0    0 -0.00000000000E+00 -0.00000000000E+00 -0.45593999997E+02  0.45594000000E+02  0.51100000000E-03 0.  1.
    9900012    2    1    2    0    0 -0.15874233165E+02 -0.29861978314E+02  0.22570703096E+02  0.50528859999E+02  0.30000000452E+02 0.  0.
        -12    1    1    2    0    0  0.15874233165E+02  0.29861978314E+02 -0.22570703096E+02  0.40659140001E+02  0.00000000000E+00 0.  1.
         11    1    3    3    0    0  0.85242844604E+00 -0.63265557671E+01  0.17371743464E+02  0.18507550172E+02  0.51100000000E-03 0. -1.
        -11    1    3    3    0    0 -0.44130778695E+01 -0.16102204725E+02  0.56639936319E+01  0.17630572237E+02  0.51100000000E-03 0.  1.
        -12    1    3    3    0    0 -0.12313583741E+02 -0.74332178219E+01 -0.46503399977E+00  0.14390737589E+02  0.00000000000E+00 0.  1.
</event>
<event>
 7    1  0.6090311E-013  0.5052886E+02  0.7816164E-02  0.1300439E+00
        -11   -1    0    0    0    0  0.00000000000E+00  0.00000000000E+00  0.45593999997E+02  0.45594000000E+02  0.51100000000E-03 0. -1.
         11   -1    0    0    0    0 -0.00000000000E+00 -0.00000000000E+00 -0.45593999997E+02  0.45594000000E+02  0.51100000000E-03 0.  1.
    9900012    2    1    2    0    0  0.19875912000E+02  0.20557099723E+02  0.28905347391E+02  0.50528864069E+02  0.30000012824E+02 0.  0.
        -12    1    1    2    0    0 -0.19875912000E+02 -0.20557099723E+02 -0.28905347391E+02  0.40659135931E+02  0.00000000000E+00 0.  1.
         11    1    3    3    0    0  0.46454711538E+01  0.20897464902E+02  0.55884933424E+01  0.22125001687E+02  0.51100000000E-03 0.  1.
        -11    1    3    3    0    0  0.30404035082E+01  0.17214581800E+01  0.29236726007E+01  0.45558021791E+01  0.51100000000E-03 0. -1.
        -12    1    3    3    0    0  0.12190037338E+02 -0.20618233584E+01  0.20393181448E+02  0.23848060203E+02  0.00000000000E+00 0.  1.
</event>
<event>
 7    1  0.6090311E-013  0.5052890E+02  0.7816164E-02  0.1300439E+00
        -11   -1    0    0    0    0  0.00000000000E+00  0.00000000000E+00  0.45593999997E+02  0.45594000000E+02  0.51100000000E-03 0. -1.
         11   -1    0    0    0    0 -0.00000000000E+00 -0.00000000000E+00 -0.45593999997E+02  0.45594000000E+02  0.51100000000E-03 0.  1.
    9900012    2    1    2    0    0 -0.56107620902E+01 -0.26784870158E+02  0.30070796720E+02  0.50528896026E+02  0.30000109961E+02 0.  0.
        -12    1    1    2    0    0  0.56107620902E+01  0.26784870158E+02 -0.30070796720E+02  0.40659103974E+02  0.00000000000E+00 0.  1.
         11    1    3    3    0    0 -0.52240178498E+01 -0.17130942697E+02  0.44787041328E+01  0.18461266239E+02  0.51100000000E-03 0. -1.
        -11    1    3    3    0    0 -0.74984951497E+01 -0.21730086699E+00  0.95855093648E+01  0.12171961190E+02  0.51100000000E-03 0.  1.
        -12    1    3    3    0    0  0.71117509093E+01 -0.94366265941E+01  0.16006583222E+02  0.19895668597E+02  0.00000000000E+00 0.  1.
</event>
<event>
 7    1  0.6090311E-013  0.5052885E+02  0.7816164E-02  0.1300439E+00
        -11   -1    0    0    0    0  0.00000000000E+00  0.00000000000E+00  0.45593999997E+02  0.45594000000E+02  0.51100000000E-03 0. -1.
         11   -1    0    0    0    0 -0.00000000000E+00 -0.00000000000E+00 -0.45593999997E+02  0.45594000000E+02  0.51100000000E-03 0.  1.
    9900012    2    1    2    0    0  0.33572404310E+02  0.52510599048E+01  0.22326802585E+02  0.50528854965E+02  0.29999985152E+02 0.  0.
        -12    1    1    2    0    0 -0.33572404310E+02 -0.52510599048E+01 -0.22326802585E+02  0.40659145035E+02  0.00000000000E+00 0.  1.
         11    1    3    3    0    0  0.54391902447E+01 -0.24383988961E+00 -0.56436883499E+01  0.78419045430E+01  0.51100000000E-03 0. -1.
        -11    1    3    3    0    0  0.28201726991E+01  0.29532262038E+01 -0.92620997899E+00  0.41872167665E+01  0.51100000000E-03 0.  1.
        -12    1    3    3    0    0  0.25313041367E+02  0.25416735906E+01  0.28896700914E+02  0.38499733656E+02  0.00000000000E+00 0.  1.
</event>
<event>
 7    1  0.6090311E-013  0.5052886E+02  0.7816164E-02  0.1300439E+00
        -11   -1    0    0    0    0  0.00000000000E+00  0.00000000000E+00  0.45593999997E+02  0.45594000000E+02  0.51100000000E-03 0.  1.
         11   -1    0    0    0    0 -0.00000000000E+00 -0.00000000000E+00 -0.45593999997E+02  0.45594000000E+02  0.51100000000E-03 0. -1.
    9900012    2    1    2    0    0  0.14526828254E+02  0.28170529374E+01 -0.37870845942E+02  0.50528862051E+02  0.30000006690E+02 0.  0.
        -12    1    1    2    0    0 -0.14526828254E+02 -0.28170529374E+01  0.37870845942E+02  0.40659137949E+02  0.00000000000E+00 0.  1.
         11    1    3    3    0    0  0.84959596055E+01  0.77678485690E+01 -0.76985709964E+01  0.13848783219E+02  0.51100000000E-03 0. -1.
        -11    1    3    3    0    0  0.54720899892E+01  0.47275522104E+01 -0.29978739361E+01  0.78282033156E+01  0.51100000000E-03 0.  1.
        -12    1    3    3    0    0  0.55877865945E+00 -0.96783478420E+01 -0.27174401010E+02  0.28851875516E+02  0.00000000000E+00 0.  1.
</event>
<event>
 7    1  0.6090311E-013  0.5052885E+02  0.7816164E-02  0.1300439E+00
        -11   -1    0    0    0    0  0.00000000000E+00  0.00000000000E+00  0.45593999997E+02  0.45594000000E+02  0.51100000000E-03 0.  1.
         11   -1    0    0    0    0 -0.00000000000E+00 -0.00000000000E+00 -0.45593999997E+02  0.45594000000E+02  0.51100000000E-03 0. -1.
    9900012    2    1    2    0    0  0.39290780429E+02 -0.10457963444E+02  0.17846131895E+00  0.50528852511E+02  0.29999977691E+02 0.  0.
        -12    1    1    2    0    0 -0.39290780429E+02  0.10457963444E+02 -0.17846131895E+00  0.40659147489E+02  0.00000000000E+00 0.  1.
         11    1    3    3    0    0  0.18368220855E+02 -0.92428672524E+01  0.15560520059E+01  0.20621431340E+02  0.51100000000E-03 0. -1.
        -11    1    3    3    0    0  0.11808508230E+02 -0.70910222967E+01  0.76869813895E+01  0.15773812062E+02  0.51100000000E-03 0.  1.
         12    1    3    3    0    0  0.91140513447E+01  0.58759261050E+01 -0.90645720764E+01  0.14133609109E+02  0.00000000000E+00 0. -1.
</event>
<event>
 7    1  0.6090311E-013  0.5052886E+02  0.7816164E-02  0.1300439E+00
        -11   -1    0    0    0    0  0.00000000000E+00  0.00000000000E+00  0.45593999997E+02  0.45594000000E+02  0.51100000000E-03 0.  1.
         11   -1    0    0    0    0 -0.00000000000E+00 -0.00000000000E+00 -0.45593999997E+02  0.45594000000E+02  0.51100000000E-03 0. -1.
    9900012    2    1    2    0    0  0.10195006146E+02  0.19369629818E+02 -0.34264343756E+02  0.50528856347E+02  0.29999989352E+02 0.  0.
        -12    1    1    2    0    0 -0.10195006146E+02 -0.19369629818E+02  0.34264343756E+02  0.40659143653E+02  0.00000000000E+00 0.  1.
         11    1    3    3    0    0 -0.15835577679E+01  0.10107834241E+02 -0.14638361522E+01  0.10335317354E+02  0.51100000000E-03 0. -1.
        -11    1    3    3    0    0  0.87313936144E+00  0.89125315575E+01 -0.48398058860E+01  0.10179357169E+02  0.51100000000E-03 0.  1.
        -12    1    3    3    0    0  0.10905424553E+02  0.34926401858E+00 -0.27960701717E+02  0.30014181824E+02  0.00000000000E+00 0.  1.
</event>
<event>
 7    1  0.6090311E-013  0.5052885E+02  0.7816164E-02  0.1300439E+00
        -11   -1    0    0    0    0  0.00000000000E+00  0.00000000000E+00  0.45593999997E+02  0.45594000000E+02  0.51100000000E-03 0.  1.
         11   -1    0    0    0    0 -0.00000000000E+00 -0.00000000000E+00 -0.45593999997E+02  0.45594000000E+02  0.51100000000E-03 0. -1.
    9900012    2    1    2    0    0  0.17555624214E+02 -0.17216027568E+02 -0.32381700862E+02  0.50528854689E+02  0.29999984312E+02 0.  0.
        -12    1    1    2    0    0 -0.17555624214E+02  0.17216027568E+02  0.32381700862E+02  0.40659145311E+02  0.00000000000E+00 0.  1.
         11    1    3    3    0    0  0.62424906146E+01 -0.38986769709E+01 -0.10668063619E+02  0.12960553724E+02  0.51100000000E-03 0. -1.
        -11    1    3    3    0    0  0.39906190166E+00 -0.18549584020E+02 -0.13234354459E+02  0.22790227202E+02  0.51100000000E-03 0.  1.
        -12    1    3    3    0    0  0.10914071697E+02  0.52322334227E+01 -0.84792827841E+01  0.14778073763E+02  0.00000000000E+00 0.  1.
</event>
<event>
 7    1  0.6090311E-013  0.5052886E+02  0.7816164E-02  0.1300439E+00
        -11   -1    0    0    0    0  0.00000000000E+00  0.00000000000E+00  0.45593999997E+02  0.45594000000E+02  0.51100000000E-03 0.  1.
         11   -1    0    0    0    0 -0.00000000000E+00 -0.00000000000E+00 -0.45593999997E+02  0.45594000000E+02  0.51100000000E-03 0. -1.
    9900012    2    1    2    0    0  0.24644256274E+02  0.31939758640E+02 -0.50673745402E+01  0.50528857928E+02  0.29999994159E+02 0.  0.
        -12    1    1    2    0    0 -0.24644256274E+02 -0.31939758640E+02  0.50673745402E+01  0.40659142072E+02  0.00000000000E+00 0.  1.
         11    1    3    3    0    0  0.64644252163E+01  0.18706086307E+02  0.11719880823E+01  0.19826245601E+02  0.51100000000E-03 0. -1.
        -11    1    3    3    0    0  0.15420146466E+02  0.18180260099E+02 -0.26245779128E+01  0.23983143742E+02  0.51100000000E-03 0.  1.
         12    1    3    3    0    0  0.27596845912E+01 -0.49465877656E+01 -0.36147847096E+01  0.67194685849E+01  0.00000000000E+00 0. -1.
</event>
<event>
 7    1  0.6090311E-013  0.5052886E+02  0.7816164E-02  0.1300439E+00
        -11   -1    0    0    0    0  0.00000000000E+00  0.00000000000E+00  0.45593999997E+02  0.45594000000E+02  0.51100000000E-03 0. -1.
         11   -1    0    0    0    0 -0.00000000000E+00 -0.00000000000E+00 -0.45593999997E+02  0.45594000000E+02  0.51100000000E-03 0.  1.
    9900012    2    1    2    0    0 -0.21552696480E+02  0.30354008287E+02  0.16348739105E+02  0.50528858163E+02  0.29999994872E+02 0.  0.
        -12    1    1    2    0    0  0.21552696480E+02 -0.30354008287E+02 -0.16348739105E+02  0.40659141837E+02  0.00000000000E+00 0.  1.
         11    1    3    3    0    0 -0.34696201603E+01  0.12508460953E+02  0.17750628785E+01  0.13101553646E+02  0.51100000000E-03 0. -1.
        -11    1    3    3    0    0 -0.77753648015E+00  0.14468460040E+02 -0.97683649793E-01  0.14489666706E+02  0.51100000000E-03 0.  1.
         12    1    3    3    0    0 -0.17305539839E+02  0.33770872942E+01  0.14671359876E+02  0.22937637810E+02  0.00000000000E+00 0. -1.
</event>
<event>
 7    1  0.6090311E-013  0.5052886E+02  0.7816164E-02  0.1300439E+00
        -11   -1    0    0    0    0  0.00000000000E+00  0.00000000000E+00  0.45593999997E+02  0.45594000000E+02  0.51100000000E-03 0.  1.
         11   -1    0    0    0    0 -0.00000000000E+00 -0.00000000000E+00 -0.45593999997E+02  0.45594000000E+02  0.51100000000E-03 0. -1.
    9900012    2    1    2    0    0  0.10972925343E+02 -0.14350561150E+02 -0.36425571343E+02  0.50528856581E+02  0.29999990064E+02 0.  0.
        -12    1    1    2    0    0 -0.10972925343E+02  0.14350561150E+02  0.36425571343E+02  0.40659143419E+02  0.00000000000E+00 0.  1.
         11    1    3    3    0    0  0.15140305510E+02 -0.99066372915E+01 -0.14925165524E+02  0.23454868994E+02  0.51100000000E-03 0. -1.
        -11    1    3    3    0    0  0.50799637821E+01  0.10634002585E+01 -0.41013530840E+01  0.66149791774E+01  0.51100000000E-03 0.  1.
        -12    1    3    3    0    0 -0.92473439482E+01 -0.55073241167E+01 -0.17399052735E+02  0.20459008410E+02  0.00000000000E+00 0.  1.
</event>
<event>
 7    1  0.6090311E-013  0.5052886E+02  0.7816164E-02  0.1300439E+00
        -11   -1    0    0    0    0  0.00000000000E+00  0.00000000000E+00  0.45593999997E+02  0.45594000000E+02  0.51100000000E-03 0.  1.
         11   -1    0    0    0    0 -0.00000000000E+00 -0.00000000000E+00 -0.45593999997E+02  0.45594000000E+02  0.51100000000E-03 0. -1.
    9900012    2    1    2    0    0  0.17564927245E+02 -0.35897084673E+02 -0.74858793495E+01  0.50528859001E+02  0.29999997418E+02 0.  0.
        -12    1    1    2    0    0 -0.17564927245E+02  0.35897084673E+02  0.74858793495E+01  0.40659140999E+02  0.00000000000E+00 0.  1.
         11    1    3    3    0    0  0.84044427909E+01 -0.25891654126E+02  0.66645423467E+01  0.28025497978E+02  0.51100000000E-03 0. -1.
        -11    1    3    3    0    0  0.97178762639E+01 -0.10300020045E+02 -0.78884344163E+01  0.16209717142E+02  0.51100000000E-03 0.  1.
        -12    1    3    3    0    0 -0.55739180951E+00  0.29458949747E+00 -0.62619872800E+01  0.62936438806E+01  0.00000000000E+00 0.  1.
</event>
<event>
 7    1  0.6090311E-013  0.5052887E+02  0.7816164E-02  0.1300439E+00
        -11   -1    0    0    0    0  0.00000000000E+00  0.00000000000E+00  0.45593999997E+02  0.45594000000E+02  0.51100000000E-03 0. -1.
         11   -1    0    0    0    0 -0.00000000000E+00 -0.00000000000E+00 -0.45593999997E+02  0.45594000000E+02  0.51100000000E-03 0.  1.
    9900012    2    1    2    0    0  0.13145486015E+01  0.16904618457E+02  0.36954983986E+02  0.50528868128E+02  0.30000025161E+02 0.  0.
        -12    1    1    2    0    0 -0.13145486015E+01 -0.16904618457E+02 -0.36954983986E+02  0.40659131872E+02  0.00000000000E+00 0.  1.
         11    1    3    3    0    0  0.68653371973E+00  0.30584265521E+01  0.17254532379E+02  0.17536937857E+02  0.51100000000E-03 0. -1.
        -11    1    3    3    0    0 -0.52620479417E+00 -0.31711185777E+01  0.14942476353E+02  0.15284321521E+02  0.51100000000E-03 0.  1.
        -12    1    3    3    0    0  0.11542196760E+01  0.17017310483E+02  0.47579752534E+01  0.17707608750E+02  0.00000000000E+00 0.  1.
</event>
<event>
 7    1  0.6090311E-013  0.5052887E+02  0.7816164E-02  0.1300439E+00
        -11   -1    0    0    0    0  0.00000000000E+00  0.00000000000E+00  0.45593999997E+02  0.45594000000E+02  0.51100000000E-03 0. -1.
         11   -1    0    0    0    0 -0.00000000000E+00 -0.00000000000E+00 -0.45593999997E+02  0.45594000000E+02  0.51100000000E-03 0.  1.
    9900012    2    1    2    0    0 -0.22946785611E+02 -0.33360971640E+02  0.36953532473E+01  0.50528867762E+02  0.30000024051E+02 0.  0.
        -12    1    1    2    0    0  0.22946785611E+02  0.33360971640E+02 -0.36953532473E+01  0.40659132238E+02  0.00000000000E+00 0.  1.
         11    1    3    3    0    0 -0.66750774638E+01 -0.16666291659E+02  0.74403141595E+01  0.19433996292E+02  0.51100000000E-03 0. -1.
        -11    1    3    3    0    0 -0.11814509314E-01 -0.91586945321E+01  0.57495316061E+01  0.10813830915E+02  0.51100000000E-03 0.  1.
         12    1    3    3    0    0 -0.16259893638E+02 -0.75359854490E+01 -0.94944925184E+01  0.20281040555E+02  0.00000000000E+00 0. -1.
</event>
<event>
 7    1  0.6090311E-013  0.5052885E+02  0.7816164E-02  0.1300439E+00
        -11   -1    0    0    0    0  0.00000000000E+00  0.00000000000E+00  0.45593999997E+02  0.45594000000E+02  0.51100000000E-03 0.  1.
         11   -1    0    0    0    0 -0.00000000000E+00 -0.00000000000E+00 -0.45593999997E+02  0.45594000000E+02  0.51100000000E-03 0. -1.
    9900012    2    1    2    0    0  0.28976645187E+02 -0.23577300272E+02 -0.16050889738E+02  0.50528854463E+02  0.29999983626E+02 0.  0.
        -12    1    1    2    0    0 -0.28976645187E+02  0.23577300272E+02  0.16050889738E+02  0.40659145537E+02  0.00000000000E+00 0.  1.
         11    1    3    3    0    0  0.14399135646E+02 -0.16228958800E+02  0.86828349122E+00  0.21713316826E+02  0.51100000000E-03 0. -1.
        -11    1    3    3    0    0  0.42875727246E+01  0.24560840882E+01  0.18464776931E+01  0.52749510945E+01  0.51100000000E-03 0.  1.
         12    1    3    3    0    0  0.10289936817E+02 -0.98044255598E+01 -0.18765650922E+02  0.23540586543E+02  0.00000000000E+00 0. -1.
</event>
<event>
 7    1  0.6090311E-013  0.5052887E+02  0.7816164E-02  0.1300439E+00
        -11   -1    0    0    0    0  0.00000000000E+00  0.00000000000E+00  0.45593999997E+02  0.45594000000E+02  0.51100000000E-03 0.  1.
         11   -1    0    0    0    0 -0.00000000000E+00 -0.00000000000E+00 -0.45593999997E+02  0.45594000000E+02  0.51100000000E-03 0. -1.
    9900012    2    1    2    0    0  0.19636608099E+02  0.11739117366E+02 -0.33611932248E+02  0.50528865188E+02  0.30000016227E+02 0.  0.
        -12    1    1    2    0    0 -0.19636608099E+02 -0.11739117366E+02  0.33611932248E+02  0.40659134812E+02  0.00000000000E+00 0.  1.
         11    1    3    3    0    0  0.20436254206E+02  0.59489569017E+00 -0.22957718309E+02  0.30741685333E+02  0.51100000000E-03 0. -1.
        -11    1    3    3    0    0  0.44968433639E+01  0.50131172528E+00 -0.14463206179E+01  0.47502376021E+01  0.51100000000E-03 0.  1.
        -12    1    3    3    0    0 -0.52964894707E+01  0.10642909951E+02 -0.92078933208E+01  0.15036942254E+02  0.00000000000E+00 0.  1.
</event>
<event>
 7    1  0.6090311E-013  0.5052886E+02  0.7816164E-02  0.1300439E+00
        -11   -1    0    0    0    0  0.00000000000E+00  0.00000000000E+00  0.45593999997E+02  0.45594000000E+02  0.51100000000E-03 0.  1.
         11   -1    0    0    0    0 -0.00000000000E+00 -0.00000000000E+00 -0.45593999997E+02  0.45594000000E+02  0.51100000000E-03 0. -1.
    9900012    2    1    2    0    0 -0.29066541388E+02  0.88736578801E+01 -0.27010368842E+02  0.50528860100E+02  0.30000000759E+02 0.  0.
        -12    1    1    2    0    0  0.29066541388E+02 -0.88736578801E+01  0.27010368842E+02  0.40659139900E+02  0.00000000000E+00 0.  1.
         11    1    3    3    0    0 -0.15028366043E+01  0.34300230286E+00  0.21911457671E+01  0.26790461871E+01  0.51100000000E-03 0.  1.
        -11    1    3    3    0    0 -0.81993452394E+01 -0.71372898919E+01 -0.21579225449E+01  0.11082725266E+02  0.51100000000E-03 0. -1.
        -12    1    3    3    0    0 -0.19364359545E+02  0.15667945469E+02 -0.27043592064E+02  0.36767088646E+02  0.00000000000E+00 0.  1.
</event>
<event>
 7    1  0.6090311E-013  0.5052886E+02  0.7816164E-02  0.1300439E+00
        -11   -1    0    0    0    0  0.00000000000E+00  0.00000000000E+00  0.45593999997E+02  0.45594000000E+02  0.51100000000E-03 0. -1.
         11   -1    0    0    0    0 -0.00000000000E+00 -0.00000000000E+00 -0.45593999997E+02  0.45594000000E+02  0.51100000000E-03 0.  1.
    9900012    2    1    2    0    0  0.14390378383E+02  0.65139555286E+01  0.37465336367E+02  0.50528855447E+02  0.29999986618E+02 0.  0.
        -12    1    1    2    0    0 -0.14390378383E+02 -0.65139555286E+01 -0.37465336367E+02  0.40659144553E+02  0.00000000000E+00 0.  1.
         11    1    3    3    0    0  0.16237787709E+01 -0.62753491309E+01  0.18392372111E+01  0.67379119905E+01  0.51100000000E-03 0.  1.
        -11    1    3    3    0    0  0.26066482171E+01 -0.31148125878E+01  0.74168806794E+00  0.41287738901E+01  0.51100000000E-03 0. -1.
         12    1    3    3    0    0  0.10159951395E+02  0.15904117247E+02  0.34884411088E+02  0.39662169567E+02  0.00000000000E+00 0. -1.
</event>
<event>
 7    1  0.6090311E-013  0.5052886E+02  0.7816164E-02  0.1300439E+00
        -11   -1    0    0    0    0  0.00000000000E+00  0.00000000000E+00  0.45593999997E+02  0.45594000000E+02  0.51100000000E-03 0.  1.
         11   -1    0    0    0    0 -0.00000000000E+00 -0.00000000000E+00 -0.45593999997E+02  0.45594000000E+02  0.51100000000E-03 0. -1.
    9900012    2    1    2    0    0  0.27559576645E+02 -0.14358297607E+01 -0.29859237714E+02  0.50528856517E+02  0.29999989868E+02 0.  0.
        -12    1    1    2    0    0 -0.27559576645E+02  0.14358297607E+01  0.29859237714E+02  0.40659143483E+02  0.00000000000E+00 0.  1.
         11    1    3    3    0    0  0.55280435016E+01 -0.14491972610E+00 -0.34632135069E+01  0.65248842701E+01  0.51100000000E-03 0. -1.
        -11    1    3    3    0    0  0.19246579737E+02 -0.12685565747E+02 -0.20624323602E+02  0.30930844382E+02  0.51100000000E-03 0.  1.
         12    1    3    3    0    0  0.27849534064E+01  0.11394655713E+02 -0.57717006055E+01  0.13073127865E+02  0.00000000000E+00 0. -1.
</event>
<event>
 7    1  0.6090311E-013  0.5052886E+02  0.7816164E-02  0.1300439E+00
        -11   -1    0    0    0    0  0.00000000000E+00  0.00000000000E+00  0.45593999997E+02  0.45594000000E+02  0.51100000000E-03 0.  1.
         11   -1    0    0    0    0 -0.00000000000E+00 -0.00000000000E+00 -0.45593999997E+02  0.45594000000E+02  0.51100000000E-03 0. -1.
    9900012    2    1    2    0    0 -0.40289547618E+02 -0.29220470213E+01 -0.46238090371E+01  0.50528860608E+02  0.30000002304E+02 0.  0.
        -12    1    1    2    0    0  0.40289547618E+02  0.29220470213E+01  0.46238090371E+01  0.40659139392E+02  0.00000000000E+00 0.  1.
         11    1    3    3    0    0 -0.91713695849E+01 -0.71121682095E+01  0.37616468908E+01  0.12200284599E+02  0.51100000000E-03 0. -1.
        -11    1    3    3    0    0 -0.13814011074E+02 -0.39639244321E+01  0.47359592789E+01  0.15131718654E+02  0.51100000000E-03 0.  1.
        -12    1    3    3    0    0 -0.17304166959E+02  0.81540456203E+01 -0.13121415207E+02  0.23196857355E+02  0.00000000000E+00 0.  1.
</event>
<event>
 7    1  0.6090311E-013  0.5052886E+02  0.7816164E-02  0.1300439E+00
        -11   -1    0    0    0    0  0.00000000000E+00  0.00000000000E+00  0.45593999997E+02  0.45594000000E+02  0.51100000000E-03 0.  1.
         11   -1    0    0    0    0 -0.00000000000E+00 -0.00000000000E+00 -0.45593999997E+02  0.45594000000E+02  0.51100000000E-03 0. -1.
    9900012    2    1    2    0    0  0.29067999468E+02 -0.71969339538E+01 -0.27503115969E+02  0.50528857862E+02  0.29999993956E+02 0.  0.
        -12    1    1    2    0    0 -0.29067999468E+02  0.71969339538E+01  0.27503115969E+02  0.40659142138E+02  0.00000000000E+00 0.  1.
         11    1    3    3    0    0  0.54731157877E+01 -0.71385859324E+01 -0.84881278294E+01  0.12367809824E+02  0.51100000000E-03 0. -1.
        -11    1    3    3    0    0  0.76144444710E+01 -0.99421044067E+01 -0.17520901088E+01  0.12644960445E+02  0.51100000000E-03 0.  1.
        -12    1    3    3    0    0  0.15980439209E+02  0.98837563854E+01 -0.17262898031E+02  0.25516087593E+02  0.00000000000E+00 0.  1.
</event>
<event>
 7    1  0.6090311E-013  0.5052883E+02  0.7816164E-02  0.1300439E+00
        -11   -1    0    0    0    0  0.00000000000E+00  0.00000000000E+00  0.45593999997E+02  0.45594000000E+02  0.51100000000E-03 0. -1.
         11   -1    0    0    0    0 -0.00000000000E+00 -0.00000000000E+00 -0.45593999997E+02  0.45594000000E+02  0.51100000000E-03 0.  1.
    9900012    2    1    2    0    0  0.30992662771E+02 -0.67574262734E+01  0.25435403870E+02  0.50528834668E+02  0.29999923457E+02 0.  0.
        -12    1    1    2    0    0 -0.30992662771E+02  0.67574262734E+01 -0.25435403870E+02  0.40659165332E+02  0.00000000000E+00 0.  1.
         11    1    3    3    0    0  0.66382906245E+01  0.42465915806E+01  0.18289009745E+02  0.19914525357E+02  0.51100000000E-03 0. -1.
        -11    1    3    3    0    0  0.44859219899E+01  0.30196047060E+01  0.19334418169E+01  0.57427960263E+01  0.51100000000E-03 0.  1.
         12    1    3    3    0    0  0.19868450157E+02 -0.14023622560E+02  0.52129523080E+01  0.24871513285E+02  0.00000000000E+00 0. -1.
</event>
<event>
 7    1  0.6090311E-013  0.5052886E+02  0.7816164E-02  0.1300439E+00
        -11   -1    0    0    0    0  0.00000000000E+00  0.00000000000E+00  0.45593999997E+02  0.45594000000E+02  0.51100000000E-03 0.  1.
         11   -1    0    0    0    0 -0.00000000000E+00 -0.00000000000E+00 -0.45593999997E+02  0.45594000000E+02  0.51100000000E-03 0. -1.
    9900012    2    1    2    0    0  0.18874174586E+02  0.32773137542E+01 -0.35863498520E+02  0.50528858619E+02  0.29999996258E+02 0.  0.
        -12    1    1    2    0    0 -0.18874174586E+02 -0.32773137542E+01  0.35863498520E+02  0.40659141381E+02  0.00000000000E+00 0.  1.
         11    1    3    3    0    0  0.75337737196E+01  0.10103203352E+02 -0.36113502452E+01  0.13110084488E+02  0.51100000000E-03 0. -1.
        -11    1    3    3    0    0  0.31424103292E+01  0.35566530936E+01 -0.39394526872E+01  0.61679665726E+01  0.51100000000E-03 0.  1.
         12    1    3    3    0    0  0.81979905373E+01 -0.10382542692E+02 -0.28312695588E+02  0.31250807558E+02  0.00000000000E+00 0. -1.
</event>
<event>
 7    1  0.6090311E-013  0.5052886E+02  0.7816164E-02  0.1300439E+00
        -11   -1    0    0    0    0  0.00000000000E+00  0.00000000000E+00  0.45593999997E+02  0.45594000000E+02  0.51100000000E-03 0.  1.
         11   -1    0    0    0    0 -0.00000000000E+00 -0.00000000000E+00 -0.45593999997E+02  0.45594000000E+02  0.51100000000E-03 0. -1.
    9900012    2    1    2    0    0 -0.23628516867E+02 -0.21724704365E+02  0.24957882167E+02  0.50528862388E+02  0.30000007715E+02 0.  0.
        -12    1    1    2    0    0  0.23628516867E+02  0.21724704365E+02 -0.24957882167E+02  0.40659137612E+02  0.00000000000E+00 0.  1.
         11    1    3    3    0    0 -0.10549650878E+02 -0.14965044475E+02  0.17825952000E+02  0.25554104459E+02  0.51100000000E-03 0. -1.
        -11    1    3    3    0    0 -0.77830449934E+01  0.27746319634E+01  0.10682340881E+02  0.13505064933E+02  0.51100000000E-03 0.  1.
         12    1    3    3    0    0 -0.52958209959E+01 -0.95342918538E+01 -0.35504107133E+01  0.11469692995E+02  0.00000000000E+00 0. -1.
</event>
<event>
 7    1  0.6090311E-013  0.5052886E+02  0.7816164E-02  0.1300439E+00
        -11   -1    0    0    0    0  0.00000000000E+00  0.00000000000E+00  0.45593999997E+02  0.45594000000E+02  0.51100000000E-03 0. -1.
         11   -1    0    0    0    0 -0.00000000000E+00 -0.00000000000E+00 -0.45593999997E+02  0.45594000000E+02  0.51100000000E-03 0.  1.
    9900012    2    1    2    0    0 -0.38033047536E+02 -0.14298487005E+02  0.14854095226E+01  0.50528857400E+02  0.29999992553E+02 0.  0.
        -12    1    1    2    0    0  0.38033047536E+02  0.14298487005E+02 -0.14854095226E+01  0.40659142600E+02  0.00000000000E+00 0.  1.
         11    1    3    3    0    0 -0.21343352463E+01 -0.96738908767E+01 -0.98431383899E+00  0.99553214731E+01  0.51100000000E-03 0. -1.
        -11    1    3    3    0    0 -0.24288285517E+02  0.44968325665E+01 -0.28820685077E+01  0.24868627538E+02  0.51100000000E-03 0.  1.
         12    1    3    3    0    0 -0.11610426773E+02 -0.91214286950E+01  0.53517918692E+01  0.15704908389E+02  0.00000000000E+00 0. -1.
</event>
<event>
 7    1  0.6090311E-013  0.5052888E+02  0.7816164E-02  0.1300439E+00
        -11   -1    0    0    0    0  0.00000000000E+00  0.00000000000E+00  0.45593999997E+02  0.45594000000E+02  0.51100000000E-03 0. -1.
         11   -1    0    0    0    0 -0.00000000000E+00 -0.00000000000E+00 -0.45593999997E+02  0.45594000000E+02  0.51100000000E-03 0.  1.
    9900012    2    1    2    0    0 -0.26198104488E+02  0.17100137268E+02  0.25969386195E+02  0.50528875652E+02  0.30000048032E+02 0.  0.
        -12    1    1    2    0    0  0.26198104488E+02 -0.17100137268E+02 -0.25969386195E+02  0.40659124348E+02  0.00000000000E+00 0.  1.
         11    1    3    3    0    0 -0.56277544583E+01  0.73470365239E+01  0.36442796212E+01  0.99464234851E+01  0.51100000000E-03 0. -1.
        -11    1    3    3    0    0 -0.24324255502E+02  0.12491668430E+02  0.23192747650E+02  0.35855470011E+02  0.51100000000E-03 0.  1.
        -12    1    3    3    0    0  0.37539054719E+01 -0.27385676859E+01 -0.86764107597E+00  0.47269821556E+01  0.00000000000E+00 0.  1.
</event>
<event>
 7    1  0.6090311E-013  0.5052885E+02  0.7816164E-02  0.1300439E+00
        -11   -1    0    0    0    0  0.00000000000E+00  0.00000000000E+00  0.45593999997E+02  0.45594000000E+02  0.51100000000E-03 0.  1.
         11   -1    0    0    0    0 -0.00000000000E+00 -0.00000000000E+00 -0.45593999997E+02  0.45594000000E+02  0.51100000000E-03 0. -1.
    9900012    2    1    2    0    0  0.27475927843E+02  0.29338430304E+02 -0.61234041632E+01  0.50528853648E+02  0.29999981148E+02 0.  0.
        -12    1    1    2    0    0 -0.27475927843E+02 -0.29338430304E+02  0.61234041632E+01  0.40659146352E+02  0.00000000000E+00 0.  1.
         11    1    3    3    0    0  0.11682356222E+02  0.23065448860E+02  0.18977882759E+01  0.25924775382E+02  0.51100000000E-03 0. -1.
        -11    1    3    3    0    0  0.88686570147E+01  0.91961438588E+01  0.10551868529E+01  0.12819343145E+02  0.51100000000E-03 0.  1.
        -12    1    3    3    0    0  0.69249146064E+01 -0.29231624150E+01 -0.90763792919E+01  0.11784735121E+02  0.00000000000E+00 0.  1.
</event>
<event>
 7    1  0.6090311E-013  0.5052886E+02  0.7816164E-02  0.1300439E+00
        -11   -1    0    0    0    0  0.00000000000E+00  0.00000000000E+00  0.45593999997E+02  0.45594000000E+02  0.51100000000E-03 0. -1.
         11   -1    0    0    0    0 -0.00000000000E+00 -0.00000000000E+00 -0.45593999997E+02  0.45594000000E+02  0.51100000000E-03 0.  1.
    9900012    2    1    2    0    0 -0.39009132338E+01  0.35485507506E+02  0.19460916789E+02  0.50528860200E+02  0.30000001063E+02 0.  0.
        -12    1    1    2    0    0  0.39009132338E+01 -0.35485507506E+02 -0.19460916789E+02  0.40659139800E+02  0.00000000000E+00 0.  1.
         11    1    3    3    0    0 -0.86652402955E+01  0.61551277929E+01  0.13894499015E+02  0.17493687166E+02  0.51100000000E-03 0. -1.
        -11    1    3    3    0    0 -0.32719642723E+01  0.18913457518E+02  0.51446267420E+01  0.19871884915E+02  0.51100000000E-03 0.  1.
        -12    1    3    3    0    0  0.80362913341E+01  0.10416922195E+02  0.42179103192E+00  0.13163288119E+02  0.00000000000E+00 0.  1.
</event>
<event>
 7    1  0.6090311E-013  0.5052885E+02  0.7816164E-02  0.1300439E+00
        -11   -1    0    0    0    0  0.00000000000E+00  0.00000000000E+00  0.45593999997E+02  0.45594000000E+02  0.51100000000E-03 0. -1.
         11   -1    0    0    0    0 -0.00000000000E+00 -0.00000000000E+00 -0.45593999997E+02  0.45594000000E+02  0.51100000000E-03 0.  1.
    9900012    2    1    2    0    0 -0.12584606437E+02  0.28143552275E+02  0.26509136634E+02  0.50528853687E+02  0.29999981266E+02 0.  0.
        -12    1    1    2    0    0  0.12584606437E+02 -0.28143552275E+02 -0.26509136634E+02  0.40659146313E+02  0.00000000000E+00 0.  1.
         11    1    3    3    0    0 -0.57818216493E+01  0.17929188997E+02  0.20647650626E+02  0.27950147698E+02  0.51100000000E-03 0. -1.
        -11    1    3    3    0    0 -0.19135899544E+01  0.63152596364E+01  0.12076672353E+02  0.13761916515E+02  0.51100000000E-03 0.  1.
        -12    1    3    3    0    0 -0.48891948336E+01  0.38991036414E+01 -0.62151863447E+01  0.88167894739E+01  0.00000000000E+00 0.  1.
</event>
<event>
 7    1  0.6090311E-013  0.5052887E+02  0.7816164E-02  0.1300439E+00
        -11   -1    0    0    0    0  0.00000000000E+00  0.00000000000E+00  0.45593999997E+02  0.45594000000E+02  0.51100000000E-03 0.  1.
         11   -1    0    0    0    0 -0.00000000000E+00 -0.00000000000E+00 -0.45593999997E+02  0.45594000000E+02  0.51100000000E-03 0. -1.
    9900012    2    1    2    0    0 -0.18290656957E+01 -0.29154281838E+02 -0.28281569503E+02  0.50528870590E+02  0.30000032646E+02 0.  0.
        -12    1    1    2    0    0  0.18290656957E+01  0.29154281838E+02  0.28281569503E+02  0.40659129410E+02  0.00000000000E+00 0.  1.
         11    1    3    3    0    0  0.28334859519E+01 -0.19412786679E+02 -0.11460366958E+02  0.22720584067E+02  0.51100000000E-03 0.  1.
        -11    1    3    3    0    0  0.20782614893E+01 -0.13261585966E+02 -0.63045535195E+01  0.14830247081E+02  0.51100000000E-03 0. -1.
         12    1    3    3    0    0 -0.67408131369E+01  0.35200908067E+01 -0.10516649025E+02  0.12978039442E+02  0.00000000000E+00 0. -1.
</event>
<event>
 7    1  0.6090311E-013  0.5052884E+02  0.7816164E-02  0.1300439E+00
        -11   -1    0    0    0    0  0.00000000000E+00  0.00000000000E+00  0.45593999997E+02  0.45594000000E+02  0.51100000000E-03 0.  1.
         11   -1    0    0    0    0 -0.00000000000E+00 -0.00000000000E+00 -0.45593999997E+02  0.45594000000E+02  0.51100000000E-03 0. -1.
    9900012    2    1    2    0    0 -0.27107852647E+02  0.96851516442E+01 -0.28714615344E+02  0.50528843936E+02  0.29999951627E+02 0.  0.
        -12    1    1    2    0    0  0.27107852647E+02 -0.96851516442E+01  0.28714615344E+02  0.40659156064E+02  0.00000000000E+00 0.  1.
         11    1    3    3    0    0 -0.71880469809E+01  0.12788104961E+02 -0.11111981717E+02  0.18403254762E+02  0.51100000000E-03 0. -1.
        -11    1    3    3    0    0 -0.21794546543E+02  0.72753773674E+00 -0.17326330241E+02  0.27851988978E+02  0.51100000000E-03 0.  1.
        -12    1    3    3    0    0  0.18747408769E+01 -0.38304910537E+01 -0.27630338583E+00  0.42736001952E+01  0.00000000000E+00 0.  1.
</event>
<event>
 7    1  0.6090311E-013  0.5052886E+02  0.7816164E-02  0.1300439E+00
        -11   -1    0    0    0    0  0.00000000000E+00  0.00000000000E+00  0.45593999997E+02  0.45594000000E+02  0.51100000000E-03 0.  1.
         11   -1    0    0    0    0 -0.00000000000E+00 -0.00000000000E+00 -0.45593999997E+02  0.45594000000E+02  0.51100000000E-03 0. -1.
    9900012    2    1    2    0    0 -0.32316454910E+01 -0.39593424198E+02 -0.86650578463E+01  0.50528855889E+02  0.29999987961E+02 0.  0.
        -12    1    1    2    0    0  0.32316454910E+01  0.39593424198E+02  0.86650578463E+01  0.40659144111E+02  0.00000000000E+00 0.  1.
         11    1    3    3    0    0 -0.11326341527E+02 -0.17266623203E+02 -0.76828999340E+01  0.22032912673E+02  0.51100000000E-03 0. -1.
        -11    1    3    3    0    0  0.27338260463E+01  0.20966994510E+01  0.29891534169E+00  0.34582226767E+01  0.51100000000E-03 0.  1.
         12    1    3    3    0    0  0.53608699899E+01 -0.24423500447E+02 -0.12810732540E+01  0.25037720539E+02  0.00000000000E+00 0. -1.
</event>
<event>
 7    1  0.6090311E-013  0.5052886E+02  0.7816164E-02  0.1300439E+00
        -11   -1    0    0    0    0  0.00000000000E+00  0.00000000000E+00  0.45593999997E+02  0.45594000000E+02  0.51100000000E-03 0. -1.
         11   -1    0    0    0    0 -0.00000000000E+00 -0.00000000000E+00 -0.45593999997E+02  0.45594000000E+02  0.51100000000E-03 0.  1.
    9900012    2    1    2    0    0 -0.19909240530E+02  0.17105208917E+02  0.31051560551E+02  0.50528862734E+02  0.30000008765E+02 0.  0.
        -12    1    1    2    0    0  0.19909240530E+02 -0.17105208917E+02 -0.31051560551E+02  0.40659137266E+02  0.00000000000E+00 0.  1.
         11    1    3    3    0    0 -0.22144257561E+02  0.74989570269E+01  0.13800573897E+02  0.27148818383E+02  0.51100000000E-03 0. -1.
        -11    1    3    3    0    0  0.15280913703E+01 -0.21570220621E+01  0.79175122133E+01  0.83471436624E+01  0.51100000000E-03 0.  1.
        -12    1    3    3    0    0  0.70692566116E+00  0.11763273952E+02  0.93334744403E+01  0.15032900688E+02  0.00000000000E+00 0.  1.
</event>
<event>
 7    1  0.6090311E-013  0.5052887E+02  0.7816164E-02  0.1300439E+00
        -11   -1    0    0    0    0  0.00000000000E+00  0.00000000000E+00  0.45593999997E+02  0.45594000000E+02  0.51100000000E-03 0.  1.
         11   -1    0    0    0    0 -0.00000000000E+00 -0.00000000000E+00 -0.45593999997E+02  0.45594000000E+02  0.51100000000E-03 0. -1.
    9900012    2    1    2    0    0  0.17812150365E+02  0.28390819826E+02 -0.23018548637E+02  0.50528869016E+02  0.30000027860E+02 0.  0.
        -12    1    1    2    0    0 -0.17812150365E+02 -0.28390819826E+02  0.23018548637E+02  0.40659130984E+02  0.00000000000E+00 0.  1.
         11    1    3    3    0    0  0.32472703219E+01  0.26404444960E+01 -0.56619361521E+01  0.70408971680E+01  0.51100000000E-03 0. -1.
        -11    1    3    3    0    0 -0.60924233246E+01  0.91165318975E+01 -0.12318843076E+02  0.16491897125E+02  0.51100000000E-03 0.  1.
         12    1    3    3    0    0  0.20657303368E+02  0.16633843433E+02 -0.50377694092E+01  0.26996074722E+02  0.00000000000E+00 0. -1.
</event>
<event>
 7    1  0.6090311E-013  0.5052885E+02  0.7816164E-02  0.1300439E+00
        -11   -1    0    0    0    0  0.00000000000E+00  0.00000000000E+00  0.45593999997E+02  0.45594000000E+02  0.51100000000E-03 0. -1.
         11   -1    0    0    0    0 -0.00000000000E+00 -0.00000000000E+00 -0.45593999997E+02  0.45594000000E+02  0.51100000000E-03 0.  1.
    9900012    2    1    2    0    0  0.77019164655E+01 -0.29911436216E+01  0.39810800712E+02  0.50528852066E+02  0.29999976339E+02 0.  0.
        -12    1    1    2    0    0 -0.77019164655E+01  0.29911436216E+01 -0.39810800712E+02  0.40659147934E+02  0.00000000000E+00 0.  1.
         11    1    3    3    0    0 -0.18541308792E+01 -0.10451833134E+02  0.21744528017E+02  0.24197171655E+02  0.51100000000E-03 0. -1.
        -11    1    3    3    0    0  0.35456470294E+01 -0.42961325770E+01  0.31058010351E+01  0.63776459848E+01  0.51100000000E-03 0.  1.
         12    1    3    3    0    0  0.60104003153E+01  0.11756822089E+02  0.14960471660E+02  0.19954034426E+02  0.00000000000E+00 0. -1.
</event>
<event>
 7    1  0.6090311E-013  0.5052886E+02  0.7816164E-02  0.1300439E+00
        -11   -1    0    0    0    0  0.00000000000E+00  0.00000000000E+00  0.45593999997E+02  0.45594000000E+02  0.51100000000E-03 0.  1.
         11   -1    0    0    0    0 -0.00000000000E+00 -0.00000000000E+00 -0.45593999997E+02  0.45594000000E+02  0.51100000000E-03 0. -1.
    9900012    2    1    2    0    0  0.37281104663E+01  0.33416833810E+02  0.22860061935E+02  0.50528855626E+02  0.29999987161E+02 0.  0.
        -12    1    1    2    0    0 -0.37281104663E+01 -0.33416833810E+02 -0.22860061935E+02  0.40659144374E+02  0.00000000000E+00 0.  1.
         11    1    3    3    0    0  0.76272802376E+01  0.17301846740E+02  0.67033640044E+01  0.20061515239E+02  0.51100000000E-03 0. -1.
        -11    1    3    3    0    0  0.48172185159E+01 -0.22573199019E+01  0.48572709442E+01  0.72037607301E+01  0.51100000000E-03 0.  1.
        -12    1    3    3    0    0 -0.87163882872E+01  0.18372306972E+02  0.11299426986E+02  0.23263579657E+02  0.00000000000E+00 0.  1.
</event>
<event>
 7    1  0.6090311E-013  0.5052886E+02  0.7816164E-02  0.1300439E+00
        -11   -1    0    0    0    0  0.00000000000E+00  0.00000000000E+00  0.45593999997E+02  0.45594000000E+02  0.51100000000E-03 0. -1.
         11   -1    0    0    0    0 -0.00000000000E+00 -0.00000000000E+00 -0.45593999997E+02  0.45594000000E+02  0.51100000000E-03 0.  1.
    9900012    2    1    2    0    0 -0.83103308745E+00 -0.28835430650E+02  0.28652974342E+02  0.50528860616E+02  0.30000002329E+02 0.  0.
        -12    1    1    2    0    0  0.83103308745E+00  0.28835430650E+02 -0.28652974342E+02  0.40659139384E+02  0.00000000000E+00 0.  1.
         11    1    3    3    0    0 -0.42640447219E+00 -0.47114384870E+01  0.16351821820E+01  0.50053266047E+01  0.51100000000E-03 0. -1.
        -11    1    3    3    0    0  0.86078988630E+01  0.18203178888E+01  0.38989253509E+01  0.96234660702E+01  0.51100000000E-03 0.  1.
        -12    1    3    3    0    0 -0.90125274783E+01 -0.25944310052E+02  0.23118866809E+02  0.35900067941E+02  0.00000000000E+00 0.  1.
</event>
<event>
 7    1  0.6090311E-013  0.5052886E+02  0.7816164E-02  0.1300439E+00
        -11   -1    0    0    0    0  0.00000000000E+00  0.00000000000E+00  0.45593999997E+02  0.45594000000E+02  0.51100000000E-03 0.  1.
         11   -1    0    0    0    0 -0.00000000000E+00 -0.00000000000E+00 -0.45593999997E+02  0.45594000000E+02  0.51100000000E-03 0. -1.
    9900012    2    1    2    0    0 -0.25701131720E+02  0.13600029546E+02 -0.28419300742E+02  0.50528860437E+02  0.30000001783E+02 0.  0.
        -12    1    1    2    0    0  0.25701131720E+02 -0.13600029546E+02  0.28419300742E+02  0.40659139563E+02  0.00000000000E+00 0.  1.
         11    1    3    3    0    0  0.17462174461E+01  0.35432244268E+01 -0.11455806369E+02  0.12117723158E+02  0.51100000000E-03 0. -1.
        -11    1    3    3    0    0 -0.45089287299E+01 -0.30875287702E+01  0.20605555354E+01  0.58403049213E+01  0.51100000000E-03 0.  1.
        -12    1    3    3    0    0 -0.22938420437E+02  0.13144333890E+02 -0.19024049909E+02  0.32570832357E+02  0.00000000000E+00 0.  1.
</event>
<event>
 7    1  0.6090311E-013  0.5052886E+02  0.7816164E-02  0.1300439E+00
        -11   -1    0    0    0    0  0.00000000000E+00  0.00000000000E+00  0.45593999997E+02  0.45594000000E+02  0.51100000000E-03 0.  1.
         11   -1    0    0    0    0 -0.00000000000E+00 -0.00000000000E+00 -0.45593999997E+02  0.45594000000E+02  0.51100000000E-03 0. -1.
    9900012    2    1    2    0    0  0.38842033587E+00  0.40643384684E+02 -0.10629250485E+01  0.50528863283E+02  0.30000010434E+02 0.  0.
        -12    1    1    2    0    0 -0.38842033587E+00 -0.40643384684E+02  0.10629250485E+01  0.40659136717E+02  0.00000000000E+00 0.  1.
         11    1    3    3    0    0 -0.28844683238E+01  0.27625398442E+02  0.98781685315E+01  0.29479840745E+02  0.51100000000E-03 0. -1.
        -11    1    3    3    0    0  0.85832835483E+00  0.21927140579E+01  0.26247656393E+01  0.35262043938E+01  0.51100000000E-03 0.  1.
        -12    1    3    3    0    0  0.24145603049E+01  0.10825272185E+02 -0.13565859219E+02  0.17522818144E+02  0.00000000000E+00 0.  1.
</event>
<event>
 7    1  0.6090311E-013  0.5052887E+02  0.7816164E-02  0.1300439E+00
        -11   -1    0    0    0    0  0.00000000000E+00  0.00000000000E+00  0.45593999997E+02  0.45594000000E+02  0.51100000000E-03 0. -1.
         11   -1    0    0    0    0 -0.00000000000E+00 -0.00000000000E+00 -0.45593999997E+02  0.45594000000E+02  0.51100000000E-03 0.  1.
    9900012    2    1    2    0    0  0.57907626694E+01  0.40101551105E+02  0.33907787908E+01  0.50528871699E+02  0.30000036017E+02 0.  0.
        -12    1    1    2    0    0 -0.57907626694E+01 -0.40101551105E+02 -0.33907787908E+01  0.40659128301E+02  0.00000000000E+00 0.  1.
         11    1    3    3    0    0  0.24132158921E+00  0.71868444101E+01  0.48168858852E+01  0.86551348099E+01  0.51100000000E-03 0. -1.
        -11    1    3    3    0    0  0.11163678289E+02  0.26543089738E+02 -0.93335393233E+01  0.30270088905E+02  0.51100000000E-03 0.  1.
         12    1    3    3    0    0 -0.56142372087E+01  0.63716169576E+01  0.79074322289E+01  0.11603647984E+02  0.00000000000E+00 0. -1.
</event>
<event>
 7    1  0.6090311E-013  0.5052887E+02  0.7816164E-02  0.1300439E+00
        -11   -1    0    0    0    0  0.00000000000E+00  0.00000000000E+00  0.45593999997E+02  0.45594000000E+02  0.51100000000E-03 0.  1.
         11   -1    0    0    0    0 -0.00000000000E+00 -0.00000000000E+00 -0.45593999997E+02  0.45594000000E+02  0.51100000000E-03 0. -1.
    9900012    2    1    2    0    0 -0.41828349943E+01  0.27692283173E+02 -0.29475524779E+02  0.50528865517E+02  0.30000017224E+02 0.  0.
        -12    1    1    2    0    0  0.41828349943E+01 -0.27692283173E+02  0.29475524779E+02  0.40659134483E+02  0.00000000000E+00 0.  1.
         11    1    3    3    0    0  0.23485686075E+00 -0.18942534006E+01 -0.14774736443E+01  0.24137693181E+01  0.51100000000E-03 0. -1.
        -11    1    3    3    0    0 -0.40324377374E+01  0.35482377416E+01  0.41178606270E+01  0.67681106360E+01  0.51100000000E-03 0.  1.
         12    1    3    3    0    0 -0.38525411760E+00  0.26038298832E+02 -0.32115911762E+02  0.41346985562E+02  0.00000000000E+00 0. -1.
</event>
<event>
 7    1  0.6090311E-013  0.5052887E+02  0.7816164E-02  0.1300439E+00
        -11   -1    0    0    0    0  0.00000000000E+00  0.00000000000E+00  0.45593999997E+02  0.45594000000E+02  0.51100000000E-03 0.  1.
         11   -1    0    0    0    0 -0.00000000000E+00 -0.00000000000E+00 -0.45593999997E+02  0.45594000000E+02  0.51100000000E-03 0. -1.
    9900012    2    1    2    0    0 -0.35302012869E+02  0.16148880394E+02 -0.12089113399E+02  0.50528866790E+02  0.30000021096E+02 0.  0.
        -12    1    1    2    0    0  0.35302012869E+02 -0.16148880394E+02  0.12089113399E+02  0.40659133210E+02  0.00000000000E+00 0.  1.
         11    1    3    3    0    0 -0.15684564107E+01  0.66367104406E+01  0.49594107917E+01  0.84321845715E+01  0.51100000000E-03 0. -1.
        -11    1    3    3    0    0 -0.10312257474E+02  0.98615202624E+01 -0.23985227258E+01  0.14468764551E+02  0.51100000000E-03 0.  1.
         12    1    3    3    0    0 -0.23421298985E+02 -0.34935030889E+00 -0.14650001464E+02  0.27627917668E+02  0.00000000000E+00 0. -1.
</event>
<event>
 7    1  0.6090311E-013  0.5052886E+02  0.7816164E-02  0.1300439E+00
        -11   -1    0    0    0    0  0.00000000000E+00  0.00000000000E+00  0.45593999997E+02  0.45594000000E+02  0.51100000000E-03 0.  1.
         11   -1    0    0    0    0 -0.00000000000E+00 -0.00000000000E+00 -0.45593999997E+02  0.45594000000E+02  0.51100000000E-03 0. -1.
    9900012    2    1    2    0    0  0.18709294315E+02 -0.30426937817E+00 -0.36097578705E+02  0.50528862503E+02  0.30000008064E+02 0.  0.
        -12    1    1    2    0    0 -0.18709294315E+02  0.30426937817E+00  0.36097578705E+02  0.40659137497E+02  0.00000000000E+00 0.  1.
         11    1    3    3    0    0 -0.41202215722E+01 -0.70391888462E+00 -0.10780166189E+01  0.43166940697E+01  0.51100000000E-03 0. -1.
        -11    1    3    3    0    0  0.92138776180E+01  0.71176060623E+00 -0.30489598390E+02  0.31859343279E+02  0.51100000000E-03 0.  1.
         12    1    3    3    0    0  0.13615638269E+02 -0.31211109978E+00 -0.45299636958E+01  0.14352825154E+02  0.00000000000E+00 0. -1.
</event>
<event>
 7    1  0.6090311E-013  0.5052884E+02  0.7816164E-02  0.1300439E+00
        -11   -1    0    0    0    0  0.00000000000E+00  0.00000000000E+00  0.45593999997E+02  0.45594000000E+02  0.51100000000E-03 0.  1.
         11   -1    0    0    0    0 -0.00000000000E+00 -0.00000000000E+00 -0.45593999997E+02  0.45594000000E+02  0.51100000000E-03 0. -1.
    9900012    2    1    2    0    0 -0.27733204400E+02  0.29706688997E+02 -0.12446524055E+01  0.50528841658E+02  0.29999944705E+02 0.  0.
        -12    1    1    2    0    0  0.27733204400E+02 -0.29706688997E+02  0.12446524055E+01  0.40659158342E+02  0.00000000000E+00 0.  1.
         11    1    3    3    0    0 -0.26280080966E+01  0.10195210754E+01 -0.24668448273E+01  0.37458207969E+01  0.51100000000E-03 0.  1.
        -11    1    3    3    0    0 -0.74403621951E+01 -0.18848288061E+00 -0.87567401722E+01  0.11492389399E+02  0.51100000000E-03 0. -1.
         12    1    3    3    0    0 -0.17664834108E+02  0.28875650802E+02  0.99789325940E+01  0.35290631463E+02  0.00000000000E+00 0. -1.
</event>
<event>
 7    1  0.6090311E-013  0.5052886E+02  0.7816164E-02  0.1300439E+00
        -11   -1    0    0    0    0  0.00000000000E+00  0.00000000000E+00  0.45593999997E+02  0.45594000000E+02  0.51100000000E-03 0.  1.
         11   -1    0    0    0    0 -0.00000000000E+00 -0.00000000000E+00 -0.45593999997E+02  0.45594000000E+02  0.51100000000E-03 0. -1.
    9900012    2    1    2    0    0 -0.61312513863E+01  0.24070542106E+02 -0.32189784879E+02  0.50528862142E+02  0.30000006966E+02 0.  0.
        -12    1    1    2    0    0  0.61312513863E+01 -0.24070542106E+02  0.32189784879E+02  0.40659137858E+02  0.00000000000E+00 0.  1.
         11    1    3    3    0    0 -0.10837517599E+02  0.13729597861E+02 -0.13193121192E+02  0.21909178263E+02  0.51100000000E-03 0. -1.
        -11    1    3    3    0    0 -0.61446220345E+01  0.47104448076E+01 -0.12686449483E+02  0.14862391160E+02  0.51100000000E-03 0.  1.
        -12    1    3    3    0    0  0.10850888247E+02  0.56304994372E+01 -0.63102142032E+01  0.13757292719E+02  0.00000000000E+00 0.  1.
</event>
<event>
 7    1  0.6090311E-013  0.5052886E+02  0.7816164E-02  0.1300439E+00
        -11   -1    0    0    0    0  0.00000000000E+00  0.00000000000E+00  0.45593999997E+02  0.45594000000E+02  0.51100000000E-03 0. -1.
         11   -1    0    0    0    0 -0.00000000000E+00 -0.00000000000E+00 -0.45593999997E+02  0.45594000000E+02  0.51100000000E-03 0.  1.
    9900012    2    1    2    0    0  0.33538091460E+02  0.22379763910E+02  0.52448532079E+01  0.50528857158E+02  0.29999991817E+02 0.  0.
        -12    1    1    2    0    0 -0.33538091460E+02 -0.22379763910E+02 -0.52448532079E+01  0.40659142842E+02  0.00000000000E+00 0.  1.
         11    1    3    3    0    0  0.11806803996E+01  0.69769270747E+01 -0.88786896936E-01  0.70766800823E+01  0.51100000000E-03 0. -1.
        -11    1    3    3    0    0  0.19201255614E+02  0.16057046770E+02 -0.63736863809E+01  0.25829069795E+02  0.51100000000E-03 0.  1.
        -12    1    3    3    0    0  0.13156155447E+02 -0.65420993478E+00  0.11707326486E+02  0.17623107280E+02  0.00000000000E+00 0.  1.
</event>
<event>
 7    1  0.6090311E-013  0.5052886E+02  0.7816164E-02  0.1300439E+00
        -11   -1    0    0    0    0  0.00000000000E+00  0.00000000000E+00  0.45593999997E+02  0.45594000000E+02  0.51100000000E-03 0.  1.
         11   -1    0    0    0    0 -0.00000000000E+00 -0.00000000000E+00 -0.45593999997E+02  0.45594000000E+02  0.51100000000E-03 0. -1.
    9900012    2    1    2    0    0 -0.34362306163E+02  0.90459921173E+01  0.19762786211E+02  0.50528858629E+02  0.29999996289E+02 0.  0.
        -12    1    1    2    0    0  0.34362306163E+02 -0.90459921173E+01 -0.19762786211E+02  0.40659141371E+02  0.00000000000E+00 0.  1.
         11    1    3    3    0    0 -0.11738731861E+02  0.37474102408E+01  0.17738852493E+01  0.12449400723E+02  0.51100000000E-03 0.  1.
        -11    1    3    3    0    0 -0.21925930567E+02 -0.21775439093E+01  0.42751876055E+01  0.22444717820E+02  0.51100000000E-03 0. -1.
        -12    1    3    3    0    0 -0.69764373421E+00  0.74761257858E+01  0.13713713356E+02  0.15634740086E+02  0.00000000000E+00 0.  1.
</event>
<event>
 7    1  0.6090311E-013  0.5052889E+02  0.7816164E-02  0.1300439E+00
        -11   -1    0    0    0    0  0.00000000000E+00  0.00000000000E+00  0.45593999997E+02  0.45594000000E+02  0.51100000000E-03 0. -1.
         11   -1    0    0    0    0 -0.00000000000E+00 -0.00000000000E+00 -0.45593999997E+02  0.45594000000E+02  0.51100000000E-03 0.  1.
    9900012    2    1    2    0    0  0.16998713473E+01 -0.31697213065E+01  0.40499711206E+02  0.50528889047E+02  0.30000088746E+02 0.  0.
        -12    1    1    2    0    0 -0.16998713473E+01  0.31697213065E+01 -0.40499711206E+02  0.40659110953E+02  0.00000000000E+00 0.  1.
         11    1    3    3    0    0  0.63004828240E+01  0.31846347360E+01  0.56068051663E+01  0.90152230505E+01  0.51100000000E-03 0. -1.
        -11    1    3    3    0    0  0.71400080490E+01  0.76528224735E+00  0.54116482338E+01  0.89917355792E+01  0.51100000000E-03 0.  1.
         12    1    3    3    0    0 -0.11740619526E+02 -0.71196382899E+01  0.29481257806E+02  0.32521930417E+02  0.00000000000E+00 0. -1.
</event>
<event>
 7    1  0.6090311E-013  0.5052886E+02  0.7816164E-02  0.1300439E+00
        -11   -1    0    0    0    0  0.00000000000E+00  0.00000000000E+00  0.45593999997E+02  0.45594000000E+02  0.51100000000E-03 0.  1.
         11   -1    0    0    0    0 -0.00000000000E+00 -0.00000000000E+00 -0.45593999997E+02  0.45594000000E+02  0.51100000000E-03 0. -1.
    9900012    2    1    2    0    0  0.11352098206E+02  0.38015186058E+02  0.88961461332E+01  0.50528856862E+02  0.29999990918E+02 0.  0.
        -12    1    1    2    0    0 -0.11352098206E+02 -0.38015186058E+02 -0.88961461332E+01  0.40659143138E+02  0.00000000000E+00 0.  1.
         11    1    3    3    0    0  0.42586965248E+01  0.17365463419E+02  0.10900863380E+02  0.20940979885E+02  0.51100000000E-03 0. -1.
        -11    1    3    3    0    0  0.60715992607E+01  0.73521338530E+01  0.83726664655E+01  0.12689355136E+02  0.51100000000E-03 0.  1.
        -12    1    3    3    0    0  0.10218024205E+01  0.13297588786E+02 -0.10377383712E+02  0.16898521841E+02  0.00000000000E+00 0.  1.
</event>
<event>
 7    1  0.6090311E-013  0.5052883E+02  0.7816164E-02  0.1300439E+00
        -11   -1    0    0    0    0  0.00000000000E+00  0.00000000000E+00  0.45593999997E+02  0.45594000000E+02  0.51100000000E-03 0. -1.
         11   -1    0    0    0    0 -0.00000000000E+00 -0.00000000000E+00 -0.45593999997E+02  0.45594000000E+02  0.51100000000E-03 0.  1.
    9900012    2    1    2    0    0 -0.26214421521E+02 -0.18728884520E+02  0.24803251580E+02  0.50528827603E+02  0.29999901982E+02 0.  0.
        -12    1    1    2    0    0  0.26214421521E+02  0.18728884520E+02 -0.24803251580E+02  0.40659172397E+02  0.00000000000E+00 0.  1.
         11    1    3    3    0    0 -0.68059399387E+01 -0.87458502775E+01  0.39485000515E+00  0.11089031622E+02  0.51100000000E-03 0. -1.
        -11    1    3    3    0    0 -0.57380369610E+01 -0.13739690704E+02  0.56479169693E+01  0.15924921826E+02  0.51100000000E-03 0.  1.
         12    1    3    3    0    0 -0.13670444621E+02  0.37566564610E+01  0.18760484606E+02  0.23514874155E+02  0.00000000000E+00 0. -1.
</event>
<event>
 7    1  0.6090311E-013  0.5052885E+02  0.7816164E-02  0.1300439E+00
        -11   -1    0    0    0    0  0.00000000000E+00  0.00000000000E+00  0.45593999997E+02  0.45594000000E+02  0.51100000000E-03 0.  1.
         11   -1    0    0    0    0 -0.00000000000E+00 -0.00000000000E+00 -0.45593999997E+02  0.45594000000E+02  0.51100000000E-03 0. -1.
    9900012    2    1    2    0    0 -0.17887817949E+02 -0.16514180376E+02 -0.32564918952E+02  0.50528854279E+02  0.29999983065E+02 0.  0.
        -12    1    1    2    0    0  0.17887817949E+02  0.16514180376E+02  0.32564918952E+02  0.40659145721E+02  0.00000000000E+00 0.  1.
         11    1    3    3    0    0  0.24207927434E+01 -0.41410067120E+01 -0.49456217570E+01  0.68896552105E+01  0.51100000000E-03 0. -1.
        -11    1    3    3    0    0 -0.59050184889E+01 -0.17362461789E+02 -0.12680398927E+02  0.22296117149E+02  0.51100000000E-03 0.  1.
         12    1    3    3    0    0 -0.14403592203E+02  0.49892881243E+01 -0.14938898267E+02  0.21343081919E+02  0.00000000000E+00 0. -1.
</event>
<event>
 7    1  0.6090311E-013  0.5052897E+02  0.7816164E-02  0.1300438E+00
        -11   -1    0    0    0    0  0.00000000000E+00  0.00000000000E+00  0.45593999997E+02  0.45594000000E+02  0.51100000000E-03 0.  1.
         11   -1    0    0    0    0 -0.00000000000E+00 -0.00000000000E+00 -0.45593999997E+02  0.45594000000E+02  0.51100000000E-03 0. -1.
    9900012    2    1    2    0    0  0.20067250020E+02  0.24488226618E+02 -0.25510565133E+02  0.50528970257E+02  0.30000335591E+02 0.  0.
        -12    1    1    2    0    0 -0.20067250020E+02 -0.24488226618E+02  0.25510565133E+02  0.40659029743E+02  0.00000000000E+00 0.  1.
         11    1    3    3    0    0  0.44856634611E+01 -0.33679927932E+01 -0.16846921959E+01  0.58568541212E+01  0.51100000000E-03 0. -1.
        -11    1    3    3    0    0  0.19457066087E+02  0.15667863653E+02 -0.15119351126E+02  0.29200242309E+02  0.51100000000E-03 0.  1.
        -12    1    3    3    0    0 -0.38754795282E+01  0.12188355758E+02 -0.87065218115E+01  0.15471873827E+02  0.00000000000E+00 0.  1.
</event>
<event>
 7    1  0.6090311E-013  0.5052886E+02  0.7816164E-02  0.1300439E+00
        -11   -1    0    0    0    0  0.00000000000E+00  0.00000000000E+00  0.45593999997E+02  0.45594000000E+02  0.51100000000E-03 0.  1.
         11   -1    0    0    0    0 -0.00000000000E+00 -0.00000000000E+00 -0.45593999997E+02  0.45594000000E+02  0.51100000000E-03 0. -1.
    9900012    2    1    2    0    0 -0.10867741083E+02 -0.50125037269E+01 -0.38857847955E+02  0.50528864034E+02  0.30000012717E+02 0.  0.
        -12    1    1    2    0    0  0.10867741083E+02  0.50125037269E+01  0.38857847955E+02  0.40659135966E+02  0.00000000000E+00 0.  1.
         11    1    3    3    0    0  0.46723032030E+00 -0.51350621129E+01 -0.23255726359E+01  0.56564525474E+01  0.51100000000E-03 0. -1.
        -11    1    3    3    0    0  0.11256163205E+01  0.35543773220E+01  0.19995814828E+01  0.42307134878E+01  0.51100000000E-03 0.  1.
         12    1    3    3    0    0 -0.12460587724E+02 -0.34318189360E+01 -0.38531856802E+02  0.40641697999E+02  0.00000000000E+00 0. -1.
</event>
<event>
 7    1  0.6090311E-013  0.5052885E+02  0.7816164E-02  0.1300439E+00
        -11   -1    0    0    0    0  0.00000000000E+00  0.00000000000E+00  0.45593999997E+02  0.45594000000E+02  0.51100000000E-03 0.  1.
         11   -1    0    0    0    0 -0.00000000000E+00 -0.00000000000E+00 -0.45593999997E+02  0.45594000000E+02  0.51100000000E-03 0. -1.
    9900012    2    1    2    0    0 -0.58358389729E+01 -0.21985031726E+02 -0.33701150776E+02  0.50528853425E+02  0.29999980472E+02 0.  0.
        -12    1    1    2    0    0  0.58358389729E+01  0.21985031726E+02  0.33701150776E+02  0.40659146575E+02  0.00000000000E+00 0.  1.
         11    1    3    3    0    0  0.40540374042E+01 -0.33888065084E+01  0.23814099292E+01  0.57957175861E+01  0.51100000000E-03 0. -1.
        -11    1    3    3    0    0 -0.50286412540E+01  0.88711769502E+00 -0.13916975620E+02  0.14824183665E+02  0.51100000000E-03 0.  1.
         12    1    3    3    0    0 -0.48612351231E+01 -0.19483342913E+02 -0.22165585086E+02  0.29908952174E+02  0.00000000000E+00 0. -1.
</event>
<event>
 7    1  0.6090311E-013  0.5052885E+02  0.7816164E-02  0.1300439E+00
        -11   -1    0    0    0    0  0.00000000000E+00  0.00000000000E+00  0.45593999997E+02  0.45594000000E+02  0.51100000000E-03 0.  1.
         11   -1    0    0    0    0 -0.00000000000E+00 -0.00000000000E+00 -0.45593999997E+02  0.45594000000E+02  0.51100000000E-03 0. -1.
    9900012    2    1    2    0    0 -0.56690744709E+01 -0.39656894736E+02  0.69540635822E+01  0.50528847208E+02  0.29999961572E+02 0.  0.
        -12    1    1    2    0    0  0.56690744709E+01  0.39656894736E+02 -0.69540635822E+01  0.40659152792E+02  0.00000000000E+00 0.  1.
         11    1    3    3    0    0 -0.26321100225E+01 -0.26703326928E+02 -0.44032029544E+01  0.27191613941E+02  0.51100000000E-03 0. -1.
        -11    1    3    3    0    0  0.42584688960E+01  0.12308573383E+01  0.22838878386E+01  0.49865530224E+01  0.51100000000E-03 0.  1.
         12    1    3    3    0    0 -0.72954333444E+01 -0.14184425147E+02  0.90733786980E+01  0.18350680244E+02  0.00000000000E+00 0. -1.
</event>
<event>
 7    1  0.6090311E-013  0.5052887E+02  0.7816164E-02  0.1300439E+00
        -11   -1    0    0    0    0  0.00000000000E+00  0.00000000000E+00  0.45593999997E+02  0.45594000000E+02  0.51100000000E-03 0.  1.
         11   -1    0    0    0    0 -0.00000000000E+00 -0.00000000000E+00 -0.45593999997E+02  0.45594000000E+02  0.51100000000E-03 0. -1.
    9900012    2    1    2    0    0  0.34787036698E+02  0.16056277001E+02 -0.13609674830E+02  0.50528865696E+02  0.30000017771E+02 0.  0.
        -12    1    1    2    0    0 -0.34787036698E+02 -0.16056277001E+02  0.13609674830E+02  0.40659134304E+02  0.00000000000E+00 0.  1.
         11    1    3    3    0    0  0.95150325832E+01  0.18077717312E+02 -0.83669406332E+01  0.22075900980E+02  0.51100000000E-03 0. -1.
        -11    1    3    3    0    0  0.37620018799E+01  0.36801440978E+01 -0.30739725420E+01  0.60947047652E+01  0.51100000000E-03 0.  1.
        -12    1    3    3    0    0  0.21510002235E+02 -0.57015844092E+01 -0.21687616553E+01  0.22358259951E+02  0.00000000000E+00 0.  1.
</event>
<event>
 7    1  0.6090311E-013  0.5052887E+02  0.7816164E-02  0.1300439E+00
        -11   -1    0    0    0    0  0.00000000000E+00  0.00000000000E+00  0.45593999997E+02  0.45594000000E+02  0.51100000000E-03 0.  1.
         11   -1    0    0    0    0 -0.00000000000E+00 -0.00000000000E+00 -0.45593999997E+02  0.45594000000E+02  0.51100000000E-03 0. -1.
    9900012    2    1    2    0    0 -0.32341896313E+02  0.13745379977E+02 -0.20450709725E+02  0.50528865035E+02  0.30000015760E+02 0.  0.
        -12    1    1    2    0    0  0.32341896313E+02 -0.13745379977E+02  0.20450709725E+02  0.40659134965E+02  0.00000000000E+00 0.  1.
         11    1    3    3    0    0  0.15244586033E+01 -0.31670221032E+01 -0.21147328896E+01  0.41019627608E+01  0.51100000000E-03 0. -1.
        -11    1    3    3    0    0 -0.76122014469E+00  0.21708924073E+01  0.34476179779E+01  0.41446712699E+01  0.51100000000E-03 0.  1.
         12    1    3    3    0    0 -0.33105134772E+02  0.14741509673E+02 -0.21783594814E+02  0.42282231004E+02  0.00000000000E+00 0. -1.
</event>
<event>
 7    1  0.6090311E-013  0.5052885E+02  0.7816164E-02  0.1300439E+00
        -11   -1    0    0    0    0  0.00000000000E+00  0.00000000000E+00  0.45593999997E+02  0.45594000000E+02  0.51100000000E-03 0.  1.
         11   -1    0    0    0    0 -0.00000000000E+00 -0.00000000000E+00 -0.45593999997E+02  0.45594000000E+02  0.51100000000E-03 0. -1.
    9900012    2    1    2    0    0  0.30965698822E+01 -0.40088752005E+02 -0.60390473261E+01  0.50528845127E+02  0.29999955249E+02 0.  0.
        -12    1    1    2    0    0 -0.30965698822E+01  0.40088752005E+02  0.60390473261E+01  0.40659154873E+02  0.00000000000E+00 0.  1.
         11    1    3    3    0    0  0.66210024028E+01 -0.25347318060E+02 -0.49971642536E+01  0.26670130418E+02  0.51100000000E-03 0. -1.
        -11    1    3    3    0    0 -0.57095650470E+01 -0.18551957060E+02 -0.36374169347E+00  0.19414081283E+02  0.51100000000E-03 0.  1.
         12    1    3    3    0    0  0.21851325263E+01  0.38105231152E+01 -0.67814137904E+00  0.44446334268E+01  0.00000000000E+00 0. -1.
</event>
<event>
 7    1  0.6090311E-013  0.5052886E+02  0.7816164E-02  0.1300439E+00
        -11   -1    0    0    0    0  0.00000000000E+00  0.00000000000E+00  0.45593999997E+02  0.45594000000E+02  0.51100000000E-03 0. -1.
         11   -1    0    0    0    0 -0.00000000000E+00 -0.00000000000E+00 -0.45593999997E+02  0.45594000000E+02  0.51100000000E-03 0.  1.
    9900012    2    1    2    0    0  0.39005061570E+02  0.75140500495E+00 -0.11454544077E+02  0.50528855671E+02  0.29999987297E+02 0.  0.
        -12    1    1    2    0    0 -0.39005061570E+02 -0.75140500495E+00  0.11454544077E+02  0.40659144329E+02  0.00000000000E+00 0.  1.
         11    1    3    3    0    0  0.21758245430E+02  0.43167325702E+01 -0.14461484653E+02  0.26479991747E+02  0.51100000000E-03 0. -1.
        -11    1    3    3    0    0  0.50576526279E+01  0.54869193094E+01  0.46261101022E+01  0.87799218989E+01  0.51100000000E-03 0.  1.
         12    1    3    3    0    0  0.12189163513E+02 -0.90522468747E+01 -0.16191695260E+01  0.15268942025E+02  0.00000000000E+00 0. -1.
</event>
<event>
 7    1  0.6090311E-013  0.5052885E+02  0.7816164E-02  0.1300439E+00
        -11   -1    0    0    0    0  0.00000000000E+00  0.00000000000E+00  0.45593999997E+02  0.45594000000E+02  0.51100000000E-03 0. -1.
         11   -1    0    0    0    0 -0.00000000000E+00 -0.00000000000E+00 -0.45593999997E+02  0.45594000000E+02  0.51100000000E-03 0.  1.
    9900012    2    1    2    0    0  0.76878030707E+01 -0.39913057971E+02  0.10058983919E+01  0.50528851653E+02  0.29999975086E+02 0.  0.
        -12    1    1    2    0    0 -0.76878030707E+01  0.39913057971E+02 -0.10058983919E+01  0.40659148347E+02  0.00000000000E+00 0.  1.
         11    1    3    3    0    0 -0.46694164157E+01 -0.11339677211E+02 -0.50067864156E+01  0.13246117899E+02  0.51100000000E-03 0. -1.
        -11    1    3    3    0    0  0.10572436148E+01 -0.35420955410E+01 -0.62061035076E+01  0.72235673937E+01  0.51100000000E-03 0.  1.
        -12    1    3    3    0    0  0.11299975872E+02 -0.25031285219E+02  0.12218788315E+02  0.30059166361E+02  0.00000000000E+00 0.  1.
</event>
<event>
 7    1  0.6090311E-013  0.5052885E+02  0.7816164E-02  0.1300439E+00
        -11   -1    0    0    0    0  0.00000000000E+00  0.00000000000E+00  0.45593999997E+02  0.45594000000E+02  0.51100000000E-03 0.  1.
         11   -1    0    0    0    0 -0.00000000000E+00 -0.00000000000E+00 -0.45593999997E+02  0.45594000000E+02  0.51100000000E-03 0. -1.
    9900012    2    1    2    0    0 -0.13875571153E+02 -0.34705220266E+02 -0.16005719942E+02  0.50528845318E+02  0.29999955830E+02 0.  0.
        -12    1    1    2    0    0  0.13875571153E+02  0.34705220266E+02  0.16005719942E+02  0.40659154682E+02  0.00000000000E+00 0.  1.
         11    1    3    3    0    0 -0.39775871028E+01 -0.30432004683E+02 -0.80243686372E+01  0.31722525128E+02  0.51100000000E-03 0. -1.
        -11    1    3    3    0    0  0.77528815442E+00 -0.49262234669E+01  0.69611187641E+00  0.50352081758E+01  0.51100000000E-03 0.  1.
         12    1    3    3    0    0 -0.10673272205E+02  0.65300788381E+00 -0.86774631812E+01  0.13771112015E+02  0.00000000000E+00 0. -1.
</event>
<event>
 7    1  0.6090311E-013  0.5052885E+02  0.7816164E-02  0.1300439E+00
        -11   -1    0    0    0    0  0.00000000000E+00  0.00000000000E+00  0.45593999997E+02  0.45594000000E+02  0.51100000000E-03 0.  1.
         11   -1    0    0    0    0 -0.00000000000E+00 -0.00000000000E+00 -0.45593999997E+02  0.45594000000E+02  0.51100000000E-03 0. -1.
    9900012    2    1    2    0    0 -0.72435800197E+01  0.33856715068E+02  0.21317124157E+02  0.50528851103E+02  0.29999973412E+02 0.  0.
        -12    1    1    2    0    0  0.72435800197E+01 -0.33856715068E+02 -0.21317124157E+02  0.40659148897E+02  0.00000000000E+00 0.  1.
         11    1    3    3    0    0  0.30615941802E+01  0.16298124088E+02  0.30828865659E+01  0.16867317438E+02  0.51100000000E-03 0. -1.
        -11    1    3    3    0    0  0.37780766863E+00  0.17006206656E+02  0.77833745814E+01  0.18706542267E+02  0.51100000000E-03 0.  1.
        -12    1    3    3    0    0 -0.10682981869E+02  0.55238432408E+00  0.10450863010E+02  0.14954991398E+02  0.00000000000E+00 0.  1.
</event>
<event>
 7    1  0.6090311E-013  0.5052886E+02  0.7816164E-02  0.1300439E+00
        -11   -1    0    0    0    0  0.00000000000E+00  0.00000000000E+00  0.45593999997E+02  0.45594000000E+02  0.51100000000E-03 0. -1.
         11   -1    0    0    0    0 -0.00000000000E+00 -0.00000000000E+00 -0.45593999997E+02  0.45594000000E+02  0.51100000000E-03 0.  1.
    9900012    2    1    2    0    0 -0.78779311885E+01 -0.50955749070E+01  0.39561840009E+02  0.50528857506E+02  0.29999992874E+02 0.  0.
        -12    1    1    2    0    0  0.78779311885E+01  0.50955749070E+01 -0.39561840009E+02  0.40659142494E+02  0.00000000000E+00 0.  1.
         11    1    3    3    0    0 -0.44969745266E+01  0.42280546198E+01  0.33616012009E+02  0.34177997153E+02  0.51100000000E-03 0. -1.
        -11    1    3    3    0    0  0.10700403302E+01  0.16308909598E+01 -0.14265322312E+01  0.24165649378E+01  0.51100000000E-03 0.  1.
        -12    1    3    3    0    0 -0.44509969920E+01 -0.10954520487E+02  0.73723602317E+01  0.13934295415E+02  0.00000000000E+00 0.  1.
</event>
<event>
 7    1  0.6090311E-013  0.5052886E+02  0.7816164E-02  0.1300439E+00
        -11   -1    0    0    0    0  0.00000000000E+00  0.00000000000E+00  0.45593999997E+02  0.45594000000E+02  0.51100000000E-03 0.  1.
         11   -1    0    0    0    0 -0.00000000000E+00 -0.00000000000E+00 -0.45593999997E+02  0.45594000000E+02  0.51100000000E-03 0. -1.
    9900012    2    1    2    0    0 -0.30697766362E+02  0.10887891076E+02 -0.24336530302E+02  0.50528859099E+02  0.29999997716E+02 0.  0.
        -12    1    1    2    0    0  0.30697766362E+02 -0.10887891076E+02  0.24336530302E+02  0.40659140901E+02  0.00000000000E+00 0.  1.
         11    1    3    3    0    0 -0.31809056973E+01 -0.78460130890E+01 -0.43543027867E+01  0.95204010139E+01  0.51100000000E-03 0.  1.
        -11    1    3    3    0    0 -0.12292833090E+02  0.30314905904E+01 -0.12760895323E+02  0.17976210120E+02  0.51100000000E-03 0. -1.
        -12    1    3    3    0    0 -0.15224027575E+02  0.15702413575E+02 -0.72213321927E+01  0.23032247965E+02  0.00000000000E+00 0.  1.
</event>
<event>
 7    1  0.6090311E-013  0.5052885E+02  0.7816164E-02  0.1300439E+00
        -11   -1    0    0    0    0  0.00000000000E+00  0.00000000000E+00  0.45593999997E+02  0.45594000000E+02  0.51100000000E-03 0.  1.
         11   -1    0    0    0    0 -0.00000000000E+00 -0.00000000000E+00 -0.45593999997E+02  0.45594000000E+02  0.51100000000E-03 0. -1.
    9900012    2    1    2    0    0 -0.17955566337E+02  0.31553979586E+02 -0.18306029992E+02  0.50528846981E+02  0.29999960882E+02 0.  0.
        -12    1    1    2    0    0  0.17955566337E+02 -0.31553979586E+02  0.18306029992E+02  0.40659153019E+02  0.00000000000E+00 0.  1.
         11    1    3    3    0    0 -0.10295489890E+02  0.16608420966E+02 -0.84266273376E+01  0.21280150554E+02  0.51100000000E-03 0. -1.
        -11    1    3    3    0    0 -0.11712340982E+02  0.12573392829E+02 -0.14630993874E+02  0.22568454101E+02  0.51100000000E-03 0.  1.
        -12    1    3    3    0    0  0.40522645348E+01  0.23721657907E+01  0.47515912201E+01  0.66802423251E+01  0.00000000000E+00 0.  1.
</event>
<event>
 7    1  0.6090311E-013  0.5052886E+02  0.7816164E-02  0.1300439E+00
        -11   -1    0    0    0    0  0.00000000000E+00  0.00000000000E+00  0.45593999997E+02  0.45594000000E+02  0.51100000000E-03 0. -1.
         11   -1    0    0    0    0 -0.00000000000E+00 -0.00000000000E+00 -0.45593999997E+02  0.45594000000E+02  0.51100000000E-03 0.  1.
    9900012    2    1    2    0    0 -0.23493310571E+02 -0.11794953321E+02  0.31017888701E+02  0.50528856073E+02  0.29999988519E+02 0.  0.
        -12    1    1    2    0    0  0.23493310571E+02  0.11794953321E+02 -0.31017888701E+02  0.40659143927E+02  0.00000000000E+00 0.  1.
         11    1    3    3    0    0 -0.27772130003E+01 -0.67532079787E+01  0.76467903451E+00  0.73418978704E+01  0.51100000000E-03 0. -1.
        -11    1    3    3    0    0 -0.81697149908E+01 -0.13335186962E+02  0.17483919463E+02  0.23457597797E+02  0.51100000000E-03 0.  1.
        -12    1    3    3    0    0 -0.12546382580E+02  0.82934416190E+01  0.12769290203E+02  0.19729360406E+02  0.00000000000E+00 0.  1.
</event>
<event>
 7    1  0.6090311E-013  0.5052886E+02  0.7816164E-02  0.1300439E+00
        -11   -1    0    0    0    0  0.00000000000E+00  0.00000000000E+00  0.45593999997E+02  0.45594000000E+02  0.51100000000E-03 0.  1.
         11   -1    0    0    0    0 -0.00000000000E+00 -0.00000000000E+00 -0.45593999997E+02  0.45594000000E+02  0.51100000000E-03 0. -1.
    9900012    2    1    2    0    0 -0.39706379245E+02 -0.73948402174E+01 -0.46781756210E+01  0.50528861523E+02  0.30000005085E+02 0.  0.
        -12    1    1    2    0    0  0.39706379245E+02  0.73948402174E+01  0.46781756210E+01  0.40659138477E+02  0.00000000000E+00 0.  1.
         11    1    3    3    0    0 -0.11750794580E+02 -0.42099684270E+01 -0.38072039566E+01  0.13049896921E+02  0.51100000000E-03 0. -1.
        -11    1    3    3    0    0 -0.19043495847E+01 -0.60052871195E+01 -0.81331569696E+01  0.10287772513E+02  0.51100000000E-03 0.  1.
        -12    1    3    3    0    0 -0.26051235080E+02  0.28204153290E+01  0.72621853052E+01  0.27191192089E+02  0.00000000000E+00 0.  1.
</event>
<event>
 7    1  0.6090311E-013  0.5052886E+02  0.7816164E-02  0.1300439E+00
        -11   -1    0    0    0    0  0.00000000000E+00  0.00000000000E+00  0.45593999997E+02  0.45594000000E+02  0.51100000000E-03 0.  1.
         11   -1    0    0    0    0 -0.00000000000E+00 -0.00000000000E+00 -0.45593999997E+02  0.45594000000E+02  0.51100000000E-03 0. -1.
    9900012    2    1    2    0    0  0.15294604756E+02 -0.37634151782E+02  0.17061701800E+01  0.50528864106E+02  0.30000012935E+02 0.  0.
        -12    1    1    2    0    0 -0.15294604756E+02  0.37634151782E+02 -0.17061701800E+01  0.40659135894E+02  0.00000000000E+00 0.  1.
         11    1    3    3    0    0  0.88622951036E+01 -0.67587501598E+01 -0.42746452068E+01  0.11937067066E+02  0.51100000000E-03 0. -1.
        -11    1    3    3    0    0  0.43415441077E+01 -0.14954195365E+02 -0.78139087776E+01  0.17422231054E+02  0.51100000000E-03 0.  1.
         12    1    3    3    0    0  0.20907655447E+01 -0.15921206257E+02  0.13794724164E+02  0.21169565985E+02  0.00000000000E+00 0. -1.
</event>
<event>
 7    1  0.6090311E-013  0.5052886E+02  0.7816164E-02  0.1300439E+00
        -11   -1    0    0    0    0  0.00000000000E+00  0.00000000000E+00  0.45593999997E+02  0.45594000000E+02  0.51100000000E-03 0. -1.
         11   -1    0    0    0    0 -0.00000000000E+00 -0.00000000000E+00 -0.45593999997E+02  0.45594000000E+02  0.51100000000E-03 0.  1.
    9900012    2    1    2    0    0 -0.10335494840E+02 -0.39099000295E+02 -0.41965820628E+01  0.50528861068E+02  0.30000003704E+02 0.  0.
        -12    1    1    2    0    0  0.10335494840E+02  0.39099000295E+02  0.41965820628E+01  0.40659138932E+02  0.00000000000E+00 0.  1.
         11    1    3    3    0    0 -0.32041785082E+01 -0.16426377114E+01  0.37278270152E+01  0.51828286755E+01  0.51100000000E-03 0. -1.
        -11    1    3    3    0    0 -0.42266889211E+01 -0.43937386733E+01  0.67159591979E+01  0.90704987169E+01  0.51100000000E-03 0.  1.
        -12    1    3    3    0    0 -0.29046274103E+01 -0.33062623910E+02 -0.14640368276E+02  0.36275533676E+02  0.00000000000E+00 0.  1.
</event>
<event>
 7    1  0.6090311E-013  0.5052886E+02  0.7816164E-02  0.1300439E+00
        -11   -1    0    0    0    0  0.00000000000E+00  0.00000000000E+00  0.45593999997E+02  0.45594000000E+02  0.51100000000E-03 0.  1.
         11   -1    0    0    0    0 -0.00000000000E+00 -0.00000000000E+00 -0.45593999997E+02  0.45594000000E+02  0.51100000000E-03 0. -1.
    9900012    2    1    2    0    0 -0.72398147815E+01  0.21120855427E+02 -0.33980290204E+02  0.50528861121E+02  0.30000003863E+02 0.  0.
        -12    1    1    2    0    0  0.72398147815E+01 -0.21120855427E+02  0.33980290204E+02  0.40659138879E+02  0.00000000000E+00 0.  1.
         11    1    3    3    0    0  0.59754426232E+01  0.46860954752E+01 -0.65567766971E+01  0.10032782578E+02  0.51100000000E-03 0. -1.
        -11    1    3    3    0    0 -0.85888712012E+01  0.71358287908E+01  0.55892119753E-02  0.11166413594E+02  0.51100000000E-03 0.  1.
         12    1    3    3    0    0 -0.46263862035E+01  0.92989311610E+01 -0.27429102719E+02  0.29329664949E+02  0.00000000000E+00 0. -1.
</event>
<event>
 7    1  0.6090311E-013  0.5052886E+02  0.7816164E-02  0.1300439E+00
        -11   -1    0    0    0    0  0.00000000000E+00  0.00000000000E+00  0.45593999997E+02  0.45594000000E+02  0.51100000000E-03 0.  1.
         11   -1    0    0    0    0 -0.00000000000E+00 -0.00000000000E+00 -0.45593999997E+02  0.45594000000E+02  0.51100000000E-03 0. -1.
    9900012    2    1    2    0    0 -0.39949291687E+02 -0.63859666299E+01  0.40544818540E+01  0.50528864505E+02  0.30000014148E+02 0.  0.
        -12    1    1    2    0    0  0.39949291687E+02  0.63859666299E+01 -0.40544818540E+01  0.40659135495E+02  0.00000000000E+00 0.  1.
         11    1    3    3    0    0 -0.80990298400E+01  0.18208640005E+00 -0.17908482410E+01  0.82966606228E+01  0.51100000000E-03 0. -1.
        -11    1    3    3    0    0 -0.73495204970E+01 -0.58462192811E+01 -0.94639730064E+01  0.13332686029E+02  0.51100000000E-03 0.  1.
         12    1    3    3    0    0 -0.24500741350E+02 -0.72183374889E+00  0.15309303101E+02  0.28899517853E+02  0.00000000000E+00 0. -1.
</event>
<event>
 7    1  0.6090311E-013  0.5052886E+02  0.7816164E-02  0.1300439E+00
        -11   -1    0    0    0    0  0.00000000000E+00  0.00000000000E+00  0.45593999997E+02  0.45594000000E+02  0.51100000000E-03 0.  1.
         11   -1    0    0    0    0 -0.00000000000E+00 -0.00000000000E+00 -0.45593999997E+02  0.45594000000E+02  0.51100000000E-03 0. -1.
    9900012    2    1    2    0    0 -0.11436016018E+02 -0.31451055168E+02 -0.23091428738E+02  0.50528863085E+02  0.30000009833E+02 0.  0.
        -12    1    1    2    0    0  0.11436016018E+02  0.31451055168E+02  0.23091428738E+02  0.40659136915E+02  0.00000000000E+00 0.  1.
         11    1    3    3    0    0 -0.98909524420E+01 -0.10164487723E+02 -0.90474290231E+01  0.16822714498E+02  0.51100000000E-03 0. -1.
        -11    1    3    3    0    0  0.28995407324E+01 -0.16591714824E+02 -0.19124260788E+02  0.25483910379E+02  0.51100000000E-03 0.  1.
         12    1    3    3    0    0 -0.44446043087E+01 -0.46948526205E+01  0.50802610728E+01  0.82222382084E+01  0.00000000000E+00 0. -1.
</event>
<event>
 7    1  0.6090311E-013  0.5052886E+02  0.7816164E-02  0.1300439E+00
        -11   -1    0    0    0    0  0.00000000000E+00  0.00000000000E+00  0.45593999997E+02  0.45594000000E+02  0.51100000000E-03 0.  1.
         11   -1    0    0    0    0 -0.00000000000E+00 -0.00000000000E+00 -0.45593999997E+02  0.45594000000E+02  0.51100000000E-03 0. -1.
    9900012    2    1    2    0    0 -0.36379134085E+02 -0.14349050149E+02 -0.11127851616E+02  0.50528859348E+02  0.29999998475E+02 0.  0.
        -12    1    1    2    0    0  0.36379134085E+02  0.14349050149E+02  0.11127851616E+02  0.40659140652E+02  0.00000000000E+00 0.  1.
         11    1    3    3    0    0 -0.16189247349E+02 -0.27188631561E+01 -0.14990169739E+02  0.22230365172E+02  0.51100000000E-03 0. -1.
        -11    1    3    3    0    0 -0.10530797974E+02 -0.12657696267E+02 -0.25463205000E+01  0.16661294341E+02  0.51100000000E-03 0.  1.
        -12    1    3    3    0    0 -0.96590887618E+01  0.10275092739E+01  0.64086386234E+01  0.11637199836E+02  0.00000000000E+00 0.  1.
</event>
<event>
 7    1  0.6090311E-013  0.5052886E+02  0.7816164E-02  0.1300439E+00
        -11   -1    0    0    0    0  0.00000000000E+00  0.00000000000E+00  0.45593999997E+02  0.45594000000E+02  0.51100000000E-03 0.  1.
         11   -1    0    0    0    0 -0.00000000000E+00 -0.00000000000E+00 -0.45593999997E+02  0.45594000000E+02  0.51100000000E-03 0. -1.
    9900012    2    1    2    0    0  0.24263724592E+02  0.15386376673E+02 -0.28769712808E+02  0.50528864578E+02  0.30000014371E+02 0.  0.
        -12    1    1    2    0    0 -0.24263724592E+02 -0.15386376673E+02  0.28769712808E+02  0.40659135422E+02  0.00000000000E+00 0.  1.
         11    1    3    3    0    0  0.10664517342E+02 -0.39678150769E+01 -0.19959490097E+02  0.22975132901E+02  0.51100000000E-03 0. -1.
        -11    1    3    3    0    0  0.70223321491E+00 -0.14534752103E+01 -0.34221689064E+00  0.16501013110E+01  0.51100000000E-03 0.  1.
        -12    1    3    3    0    0  0.12896974035E+02  0.20807666960E+02 -0.84680058211E+01  0.25903630366E+02  0.00000000000E+00 0.  1.
</event>
<event>
 7    1  0.6090311E-013  0.5052887E+02  0.7816164E-02  0.1300439E+00
        -11   -1    0    0    0    0  0.00000000000E+00  0.00000000000E+00  0.45593999997E+02  0.45594000000E+02  0.51100000000E-03 0. -1.
         11   -1    0    0    0    0 -0.00000000000E+00 -0.00000000000E+00 -0.45593999997E+02  0.45594000000E+02  0.51100000000E-03 0.  1.
    9900012    2    1    2    0    0 -0.36097305284E+02  0.17769050402E+02  0.58660288931E+01  0.50528869464E+02  0.30000029224E+02 0.  0.
        -12    1    1    2    0    0  0.36097305284E+02 -0.17769050402E+02 -0.58660288931E+01  0.40659130536E+02  0.00000000000E+00 0.  1.
         11    1    3    3    0    0 -0.24169929018E+02  0.99495684445E+01 -0.17341168895E+01  0.26195162580E+02  0.51100000000E-03 0. -1.
        -11    1    3    3    0    0 -0.73184917499E+01 -0.35266273158E+01 -0.24565356315E+01  0.84871661518E+01  0.51100000000E-03 0.  1.
         12    1    3    3    0    0 -0.46088845166E+01  0.11346109273E+02  0.10056681414E+02  0.15846540732E+02  0.00000000000E+00 0. -1.
</event>
<event>
 7    1  0.6090311E-013  0.5052886E+02  0.7816164E-02  0.1300439E+00
        -11   -1    0    0    0    0  0.00000000000E+00  0.00000000000E+00  0.45593999997E+02  0.45594000000E+02  0.51100000000E-03 0.  1.
         11   -1    0    0    0    0 -0.00000000000E+00 -0.00000000000E+00 -0.45593999997E+02  0.45594000000E+02  0.51100000000E-03 0. -1.
    9900012    2    1    2    0    0  0.16368817344E+02  0.23879889668E+02 -0.28547821185E+02  0.50528863189E+02  0.30000010148E+02 0.  0.
        -12    1    1    2    0    0 -0.16368817344E+02 -0.23879889668E+02  0.28547821185E+02  0.40659136811E+02  0.00000000000E+00 0.  1.
         11    1    3    3    0    0 -0.32987053801E+00 -0.18620544122E+01 -0.10792288491E+01  0.21773369918E+01  0.51100000000E-03 0. -1.
        -11    1    3    3    0    0  0.81018481488E+01  0.32581760540E+00  0.21486120945E+01  0.83882438407E+01  0.51100000000E-03 0.  1.
        -12    1    3    3    0    0  0.85968397337E+01  0.25416126475E+02 -0.29617204430E+02  0.39963282356E+02  0.00000000000E+00 0.  1.
</event>
<event>
 7    1  0.6090311E-013  0.5052886E+02  0.7816164E-02  0.1300439E+00
        -11   -1    0    0    0    0  0.00000000000E+00  0.00000000000E+00  0.45593999997E+02  0.45594000000E+02  0.51100000000E-03 0.  1.
         11   -1    0    0    0    0 -0.00000000000E+00 -0.00000000000E+00 -0.45593999997E+02  0.45594000000E+02  0.51100000000E-03 0. -1.
    9900012    2    1    2    0    0 -0.23395303534E+01  0.36689272603E+02 -0.17366336901E+02  0.50528858546E+02  0.29999996035E+02 0.  0.
        -12    1    1    2    0    0  0.23395303534E+01 -0.36689272603E+02  0.17366336901E+02  0.40659141454E+02  0.00000000000E+00 0.  1.
         11    1    3    3    0    0 -0.45948741828E+01  0.11979191565E+02 -0.16196584938E+02  0.20662605432E+02  0.51100000000E-03 0. -1.
        -11    1    3    3    0    0 -0.19913952145E+01  0.34310748825E+01 -0.64150808557E+01  0.75426250335E+01  0.51100000000E-03 0.  1.
         12    1    3    3    0    0  0.42467390439E+01  0.21279006155E+02  0.52453288924E+01  0.22323628080E+02  0.00000000000E+00 0. -1.
</event>
<event>
 7    1  0.6090311E-013  0.5052885E+02  0.7816164E-02  0.1300439E+00
        -11   -1    0    0    0    0  0.00000000000E+00  0.00000000000E+00  0.45593999997E+02  0.45594000000E+02  0.51100000000E-03 0. -1.
         11   -1    0    0    0    0 -0.00000000000E+00 -0.00000000000E+00 -0.45593999997E+02  0.45594000000E+02  0.51100000000E-03 0.  1.
    9900012    2    1    2    0    0  0.22063966866E+02  0.88290007580E+00  0.34140415276E+02  0.50528854637E+02  0.29999984156E+02 0.  0.
        -12    1    1    2    0    0 -0.22063966866E+02 -0.88290007580E+00 -0.34140415276E+02  0.40659145363E+02  0.00000000000E+00 0.  1.
         11    1    3    3    0    0  0.80057921166E+01 -0.80094292126E+01  0.27740999396E+02  0.29963422893E+02  0.51100000000E-03 0. -1.
        -11    1    3    3    0    0  0.40031935756E+00 -0.11687914803E+01  0.30276299248E+01  0.32699957699E+01  0.51100000000E-03 0.  1.
        -12    1    3    3    0    0  0.13657855391E+02  0.10061120769E+02  0.33717859551E+01  0.17295435974E+02  0.00000000000E+00 0.  1.
</event>
<event>
 7    1  0.6090311E-013  0.5052887E+02  0.7816164E-02  0.1300439E+00
        -11   -1    0    0    0    0  0.00000000000E+00  0.00000000000E+00  0.45593999997E+02  0.45594000000E+02  0.51100000000E-03 0. -1.
         11   -1    0    0    0    0 -0.00000000000E+00 -0.00000000000E+00 -0.45593999997E+02  0.45594000000E+02  0.51100000000E-03 0.  1.
    9900012    2    1    2    0    0  0.19099546024E+02 -0.30939414189E+02  0.18196839375E+02  0.50528868530E+02  0.30000026383E+02 0.  0.
        -12    1    1    2    0    0 -0.19099546024E+02  0.30939414189E+02 -0.18196839375E+02  0.40659131470E+02  0.00000000000E+00 0.  1.
         11    1    3    3    0    0  0.10591119519E+02 -0.13564377630E+02  0.45453156418E+00  0.17215421934E+02  0.51100000000E-03 0. -1.
        -11    1    3    3    0    0  0.46584019705E+00 -0.46157124010E+01 -0.44845624700E+01  0.64523723441E+01  0.51100000000E-03 0.  1.
         12    1    3    3    0    0  0.80425863078E+01 -0.12759324158E+02  0.22226870281E+02  0.26861074252E+02  0.00000000000E+00 0. -1.
</event>
<event>
 7    1  0.6090311E-013  0.5052884E+02  0.7816164E-02  0.1300439E+00
        -11   -1    0    0    0    0  0.00000000000E+00  0.00000000000E+00  0.45593999997E+02  0.45594000000E+02  0.51100000000E-03 0.  1.
         11   -1    0    0    0    0 -0.00000000000E+00 -0.00000000000E+00 -0.45593999997E+02  0.45594000000E+02  0.51100000000E-03 0. -1.
    9900012    2    1    2    0    0  0.86075180258E+01  0.32760310973E+02 -0.22490888262E+02  0.50528838715E+02  0.29999935757E+02 0.  0.
        -12    1    1    2    0    0 -0.86075180258E+01 -0.32760310973E+02  0.22490888262E+02  0.40659161285E+02  0.00000000000E+00 0.  1.
         11    1    3    3    0    0  0.50669989630E+01  0.21230022297E+01 -0.56125108311E+00  0.55223744891E+01  0.51100000000E-03 0. -1.
        -11    1    3    3    0    0  0.79365508614E+01  0.95804119691E+00 -0.26390652766E+00  0.79985204524E+01  0.51100000000E-03 0.  1.
         12    1    3    3    0    0 -0.43960317986E+01  0.29679267546E+02 -0.21665730651E+02  0.37007943773E+02  0.00000000000E+00 0. -1.
</event>
<event>
 7    1  0.6090311E-013  0.5052886E+02  0.7816164E-02  0.1300439E+00
        -11   -1    0    0    0    0  0.00000000000E+00  0.00000000000E+00  0.45593999997E+02  0.45594000000E+02  0.51100000000E-03 0.  1.
         11   -1    0    0    0    0 -0.00000000000E+00 -0.00000000000E+00 -0.45593999997E+02  0.45594000000E+02  0.51100000000E-03 0. -1.
    9900012    2    1    2    0    0  0.30721440436E+02 -0.10692415893E+02 -0.24393259715E+02  0.50528858597E+02  0.29999996193E+02 0.  0.
        -12    1    1    2    0    0 -0.30721440436E+02  0.10692415893E+02  0.24393259715E+02  0.40659141403E+02  0.00000000000E+00 0.  1.
         11    1    3    3    0    0  0.29716431751E+01 -0.29133266878E+01 -0.37461204041E+01  0.55992458325E+01  0.51100000000E-03 0. -1.
        -11    1    3    3    0    0  0.26658864226E+02 -0.41406572227E+01 -0.33094913125E+01  0.27180743497E+02  0.51100000000E-03 0.  1.
         12    1    3    3    0    0  0.10909330350E+01 -0.36384319822E+01 -0.17337647998E+02  0.17748869268E+02  0.00000000000E+00 0. -1.
</event>
<event>
 7    1  0.6090311E-013  0.5052886E+02  0.7816164E-02  0.1300439E+00
        -11   -1    0    0    0    0  0.00000000000E+00  0.00000000000E+00  0.45593999997E+02  0.45594000000E+02  0.51100000000E-03 0.  1.
         11   -1    0    0    0    0 -0.00000000000E+00 -0.00000000000E+00 -0.45593999997E+02  0.45594000000E+02  0.51100000000E-03 0. -1.
    9900012    2    1    2    0    0  0.20232995921E+02 -0.33543255271E+02  0.10892267057E+02  0.50528861054E+02  0.30000003661E+02 0.  0.
        -12    1    1    2    0    0 -0.20232995921E+02  0.33543255271E+02 -0.10892267057E+02  0.40659138946E+02  0.00000000000E+00 0.  1.
         11    1    3    3    0    0  0.97026181674E+01 -0.69685345499E+01  0.31073622766E+01  0.12343296709E+02  0.51100000000E-03 0. -1.
        -11    1    3    3    0    0  0.11979748888E+02 -0.28874317838E+01 -0.20584318251E+01  0.12493549838E+02  0.51100000000E-03 0.  1.
        -12    1    3    3    0    0 -0.14493711337E+01 -0.23687288938E+02  0.98433366055E+01  0.25692014507E+02  0.00000000000E+00 0.  1.
</event>
<event>
 7    1  0.6090311E-013  0.5052886E+02  0.7816164E-02  0.1300439E+00
        -11   -1    0    0    0    0  0.00000000000E+00  0.00000000000E+00  0.45593999997E+02  0.45594000000E+02  0.51100000000E-03 0.  1.
         11   -1    0    0    0    0 -0.00000000000E+00 -0.00000000000E+00 -0.45593999997E+02  0.45594000000E+02  0.51100000000E-03 0. -1.
    9900012    2    1    2    0    0 -0.21972255425E+02 -0.76835200784E+01 -0.33336903193E+02  0.50528860760E+02  0.30000002766E+02 0.  0.
        -12    1    1    2    0    0  0.21972255425E+02  0.76835200784E+01  0.33336903193E+02  0.40659139240E+02  0.00000000000E+00 0.  1.
         11    1    3    3    0    0 -0.95022148062E+01 -0.72031571026E+01 -0.13823818611E+02  0.18255835224E+02  0.51100000000E-03 0.  1.
        -11    1    3    3    0    0 -0.11631057432E+02 -0.10261859107E+02 -0.91988651623E+01  0.18033479139E+02  0.51100000000E-03 0. -1.
        -12    1    3    3    0    0 -0.83898318666E+00  0.97814961317E+01 -0.10314219420E+02  0.14239546397E+02  0.00000000000E+00 0.  1.
</event>
<event>
 7    1  0.6090311E-013  0.5052883E+02  0.7816164E-02  0.1300439E+00
        -11   -1    0    0    0    0  0.00000000000E+00  0.00000000000E+00  0.45593999997E+02  0.45594000000E+02  0.51100000000E-03 0.  1.
         11   -1    0    0    0    0 -0.00000000000E+00 -0.00000000000E+00 -0.45593999997E+02  0.45594000000E+02  0.51100000000E-03 0. -1.
    9900012    2    1    2    0    0 -0.23891082007E+02 -0.32413923194E+02 -0.56322022687E+01  0.50528832292E+02  0.29999916236E+02 0.  0.
        -12    1    1    2    0    0  0.23891082007E+02  0.32413923194E+02  0.56322022687E+01  0.40659167708E+02  0.00000000000E+00 0.  1.
         11    1    3    3    0    0 -0.10539568740E+02 -0.55564818333E+01 -0.30398984097E+01  0.12296258870E+02  0.51100000000E-03 0. -1.
        -11    1    3    3    0    0 -0.11524007949E+02 -0.59644495155E+01 -0.95767832853E+01  0.16127374107E+02  0.51100000000E-03 0.  1.
        -12    1    3    3    0    0 -0.18275053179E+01 -0.20892991845E+02  0.69844794263E+01  0.22105199316E+02  0.00000000000E+00 0.  1.
</event>
<event>
 7    1  0.6090311E-013  0.5052886E+02  0.7816164E-02  0.1300439E+00
        -11   -1    0    0    0    0  0.00000000000E+00  0.00000000000E+00  0.45593999997E+02  0.45594000000E+02  0.51100000000E-03 0.  1.
         11   -1    0    0    0    0 -0.00000000000E+00 -0.00000000000E+00 -0.45593999997E+02  0.45594000000E+02  0.51100000000E-03 0. -1.
    9900012    2    1    2    0    0 -0.16904727125E+02 -0.36091490755E+02 -0.80498600161E+01  0.50528858957E+02  0.29999997286E+02 0.  0.
        -12    1    1    2    0    0  0.16904727125E+02  0.36091490755E+02  0.80498600161E+01  0.40659141043E+02  0.00000000000E+00 0.  1.
         11    1    3    3    0    0 -0.82088250341E+01 -0.78131485031E+00  0.16400629942E+01  0.84074412410E+01  0.51100000000E-03 0. -1.
        -11    1    3    3    0    0  0.93455700311E-01  0.19771666508E+01  0.11742322117E+01  0.23014655073E+01  0.51100000000E-03 0.  1.
         12    1    3    3    0    0 -0.87893577912E+01 -0.37287342555E+02 -0.10864155222E+02  0.39819952209E+02  0.00000000000E+00 0. -1.
</event>
<event>
 7    1  0.6090311E-013  0.5052886E+02  0.7816164E-02  0.1300439E+00
        -11   -1    0    0    0    0  0.00000000000E+00  0.00000000000E+00  0.45593999997E+02  0.45594000000E+02  0.51100000000E-03 0.  1.
         11   -1    0    0    0    0 -0.00000000000E+00 -0.00000000000E+00 -0.45593999997E+02  0.45594000000E+02  0.51100000000E-03 0. -1.
    9900012    2    1    2    0    0  0.21975116285E+02  0.34144147652E+02 -0.21064882403E+01  0.50528857764E+02  0.29999993661E+02 0.  0.
        -12    1    1    2    0    0 -0.21975116285E+02 -0.34144147652E+02  0.21064882403E+01  0.40659142236E+02  0.00000000000E+00 0.  1.
         11    1    3    3    0    0  0.64895941543E+01  0.12071559685E+02  0.54263581237E+01  0.14740513840E+02  0.51100000000E-03 0. -1.
        -11    1    3    3    0    0 -0.56159923054E+01  0.25434365831E+01 -0.22023608262E+01  0.65466657694E+01  0.51100000000E-03 0.  1.
         12    1    3    3    0    0  0.21101514436E+02  0.19529151384E+02 -0.53304855379E+01  0.29241678156E+02  0.00000000000E+00 0. -1.
</event>
<event>
 7    1  0.6090311E-013  0.5052886E+02  0.7816164E-02  0.1300439E+00
        -11   -1    0    0    0    0  0.00000000000E+00  0.00000000000E+00  0.45593999997E+02  0.45594000000E+02  0.51100000000E-03 0.  1.
         11   -1    0    0    0    0 -0.00000000000E+00 -0.00000000000E+00 -0.45593999997E+02  0.45594000000E+02  0.51100000000E-03 0. -1.
    9900012    2    1    2    0    0  0.12224487309E+02  0.25397352836E+02 -0.29303614002E+02  0.50528863085E+02  0.30000009834E+02 0.  0.
        -12    1    1    2    0    0 -0.12224487309E+02 -0.25397352836E+02  0.29303614002E+02  0.40659136915E+02  0.00000000000E+00 0.  1.
         11    1    3    3    0    0  0.10176486034E+01  0.85442782912E+01 -0.25685860008E+01  0.89798627218E+01  0.51100000000E-03 0. -1.
        -11    1    3    3    0    0  0.75115162626E+01  0.22173712255E+02 -0.14045289188E+02  0.27301401803E+02  0.51100000000E-03 0.  1.
         12    1    3    3    0    0  0.36953224433E+01 -0.53206377103E+01 -0.12689738813E+02  0.14247598561E+02  0.00000000000E+00 0. -1.
</event>
<event>
 7    1  0.6090311E-013  0.5052880E+02  0.7816164E-02  0.1300439E+00
        -11   -1    0    0    0    0  0.00000000000E+00  0.00000000000E+00  0.45593999997E+02  0.45594000000E+02  0.51100000000E-03 0.  1.
         11   -1    0    0    0    0 -0.00000000000E+00 -0.00000000000E+00 -0.45593999997E+02  0.45594000000E+02  0.51100000000E-03 0. -1.
    9900012    2    1    2    0    0  0.11060359835E+02  0.36752575976E+02 -0.13419665881E+02  0.50528796455E+02  0.29999807303E+02 0.  0.
        -12    1    1    2    0    0 -0.11060359835E+02 -0.36752575976E+02  0.13419665881E+02  0.40659203545E+02  0.00000000000E+00 0.  1.
         11    1    3    3    0    0 -0.59404643505E+01  0.50057485082E+01  0.20613902764E+01  0.80371614989E+01  0.51100000000E-03 0. -1.
        -11    1    3    3    0    0  0.59912761592E+01  0.12967435255E+02  0.21924446859E+01  0.14451871196E+02  0.51100000000E-03 0.  1.
        -12    1    3    3    0    0  0.11009548027E+02  0.18779392213E+02 -0.17673500843E+02  0.28039763759E+02  0.00000000000E+00 0.  1.
</event>
<event>
 7    1  0.6090311E-013  0.5052885E+02  0.7816164E-02  0.1300439E+00
        -11   -1    0    0    0    0  0.00000000000E+00  0.00000000000E+00  0.45593999997E+02  0.45594000000E+02  0.51100000000E-03 0.  1.
         11   -1    0    0    0    0 -0.00000000000E+00 -0.00000000000E+00 -0.45593999997E+02  0.45594000000E+02  0.51100000000E-03 0. -1.
    9900012    2    1    2    0    0 -0.89615412710E+01  0.38532935527E+02 -0.93845485549E+01  0.50528854733E+02  0.29999984447E+02 0.  0.
        -12    1    1    2    0    0  0.89615412710E+01 -0.38532935527E+02  0.93845485549E+01  0.40659145267E+02  0.00000000000E+00 0.  1.
         11    1    3    3    0    0  0.74533947649E+00  0.20615056430E+02 -0.16260272723E+02  0.26266567188E+02  0.51100000000E-03 0. -1.
        -11    1    3    3    0    0 -0.19686262454E-01 -0.82087776093E+00  0.26160518169E+01  0.27418889870E+01  0.51100000000E-03 0.  1.
         12    1    3    3    0    0 -0.96871944851E+01  0.18738756857E+02  0.42596723514E+01  0.21520398558E+02  0.00000000000E+00 0. -1.
</event>
<event>
 7    1  0.6090311E-013  0.5052886E+02  0.7816164E-02  0.1300439E+00
        -11   -1    0    0    0    0  0.00000000000E+00  0.00000000000E+00  0.45593999997E+02  0.45594000000E+02  0.51100000000E-03 0.  1.
         11   -1    0    0    0    0 -0.00000000000E+00 -0.00000000000E+00 -0.45593999997E+02  0.45594000000E+02  0.51100000000E-03 0. -1.
    9900012    2    1    2    0    0 -0.48250864061E+01  0.94346349959E+01 -0.39253939721E+02  0.50528861052E+02  0.30000003655E+02 0.  0.
        -12    1    1    2    0    0  0.48250864061E+01 -0.94346349959E+01  0.39253939721E+02  0.40659138948E+02  0.00000000000E+00 0.  1.
         11    1    3    3    0    0  0.64952823567E-01 -0.13819918176E+01 -0.77130169492E+01  0.78361183614E+01  0.51100000000E-03 0. -1.
        -11    1    3    3    0    0  0.44302573057E+01  0.34250879032E+01 -0.30208167023E+02  0.30722821519E+02  0.51100000000E-03 0.  1.
        -12    1    3    3    0    0 -0.93202965354E+01  0.73915389103E+01 -0.13327557486E+01  0.11969921172E+02  0.00000000000E+00 0.  1.
</event>
<event>
 7    1  0.6090311E-013  0.5052886E+02  0.7816164E-02  0.1300439E+00
        -11   -1    0    0    0    0  0.00000000000E+00  0.00000000000E+00  0.45593999997E+02  0.45594000000E+02  0.51100000000E-03 0.  1.
         11   -1    0    0    0    0 -0.00000000000E+00 -0.00000000000E+00 -0.45593999997E+02  0.45594000000E+02  0.51100000000E-03 0. -1.
    9900012    2    1    2    0    0 -0.37704178137E+02  0.47154100529E+01  0.14468084634E+02  0.50528860634E+02  0.30000002384E+02 0.  0.
        -12    1    1    2    0    0  0.37704178137E+02 -0.47154100529E+01 -0.14468084634E+02  0.40659139366E+02  0.00000000000E+00 0.  1.
         11    1    3    3    0    0 -0.19226748123E+02  0.13488747450E+02  0.11728985750E+02  0.26252300054E+02  0.51100000000E-03 0. -1.
        -11    1    3    3    0    0 -0.68412950795E+00  0.38497940308E+00  0.41418189082E+01  0.42155552960E+01  0.51100000000E-03 0.  1.
         12    1    3    3    0    0 -0.17793300507E+02 -0.91583168005E+01 -0.14027200239E+01  0.20061005284E+02  0.00000000000E+00 0. -1.
</event>
<event>
 7    1  0.6090311E-013  0.5052887E+02  0.7816164E-02  0.1300439E+00
        -11   -1    0    0    0    0  0.00000000000E+00  0.00000000000E+00  0.45593999997E+02  0.45594000000E+02  0.51100000000E-03 0.  1.
         11   -1    0    0    0    0 -0.00000000000E+00 -0.00000000000E+00 -0.45593999997E+02  0.45594000000E+02  0.51100000000E-03 0. -1.
    9900012    2    1    2    0    0 -0.85233197493E+01 -0.19398840437E+02 -0.34701630101E+02  0.50528866690E+02  0.30000020792E+02 0.  0.
        -12    1    1    2    0    0  0.85233197493E+01  0.19398840437E+02  0.34701630101E+02  0.40659133310E+02  0.00000000000E+00 0.  1.
         11    1    3    3    0    0 -0.17666212840E+01 -0.30400481692E+01 -0.40464893684E+01  0.53606828019E+01  0.51100000000E-03 0. -1.
        -11    1    3    3    0    0  0.92948475524E+01 -0.83149878404E+01 -0.21878998626E+02  0.25183800248E+02  0.51100000000E-03 0.  1.
        -12    1    3    3    0    0 -0.16051546018E+02 -0.80438044269E+01 -0.87761421066E+01  0.19984383641E+02  0.00000000000E+00 0.  1.
</event>
<event>
 7    1  0.6090311E-013  0.5052886E+02  0.7816164E-02  0.1300439E+00
        -11   -1    0    0    0    0  0.00000000000E+00  0.00000000000E+00  0.45593999997E+02  0.45594000000E+02  0.51100000000E-03 0. -1.
         11   -1    0    0    0    0 -0.00000000000E+00 -0.00000000000E+00 -0.45593999997E+02  0.45594000000E+02  0.51100000000E-03 0.  1.
    9900012    2    1    2    0    0 -0.33375959397E+02 -0.76124368451E+01  0.21937682208E+02  0.50528858826E+02  0.29999996886E+02 0.  0.
        -12    1    1    2    0    0  0.33375959397E+02  0.76124368451E+01 -0.21937682208E+02  0.40659141174E+02  0.00000000000E+00 0.  1.
         11    1    3    3    0    0  0.71041665226E+00  0.12591133923E+01  0.32909175516E+01  0.35944675471E+01  0.51100000000E-03 0. -1.
        -11    1    3    3    0    0  0.34438448896E+01 -0.38732309108E+01  0.27934843506E+01  0.58877449325E+01  0.51100000000E-03 0.  1.
         12    1    3    3    0    0 -0.37530220939E+02 -0.49983193266E+01  0.15853280306E+02  0.41046646346E+02  0.00000000000E+00 0. -1.
</event>
<event>
 7    1  0.6090311E-013  0.5052886E+02  0.7816164E-02  0.1300439E+00
        -11   -1    0    0    0    0  0.00000000000E+00  0.00000000000E+00  0.45593999997E+02  0.45594000000E+02  0.51100000000E-03 0.  1.
         11   -1    0    0    0    0 -0.00000000000E+00 -0.00000000000E+00 -0.45593999997E+02  0.45594000000E+02  0.51100000000E-03 0. -1.
    9900012    2    1    2    0    0 -0.26150770600E+02 -0.28609686087E+02 -0.12279603971E+02  0.50528860626E+02  0.30000002360E+02 0.  0.
        -12    1    1    2    0    0  0.26150770600E+02  0.28609686087E+02  0.12279603971E+02  0.40659139374E+02  0.00000000000E+00 0.  1.
         11    1    3    3    0    0 -0.64477005654E+01 -0.75053613977E+00  0.15142994942E+01  0.66655270082E+01  0.51100000000E-03 0. -1.
        -11    1    3    3    0    0 -0.15403340572E+02 -0.29652069147E+02 -0.48304119283E+01  0.33761531144E+02  0.51100000000E-03 0.  1.
         12    1    3    3    0    0 -0.42997294623E+01  0.17929192003E+01 -0.89634915366E+01  0.10101802475E+02  0.00000000000E+00 0. -1.
</event>
<event>
 7    1  0.6090311E-013  0.5052886E+02  0.7816164E-02  0.1300439E+00
        -11   -1    0    0    0    0  0.00000000000E+00  0.00000000000E+00  0.45593999997E+02  0.45594000000E+02  0.51100000000E-03 0. -1.
         11   -1    0    0    0    0 -0.00000000000E+00 -0.00000000000E+00 -0.45593999997E+02  0.45594000000E+02  0.51100000000E-03 0.  1.
    9900012    2    1    2    0    0  0.23175598899E+02 -0.27179464597E+02  0.19425084667E+02  0.50528860874E+02  0.30000003114E+02 0.  0.
        -12    1    1    2    0    0 -0.23175598899E+02  0.27179464597E+02 -0.19425084667E+02  0.40659139126E+02  0.00000000000E+00 0.  1.
         11    1    3    3    0    0 -0.54238704798E+01 -0.24197448975E+00  0.39245566444E+01  0.66991841109E+01  0.51100000000E-03 0. -1.
        -11    1    3    3    0    0  0.50496701522E-01 -0.26846016868E+01  0.36672850430E+01  0.45451750221E+01  0.51100000000E-03 0.  1.
        -12    1    3    3    0    0  0.28548972677E+02 -0.24252888421E+02  0.11833242979E+02  0.39284501742E+02  0.00000000000E+00 0.  1.
</event>
<event>
 7    1  0.6090311E-013  0.5052886E+02  0.7816164E-02  0.1300439E+00
        -11   -1    0    0    0    0  0.00000000000E+00  0.00000000000E+00  0.45593999997E+02  0.45594000000E+02  0.51100000000E-03 0.  1.
         11   -1    0    0    0    0 -0.00000000000E+00 -0.00000000000E+00 -0.45593999997E+02  0.45594000000E+02  0.51100000000E-03 0. -1.
    9900012    2    1    2    0    0 -0.14862689841E+02  0.15521866426E+01 -0.37813448807E+02  0.50528859043E+02  0.29999997547E+02 0.  0.
        -12    1    1    2    0    0  0.14862689841E+02 -0.15521866426E+01  0.37813448807E+02  0.40659140957E+02  0.00000000000E+00 0.  1.
         11    1    3    3    0    0  0.51791132256E+01  0.70032578263E+00 -0.51611598813E+01  0.73451508893E+01  0.51100000000E-03 0. -1.
        -11    1    3    3    0    0  0.26666727817E+00 -0.52635644071E+01 -0.14689451311E+01  0.54711992985E+01  0.51100000000E-03 0.  1.
         12    1    3    3    0    0 -0.20308470345E+02  0.61154252671E+01 -0.31183343795E+02  0.37712508855E+02  0.00000000000E+00 0. -1.
</event>
<event>
 7    1  0.6090311E-013  0.5052885E+02  0.7816164E-02  0.1300439E+00
        -11   -1    0    0    0    0  0.00000000000E+00  0.00000000000E+00  0.45593999997E+02  0.45594000000E+02  0.51100000000E-03 0.  1.
         11   -1    0    0    0    0 -0.00000000000E+00 -0.00000000000E+00 -0.45593999997E+02  0.45594000000E+02  0.51100000000E-03 0. -1.
    9900012    2    1    2    0    0 -0.37966823176E+02  0.12973025798E+02  0.65869392940E+01  0.50528845684E+02  0.29999956940E+02 0.  0.
        -12    1    1    2    0    0  0.37966823176E+02 -0.12973025798E+02 -0.65869392940E+01  0.40659154316E+02  0.00000000000E+00 0.  1.
         11    1    3    3    0    0 -0.81520580266E+01  0.92325758542E+01  0.25890597038E+01  0.12585695745E+02  0.51100000000E-03 0. -1.
        -11    1    3    3    0    0 -0.23702163326E+02 -0.21842466174E+01  0.11646422295E+02  0.26499106252E+02  0.51100000000E-03 0.  1.
         12    1    3    3    0    0 -0.61126018237E+01  0.59246965615E+01 -0.76485427047E+01  0.11444043687E+02  0.00000000000E+00 0. -1.
</event>
<event>
 7    1  0.6090311E-013  0.5052886E+02  0.7816164E-02  0.1300439E+00
        -11   -1    0    0    0    0  0.00000000000E+00  0.00000000000E+00  0.45593999997E+02  0.45594000000E+02  0.51100000000E-03 0.  1.
         11   -1    0    0    0    0 -0.00000000000E+00 -0.00000000000E+00 -0.45593999997E+02  0.45594000000E+02  0.51100000000E-03 0. -1.
    9900012    2    1    2    0    0 -0.32010792799E+02  0.23486859198E+02 -0.87659781350E+01  0.50528858552E+02  0.29999996055E+02 0.  0.
        -12    1    1    2    0    0  0.32010792799E+02 -0.23486859198E+02  0.87659781350E+01  0.40659141448E+02  0.00000000000E+00 0.  1.
         11    1    3    3    0    0 -0.28628995194E+02  0.24626056401E+02 -0.83847650294E+01  0.38682894211E+02  0.51100000000E-03 0. -1.
        -11    1    3    3    0    0 -0.71536443312E+01  0.51719249580E+00  0.14833870044E+01  0.73241076290E+01  0.51100000000E-03 0.  1.
         12    1    3    3    0    0  0.37718467260E+01 -0.16563896981E+01 -0.18646001100E+01  0.45218567123E+01  0.00000000000E+00 0. -1.
</event>
<event>
 7    1  0.6090311E-013  0.5052885E+02  0.7816164E-02  0.1300439E+00
        -11   -1    0    0    0    0  0.00000000000E+00  0.00000000000E+00  0.45593999997E+02  0.45594000000E+02  0.51100000000E-03 0.  1.
         11   -1    0    0    0    0 -0.00000000000E+00 -0.00000000000E+00 -0.45593999997E+02  0.45594000000E+02  0.51100000000E-03 0. -1.
    9900012    2    1    2    0    0  0.54289731833E+01 -0.17364855406E+02 -0.36361442385E+02  0.50528850409E+02  0.29999971304E+02 0.  0.
        -12    1    1    2    0    0 -0.54289731833E+01  0.17364855406E+02  0.36361442385E+02  0.40659149591E+02  0.00000000000E+00 0.  1.
         11    1    3    3    0    0 -0.14560003879E+01 -0.14480801635E+02 -0.86116389330E+01  0.16910762209E+02  0.51100000000E-03 0. -1.
        -11    1    3    3    0    0 -0.94122510989E+00 -0.26132821481E+01  0.16245664995E+01  0.32178198933E+01  0.51100000000E-03 0.  1.
         12    1    3    3    0    0  0.78261986811E+01 -0.27077162256E+00 -0.29374369952E+02  0.30400268307E+02  0.00000000000E+00 0. -1.
</event>
<event>
 7    1  0.6090311E-013  0.5052880E+02  0.7816164E-02  0.1300439E+00
        -11   -1    0    0    0    0  0.00000000000E+00  0.00000000000E+00  0.45593999997E+02  0.45594000000E+02  0.51100000000E-03 0.  1.
         11   -1    0    0    0    0 -0.00000000000E+00 -0.00000000000E+00 -0.45593999997E+02  0.45594000000E+02  0.51100000000E-03 0. -1.
    9900012    2    1    2    0    0 -0.16990469905E+02 -0.31520093719E+02 -0.19260800723E+02  0.50528796612E+02  0.29999807781E+02 0.  0.
        -12    1    1    2    0    0  0.16990469905E+02  0.31520093719E+02  0.19260800723E+02  0.40659203388E+02  0.00000000000E+00 0.  1.
         11    1    3    3    0    0 -0.31362280271E+01 -0.45292042932E+01 -0.40483137244E+01  0.68365533744E+01  0.51100000000E-03 0. -1.
        -11    1    3    3    0    0 -0.75558948868E+01  0.38674366089E+01  0.48605447868E+00  0.85020504987E+01  0.51100000000E-03 0.  1.
         12    1    3    3    0    0 -0.62983469914E+01 -0.30858326035E+02 -0.15698541478E+02  0.35190192739E+02  0.00000000000E+00 0. -1.
</event>
<event>
 7    1  0.6090311E-013  0.5052885E+02  0.7816164E-02  0.1300439E+00
        -11   -1    0    0    0    0  0.00000000000E+00  0.00000000000E+00  0.45593999997E+02  0.45594000000E+02  0.51100000000E-03 0. -1.
         11   -1    0    0    0    0 -0.00000000000E+00 -0.00000000000E+00 -0.45593999997E+02  0.45594000000E+02  0.51100000000E-03 0.  1.
    9900012    2    1    2    0    0  0.18071692309E+01  0.78240256548E+01  0.39858309631E+02  0.50528854845E+02  0.29999984788E+02 0.  0.
        -12    1    1    2    0    0 -0.18071692309E+01 -0.78240256548E+01 -0.39858309631E+02  0.40659145155E+02  0.00000000000E+00 0.  1.
         11    1    3    3    0    0  0.10667876142E+02 -0.65486152394E+01  0.19094926561E+02  0.22832086273E+02  0.51100000000E-03 0. -1.
        -11    1    3    3    0    0 -0.16373342846E+01 -0.39529031098E+00  0.89048260058E+00  0.19052762300E+01  0.51100000000E-03 0.  1.
         12    1    3    3    0    0 -0.72233726270E+01  0.14767931205E+02  0.19872900470E+02  0.25791492343E+02  0.00000000000E+00 0. -1.
</event>
<event>
 7    1  0.6090311E-013  0.5052886E+02  0.7816164E-02  0.1300439E+00
        -11   -1    0    0    0    0  0.00000000000E+00  0.00000000000E+00  0.45593999997E+02  0.45594000000E+02  0.51100000000E-03 0. -1.
         11   -1    0    0    0    0 -0.00000000000E+00 -0.00000000000E+00 -0.45593999997E+02  0.45594000000E+02  0.51100000000E-03 0.  1.
    9900012    2    1    2    0    0  0.30046602936E+02 -0.19303548207E+01  0.27324733087E+02  0.50528860118E+02  0.30000000813E+02 0.  0.
        -12    1    1    2    0    0 -0.30046602936E+02  0.19303548207E+01 -0.27324733087E+02  0.40659139882E+02  0.00000000000E+00 0.  1.
         11    1    3    3    0    0  0.91938464140E+01  0.67029931430E+01  0.55454609859E+00  0.11391420043E+02  0.51100000000E-03 0. -1.
        -11    1    3    3    0    0  0.90569383714E+00 -0.73128009045E+01  0.26984589976E+01  0.78472300602E+01  0.51100000000E-03 0.  1.
         12    1    3    3    0    0  0.19947062685E+02 -0.13205470592E+01  0.24071727990E+02  0.31290210014E+02  0.00000000000E+00 0. -1.
</event>
<event>
 7    1  0.6090311E-013  0.5052886E+02  0.7816164E-02  0.1300439E+00
        -11   -1    0    0    0    0  0.00000000000E+00  0.00000000000E+00  0.45593999997E+02  0.45594000000E+02  0.51100000000E-03 0.  1.
         11   -1    0    0    0    0 -0.00000000000E+00 -0.00000000000E+00 -0.45593999997E+02  0.45594000000E+02  0.51100000000E-03 0. -1.
    9900012    2    1    2    0    0 -0.27008660588E+02  0.29583249721E+02 -0.69662992121E+01  0.50528859139E+02  0.29999997839E+02 0.  0.
        -12    1    1    2    0    0  0.27008660588E+02 -0.29583249721E+02  0.69662992121E+01  0.40659140861E+02  0.00000000000E+00 0.  1.
         11    1    3    3    0    0 -0.98159019151E+01  0.11651489466E+02 -0.42621738408E+00  0.15241089158E+02  0.51100000000E-03 0. -1.
        -11    1    3    3    0    0 -0.82233062670E+01  0.86569063672E+01 -0.15510057325E+02  0.19573621849E+02  0.51100000000E-03 0.  1.
        -12    1    3    3    0    0 -0.89694524062E+01  0.92748538875E+01  0.89699754971E+01  0.15714148132E+02  0.00000000000E+00 0.  1.
</event>
<event>
 7    1  0.6090311E-013  0.5052888E+02  0.7816164E-02  0.1300439E+00
        -11   -1    0    0    0    0  0.00000000000E+00  0.00000000000E+00  0.45593999997E+02  0.45594000000E+02  0.51100000000E-03 0.  1.
         11   -1    0    0    0    0 -0.00000000000E+00 -0.00000000000E+00 -0.45593999997E+02  0.45594000000E+02  0.51100000000E-03 0. -1.
    9900012    2    1    2    0    0 -0.29160219543E+02  0.28073618992E+02  0.38363400176E+01  0.50528880582E+02  0.30000063017E+02 0.  0.
        -12    1    1    2    0    0  0.29160219543E+02 -0.28073618992E+02 -0.38363400176E+01  0.40659119418E+02  0.00000000000E+00 0.  1.
         11    1    3    3    0    0 -0.24487588048E+00 -0.27264424052E+01 -0.47964898998E+01  0.55226595048E+01  0.51100000000E-03 0. -1.
        -11    1    3    3    0    0 -0.13779390335E+01  0.12920734257E+01 -0.25040803696E+01  0.31366524315E+01  0.51100000000E-03 0.  1.
         12    1    3    3    0    0 -0.27537404629E+02  0.29507987972E+02  0.11136910287E+02  0.41869568646E+02  0.00000000000E+00 0. -1.
</event>
<event>
 7    1  0.6090311E-013  0.5052886E+02  0.7816164E-02  0.1300439E+00
        -11   -1    0    0    0    0  0.00000000000E+00  0.00000000000E+00  0.45593999997E+02  0.45594000000E+02  0.51100000000E-03 0.  1.
         11   -1    0    0    0    0 -0.00000000000E+00 -0.00000000000E+00 -0.45593999997E+02  0.45594000000E+02  0.51100000000E-03 0. -1.
    9900012    2    1    2    0    0  0.31534588232E+02  0.21685043638E+02 -0.13729334846E+02  0.50528855790E+02  0.29999987660E+02 0.  0.
        -12    1    1    2    0    0 -0.31534588232E+02 -0.21685043638E+02  0.13729334846E+02  0.40659144210E+02  0.00000000000E+00 0.  1.
         11    1    3    3    0    0  0.96231148535E+00  0.12857277597E+02  0.10906102312E+01  0.12939283656E+02  0.51100000000E-03 0.  1.
        -11    1    3    3    0    0  0.75347297512E+01  0.66206474593E+01 -0.95599266578E+01  0.13856309868E+02  0.51100000000E-03 0. -1.
         12    1    3    3    0    0  0.23037546996E+02  0.22071185821E+01 -0.52600184191E+01  0.23733262266E+02  0.00000000000E+00 0. -1.
</event>
<event>
 7    1  0.6090311E-013  0.5052886E+02  0.7816164E-02  0.1300439E+00
        -11   -1    0    0    0    0  0.00000000000E+00  0.00000000000E+00  0.45593999997E+02  0.45594000000E+02  0.51100000000E-03 0. -1.
         11   -1    0    0    0    0 -0.00000000000E+00 -0.00000000000E+00 -0.45593999997E+02  0.45594000000E+02  0.51100000000E-03 0.  1.
    9900012    2    1    2    0    0 -0.21295242980E+02  0.22544187812E+02  0.26295204317E+02  0.50528861448E+02  0.30000004858E+02 0.  0.
        -12    1    1    2    0    0  0.21295242980E+02 -0.22544187812E+02 -0.26295204317E+02  0.40659138552E+02  0.00000000000E+00 0.  1.
         11    1    3    3    0    0 -0.21516854479E+01  0.67417850648E+01  0.12737021831E+02  0.14570969134E+02  0.51100000000E-03 0. -1.
        -11    1    3    3    0    0 -0.43617604584E+01  0.20769892831E+01  0.14976705453E+02  0.15736598911E+02  0.51100000000E-03 0.  1.
        -12    1    3    3    0    0 -0.14781797074E+02  0.13725413464E+02 -0.14185229675E+01  0.20221293403E+02  0.00000000000E+00 0.  1.
</event>
<event>
 7    1  0.6090311E-013  0.5052886E+02  0.7816164E-02  0.1300439E+00
        -11   -1    0    0    0    0  0.00000000000E+00  0.00000000000E+00  0.45593999997E+02  0.45594000000E+02  0.51100000000E-03 0.  1.
         11   -1    0    0    0    0 -0.00000000000E+00 -0.00000000000E+00 -0.45593999997E+02  0.45594000000E+02  0.51100000000E-03 0. -1.
    9900012    2    1    2    0    0 -0.29959164949E+02 -0.95270876697E+01 -0.25784663275E+02  0.50528858050E+02  0.29999994529E+02 0.  0.
        -12    1    1    2    0    0  0.29959164949E+02  0.95270876697E+01  0.25784663275E+02  0.40659141950E+02  0.00000000000E+00 0.  1.
         11    1    3    3    0    0 -0.15953224365E+01 -0.80139694190E+01 -0.47493341359E+01  0.94511869371E+01  0.51100000000E-03 0. -1.
        -11    1    3    3    0    0 -0.80030990087E+01 -0.89612476891E+01 -0.13625461071E+02  0.18166087734E+02  0.51100000000E-03 0.  1.
         12    1    3    3    0    0 -0.20360743504E+02  0.74481294384E+01 -0.74098680675E+01  0.22911583379E+02  0.00000000000E+00 0. -1.
</event>
<event>
 7    1  0.6090311E-013  0.5052885E+02  0.7816164E-02  0.1300439E+00
        -11   -1    0    0    0    0  0.00000000000E+00  0.00000000000E+00  0.45593999997E+02  0.45594000000E+02  0.51100000000E-03 0. -1.
         11   -1    0    0    0    0 -0.00000000000E+00 -0.00000000000E+00 -0.45593999997E+02  0.45594000000E+02  0.51100000000E-03 0.  1.
    9900012    2    1    2    0    0  0.14992359635E+02  0.37122712086E+02 -0.70922171983E+01  0.50528854105E+02  0.29999982539E+02 0.  0.
        -12    1    1    2    0    0 -0.14992359635E+02 -0.37122712086E+02  0.70922171983E+01  0.40659145895E+02  0.00000000000E+00 0.  1.
         11    1    3    3    0    0  0.16197738889E+02  0.24980056464E+02 -0.41007906750E+01  0.30053060585E+02  0.51100000000E-03 0. -1.
        -11    1    3    3    0    0  0.29593436223E+00  0.14950892576E+02 -0.59833014396E+01  0.16106416806E+02  0.51100000000E-03 0.  1.
        -12    1    3    3    0    0 -0.15013136159E+01 -0.28082369535E+01  0.29918749163E+01  0.43693767147E+01  0.00000000000E+00 0.  1.
</event>
<event>
 7    1  0.6090311E-013  0.5052885E+02  0.7816164E-02  0.1300439E+00
        -11   -1    0    0    0    0  0.00000000000E+00  0.00000000000E+00  0.45593999997E+02  0.45594000000E+02  0.51100000000E-03 0.  1.
         11   -1    0    0    0    0 -0.00000000000E+00 -0.00000000000E+00 -0.45593999997E+02  0.45594000000E+02  0.51100000000E-03 0. -1.
    9900012    2    1    2    0    0  0.17224320606E+02  0.35663517293E+02 -0.91979585451E+01  0.50528854320E+02  0.29999983190E+02 0.  0.
        -12    1    1    2    0    0 -0.17224320606E+02 -0.35663517293E+02  0.91979585451E+01  0.40659145680E+02  0.00000000000E+00 0.  1.
         11    1    3    3    0    0 -0.20371072031E+01  0.11223271996E+02 -0.11146971597E+02  0.15948875073E+02  0.51100000000E-03 0. -1.
        -11    1    3    3    0    0  0.19842159536E+00  0.33999146935E+01 -0.43232942701E+01  0.55036046968E+01  0.51100000000E-03 0.  1.
        -12    1    3    3    0    0  0.19063006214E+02  0.21040330603E+02  0.62723073222E+01  0.29076374550E+02  0.00000000000E+00 0.  1.
</event>
<event>
 7    1  0.6090311E-013  0.5052885E+02  0.7816164E-02  0.1300439E+00
        -11   -1    0    0    0    0  0.00000000000E+00  0.00000000000E+00  0.45593999997E+02  0.45594000000E+02  0.51100000000E-03 0.  1.
         11   -1    0    0    0    0 -0.00000000000E+00 -0.00000000000E+00 -0.45593999997E+02  0.45594000000E+02  0.51100000000E-03 0. -1.
    9900012    2    1    2    0    0 -0.17580664410E+02  0.13477900230E+02 -0.34094465967E+02  0.50528853854E+02  0.29999981775E+02 0.  0.
        -12    1    1    2    0    0  0.17580664410E+02 -0.13477900230E+02  0.34094465967E+02  0.40659146146E+02  0.00000000000E+00 0.  1.
         11    1    3    3    0    0  0.51560542204E+00 -0.32536813314E+01 -0.27129276450E+01  0.42675833706E+01  0.51100000000E-03 0. -1.
        -11    1    3    3    0    0  0.51622172740E+01 -0.53952610752E-01 -0.64162238374E+01  0.82352490346E+01  0.51100000000E-03 0.  1.
        -12    1    3    3    0    0 -0.23258487106E+02  0.16785534172E+02 -0.24965314485E+02  0.38026021449E+02  0.00000000000E+00 0.  1.
</event>
<event>
 7    1  0.6090311E-013  0.5052886E+02  0.7816164E-02  0.1300439E+00
        -11   -1    0    0    0    0  0.00000000000E+00  0.00000000000E+00  0.45593999997E+02  0.45594000000E+02  0.51100000000E-03 0.  1.
         11   -1    0    0    0    0 -0.00000000000E+00 -0.00000000000E+00 -0.45593999997E+02  0.45594000000E+02  0.51100000000E-03 0. -1.
    9900012    2    1    2    0    0  0.37528376903E+02 -0.57806394117E+01  0.14538590830E+02  0.50528862180E+02  0.30000007081E+02 0.  0.
        -12    1    1    2    0    0 -0.37528376903E+02  0.57806394117E+01 -0.14538590830E+02  0.40659137820E+02  0.00000000000E+00 0.  1.
         11    1    3    3    0    0  0.10874191947E+02 -0.21576464815E+01  0.77700517743E+01  0.13537990755E+02  0.51100000000E-03 0. -1.
        -11    1    3    3    0    0  0.19430802209E+02 -0.21887334240E+01  0.15940759846E+02  0.25228048938E+02  0.51100000000E-03 0.  1.
         12    1    3    3    0    0  0.72233827468E+01 -0.14342595062E+01 -0.91722207899E+01  0.11762822487E+02  0.00000000000E+00 0. -1.
</event>
<event>
 7    1  0.6090311E-013  0.5052885E+02  0.7816164E-02  0.1300439E+00
        -11   -1    0    0    0    0  0.00000000000E+00  0.00000000000E+00  0.45593999997E+02  0.45594000000E+02  0.51100000000E-03 0.  1.
         11   -1    0    0    0    0 -0.00000000000E+00 -0.00000000000E+00 -0.45593999997E+02  0.45594000000E+02  0.51100000000E-03 0. -1.
    9900012    2    1    2    0    0  0.18078570891E+02 -0.18830772924E+02 -0.31172638114E+02  0.50528854641E+02  0.29999984166E+02 0.  0.
        -12    1    1    2    0    0 -0.18078570891E+02  0.18830772924E+02  0.31172638114E+02  0.40659145359E+02  0.00000000000E+00 0.  1.
         11    1    3    3    0    0  0.59410461978E-01 -0.51676619298E+01  0.12627803576E+01  0.53200445408E+01  0.51100000000E-03 0. -1.
        -11    1    3    3    0    0  0.15904562985E+02 -0.19563886618E+02 -0.26451944235E+02  0.36543209183E+02  0.51100000000E-03 0.  1.
         12    1    3    3    0    0  0.21145974438E+01  0.59007756234E+01 -0.59834742370E+01  0.86656009169E+01  0.00000000000E+00 0. -1.
</event>
<event>
 7    1  0.6090311E-013  0.5052886E+02  0.7816164E-02  0.1300439E+00
        -11   -1    0    0    0    0  0.00000000000E+00  0.00000000000E+00  0.45593999997E+02  0.45594000000E+02  0.51100000000E-03 0. -1.
         11   -1    0    0    0    0 -0.00000000000E+00 -0.00000000000E+00 -0.45593999997E+02  0.45594000000E+02  0.51100000000E-03 0.  1.
    9900012    2    1    2    0    0  0.14576978036E+02 -0.25105146824E+02  0.28467686834E+02  0.50528857370E+02  0.29999992461E+02 0.  0.
        -12    1    1    2    0    0 -0.14576978036E+02  0.25105146824E+02 -0.28467686834E+02  0.40659142630E+02  0.00000000000E+00 0.  1.
         11    1    3    3    0    0  0.18350467462E+02 -0.13860853190E+02  0.25034328264E+02  0.33993830310E+02  0.51100000000E-03 0. -1.
        -11    1    3    3    0    0  0.82448899706E+00 -0.96439044353E+01 -0.12743857604E+01  0.97626192280E+01  0.51100000000E-03 0.  1.
        -12    1    3    3    0    0 -0.45979784226E+01 -0.16003891988E+01  0.47077443303E+01  0.67724078320E+01  0.00000000000E+00 0.  1.
</event>
<event>
 7    1  0.6090311E-013  0.5052886E+02  0.7816164E-02  0.1300439E+00
        -11   -1    0    0    0    0  0.00000000000E+00  0.00000000000E+00  0.45593999997E+02  0.45594000000E+02  0.51100000000E-03 0.  1.
         11   -1    0    0    0    0 -0.00000000000E+00 -0.00000000000E+00 -0.45593999997E+02  0.45594000000E+02  0.51100000000E-03 0. -1.
    9900012    2    1    2    0    0 -0.17861898065E+02 -0.31129269871E+01 -0.36392688493E+02  0.50528862126E+02  0.30000006917E+02 0.  0.
        -12    1    1    2    0    0  0.17861898065E+02  0.31129269871E+01  0.36392688493E+02  0.40659137874E+02  0.00000000000E+00 0.  1.
         11    1    3    3    0    0 -0.22326939550E+01 -0.12194677485E+01  0.25616098644E+01  0.36102450394E+01  0.51100000000E-03 0. -1.
        -11    1    3    3    0    0  0.14943233806E+01 -0.41334408587E+01 -0.96706148288E-01  0.43963266528E+01  0.51100000000E-03 0.  1.
         12    1    3    3    0    0 -0.17123527491E+02  0.22399816201E+01 -0.38857592209E+02  0.42522290433E+02  0.00000000000E+00 0. -1.
</event>
<event>
 7    1  0.6090311E-013  0.5052886E+02  0.7816164E-02  0.1300439E+00
        -11   -1    0    0    0    0  0.00000000000E+00  0.00000000000E+00  0.45593999997E+02  0.45594000000E+02  0.51100000000E-03 0.  1.
         11   -1    0    0    0    0 -0.00000000000E+00 -0.00000000000E+00 -0.45593999997E+02  0.45594000000E+02  0.51100000000E-03 0. -1.
    9900012    2    1    2    0    0 -0.25531097577E+02  0.74796501957E+01 -0.30747091385E+02  0.50528859094E+02  0.29999997703E+02 0.  0.
        -12    1    1    2    0    0  0.25531097577E+02 -0.74796501957E+01  0.30747091385E+02  0.40659140906E+02  0.00000000000E+00 0.  1.
         11    1    3    3    0    0  0.36404181649E+00  0.28434589401E+00 -0.26593708409E+01  0.26991910941E+01  0.51100000000E-03 0. -1.
        -11    1    3    3    0    0 -0.51921665399E+01 -0.80743844737E+01  0.18966580403E+00  0.96015754637E+01  0.51100000000E-03 0.  1.
         12    1    3    3    0    0 -0.20702972854E+02  0.15269688775E+02 -0.28277386348E+02  0.38228092536E+02  0.00000000000E+00 0. -1.
</event>
<event>
 7    1  0.6090311E-013  0.5052886E+02  0.7816164E-02  0.1300439E+00
        -11   -1    0    0    0    0  0.00000000000E+00  0.00000000000E+00  0.45593999997E+02  0.45594000000E+02  0.51100000000E-03 0. -1.
         11   -1    0    0    0    0 -0.00000000000E+00 -0.00000000000E+00 -0.45593999997E+02  0.45594000000E+02  0.51100000000E-03 0.  1.
    9900012    2    1    2    0    0  0.18823119187E+02  0.17931976088E+02  0.31261799115E+02  0.50528859991E+02  0.30000000430E+02 0.  0.
        -12    1    1    2    0    0 -0.18823119187E+02 -0.17931976088E+02 -0.31261799115E+02  0.40659140009E+02  0.00000000000E+00 0.  1.
         11    1    3    3    0    0  0.13835919052E+02  0.23516363260E+02  0.18729569618E+02  0.33094542985E+02  0.51100000000E-03 0. -1.
        -11    1    3    3    0    0 -0.33541045207E+00  0.21895164441E+01  0.46493264963E+01  0.51500213165E+01  0.51100000000E-03 0.  1.
        -12    1    3    3    0    0  0.53226105867E+01 -0.77739036164E+01  0.78829030001E+01  0.12284295690E+02  0.00000000000E+00 0.  1.
</event>
<event>
 7    1  0.6090311E-013  0.5052889E+02  0.7816164E-02  0.1300439E+00
        -11   -1    0    0    0    0  0.00000000000E+00  0.00000000000E+00  0.45593999997E+02  0.45594000000E+02  0.51100000000E-03 0. -1.
         11   -1    0    0    0    0 -0.00000000000E+00 -0.00000000000E+00 -0.45593999997E+02  0.45594000000E+02  0.51100000000E-03 0.  1.
    9900012    2    1    2    0    0 -0.34526194041E+02 -0.14987446368E+02  0.15377968505E+02  0.50528886151E+02  0.30000079946E+02 0.  0.
        -12    1    1    2    0    0  0.34526194041E+02  0.14987446368E+02 -0.15377968505E+02  0.40659113849E+02  0.00000000000E+00 0.  1.
         11    1    3    3    0    0 -0.12227551534E+02 -0.97272039024E+01  0.11257272234E+02  0.19257665764E+02  0.51100000000E-03 0. -1.
        -11    1    3    3    0    0 -0.16350541789E+01 -0.87016045970E+01  0.52486172707E+01  0.10292682267E+02  0.51100000000E-03 0.  1.
        -12    1    3    3    0    0 -0.20663588328E+02  0.34413621309E+01 -0.11279209992E+01  0.20978538120E+02  0.00000000000E+00 0.  1.
</event>
<event>
 7    1  0.6090311E-013  0.5052886E+02  0.7816164E-02  0.1300439E+00
        -11   -1    0    0    0    0  0.00000000000E+00  0.00000000000E+00  0.45593999997E+02  0.45594000000E+02  0.51100000000E-03 0.  1.
         11   -1    0    0    0    0 -0.00000000000E+00 -0.00000000000E+00 -0.45593999997E+02  0.45594000000E+02  0.51100000000E-03 0. -1.
    9900012    2    1    2    0    0 -0.10568816667E+01  0.14457183558E+02 -0.37987343350E+02  0.50528863141E+02  0.30000010004E+02 0.  0.
        -12    1    1    2    0    0  0.10568816667E+01 -0.14457183558E+02  0.37987343350E+02  0.40659136859E+02  0.00000000000E+00 0.  1.
         11    1    3    3    0    0  0.34137973858E+01  0.16695790788E+02 -0.19373371827E+02  0.25801763096E+02  0.51100000000E-03 0. -1.
        -11    1    3    3    0    0  0.63882561043E+00  0.53304754340E+01 -0.19257332369E+01  0.57035528641E+01  0.51100000000E-03 0.  1.
         12    1    3    3    0    0 -0.51095046629E+01 -0.75690826638E+01 -0.16688238286E+02  0.19023547181E+02  0.00000000000E+00 0. -1.
</event>
<event>
 7    1  0.6090311E-013  0.5052885E+02  0.7816164E-02  0.1300439E+00
        -11   -1    0    0    0    0  0.00000000000E+00  0.00000000000E+00  0.45593999997E+02  0.45594000000E+02  0.51100000000E-03 0.  1.
         11   -1    0    0    0    0 -0.00000000000E+00 -0.00000000000E+00 -0.45593999997E+02  0.45594000000E+02  0.51100000000E-03 0. -1.
    9900012    2    1    2    0    0 -0.13269691763E+02  0.19474843707E+02 -0.33133246664E+02  0.50528852303E+02  0.29999977061E+02 0.  0.
        -12    1    1    2    0    0  0.13269691763E+02 -0.19474843707E+02  0.33133246664E+02  0.40659147697E+02  0.00000000000E+00 0.  1.
         11    1    3    3    0    0 -0.89390500072E+00  0.46671180627E+01 -0.48027032380E+01  0.67562575302E+01  0.51100000000E-03 0. -1.
        -11    1    3    3    0    0 -0.17295079553E+02  0.17401335571E+02 -0.13653848821E+02  0.28077639578E+02  0.51100000000E-03 0.  1.
        -12    1    3    3    0    0  0.49192927915E+01 -0.25936099263E+01 -0.14676694606E+02  0.15694955195E+02  0.00000000000E+00 0.  1.
</event>
<event>
 7    1  0.6090311E-013  0.5052888E+02  0.7816164E-02  0.1300439E+00
        -11   -1    0    0    0    0  0.00000000000E+00  0.00000000000E+00  0.45593999997E+02  0.45594000000E+02  0.51100000000E-03 0.  1.
         11   -1    0    0    0    0 -0.00000000000E+00 -0.00000000000E+00 -0.45593999997E+02  0.45594000000E+02  0.51100000000E-03 0. -1.
    9900012    2    1    2    0    0  0.40564471558E+02  0.27726004077E+01 -0.16998865870E-01  0.50528881038E+02  0.30000064403E+02 0.  0.
        -12    1    1    2    0    0 -0.40564471558E+02 -0.27726004077E+01  0.16998865870E-01  0.40659118962E+02  0.00000000000E+00 0.  1.
         11    1    3    3    0    0  0.12307179598E+00 -0.20783321203E+01  0.16355408221E+01  0.26475658842E+01  0.51100000000E-03 0. -1.
        -11    1    3    3    0    0  0.27407851316E+02  0.14909657475E+02  0.93932588514E+00  0.31214908828E+02  0.51100000000E-03 0.  1.
         12    1    3    3    0    0  0.13033548446E+02 -0.10058724947E+02 -0.25918655731E+01  0.16666406326E+02  0.00000000000E+00 0. -1.
</event>
<event>
 7    1  0.6090311E-013  0.5052887E+02  0.7816164E-02  0.1300439E+00
        -11   -1    0    0    0    0  0.00000000000E+00  0.00000000000E+00  0.45593999997E+02  0.45594000000E+02  0.51100000000E-03 0. -1.
         11   -1    0    0    0    0 -0.00000000000E+00 -0.00000000000E+00 -0.45593999997E+02  0.45594000000E+02  0.51100000000E-03 0.  1.
    9900012    2    1    2    0    0  0.21957197915E+01  0.22640801544E+02  0.33700709512E+02  0.50528869395E+02  0.30000029014E+02 0.  0.
        -12    1    1    2    0    0 -0.21957197915E+01 -0.22640801544E+02 -0.33700709512E+02  0.40659130605E+02  0.00000000000E+00 0.  1.
         11    1    3    3    0    0  0.28561222063E+01  0.14399719721E+01  0.40373887793E+01  0.51508699997E+01  0.51100000000E-03 0. -1.
        -11    1    3    3    0    0  0.15923374625E+01 -0.60480504683E+01  0.22133380031E+01  0.66342534198E+01  0.51100000000E-03 0.  1.
        -12    1    3    3    0    0 -0.22527398773E+01  0.27248880040E+02  0.27449982729E+02  0.38743745976E+02  0.00000000000E+00 0.  1.
</event>
<event>
 7    1  0.6090311E-013  0.5052888E+02  0.7816164E-02  0.1300439E+00
        -11   -1    0    0    0    0  0.00000000000E+00  0.00000000000E+00  0.45593999997E+02  0.45594000000E+02  0.51100000000E-03 0.  1.
         11   -1    0    0    0    0 -0.00000000000E+00 -0.00000000000E+00 -0.45593999997E+02  0.45594000000E+02  0.51100000000E-03 0. -1.
    9900012    2    1    2    0    0  0.19361922638E+02  0.27466563563E+02 -0.22888167412E+02  0.50528875936E+02  0.30000048895E+02 0.  0.
        -12    1    1    2    0    0 -0.19361922638E+02 -0.27466563563E+02  0.22888167412E+02  0.40659124064E+02  0.00000000000E+00 0.  1.
         11    1    3    3    0    0 -0.28170191839E+01 -0.23404889045E+01  0.15263447254E+01  0.39677719033E+01  0.51100000000E-03 0. -1.
        -11    1    3    3    0    0  0.40334462186E+01 -0.66945992732E+00 -0.35184229736E+01  0.53940861575E+01  0.51100000000E-03 0.  1.
         12    1    3    3    0    0  0.18145495603E+02  0.30476512395E+02 -0.20896089164E+02  0.41167017875E+02  0.00000000000E+00 0. -1.
</event>
<event>
 7    1  0.6090311E-013  0.5052885E+02  0.7816164E-02  0.1300439E+00
        -11   -1    0    0    0    0  0.00000000000E+00  0.00000000000E+00  0.45593999997E+02  0.45594000000E+02  0.51100000000E-03 0.  1.
         11   -1    0    0    0    0 -0.00000000000E+00 -0.00000000000E+00 -0.45593999997E+02  0.45594000000E+02  0.51100000000E-03 0. -1.
    9900012    2    1    2    0    0 -0.18123479487E+02 -0.33328065674E+02  0.14626886225E+02  0.50528852556E+02  0.29999977828E+02 0.  0.
        -12    1    1    2    0    0  0.18123479487E+02  0.33328065674E+02 -0.14626886225E+02  0.40659147444E+02  0.00000000000E+00 0.  1.
         11    1    3    3    0    0 -0.12899593761E+02 -0.15656880983E+02  0.44221312326E+01  0.20762771641E+02  0.51100000000E-03 0. -1.
        -11    1    3    3    0    0 -0.73601173904E+01  0.62461391121E+00 -0.20208806250E+01  0.76580303800E+01  0.51100000000E-03 0.  1.
         12    1    3    3    0    0  0.21362316640E+01 -0.18295798602E+02  0.12225635617E+02  0.22108050535E+02  0.00000000000E+00 0. -1.
</event>
<event>
 7    1  0.6090311E-013  0.5052890E+02  0.7816164E-02  0.1300439E+00
        -11   -1    0    0    0    0  0.00000000000E+00  0.00000000000E+00  0.45593999997E+02  0.45594000000E+02  0.51100000000E-03 0. -1.
         11   -1    0    0    0    0 -0.00000000000E+00 -0.00000000000E+00 -0.45593999997E+02  0.45594000000E+02  0.51100000000E-03 0.  1.
    9900012    2    1    2    0    0 -0.25202071636E+02 -0.31845642332E+02  0.19680626924E+01  0.50528897440E+02  0.30000114257E+02 0.  0.
        -12    1    1    2    0    0  0.25202071636E+02  0.31845642332E+02 -0.19680626924E+01  0.40659102560E+02  0.00000000000E+00 0.  1.
         11    1    3    3    0    0 -0.13539365438E+02 -0.19999207492E+02 -0.48206139136E+01  0.24627647788E+02  0.51100000000E-03 0. -1.
        -11    1    3    3    0    0 -0.16751690071E+01 -0.13413401314E+02 -0.35506383584E+00  0.13522262998E+02  0.51100000000E-03 0.  1.
        -12    1    3    3    0    0 -0.99875371909E+01  0.15669664746E+01  0.71437404419E+01  0.12378986654E+02  0.00000000000E+00 0.  1.
</event>
<event>
 7    1  0.6090311E-013  0.5052887E+02  0.7816164E-02  0.1300439E+00
        -11   -1    0    0    0    0  0.00000000000E+00  0.00000000000E+00  0.45593999997E+02  0.45594000000E+02  0.51100000000E-03 0.  1.
         11   -1    0    0    0    0 -0.00000000000E+00 -0.00000000000E+00 -0.45593999997E+02  0.45594000000E+02  0.51100000000E-03 0. -1.
    9900012    2    1    2    0    0 -0.20922641705E+02  0.33445615367E+02 -0.98386271820E+01  0.50528871775E+02  0.30000036247E+02 0.  0.
        -12    1    1    2    0    0  0.20922641705E+02 -0.33445615367E+02  0.98386271820E+01  0.40659128225E+02  0.00000000000E+00 0.  1.
         11    1    3    3    0    0 -0.12222925616E+02  0.14621479778E+02 -0.16323107633E+00  0.19058180032E+02  0.51100000000E-03 0. -1.
        -11    1    3    3    0    0 -0.15797038800E+02  0.12216179132E+02 -0.84969980335E+01  0.21702083847E+02  0.51100000000E-03 0.  1.
         12    1    3    3    0    0  0.70973227112E+01  0.66079564569E+01 -0.11783980722E+01  0.97686078957E+01  0.00000000000E+00 0. -1.
</event>
<event>
 7    1  0.6090311E-013  0.5052885E+02  0.7816164E-02  0.1300439E+00
        -11   -1    0    0    0    0  0.00000000000E+00  0.00000000000E+00  0.45593999997E+02  0.45594000000E+02  0.51100000000E-03 0. -1.
         11   -1    0    0    0    0 -0.00000000000E+00 -0.00000000000E+00 -0.45593999997E+02  0.45594000000E+02  0.51100000000E-03 0.  1.
    9900012    2    1    2    0    0 -0.38941562651E+02  0.47535224030E+01  0.10682928583E+02  0.50528852935E+02  0.29999978981E+02 0.  0.
        -12    1    1    2    0    0  0.38941562651E+02 -0.47535224030E+01 -0.10682928583E+02  0.40659147065E+02  0.00000000000E+00 0.  1.
         11    1    3    3    0    0 -0.45213592867E+01  0.99043883618E+00  0.71538242682E+01  0.85206138751E+01  0.51100000000E-03 0. -1.
        -11    1    3    3    0    0 -0.27873402997E+02  0.45644920586E+01  0.12488880649E+02  0.30882573120E+02  0.51100000000E-03 0.  1.
        -12    1    3    3    0    0 -0.65468003681E+01 -0.80140849181E+00 -0.89597763351E+01  0.11125665940E+02  0.00000000000E+00 0.  1.
</event>
<event>
 7    1  0.6090311E-013  0.5052887E+02  0.7816164E-02  0.1300439E+00
        -11   -1    0    0    0    0  0.00000000000E+00  0.00000000000E+00  0.45593999997E+02  0.45594000000E+02  0.51100000000E-03 0. -1.
         11   -1    0    0    0    0 -0.00000000000E+00 -0.00000000000E+00 -0.45593999997E+02  0.45594000000E+02  0.51100000000E-03 0.  1.
    9900012    2    1    2    0    0  0.18150932473E+02 -0.27220539101E+02  0.24140236133E+02  0.50528866965E+02  0.30000021627E+02 0.  0.
        -12    1    1    2    0    0 -0.18150932473E+02  0.27220539101E+02 -0.24140236133E+02  0.40659133035E+02  0.00000000000E+00 0.  1.
         11    1    3    3    0    0  0.26342747798E+00 -0.47868230043E+01 -0.16905680492E+01  0.50834131349E+01  0.51100000000E-03 0.  1.
        -11    1    3    3    0    0  0.68788209857E+01 -0.21133800411E+01 -0.35827619114E+01  0.80387024156E+01  0.51100000000E-03 0. -1.
         12    1    3    3    0    0  0.11008684009E+02 -0.20320336056E+02  0.29413566094E+02  0.37406751415E+02  0.00000000000E+00 0. -1.
</event>
<event>
 7    1  0.6090311E-013  0.5052886E+02  0.7816164E-02  0.1300439E+00
        -11   -1    0    0    0    0  0.00000000000E+00  0.00000000000E+00  0.45593999997E+02  0.45594000000E+02  0.51100000000E-03 0.  1.
         11   -1    0    0    0    0 -0.00000000000E+00 -0.00000000000E+00 -0.45593999997E+02  0.45594000000E+02  0.51100000000E-03 0. -1.
    9900012    2    1    2    0    0  0.90193017124E-01 -0.31857977082E+02 -0.25263148569E+02  0.50528861862E+02  0.30000006115E+02 0.  0.
        -12    1    1    2    0    0 -0.90193017124E-01  0.31857977082E+02  0.25263148569E+02  0.40659138138E+02  0.00000000000E+00 0.  1.
         11    1    3    3    0    0  0.71720496000E+01 -0.11251437912E+02 -0.19193836081E+00  0.13344286836E+02  0.51100000000E-03 0. -1.
        -11    1    3    3    0    0  0.77498758213E+00  0.71582159833E-01  0.20462547476E+01  0.21892666606E+01  0.51100000000E-03 0.  1.
        -12    1    3    3    0    0 -0.78568441650E+01 -0.20678121329E+02 -0.27117464956E+02  0.34995308365E+02  0.00000000000E+00 0.  1.
</event>
<event>
 7    1  0.6090311E-013  0.5052887E+02  0.7816164E-02  0.1300439E+00
        -11   -1    0    0    0    0  0.00000000000E+00  0.00000000000E+00  0.45593999997E+02  0.45594000000E+02  0.51100000000E-03 0.  1.
         11   -1    0    0    0    0 -0.00000000000E+00 -0.00000000000E+00 -0.45593999997E+02  0.45594000000E+02  0.51100000000E-03 0. -1.
    9900012    2    1    2    0    0 -0.22314228710E+02  0.20960996870E+02 -0.26755877619E+02  0.50528865973E+02  0.30000018611E+02 0.  0.
        -12    1    1    2    0    0  0.22314228710E+02 -0.20960996870E+02  0.26755877619E+02  0.40659134027E+02  0.00000000000E+00 0.  1.
         11    1    3    3    0    0 -0.74104520609E+01  0.87988028351E+01 -0.19732855271E+02  0.22841175725E+02  0.51100000000E-03 0. -1.
        -11    1    3    3    0    0 -0.11223493734E+02  0.17200987062E+02 -0.55810399720E+01  0.21283532952E+02  0.51100000000E-03 0.  1.
        -12    1    3    3    0    0 -0.36802829142E+01 -0.50387930270E+01 -0.14419823760E+01  0.64041572959E+01  0.00000000000E+00 0.  1.
</event>
<event>
 7    1  0.6090311E-013  0.5052888E+02  0.7816164E-02  0.1300439E+00
        -11   -1    0    0    0    0  0.00000000000E+00  0.00000000000E+00  0.45593999997E+02  0.45594000000E+02  0.51100000000E-03 0. -1.
         11   -1    0    0    0    0 -0.00000000000E+00 -0.00000000000E+00 -0.45593999997E+02  0.45594000000E+02  0.51100000000E-03 0.  1.
    9900012    2    1    2    0    0 -0.40180693968E+02 -0.18916784022E+01 -0.59243235390E+01  0.50528877724E+02  0.30000054328E+02 0.  0.
        -12    1    1    2    0    0  0.40180693968E+02  0.18916784022E+01  0.59243235390E+01  0.40659122276E+02  0.00000000000E+00 0.  1.
         11    1    3    3    0    0 -0.17680773466E+02 -0.39352365763E+01 -0.19735119519E+01  0.18220608853E+02  0.51100000000E-03 0. -1.
        -11    1    3    3    0    0 -0.15184881783E+02 -0.37528802712E+01 -0.12211808150E+02  0.19844218393E+02  0.51100000000E-03 0.  1.
        -12    1    3    3    0    0 -0.73150387185E+01  0.57964384453E+01  0.82609965626E+01  0.12464050478E+02  0.00000000000E+00 0.  1.
</event>
<event>
 7    1  0.6090311E-013  0.5052886E+02  0.7816164E-02  0.1300439E+00
        -11   -1    0    0    0    0  0.00000000000E+00  0.00000000000E+00  0.45593999997E+02  0.45594000000E+02  0.51100000000E-03 0. -1.
         11   -1    0    0    0    0 -0.00000000000E+00 -0.00000000000E+00 -0.45593999997E+02  0.45594000000E+02  0.51100000000E-03 0.  1.
    9900012    2    1    2    0    0  0.40316182719E+02 -0.38261921044E+01  0.36237247613E+01  0.50528859377E+02  0.29999998564E+02 0.  0.
        -12    1    1    2    0    0 -0.40316182719E+02  0.38261921044E+01 -0.36237247613E+01  0.40659140623E+02  0.00000000000E+00 0.  1.
         11    1    3    3    0    0  0.97032482761E+01  0.75662523609E+01  0.55236584997E+01  0.13487475871E+02  0.51100000000E-03 0. -1.
        -11    1    3    3    0    0 -0.12633339700E+01  0.20417319092E+01 -0.14709517132E+00  0.24054769089E+01  0.51100000000E-03 0.  1.
         12    1    3    3    0    0  0.31876268413E+02 -0.13434176374E+02 -0.17528385671E+01  0.34635906597E+02  0.00000000000E+00 0. -1.
</event>
<event>
 7    1  0.6090311E-013  0.5052888E+02  0.7816164E-02  0.1300439E+00
        -11   -1    0    0    0    0  0.00000000000E+00  0.00000000000E+00  0.45593999997E+02  0.45594000000E+02  0.51100000000E-03 0. -1.
         11   -1    0    0    0    0 -0.00000000000E+00 -0.00000000000E+00 -0.45593999997E+02  0.45594000000E+02  0.51100000000E-03 0.  1.
    9900012    2    1    2    0    0  0.19335264631E+02  0.26206990893E+02  0.24341435758E+02  0.50528876488E+02  0.30000050572E+02 0.  0.
        -12    1    1    2    0    0 -0.19335264631E+02 -0.26206990893E+02 -0.24341435758E+02  0.40659123512E+02  0.00000000000E+00 0.  1.
         11    1    3    3    0    0  0.83743481385E+01  0.17582369306E+02  0.13989800205E+02  0.23978822473E+02  0.51100000000E-03 0. -1.
        -11    1    3    3    0    0  0.10603682462E+02  0.11034171813E+02  0.14920015345E+02  0.21372830592E+02  0.51100000000E-03 0.  1.
        -12    1    3    3    0    0  0.35723403064E+00 -0.24095502258E+01 -0.45683797921E+01  0.51772234227E+01  0.00000000000E+00 0.  1.
</event>
<event>
 7    1  0.6090311E-013  0.5052886E+02  0.7816164E-02  0.1300439E+00
        -11   -1    0    0    0    0  0.00000000000E+00  0.00000000000E+00  0.45593999997E+02  0.45594000000E+02  0.51100000000E-03 0. -1.
         11   -1    0    0    0    0 -0.00000000000E+00 -0.00000000000E+00 -0.45593999997E+02  0.45594000000E+02  0.51100000000E-03 0.  1.
    9900012    2    1    2    0    0  0.11264385339E+02 -0.32877487557E+02  0.21103311838E+02  0.50528864057E+02  0.30000012788E+02 0.  0.
        -12    1    1    2    0    0 -0.11264385339E+02  0.32877487557E+02 -0.21103311838E+02  0.40659135943E+02  0.00000000000E+00 0.  1.
         11    1    3    3    0    0 -0.16146301999E+00 -0.95776162119E+01 -0.30625618355E+01  0.10056643966E+02  0.51100000000E-03 0. -1.
        -11    1    3    3    0    0 -0.36935469608E+01 -0.58789477492E+01  0.13236801441E+02  0.14947147836E+02  0.51100000000E-03 0.  1.
        -12    1    3    3    0    0  0.15119395320E+02 -0.17420923595E+02  0.10929072233E+02  0.25525072255E+02  0.00000000000E+00 0.  1.
</event>
<event>
 7    1  0.6090311E-013  0.5052885E+02  0.7816164E-02  0.1300439E+00
        -11   -1    0    0    0    0  0.00000000000E+00  0.00000000000E+00  0.45593999997E+02  0.45594000000E+02  0.51100000000E-03 0.  1.
         11   -1    0    0    0    0 -0.00000000000E+00 -0.00000000000E+00 -0.45593999997E+02  0.45594000000E+02  0.51100000000E-03 0. -1.
    9900012    2    1    2    0    0  0.96657377864E+01 -0.18656893473E+00 -0.39493099293E+02  0.50528853591E+02  0.29999980976E+02 0.  0.
        -12    1    1    2    0    0 -0.96657377864E+01  0.18656893473E+00  0.39493099293E+02  0.40659146409E+02  0.00000000000E+00 0.  1.
         11    1    3    3    0    0  0.69161103418E+00 -0.85844618572E+00 -0.65967548430E+01  0.66882307374E+01  0.51100000000E-03 0. -1.
        -11    1    3    3    0    0 -0.72791991691E+00  0.44034690071E+01 -0.33143590327E+02  0.33442756865E+02  0.51100000000E-03 0.  1.
        -12    1    3    3    0    0  0.97020466691E+01 -0.37315917561E+01  0.24724587688E+00  0.10397865989E+02  0.00000000000E+00 0.  1.
</event>
<event>
 7    1  0.6090311E-013  0.5052886E+02  0.7816164E-02  0.1300439E+00
        -11   -1    0    0    0    0  0.00000000000E+00  0.00000000000E+00  0.45593999997E+02  0.45594000000E+02  0.51100000000E-03 0.  1.
         11   -1    0    0    0    0 -0.00000000000E+00 -0.00000000000E+00 -0.45593999997E+02  0.45594000000E+02  0.51100000000E-03 0. -1.
    9900012    2    1    2    0    0  0.22620273774E+02  0.33449180927E+02  0.47582754521E+01  0.50528859877E+02  0.30000000081E+02 0.  0.
        -12    1    1    2    0    0 -0.22620273774E+02 -0.33449180927E+02 -0.47582754521E+01  0.40659140123E+02  0.00000000000E+00 0.  1.
         11    1    3    3    0    0  0.37590228336E+01  0.17580776127E+02  0.12092566404E+02  0.21666658819E+02  0.51100000000E-03 0.  1.
        -11    1    3    3    0    0  0.28190584053E+01  0.10266703410E+01  0.33824869362E+01  0.45213228614E+01  0.51100000000E-03 0. -1.
         12    1    3    3    0    0  0.16042192535E+02  0.14841734459E+02 -0.10716777888E+02  0.24340878197E+02  0.00000000000E+00 0. -1.
</event>
<event>
 7    1  0.6090311E-013  0.5052890E+02  0.7816164E-02  0.1300439E+00
        -11   -1    0    0    0    0  0.00000000000E+00  0.00000000000E+00  0.45593999997E+02  0.45594000000E+02  0.51100000000E-03 0.  1.
         11   -1    0    0    0    0 -0.00000000000E+00 -0.00000000000E+00 -0.45593999997E+02  0.45594000000E+02  0.51100000000E-03 0. -1.
    9900012    2    1    2    0    0  0.33430343667E+02 -0.15483133963E+02 -0.17200201239E+02  0.50528902153E+02  0.30000128585E+02 0.  0.
        -12    1    1    2    0    0 -0.33430343667E+02  0.15483133963E+02  0.17200201239E+02  0.40659097847E+02  0.00000000000E+00 0.  1.
         11    1    3    3    0    0  0.30290580717E+02 -0.19245337455E+02 -0.12194869595E+02  0.37902732601E+02  0.51100000000E-03 0. -1.
        -11    1    3    3    0    0  0.41743348053E+01 -0.27400466714E+01 -0.18486823007E+01  0.53245237663E+01  0.51100000000E-03 0.  1.
        -12    1    3    3    0    0 -0.10345718555E+01  0.65022501627E+01 -0.31566493437E+01  0.73016457858E+01  0.00000000000E+00 0.  1.
</event>
<event>
 7    1  0.6090311E-013  0.5052886E+02  0.7816164E-02  0.1300439E+00
        -11   -1    0    0    0    0  0.00000000000E+00  0.00000000000E+00  0.45593999997E+02  0.45594000000E+02  0.51100000000E-03 0. -1.
         11   -1    0    0    0    0 -0.00000000000E+00 -0.00000000000E+00 -0.45593999997E+02  0.45594000000E+02  0.51100000000E-03 0.  1.
    9900012    2    1    2    0    0  0.32836553035E+02  0.15968436467E+01 -0.23924396788E+02  0.50528857282E+02  0.29999992195E+02 0.  0.
        -12    1    1    2    0    0 -0.32836553035E+02 -0.15968436467E+01  0.23924396788E+02  0.40659142718E+02  0.00000000000E+00 0.  1.
         11    1    3    3    0    0  0.10893090016E+01 -0.21691500127E+01 -0.69234674468E+01  0.73366346254E+01  0.51100000000E-03 0. -1.
        -11    1    3    3    0    0 -0.37301967155E+01 -0.11164584189E+01 -0.16960691414E+01  0.42470575380E+01  0.51100000000E-03 0.  1.
         12    1    3    3    0    0  0.35477440749E+02  0.48824520782E+01 -0.15304860200E+02  0.38945165119E+02  0.00000000000E+00 0. -1.
</event>
<event>
 7    1  0.6090311E-013  0.5052886E+02  0.7816164E-02  0.1300439E+00
        -11   -1    0    0    0    0  0.00000000000E+00  0.00000000000E+00  0.45593999997E+02  0.45594000000E+02  0.51100000000E-03 0.  1.
         11   -1    0    0    0    0 -0.00000000000E+00 -0.00000000000E+00 -0.45593999997E+02  0.45594000000E+02  0.51100000000E-03 0. -1.
    9900012    2    1    2    0    0 -0.91763616140E+00  0.21423696991E+02 -0.34544876435E+02  0.50528864043E+02  0.30000012744E+02 0.  0.
        -12    1    1    2    0    0  0.91763616140E+00 -0.21423696991E+02  0.34544876435E+02  0.40659135957E+02  0.00000000000E+00 0.  1.
         11    1    3    3    0    0  0.93185623318E+01  0.13140509818E+02 -0.15472522177E+02  0.22336238381E+02  0.51100000000E-03 0. -1.
        -11    1    3    3    0    0 -0.37696614113E+01 -0.22171871818E+00 -0.16865418077E+02  0.17282992609E+02  0.51100000000E-03 0.  1.
        -12    1    3    3    0    0 -0.64665370819E+01  0.85049058912E+01 -0.22069361804E+01  0.10909633053E+02  0.00000000000E+00 0.  1.
</event>
<event>
 7    1  0.6090311E-013  0.5052887E+02  0.7816164E-02  0.1300439E+00
        -11   -1    0    0    0    0  0.00000000000E+00  0.00000000000E+00  0.45593999997E+02  0.45594000000E+02  0.51100000000E-03 0.  1.
         11   -1    0    0    0    0 -0.00000000000E+00 -0.00000000000E+00 -0.45593999997E+02  0.45594000000E+02  0.51100000000E-03 0. -1.
    9900012    2    1    2    0    0  0.17087052024E+02  0.12628897458E+02 -0.34665669009E+02  0.50528868114E+02  0.30000025121E+02 0.  0.
        -12    1    1    2    0    0 -0.17087052024E+02 -0.12628897458E+02  0.34665669009E+02  0.40659131886E+02  0.00000000000E+00 0.  1.
         11    1    3    3    0    0 -0.86387008163E+00  0.13463888456E+01 -0.88762496716E+01  0.90192484685E+01  0.51100000000E-03 0. -1.
        -11    1    3    3    0    0 -0.26884966656E+01  0.10705331828E+02 -0.47038440580E+01  0.11998262085E+02  0.51100000000E-03 0.  1.
        -12    1    3    3    0    0  0.20639418771E+02  0.57717678388E+00 -0.21085575279E+02  0.29511357561E+02  0.00000000000E+00 0.  1.
</event>
<event>
 7    1  0.6090311E-013  0.5052888E+02  0.7816164E-02  0.1300439E+00
        -11   -1    0    0    0    0  0.00000000000E+00  0.00000000000E+00  0.45593999997E+02  0.45594000000E+02  0.51100000000E-03 0.  1.
         11   -1    0    0    0    0 -0.00000000000E+00 -0.00000000000E+00 -0.45593999997E+02  0.45594000000E+02  0.51100000000E-03 0. -1.
    9900012    2    1    2    0    0  0.29037554314E+02 -0.77384071615E+01  0.27387988478E+02  0.50528875331E+02  0.30000047057E+02 0.  0.
        -12    1    1    2    0    0 -0.29037554314E+02  0.77384071615E+01 -0.27387988478E+02  0.40659124669E+02  0.00000000000E+00 0.  1.
         11    1    3    3    0    0  0.19458316744E+01  0.40799563213E+01  0.26145528031E+01  0.52218953561E+01  0.51100000000E-03 0.  1.
        -11    1    3    3    0    0  0.19747097702E+02 -0.62308214847E+01  0.28606343366E+02  0.35314216472E+02  0.51100000000E-03 0. -1.
         12    1    3    3    0    0  0.73446249379E+01 -0.55875419982E+01 -0.38329076905E+01  0.99927635028E+01  0.00000000000E+00 0. -1.
</event>
<event>
 7    1  0.6090311E-013  0.5052886E+02  0.7816164E-02  0.1300439E+00
        -11   -1    0    0    0    0  0.00000000000E+00  0.00000000000E+00  0.45593999997E+02  0.45594000000E+02  0.51100000000E-03 0.  1.
         11   -1    0    0    0    0 -0.00000000000E+00 -0.00000000000E+00 -0.45593999997E+02  0.45594000000E+02  0.51100000000E-03 0. -1.
    9900012    2    1    2    0    0 -0.35877623180E+02 -0.30732620487E+01 -0.18881645638E+02  0.50528864167E+02  0.30000013122E+02 0.  0.
        -12    1    1    2    0    0  0.35877623180E+02  0.30732620487E+01  0.18881645638E+02  0.40659135833E+02  0.00000000000E+00 0.  1.
         11    1    3    3    0    0 -0.10383209758E+02 -0.10491137534E+02 -0.10660372112E+01  0.14799035349E+02  0.51100000000E-03 0. -1.
        -11    1    3    3    0    0 -0.42874502563E+01  0.61616946018E+01  0.71355097906E+00  0.75404154612E+01  0.51100000000E-03 0.  1.
         12    1    3    3    0    0 -0.21206963166E+02  0.12561808838E+01 -0.18529159406E+02  0.28189413357E+02  0.00000000000E+00 0. -1.
</event>
<event>
 7    1  0.6090311E-013  0.5052883E+02  0.7816164E-02  0.1300439E+00
        -11   -1    0    0    0    0  0.00000000000E+00  0.00000000000E+00  0.45593999997E+02  0.45594000000E+02  0.51100000000E-03 0. -1.
         11   -1    0    0    0    0 -0.00000000000E+00 -0.00000000000E+00 -0.45593999997E+02  0.45594000000E+02  0.51100000000E-03 0.  1.
    9900012    2    1    2    0    0 -0.38286080211E+02  0.41465550335E+01  0.13044153813E+02  0.50528833687E+02  0.29999920475E+02 0.  0.
        -12    1    1    2    0    0  0.38286080211E+02 -0.41465550335E+01 -0.13044153813E+02  0.40659166313E+02  0.00000000000E+00 0.  1.
         11    1    3    3    0    0 -0.38459536203E+02  0.75077487359E+01  0.44740342852E+01  0.39440070982E+02  0.51100000000E-03 0. -1.
        -11    1    3    3    0    0 -0.22104658792E+01  0.69468635058E+00  0.31739313633E+01  0.39297059799E+01  0.51100000000E-03 0.  1.
        -12    1    3    3    0    0  0.23839218709E+01 -0.40558800530E+01  0.53961881646E+01  0.71590567255E+01  0.00000000000E+00 0.  1.
</event>
<event>
 7    1  0.6090311E-013  0.5052885E+02  0.7816164E-02  0.1300439E+00
        -11   -1    0    0    0    0  0.00000000000E+00  0.00000000000E+00  0.45593999997E+02  0.45594000000E+02  0.51100000000E-03 0.  1.
         11   -1    0    0    0    0 -0.00000000000E+00 -0.00000000000E+00 -0.45593999997E+02  0.45594000000E+02  0.51100000000E-03 0. -1.
    9900012    2    1    2    0    0  0.18381264228E+02 -0.35857768386E+02 -0.54328609523E+01  0.50528850889E+02  0.29999972763E+02 0.  0.
        -12    1    1    2    0    0 -0.18381264228E+02  0.35857768386E+02  0.54328609523E+01  0.40659149111E+02  0.00000000000E+00 0.  1.
         11    1    3    3    0    0  0.12140723435E+02 -0.26912393252E+02 -0.11900387531E+02  0.31832268215E+02  0.51100000000E-03 0. -1.
        -11    1    3    3    0    0 -0.14816593165E+01 -0.31099624570E+01 -0.34241498174E+01  0.48571579187E+01  0.51100000000E-03 0.  1.
         12    1    3    3    0    0  0.77222001097E+01 -0.58354126775E+01  0.98916763958E+01  0.13839424756E+02  0.00000000000E+00 0. -1.
</event>
<event>
 7    1  0.6090311E-013  0.5052886E+02  0.7816164E-02  0.1300439E+00
        -11   -1    0    0    0    0  0.00000000000E+00  0.00000000000E+00  0.45593999997E+02  0.45594000000E+02  0.51100000000E-03 0. -1.
         11   -1    0    0    0    0 -0.00000000000E+00 -0.00000000000E+00 -0.45593999997E+02  0.45594000000E+02  0.51100000000E-03 0.  1.
    9900012    2    1    2    0    0  0.34705261256E+02 -0.17928529410E+02 -0.11281770737E+02  0.50528859864E+02  0.30000000042E+02 0.  0.
        -12    1    1    2    0    0 -0.34705261256E+02  0.17928529410E+02  0.11281770737E+02  0.40659140136E+02  0.00000000000E+00 0.  1.
         11    1    3    3    0    0  0.83080747113E+01 -0.35085475160E+00 -0.70539005091E+01  0.10904343956E+02  0.51100000000E-03 0. -1.
        -11    1    3    3    0    0  0.66150857869E+01 -0.44509903612E+00  0.82898454727E+01  0.10615037039E+02  0.51100000000E-03 0.  1.
         12    1    3    3    0    0  0.19782100758E+02 -0.17132575622E+02 -0.12517715700E+02  0.29009478868E+02  0.00000000000E+00 0. -1.
</event>
<event>
 7    1  0.6090311E-013  0.5052886E+02  0.7816164E-02  0.1300439E+00
        -11   -1    0    0    0    0  0.00000000000E+00  0.00000000000E+00  0.45593999997E+02  0.45594000000E+02  0.51100000000E-03 0.  1.
         11   -1    0    0    0    0 -0.00000000000E+00 -0.00000000000E+00 -0.45593999997E+02  0.45594000000E+02  0.51100000000E-03 0. -1.
    9900012    2    1    2    0    0 -0.34057375658E+02 -0.19302707741E+02 -0.10984805603E+02  0.50528864287E+02  0.30000013486E+02 0.  0.
        -12    1    1    2    0    0  0.34057375658E+02  0.19302707741E+02  0.10984805603E+02  0.40659135713E+02  0.00000000000E+00 0.  1.
         11    1    3    3    0    0 -0.31837571588E+01 -0.17490846713E+01 -0.42920766492E+01  0.56229466526E+01  0.51100000000E-03 0. -1.
        -11    1    3    3    0    0 -0.22959109598E+02  0.22573639609E+01 -0.33160308946E+01  0.23306918860E+02  0.51100000000E-03 0.  1.
        -12    1    3    3    0    0 -0.79145089010E+01 -0.19810987031E+02 -0.33766980597E+01  0.21598998774E+02  0.00000000000E+00 0.  1.
</event>
<event>
 7    1  0.6090311E-013  0.5052886E+02  0.7816164E-02  0.1300439E+00
        -11   -1    0    0    0    0  0.00000000000E+00  0.00000000000E+00  0.45593999997E+02  0.45594000000E+02  0.51100000000E-03 0.  1.
         11   -1    0    0    0    0 -0.00000000000E+00 -0.00000000000E+00 -0.45593999997E+02  0.45594000000E+02  0.51100000000E-03 0. -1.
    9900012    2    1    2    0    0  0.21350667671E+02  0.21343843412E+02 -0.27235178491E+02  0.50528860695E+02  0.30000002569E+02 0.  0.
        -12    1    1    2    0    0 -0.21350667671E+02 -0.21343843412E+02  0.27235178491E+02  0.40659139305E+02  0.00000000000E+00 0.  1.
         11    1    3    3    0    0  0.20563432299E+01  0.63619646451E+01 -0.12192064496E+02  0.13905019905E+02  0.51100000000E-03 0. -1.
        -11    1    3    3    0    0  0.83855679574E+01 -0.51463851134E+01 -0.79698299997E+01  0.12661801617E+02  0.51100000000E-03 0.  1.
         12    1    3    3    0    0  0.10908756484E+02  0.20128263880E+02 -0.70732839954E+01  0.23962039173E+02  0.00000000000E+00 0. -1.
</event>
<event>
 7    1  0.6090311E-013  0.5052886E+02  0.7816164E-02  0.1300439E+00
        -11   -1    0    0    0    0  0.00000000000E+00  0.00000000000E+00  0.45593999997E+02  0.45594000000E+02  0.51100000000E-03 0.  1.
         11   -1    0    0    0    0 -0.00000000000E+00 -0.00000000000E+00 -0.45593999997E+02  0.45594000000E+02  0.51100000000E-03 0. -1.
    9900012    2    1    2    0    0 -0.13838629083E+01 -0.20713981001E+02 -0.34959711856E+02  0.50528861562E+02  0.30000005205E+02 0.  0.
        -12    1    1    2    0    0  0.13838629083E+01  0.20713981001E+02  0.34959711856E+02  0.40659138438E+02  0.00000000000E+00 0.  1.
         11    1    3    3    0    0  0.47124949222E+01 -0.78810124489E+01 -0.24083398311E+02  0.25774561879E+02  0.51100000000E-03 0. -1.
        -11    1    3    3    0    0  0.54212353367E+01 -0.63991512373E+01 -0.72141546591E+01  0.11062683076E+02  0.51100000000E-03 0.  1.
        -12    1    3    3    0    0 -0.11517593167E+02 -0.64338173144E+01 -0.36621588859E+01  0.13691616607E+02  0.00000000000E+00 0.  1.
</event>
<event>
 7    1  0.6090311E-013  0.5052885E+02  0.7816164E-02  0.1300439E+00
        -11   -1    0    0    0    0  0.00000000000E+00  0.00000000000E+00  0.45593999997E+02  0.45594000000E+02  0.51100000000E-03 0. -1.
         11   -1    0    0    0    0 -0.00000000000E+00 -0.00000000000E+00 -0.45593999997E+02  0.45594000000E+02  0.51100000000E-03 0.  1.
    9900012    2    1    2    0    0 -0.11713977107E+01  0.41384721926E+01  0.40431020107E+02  0.50528849596E+02  0.29999968831E+02 0.  0.
        -12    1    1    2    0    0  0.11713977107E+01 -0.41384721926E+01 -0.40431020107E+02  0.40659150404E+02  0.00000000000E+00 0.  1.
         11    1    3    3    0    0 -0.85305906683E+01  0.31875891182E+01  0.28333228630E+01  0.95372648198E+01  0.51100000000E-03 0. -1.
        -11    1    3    3    0    0  0.66300632031E+01 -0.24691134502E+01  0.62220848301E+01  0.94217089321E+01  0.51100000000E-03 0.  1.
        -12    1    3    3    0    0  0.72912975451E+00  0.34199965245E+01  0.31375612414E+02  0.31569875844E+02  0.00000000000E+00 0.  1.
</event>
<event>
 7    1  0.6090311E-013  0.5052886E+02  0.7816164E-02  0.1300439E+00
        -11   -1    0    0    0    0  0.00000000000E+00  0.00000000000E+00  0.45593999997E+02  0.45594000000E+02  0.51100000000E-03 0. -1.
         11   -1    0    0    0    0 -0.00000000000E+00 -0.00000000000E+00 -0.45593999997E+02  0.45594000000E+02  0.51100000000E-03 0.  1.
    9900012    2    1    2    0    0  0.26920594063E+01 -0.25433431468E+01  0.40490121062E+02  0.50528859800E+02  0.29999999848E+02 0.  0.
        -12    1    1    2    0    0 -0.26920594063E+01  0.25433431468E+01 -0.40490121062E+02  0.40659140200E+02  0.00000000000E+00 0.  1.
         11    1    3    3    0    0  0.36417800604E+01  0.11551021660E+02  0.80983380715E+01  0.14569548489E+02  0.51100000000E-03 0. -1.
        -11    1    3    3    0    0  0.15470467019E+01 -0.60250686892E+01  0.79201252555E+01  0.10070908128E+02  0.51100000000E-03 0.  1.
        -12    1    3    3    0    0 -0.24967673559E+01 -0.80692961172E+01  0.24471657735E+02  0.25888403183E+02  0.00000000000E+00 0.  1.
</event>
<event>
 7    1  0.6090311E-013  0.5052886E+02  0.7816164E-02  0.1300439E+00
        -11   -1    0    0    0    0  0.00000000000E+00  0.00000000000E+00  0.45593999997E+02  0.45594000000E+02  0.51100000000E-03 0.  1.
         11   -1    0    0    0    0 -0.00000000000E+00 -0.00000000000E+00 -0.45593999997E+02  0.45594000000E+02  0.51100000000E-03 0. -1.
    9900012    2    1    2    0    0 -0.26674971413E+02  0.20820459672E+02 -0.22541522590E+02  0.50528857344E+02  0.29999992383E+02 0.  0.
        -12    1    1    2    0    0  0.26674971413E+02 -0.20820459672E+02  0.22541522590E+02  0.40659142656E+02  0.00000000000E+00 0.  1.
         11    1    3    3    0    0 -0.46842378956E+01  0.59640171575E+01 -0.63433402043E+01  0.98868372357E+01  0.51100000000E-03 0. -1.
        -11    1    3    3    0    0 -0.11709297051E+02 -0.33849974371E+00 -0.18760569627E+02  0.22117440912E+02  0.51100000000E-03 0.  1.
        -12    1    3    3    0    0 -0.10281436466E+02  0.15194942258E+02  0.25623872410E+01  0.18524579197E+02  0.00000000000E+00 0.  1.
</event>
<event>
 7    1  0.6090311E-013  0.5052886E+02  0.7816164E-02  0.1300439E+00
        -11   -1    0    0    0    0  0.00000000000E+00  0.00000000000E+00  0.45593999997E+02  0.45594000000E+02  0.51100000000E-03 0.  1.
         11   -1    0    0    0    0 -0.00000000000E+00 -0.00000000000E+00 -0.45593999997E+02  0.45594000000E+02  0.51100000000E-03 0. -1.
    9900012    2    1    2    0    0 -0.25043867182E+02 -0.31611564777E+02  0.51652004172E+01  0.50528860727E+02  0.30000002665E+02 0.  0.
        -12    1    1    2    0    0  0.25043867182E+02  0.31611564777E+02 -0.51652004172E+01  0.40659139273E+02  0.00000000000E+00 0.  1.
         11    1    3    3    0    0  0.10659308566E+01 -0.58683111728E-01 -0.17747212648E+01  0.20710596630E+01  0.51100000000E-03 0. -1.
        -11    1    3    3    0    0 -0.30990253350E+01  0.32664977660E+01  0.49253590894E+01  0.66733146264E+01  0.51100000000E-03 0.  1.
         12    1    3    3    0    0 -0.23010772703E+02 -0.34819379432E+02  0.20145625927E+01  0.41784486438E+02  0.00000000000E+00 0. -1.
</event>
<event>
 7    1  0.6090311E-013  0.5052887E+02  0.7816164E-02  0.1300439E+00
        -11   -1    0    0    0    0  0.00000000000E+00  0.00000000000E+00  0.45593999997E+02  0.45594000000E+02  0.51100000000E-03 0. -1.
         11   -1    0    0    0    0 -0.00000000000E+00 -0.00000000000E+00 -0.45593999997E+02  0.45594000000E+02  0.51100000000E-03 0.  1.
    9900012    2    1    2    0    0  0.56552693055E+00 -0.34204026107E+02  0.21975658951E+02  0.50528870534E+02  0.30000032475E+02 0.  0.
        -12    1    1    2    0    0 -0.56552693055E+00  0.34204026107E+02 -0.21975658951E+02  0.40659129466E+02  0.00000000000E+00 0.  1.
         11    1    3    3    0    0  0.11704364529E+01 -0.81117309886E+01  0.71015802816E+01  0.10844470659E+02  0.51100000000E-03 0.  1.
        -11    1    3    3    0    0 -0.31047812906E+01 -0.11216458945E+02  0.20509622754E+02  0.23581629373E+02  0.51100000000E-03 0. -1.
        -12    1    3    3    0    0  0.24998717683E+01 -0.14875836173E+02 -0.56355440841E+01  0.16102770502E+02  0.00000000000E+00 0.  1.
</event>
<event>
 7    1  0.6090311E-013  0.5052887E+02  0.7816164E-02  0.1300439E+00
        -11   -1    0    0    0    0  0.00000000000E+00  0.00000000000E+00  0.45593999997E+02  0.45594000000E+02  0.51100000000E-03 0.  1.
         11   -1    0    0    0    0 -0.00000000000E+00 -0.00000000000E+00 -0.45593999997E+02  0.45594000000E+02  0.51100000000E-03 0. -1.
    9900012    2    1    2    0    0  0.23799670116E+02 -0.12749549764E+02 -0.30400485713E+02  0.50528870049E+02  0.30000031001E+02 0.  0.
        -12    1    1    2    0    0 -0.23799670116E+02  0.12749549764E+02  0.30400485713E+02  0.40659129951E+02  0.00000000000E+00 0.  1.
         11    1    3    3    0    0 -0.42170498086E+01 -0.23460243333E+01 -0.23047920307E+01  0.53478412305E+01  0.51100000000E-03 0. -1.
        -11    1    3    3    0    0  0.11865068568E+01  0.30667343380E+01 -0.90468416698E+01  0.96259026840E+01  0.51100000000E-03 0.  1.
         12    1    3    3    0    0  0.26830213067E+02 -0.13470259768E+02 -0.19048852012E+02  0.35555126135E+02  0.00000000000E+00 0. -1.
</event>
<event>
 7    1  0.6090311E-013  0.5052880E+02  0.7816164E-02  0.1300439E+00
        -11   -1    0    0    0    0  0.00000000000E+00  0.00000000000E+00  0.45593999997E+02  0.45594000000E+02  0.51100000000E-03 0. -1.
         11   -1    0    0    0    0 -0.00000000000E+00 -0.00000000000E+00 -0.45593999997E+02  0.45594000000E+02  0.51100000000E-03 0.  1.
    9900012    2    1    2    0    0  0.34575536485E+02  0.17697867290E+01  0.21320663568E+02  0.50528799771E+02  0.29999817383E+02 0.  0.
        -12    1    1    2    0    0 -0.34575536485E+02 -0.17697867290E+01 -0.21320663568E+02  0.40659200229E+02  0.00000000000E+00 0.  1.
         11    1    3    3    0    0  0.21955986283E+02  0.19541086694E+01  0.16480454270E+02  0.27522522551E+02  0.51100000000E-03 0. -1.
        -11    1    3    3    0    0  0.13485002088E+02 -0.19596451835E+01  0.10376866702E+02  0.17127896934E+02  0.51100000000E-03 0.  1.
        -12    1    3    3    0    0 -0.86545188649E+00  0.17753232431E+01 -0.55366574034E+01  0.58783802861E+01  0.00000000000E+00 0.  1.
</event>
<event>
 7    1  0.6090311E-013  0.5052886E+02  0.7816164E-02  0.1300439E+00
        -11   -1    0    0    0    0  0.00000000000E+00  0.00000000000E+00  0.45593999997E+02  0.45594000000E+02  0.51100000000E-03 0.  1.
         11   -1    0    0    0    0 -0.00000000000E+00 -0.00000000000E+00 -0.45593999997E+02  0.45594000000E+02  0.51100000000E-03 0. -1.
    9900012    2    1    2    0    0  0.21847184151E+02 -0.33528105211E+02  0.71924996355E+01  0.50528863937E+02  0.30000012424E+02 0.  0.
        -12    1    1    2    0    0 -0.21847184151E+02  0.33528105211E+02 -0.71924996355E+01  0.40659136063E+02  0.00000000000E+00 0.  1.
         11    1    3    3    0    0  0.26061931334E+02 -0.25614042709E+02  0.10097040193E+02  0.37911128573E+02  0.51100000000E-03 0. -1.
        -11    1    3    3    0    0  0.17862271576E+00 -0.51623500826E+01  0.19445508970E+01  0.55193335559E+01  0.51100000000E-03 0.  1.
        -12    1    3    3    0    0 -0.43933698987E+01 -0.27517124189E+01 -0.48490914542E+01  0.70984018084E+01  0.00000000000E+00 0.  1.
</event>
<event>
 7    1  0.6090311E-013  0.5052886E+02  0.7816164E-02  0.1300439E+00
        -11   -1    0    0    0    0  0.00000000000E+00  0.00000000000E+00  0.45593999997E+02  0.45594000000E+02  0.51100000000E-03 0.  1.
         11   -1    0    0    0    0 -0.00000000000E+00 -0.00000000000E+00 -0.45593999997E+02  0.45594000000E+02  0.51100000000E-03 0. -1.
    9900012    2    1    2    0    0  0.29820174811E+02  0.19320540120E+02 -0.19764609879E+02  0.50528857118E+02  0.29999991696E+02 0.  0.
        -12    1    1    2    0    0 -0.29820174811E+02 -0.19320540120E+02  0.19764609879E+02  0.40659142882E+02  0.00000000000E+00 0.  1.
         11    1    3    3    0    0  0.16920597127E+02  0.16400086514E+02 -0.12209693224E+02  0.26539518716E+02  0.51100000000E-03 0. -1.
        -11    1    3    3    0    0  0.38958025681E+01  0.98614049516E+01 -0.67989464199E+01  0.12595644404E+02  0.51100000000E-03 0.  1.
        -12    1    3    3    0    0  0.90037751159E+01 -0.69409513460E+01 -0.75597023440E+00  0.11393693998E+02  0.00000000000E+00 0.  1.
</event>
<event>
 7    1  0.6090311E-013  0.5052886E+02  0.7816164E-02  0.1300439E+00
        -11   -1    0    0    0    0  0.00000000000E+00  0.00000000000E+00  0.45593999997E+02  0.45594000000E+02  0.51100000000E-03 0.  1.
         11   -1    0    0    0    0 -0.00000000000E+00 -0.00000000000E+00 -0.45593999997E+02  0.45594000000E+02  0.51100000000E-03 0. -1.
    9900012    2    1    2    0    0 -0.37139413904E+02 -0.95363274128E+01 -0.13523608617E+02  0.50528860859E+02  0.30000003067E+02 0.  0.
        -12    1    1    2    0    0  0.37139413904E+02  0.95363274128E+01  0.13523608617E+02  0.40659139141E+02  0.00000000000E+00 0.  1.
         11    1    3    3    0    0 -0.50084137338E+01  0.89576571771E-01  0.26644969364E+01  0.56737797169E+01  0.51100000000E-03 0. -1.
        -11    1    3    3    0    0 -0.47469178209E+01  0.95871903391E+00  0.62480336866E+01  0.79050804041E+01  0.51100000000E-03 0.  1.
         12    1    3    3    0    0 -0.27384082349E+02 -0.10584623018E+02 -0.22436139240E+02  0.36950000738E+02  0.00000000000E+00 0. -1.
</event>
<event>
 7    1  0.6090311E-013  0.5052885E+02  0.7816164E-02  0.1300439E+00
        -11   -1    0    0    0    0  0.00000000000E+00  0.00000000000E+00  0.45593999997E+02  0.45594000000E+02  0.51100000000E-03 0.  1.
         11   -1    0    0    0    0 -0.00000000000E+00 -0.00000000000E+00 -0.45593999997E+02  0.45594000000E+02  0.51100000000E-03 0. -1.
    9900012    2    1    2    0    0 -0.34612573058E+02 -0.77859785481E+01 -0.19862388925E+02  0.50528853803E+02  0.29999981620E+02 0.  0.
        -12    1    1    2    0    0  0.34612573058E+02  0.77859785481E+01  0.19862388925E+02  0.40659146197E+02  0.00000000000E+00 0.  1.
         11    1    3    3    0    0 -0.11815437937E+02  0.31733055374E-01 -0.65078478241E+01  0.13489168403E+02  0.51100000000E-03 0. -1.
        -11    1    3    3    0    0 -0.19654843203E+02  0.41915875280E+01 -0.14184435530E+02  0.24598383664E+02  0.51100000000E-03 0.  1.
        -12    1    3    3    0    0 -0.31422919184E+01 -0.12009299131E+02  0.82989442893E+00  0.12441301736E+02  0.00000000000E+00 0.  1.
</event>
<event>
 7    1  0.6090311E-013  0.5052885E+02  0.7816164E-02  0.1300439E+00
        -11   -1    0    0    0    0  0.00000000000E+00  0.00000000000E+00  0.45593999997E+02  0.45594000000E+02  0.51100000000E-03 0.  1.
         11   -1    0    0    0    0 -0.00000000000E+00 -0.00000000000E+00 -0.45593999997E+02  0.45594000000E+02  0.51100000000E-03 0. -1.
    9900012    2    1    2    0    0 -0.40054607503E+02  0.31811691403E+01 -0.62189355593E+01  0.50528848769E+02  0.29999966319E+02 0.  0.
        -12    1    1    2    0    0  0.40054607503E+02 -0.31811691403E+01  0.62189355593E+01  0.40659151231E+02  0.00000000000E+00 0.  1.
         11    1    3    3    0    0  0.11093934800E+00 -0.16612935176E+01 -0.58257362930E+01  0.60589939187E+01  0.51100000000E-03 0. -1.
        -11    1    3    3    0    0  0.17361491748E+01 -0.99303740599E+00 -0.81990030879E+00  0.21616137546E+01  0.51100000000E-03 0.  1.
         12    1    3    3    0    0 -0.41901696026E+02  0.58355000639E+01  0.42670104243E+00  0.42308241096E+02  0.00000000000E+00 0. -1.
</event>
<event>
 7    1  0.6090311E-013  0.5052885E+02  0.7816164E-02  0.1300439E+00
        -11   -1    0    0    0    0  0.00000000000E+00  0.00000000000E+00  0.45593999997E+02  0.45594000000E+02  0.51100000000E-03 0.  1.
         11   -1    0    0    0    0 -0.00000000000E+00 -0.00000000000E+00 -0.45593999997E+02  0.45594000000E+02  0.51100000000E-03 0. -1.
    9900012    2    1    2    0    0  0.70803116144E+01  0.27272586999E+02  0.29312825043E+02  0.50528849416E+02  0.29999968285E+02 0.  0.
        -12    1    1    2    0    0 -0.70803116144E+01 -0.27272586999E+02 -0.29312825043E+02  0.40659150584E+02  0.00000000000E+00 0.  1.
         11    1    3    3    0    0  0.47453192250E+00  0.13188338785E+02 -0.89524937168E+00  0.13227204246E+02  0.51100000000E-03 0. -1.
        -11    1    3    3    0    0 -0.42191614558E+01  0.60351093479E+01  0.56459269046E+01  0.92790279180E+01  0.51100000000E-03 0.  1.
        -12    1    3    3    0    0  0.10824941148E+02  0.80491388661E+01  0.24562147510E+02  0.28022617252E+02  0.00000000000E+00 0.  1.
</event>
<event>
 7    1  0.6090311E-013  0.5052884E+02  0.7816164E-02  0.1300439E+00
        -11   -1    0    0    0    0  0.00000000000E+00  0.00000000000E+00  0.45593999997E+02  0.45594000000E+02  0.51100000000E-03 0. -1.
         11   -1    0    0    0    0 -0.00000000000E+00 -0.00000000000E+00 -0.45593999997E+02  0.45594000000E+02  0.51100000000E-03 0.  1.
    9900012    2    1    2    0    0 -0.35603506612E+02  0.11049886915E+02  0.16231367972E+02  0.50528843711E+02  0.29999950944E+02 0.  0.
        -12    1    1    2    0    0  0.35603506612E+02 -0.11049886915E+02 -0.16231367972E+02  0.40659156289E+02  0.00000000000E+00 0.  1.
         11    1    3    3    0    0 -0.33613654413E+01 -0.66098888310E+00 -0.10741744475E+01  0.35901998466E+01  0.51100000000E-03 0. -1.
        -11    1    3    3    0    0 -0.15435734879E+02  0.17102707233E+02  0.12398817979E+01  0.23071666891E+02  0.51100000000E-03 0.  1.
         12    1    3    3    0    0 -0.16806406291E+02 -0.53918314353E+01  0.16065660622E+02  0.23866976974E+02  0.00000000000E+00 0. -1.
</event>
<event>
 7    1  0.6090311E-013  0.5052886E+02  0.7816164E-02  0.1300439E+00
        -11   -1    0    0    0    0  0.00000000000E+00  0.00000000000E+00  0.45593999997E+02  0.45594000000E+02  0.51100000000E-03 0.  1.
         11   -1    0    0    0    0 -0.00000000000E+00 -0.00000000000E+00 -0.45593999997E+02  0.45594000000E+02  0.51100000000E-03 0. -1.
    9900012    2    1    2    0    0 -0.10602257930E+02  0.37120799868E+02 -0.12759471474E+02  0.50528858735E+02  0.29999996612E+02 0.  0.
        -12    1    1    2    0    0  0.10602257930E+02 -0.37120799868E+02  0.12759471474E+02  0.40659141265E+02  0.00000000000E+00 0.  1.
         11    1    3    3    0    0 -0.18597322506E+01  0.78290554245E+00 -0.42527437792E+01  0.47071621009E+01  0.51100000000E-03 0. -1.
        -11    1    3    3    0    0 -0.41734326980E+01  0.19024691863E+02 -0.17138424871E+02  0.25943824859E+02  0.51100000000E-03 0.  1.
        -12    1    3    3    0    0 -0.45690929810E+01  0.17313202463E+02  0.86316971763E+01  0.19877871776E+02  0.00000000000E+00 0.  1.
</event>
<event>
 7    1  0.6090311E-013  0.5052886E+02  0.7816164E-02  0.1300439E+00
        -11   -1    0    0    0    0  0.00000000000E+00  0.00000000000E+00  0.45593999997E+02  0.45594000000E+02  0.51100000000E-03 0. -1.
         11   -1    0    0    0    0 -0.00000000000E+00 -0.00000000000E+00 -0.45593999997E+02  0.45594000000E+02  0.51100000000E-03 0.  1.
    9900012    2    1    2    0    0 -0.31828147024E+02 -0.41028963464E+01 -0.24965994170E+02  0.50528861220E+02  0.30000004164E+02 0.  0.
        -12    1    1    2    0    0  0.31828147024E+02  0.41028963464E+01  0.24965994170E+02  0.40659138780E+02  0.00000000000E+00 0.  1.
         11    1    3    3    0    0 -0.23356800113E+01  0.51441717197E+01  0.21429479315E+01  0.60423612847E+01  0.51100000000E-03 0. -1.
        -11    1    3    3    0    0 -0.28157333033E+01 -0.57550483093E-02  0.23617491050E+01  0.36750845231E+01  0.51100000000E-03 0.  1.
        -12    1    3    3    0    0 -0.26676733710E+02 -0.92413130178E+01 -0.29470691207E+02  0.40811415412E+02  0.00000000000E+00 0.  1.
</event>
<event>
 7    1  0.6090311E-013  0.5052886E+02  0.7816164E-02  0.1300439E+00
        -11   -1    0    0    0    0  0.00000000000E+00  0.00000000000E+00  0.45593999997E+02  0.45594000000E+02  0.51100000000E-03 0.  1.
         11   -1    0    0    0    0 -0.00000000000E+00 -0.00000000000E+00 -0.45593999997E+02  0.45594000000E+02  0.51100000000E-03 0. -1.
    9900012    2    1    2    0    0 -0.10677970632E+02  0.10443223850E+02 -0.37816473458E+02  0.50528860240E+02  0.30000001186E+02 0.  0.
        -12    1    1    2    0    0  0.10677970632E+02 -0.10443223850E+02  0.37816473458E+02  0.40659139760E+02  0.00000000000E+00 0.  1.
         11    1    3    3    0    0  0.47192744356E+00 -0.65103602963E+01 -0.11210766862E+02  0.12972617338E+02  0.51100000000E-03 0. -1.
        -11    1    3    3    0    0  0.14697195998E+01  0.11367516546E+02 -0.65214506071E+01  0.13187487494E+02  0.51100000000E-03 0.  1.
         12    1    3    3    0    0 -0.12619617675E+02  0.55860676004E+01 -0.20084255990E+02  0.24368755409E+02  0.00000000000E+00 0. -1.
</event>
<event>
 7    1  0.6090311E-013  0.5052886E+02  0.7816164E-02  0.1300439E+00
        -11   -1    0    0    0    0  0.00000000000E+00  0.00000000000E+00  0.45593999997E+02  0.45594000000E+02  0.51100000000E-03 0.  1.
         11   -1    0    0    0    0 -0.00000000000E+00 -0.00000000000E+00 -0.45593999997E+02  0.45594000000E+02  0.51100000000E-03 0. -1.
    9900012    2    1    2    0    0  0.35384952907E+01  0.59496773334E+01 -0.40065521695E+02  0.50528860339E+02  0.30000001486E+02 0.  0.
        -12    1    1    2    0    0 -0.35384952907E+01 -0.59496773334E+01  0.40065521695E+02  0.40659139661E+02  0.00000000000E+00 0.  1.
         11    1    3    3    0    0 -0.64331827983E+01  0.12225094524E+01 -0.61620006229E+01  0.89916974046E+01  0.51100000000E-03 0. -1.
        -11    1    3    3    0    0  0.52114272626E+01 -0.55831394460E+01 -0.23322550545E+01  0.79856016734E+01  0.51100000000E-03 0.  1.
         12    1    3    3    0    0  0.47602508265E+01  0.10310307327E+02 -0.31571266017E+02  0.33551561261E+02  0.00000000000E+00 0. -1.
</event>
<event>
 7    1  0.6090311E-013  0.5052888E+02  0.7816164E-02  0.1300439E+00
        -11   -1    0    0    0    0  0.00000000000E+00  0.00000000000E+00  0.45593999997E+02  0.45594000000E+02  0.51100000000E-03 0. -1.
         11   -1    0    0    0    0 -0.00000000000E+00 -0.00000000000E+00 -0.45593999997E+02  0.45594000000E+02  0.51100000000E-03 0.  1.
    9900012    2    1    2    0    0  0.33838993070E+02 -0.22535305735E+02  0.49617840236E+00  0.50528884791E+02  0.30000075810E+02 0.  0.
        -12    1    1    2    0    0 -0.33838993070E+02  0.22535305735E+02 -0.49617840236E+00  0.40659115209E+02  0.00000000000E+00 0.  1.
         11    1    3    3    0    0 -0.25216514009E+01 -0.12096435436E+01  0.31161374886E+01  0.41871561231E+01  0.51100000000E-03 0. -1.
        -11    1    3    3    0    0  0.20093833442E+01  0.55724466794E+00  0.45325744585E+01  0.49892258444E+01  0.51100000000E-03 0.  1.
        -12    1    3    3    0    0  0.34351261127E+02 -0.21882906860E+02 -0.71525335447E+01  0.41352502823E+02  0.00000000000E+00 0.  1.
</event>
<event>
 7    1  0.6090311E-013  0.5052886E+02  0.7816164E-02  0.1300439E+00
        -11   -1    0    0    0    0  0.00000000000E+00  0.00000000000E+00  0.45593999997E+02  0.45594000000E+02  0.51100000000E-03 0.  1.
         11   -1    0    0    0    0 -0.00000000000E+00 -0.00000000000E+00 -0.45593999997E+02  0.45594000000E+02  0.51100000000E-03 0. -1.
    9900012    2    1    2    0    0  0.98127426925E+01 -0.22612002146E+02 -0.32335325160E+02  0.50528858182E+02  0.29999994929E+02 0.  0.
        -12    1    1    2    0    0 -0.98127426925E+01  0.22612002146E+02  0.32335325160E+02  0.40659141818E+02  0.00000000000E+00 0.  1.
         11    1    3    3    0    0  0.45134465047E+01 -0.35367008242E+01 -0.10242835406E+02  0.11738617018E+02  0.51100000000E-03 0. -1.
        -11    1    3    3    0    0  0.11496749241E+02 -0.12442104642E+02 -0.24046623682E+01  0.17110336420E+02  0.51100000000E-03 0.  1.
         12    1    3    3    0    0 -0.61974530535E+01 -0.66331966799E+01 -0.19687827386E+02  0.21679904744E+02  0.00000000000E+00 0. -1.
</event>
<event>
 7    1  0.6090311E-013  0.5052885E+02  0.7816164E-02  0.1300439E+00
        -11   -1    0    0    0    0  0.00000000000E+00  0.00000000000E+00  0.45593999997E+02  0.45594000000E+02  0.51100000000E-03 0.  1.
         11   -1    0    0    0    0 -0.00000000000E+00 -0.00000000000E+00 -0.45593999997E+02  0.45594000000E+02  0.51100000000E-03 0. -1.
    9900012    2    1    2    0    0 -0.92473817941E+01 -0.24668354854E+02 -0.30969737895E+02  0.50528850150E+02  0.29999970516E+02 0.  0.
        -12    1    1    2    0    0  0.92473817941E+01  0.24668354854E+02  0.30969737895E+02  0.40659149850E+02  0.00000000000E+00 0.  1.
         11    1    3    3    0    0 -0.80571202438E+01 -0.17231763791E+02 -0.31386367825E+02  0.36700884942E+02  0.51100000000E-03 0. -1.
        -11    1    3    3    0    0 -0.40834966529E+01  0.15192249109E+01  0.69638471680E+00  0.44122489933E+01  0.51100000000E-03 0.  1.
        -12    1    3    3    0    0  0.28932351027E+01 -0.89558159730E+01 -0.27975478718E+00  0.94157162150E+01  0.00000000000E+00 0.  1.
</event>
<event>
 7    1  0.6090311E-013  0.5052886E+02  0.7816164E-02  0.1300439E+00
        -11   -1    0    0    0    0  0.00000000000E+00  0.00000000000E+00  0.45593999997E+02  0.45594000000E+02  0.51100000000E-03 0. -1.
         11   -1    0    0    0    0 -0.00000000000E+00 -0.00000000000E+00 -0.45593999997E+02  0.45594000000E+02  0.51100000000E-03 0.  1.
    9900012    2    1    2    0    0  0.91412221260E+01  0.12778681482E+02  0.37500786605E+02  0.50528860335E+02  0.30000001473E+02 0.  0.
        -12    1    1    2    0    0 -0.91412221260E+01 -0.12778681482E+02 -0.37500786605E+02  0.40659139665E+02  0.00000000000E+00 0.  1.
         11    1    3    3    0    0 -0.23299678742E+01  0.17676107780E+00  0.25775214383E+02  0.25880913267E+02  0.51100000000E-03 0. -1.
        -11    1    3    3    0    0  0.33888111780E+00 -0.27137691693E+01  0.12198143988E+01  0.29945502075E+01  0.51100000000E-03 0.  1.
         12    1    3    3    0    0  0.11132308882E+02  0.15315689573E+02  0.10505757823E+02  0.21653396860E+02  0.00000000000E+00 0. -1.
</event>
<event>
 7    1  0.6090311E-013  0.5052886E+02  0.7816164E-02  0.1300439E+00
        -11   -1    0    0    0    0  0.00000000000E+00  0.00000000000E+00  0.45593999997E+02  0.45594000000E+02  0.51100000000E-03 0.  1.
         11   -1    0    0    0    0 -0.00000000000E+00 -0.00000000000E+00 -0.45593999997E+02  0.45594000000E+02  0.51100000000E-03 0. -1.
    9900012    2    1    2    0    0 -0.27815971831E+02 -0.29144613950E+02 -0.54798908545E+01  0.50528855702E+02  0.29999987393E+02 0.  0.
        -12    1    1    2    0    0  0.27815971831E+02  0.29144613950E+02  0.54798908545E+01  0.40659144298E+02  0.00000000000E+00 0.  1.
         11    1    3    3    0    0  0.24048945290E+01 -0.87293091044E+01 -0.61077025688E+01  0.10921922270E+02  0.51100000000E-03 0. -1.
        -11    1    3    3    0    0 -0.43670818695E+01 -0.11317373981E+02 -0.84028234356E+00  0.12159787521E+02  0.51100000000E-03 0.  1.
        -12    1    3    3    0    0 -0.25853784491E+02 -0.90979308646E+01  0.14680940578E+01  0.27447145911E+02  0.00000000000E+00 0.  1.
</event>
<event>
 7    1  0.6090311E-013  0.5052885E+02  0.7816164E-02  0.1300439E+00
        -11   -1    0    0    0    0  0.00000000000E+00  0.00000000000E+00  0.45593999997E+02  0.45594000000E+02  0.51100000000E-03 0.  1.
         11   -1    0    0    0    0 -0.00000000000E+00 -0.00000000000E+00 -0.45593999997E+02  0.45594000000E+02  0.51100000000E-03 0. -1.
    9900012    2    1    2    0    0  0.21058397213E+02 -0.11307073613E+02 -0.32891644269E+02  0.50528852572E+02  0.29999977877E+02 0.  0.
        -12    1    1    2    0    0 -0.21058397213E+02  0.11307073613E+02  0.32891644269E+02  0.40659147428E+02  0.00000000000E+00 0.  1.
         11    1    3    3    0    0  0.24424460110E+01 -0.59641784012E+01 -0.89643784806E+00  0.65069630086E+01  0.51100000000E-03 0. -1.
        -11    1    3    3    0    0 -0.17047754308E+01 -0.10546693542E+01  0.28336564349E+01  0.34710511043E+01  0.51100000000E-03 0.  1.
        -12    1    3    3    0    0  0.20320726633E+02 -0.42882258577E+01 -0.34828862856E+02  0.40550838459E+02  0.00000000000E+00 0.  1.
</event>
<event>
 7    1  0.6090311E-013  0.5052886E+02  0.7816164E-02  0.1300439E+00
        -11   -1    0    0    0    0  0.00000000000E+00  0.00000000000E+00  0.45593999997E+02  0.45594000000E+02  0.51100000000E-03 0. -1.
         11   -1    0    0    0    0 -0.00000000000E+00 -0.00000000000E+00 -0.45593999997E+02  0.45594000000E+02  0.51100000000E-03 0.  1.
    9900012    2    1    2    0    0 -0.17045512078E+02 -0.35684064698E+02 -0.94479374835E+01  0.50528862306E+02  0.30000007464E+02 0.  0.
        -12    1    1    2    0    0  0.17045512078E+02  0.35684064698E+02  0.94479374835E+01  0.40659137694E+02  0.00000000000E+00 0.  1.
         11    1    3    3    0    0 -0.12904739610E+02 -0.84543184590E+01 -0.25069404103E+01  0.15629861019E+02  0.51100000000E-03 0. -1.
        -11    1    3    3    0    0 -0.36617756327E+00 -0.43856094172E+00 -0.78084460648E+01  0.78293200161E+01  0.51100000000E-03 0.  1.
         12    1    3    3    0    0 -0.37745949047E+01 -0.26791185297E+02  0.86744899159E+00  0.27069681270E+02  0.00000000000E+00 0. -1.
</event>
<event>
 7    1  0.6090311E-013  0.5052887E+02  0.7816164E-02  0.1300439E+00
        -11   -1    0    0    0    0  0.00000000000E+00  0.00000000000E+00  0.45593999997E+02  0.45594000000E+02  0.51100000000E-03 0. -1.
         11   -1    0    0    0    0 -0.00000000000E+00 -0.00000000000E+00 -0.45593999997E+02  0.45594000000E+02  0.51100000000E-03 0.  1.
    9900012    2    1    2    0    0  0.38619006882E+02 -0.12702130744E+02  0.62718660220E+00  0.50528865958E+02  0.30000018566E+02 0.  0.
        -12    1    1    2    0    0 -0.38619006882E+02  0.12702130744E+02 -0.62718660220E+00  0.40659134042E+02  0.00000000000E+00 0.  1.
         11    1    3    3    0    0  0.98457295674E+01 -0.48489600771E+01  0.72853599362E+00  0.10999162218E+02  0.51100000000E-03 0. -1.
        -11    1    3    3    0    0  0.28667603011E+01  0.64067176546E+01 -0.61658092906E+01  0.93424595369E+01  0.51100000000E-03 0.  1.
        -12    1    3    3    0    0  0.25906517014E+02 -0.14259888321E+02  0.60644598992E+01  0.30187244203E+02  0.00000000000E+00 0.  1.
</event>
<event>
 7    1  0.6090311E-013  0.5052886E+02  0.7816164E-02  0.1300439E+00
        -11   -1    0    0    0    0  0.00000000000E+00  0.00000000000E+00  0.45593999997E+02  0.45594000000E+02  0.51100000000E-03 0. -1.
         11   -1    0    0    0    0 -0.00000000000E+00 -0.00000000000E+00 -0.45593999997E+02  0.45594000000E+02  0.51100000000E-03 0.  1.
    9900012    2    1    2    0    0  0.13631222620E+02  0.23830439318E+02  0.29991095364E+02  0.50528857494E+02  0.29999992839E+02 0.  0.
        -12    1    1    2    0    0 -0.13631222620E+02 -0.23830439318E+02 -0.29991095364E+02  0.40659142506E+02  0.00000000000E+00 0.  1.
         11    1    3    3    0    0  0.23892734942E+01  0.62454802871E+01  0.35963039645E+01  0.75926315803E+01  0.51100000000E-03 0. -1.
        -11    1    3    3    0    0 -0.23851555532E+00  0.14103431487E+02  0.17980402422E+00  0.14106594171E+02  0.51100000000E-03 0.  1.
         12    1    3    3    0    0  0.11480464681E+02  0.34815275443E+01  0.26214987375E+02  0.28829631742E+02  0.00000000000E+00 0. -1.
</event>
<event>
 7    1  0.6090311E-013  0.5052887E+02  0.7816164E-02  0.1300439E+00
        -11   -1    0    0    0    0  0.00000000000E+00  0.00000000000E+00  0.45593999997E+02  0.45594000000E+02  0.51100000000E-03 0.  1.
         11   -1    0    0    0    0 -0.00000000000E+00 -0.00000000000E+00 -0.45593999997E+02  0.45594000000E+02  0.51100000000E-03 0. -1.
    9900012    2    1    2    0    0  0.47776794218E+01 -0.13197386767E+02 -0.38159763559E+02  0.50528870730E+02  0.30000033071E+02 0.  0.
        -12    1    1    2    0    0 -0.47776794218E+01  0.13197386767E+02  0.38159763559E+02  0.40659129270E+02  0.00000000000E+00 0.  1.
         11    1    3    3    0    0 -0.17989404918E+01  0.44004895921E+01 -0.98120031142E+01  0.10903022559E+02  0.51100000000E-03 0. -1.
        -11    1    3    3    0    0 -0.57678001759E+01  0.41550202867E+00 -0.48468718731E+01  0.75453514180E+01  0.51100000000E-03 0.  1.
        -12    1    3    3    0    0  0.12344420090E+02 -0.18013378388E+02 -0.23500888572E+02  0.32080496753E+02  0.00000000000E+00 0.  1.
</event>
<event>
 7    1  0.6090311E-013  0.5052886E+02  0.7816164E-02  0.1300439E+00
        -11   -1    0    0    0    0  0.00000000000E+00  0.00000000000E+00  0.45593999997E+02  0.45594000000E+02  0.51100000000E-03 0.  1.
         11   -1    0    0    0    0 -0.00000000000E+00 -0.00000000000E+00 -0.45593999997E+02  0.45594000000E+02  0.51100000000E-03 0. -1.
    9900012    2    1    2    0    0  0.39242271736E+02 -0.83486495772E+01  0.65961888094E+01  0.50528861451E+02  0.30000004866E+02 0.  0.
        -12    1    1    2    0    0 -0.39242271736E+02  0.83486495772E+01 -0.65961888094E+01  0.40659138549E+02  0.00000000000E+00 0.  1.
         11    1    3    3    0    0  0.38607638356E+02 -0.41371730003E+01  0.11442122712E+02  0.40479477668E+02  0.51100000000E-03 0.  1.
        -11    1    3    3    0    0  0.29749458488E+01 -0.31225010348E+01  0.26778734609E+00  0.43211139581E+01  0.51100000000E-03 0. -1.
        -12    1    3    3    0    0 -0.23403124685E+01 -0.10889755422E+01 -0.51137212485E+01  0.57282698251E+01  0.00000000000E+00 0.  1.
</event>
<event>
 7    1  0.6090311E-013  0.5052886E+02  0.7816164E-02  0.1300439E+00
        -11   -1    0    0    0    0  0.00000000000E+00  0.00000000000E+00  0.45593999997E+02  0.45594000000E+02  0.51100000000E-03 0.  1.
         11   -1    0    0    0    0 -0.00000000000E+00 -0.00000000000E+00 -0.45593999997E+02  0.45594000000E+02  0.51100000000E-03 0. -1.
    9900012    2    1    2    0    0 -0.22848159803E+02 -0.30813240613E+02 -0.13478546444E+02  0.50528863048E+02  0.30000009722E+02 0.  0.
        -12    1    1    2    0    0  0.22848159803E+02  0.30813240613E+02  0.13478546444E+02  0.40659136952E+02  0.00000000000E+00 0.  1.
         11    1    3    3    0    0 -0.48495576266E+01 -0.18064213360E+01  0.52515379100E+00  0.52016491599E+01  0.51100000000E-03 0. -1.
        -11    1    3    3    0    0 -0.13736943466E+02 -0.29730070616E+02 -0.22771578342E+01  0.32829349106E+02  0.51100000000E-03 0.  1.
        -12    1    3    3    0    0 -0.42616587099E+01  0.72325133990E+00 -0.11726542400E+02  0.12497864783E+02  0.00000000000E+00 0.  1.
</event>
<event>
 7    1  0.6090311E-013  0.5052887E+02  0.7816164E-02  0.1300439E+00
        -11   -1    0    0    0    0  0.00000000000E+00  0.00000000000E+00  0.45593999997E+02  0.45594000000E+02  0.51100000000E-03 0. -1.
         11   -1    0    0    0    0 -0.00000000000E+00 -0.00000000000E+00 -0.45593999997E+02  0.45594000000E+02  0.51100000000E-03 0.  1.
    9900012    2    1    2    0    0  0.23915713309E+02  0.32147193455E+02 -0.69109949412E+01  0.50528865219E+02  0.30000016318E+02 0.  0.
        -12    1    1    2    0    0 -0.23915713309E+02 -0.32147193455E+02  0.69109949412E+01  0.40659134781E+02  0.00000000000E+00 0.  1.
         11    1    3    3    0    0  0.38673684917E+01  0.74320001943E+01  0.42116527765E+01  0.93770563244E+01  0.51100000000E-03 0. -1.
        -11    1    3    3    0    0  0.45319429013E+00  0.66671407559E+00 -0.10081201392E+02  0.10113382940E+02  0.51100000000E-03 0.  1.
         12    1    3    3    0    0  0.19595150527E+02  0.24048479185E+02 -0.10414463262E+01  0.31038425955E+02  0.00000000000E+00 0. -1.
</event>
<event>
 7    1  0.6090311E-013  0.5052886E+02  0.7816164E-02  0.1300439E+00
        -11   -1    0    0    0    0  0.00000000000E+00  0.00000000000E+00  0.45593999997E+02  0.45594000000E+02  0.51100000000E-03 0. -1.
         11   -1    0    0    0    0 -0.00000000000E+00 -0.00000000000E+00 -0.45593999997E+02  0.45594000000E+02  0.51100000000E-03 0.  1.
    9900012    2    1    2    0    0  0.18291643613E+01 -0.39806490653E+02  0.80785372221E+01  0.50528864446E+02  0.30000013969E+02 0.  0.
        -12    1    1    2    0    0 -0.18291643613E+01  0.39806490653E+02 -0.80785372221E+01  0.40659135554E+02  0.00000000000E+00 0.  1.
         11    1    3    3    0    0  0.27613643859E+01 -0.67216939518E+01  0.40423436417E+01  0.83154582094E+01  0.51100000000E-03 0. -1.
        -11    1    3    3    0    0  0.59654833810E+01  0.19745376346E+01  0.37629123434E+00  0.62950286889E+01  0.51100000000E-03 0.  1.
         12    1    3    3    0    0 -0.68976834056E+01 -0.35059334336E+02  0.36599023460E+01  0.35918377547E+02  0.00000000000E+00 0. -1.
</event>
<event>
 7    1  0.6090311E-013  0.5052885E+02  0.7816164E-02  0.1300439E+00
        -11   -1    0    0    0    0  0.00000000000E+00  0.00000000000E+00  0.45593999997E+02  0.45594000000E+02  0.51100000000E-03 0. -1.
         11   -1    0    0    0    0 -0.00000000000E+00 -0.00000000000E+00 -0.45593999997E+02  0.45594000000E+02  0.51100000000E-03 0.  1.
    9900012    2    1    2    0    0  0.20495221269E+02  0.21202377827E+02  0.27992341825E+02  0.50528854396E+02  0.29999983421E+02 0.  0.
        -12    1    1    2    0    0 -0.20495221269E+02 -0.21202377827E+02 -0.27992341825E+02  0.40659145604E+02  0.00000000000E+00 0.  1.
         11    1    3    3    0    0  0.95916408869E+01  0.91478674180E+01  0.26490917557E+01  0.13516683787E+02  0.51100000000E-03 0. -1.
        -11    1    3    3    0    0  0.41522411590E+01 -0.46076391763E+01  0.33379500485E+00  0.62115106687E+01  0.51100000000E-03 0.  1.
         12    1    3    3    0    0  0.67513392235E+01  0.16662149585E+02  0.25009455065E+02  0.30800659940E+02  0.00000000000E+00 0. -1.
</event>
<event>
 7    1  0.6090311E-013  0.5052887E+02  0.7816164E-02  0.1300439E+00
        -11   -1    0    0    0    0  0.00000000000E+00  0.00000000000E+00  0.45593999997E+02  0.45594000000E+02  0.51100000000E-03 0.  1.
         11   -1    0    0    0    0 -0.00000000000E+00 -0.00000000000E+00 -0.45593999997E+02  0.45594000000E+02  0.51100000000E-03 0. -1.
    9900012    2    1    2    0    0  0.34397575291E+02  0.76369688993E+01 -0.20289112079E+02  0.50528873733E+02  0.30000042198E+02 0.  0.
        -12    1    1    2    0    0 -0.34397575291E+02 -0.76369688993E+01  0.20289112079E+02  0.40659126267E+02  0.00000000000E+00 0.  1.
         11    1    3    3    0    0  0.19792265967E+02 -0.62389017934E+01 -0.24229999720E+01  0.20893267260E+02  0.51100000000E-03 0. -1.
        -11    1    3    3    0    0  0.68856335212E+01 -0.92605376368E+00 -0.54676996521E+01  0.88411121647E+01  0.51100000000E-03 0.  1.
        -12    1    3    3    0    0  0.77196758034E+01  0.14801924456E+02 -0.12398412455E+02  0.20794494308E+02  0.00000000000E+00 0.  1.
</event>
<event>
 7    1  0.6090311E-013  0.5052886E+02  0.7816164E-02  0.1300439E+00
        -11   -1    0    0    0    0  0.00000000000E+00  0.00000000000E+00  0.45593999997E+02  0.45594000000E+02  0.51100000000E-03 0. -1.
         11   -1    0    0    0    0 -0.00000000000E+00 -0.00000000000E+00 -0.45593999997E+02  0.45594000000E+02  0.51100000000E-03 0.  1.
    9900012    2    1    2    0    0  0.24683517554E+02 -0.10461197378E+02  0.30568823160E+02  0.50528860328E+02  0.30000001454E+02 0.  0.
        -12    1    1    2    0    0 -0.24683517554E+02  0.10461197378E+02 -0.30568823160E+02  0.40659139672E+02  0.00000000000E+00 0.  1.
         11    1    3    3    0    0  0.28139523989E+01 -0.76503130938E+01  0.37187805346E+01  0.89596287569E+01  0.51100000000E-03 0. -1.
        -11    1    3    3    0    0  0.21938899102E+02  0.35046806039E+01  0.11600131008E+02  0.25063142653E+02  0.51100000000E-03 0.  1.
         12    1    3    3    0    0 -0.69333946985E-01 -0.63155648879E+01  0.15249911618E+02  0.16506088919E+02  0.00000000000E+00 0. -1.
</event>
<event>
 7    1  0.6090311E-013  0.5052885E+02  0.7816164E-02  0.1300439E+00
        -11   -1    0    0    0    0  0.00000000000E+00  0.00000000000E+00  0.45593999997E+02  0.45594000000E+02  0.51100000000E-03 0. -1.
         11   -1    0    0    0    0 -0.00000000000E+00 -0.00000000000E+00 -0.45593999997E+02  0.45594000000E+02  0.51100000000E-03 0.  1.
    9900012    2    1    2    0    0 -0.17112716735E+02 -0.35923809393E+02  0.83547106923E+01  0.50528851631E+02  0.29999975019E+02 0.  0.
        -12    1    1    2    0    0  0.17112716735E+02  0.35923809393E+02 -0.83547106923E+01  0.40659148369E+02  0.00000000000E+00 0.  1.
         11    1    3    3    0    0  0.31392578361E+01  0.10851388004E+01  0.49017052454E+00  0.33574891485E+01  0.51100000000E-03 0. -1.
        -11    1    3    3    0    0  0.29427461256E+01 -0.53418887594E+01 -0.24711354352E+01  0.65804286242E+01  0.51100000000E-03 0.  1.
         12    1    3    3    0    0 -0.23194720696E+02 -0.31667059434E+02  0.10335675603E+02  0.40590933859E+02  0.00000000000E+00 0. -1.
</event>
<event>
 7    1  0.6090311E-013  0.5052874E+02  0.7816164E-02  0.1300439E+00
        -11   -1    0    0    0    0  0.00000000000E+00  0.00000000000E+00  0.45593999997E+02  0.45594000000E+02  0.51100000000E-03 0.  1.
         11   -1    0    0    0    0 -0.00000000000E+00 -0.00000000000E+00 -0.45593999997E+02  0.45594000000E+02  0.51100000000E-03 0. -1.
    9900012    2    1    2    0    0 -0.12751948456E+02 -0.26156751492E+01 -0.38519109368E+02  0.50528736204E+02  0.29999624163E+02 0.  0.
        -12    1    1    2    0    0  0.12751948456E+02  0.26156751492E+01  0.38519109368E+02  0.40659263796E+02  0.00000000000E+00 0.  1.
         11    1    3    3    0    0 -0.11727954182E+02 -0.14176099353E+02 -0.25972385532E+02  0.31828784341E+02  0.51100000000E-03 0. -1.
        -11    1    3    3    0    0 -0.14061182855E+01  0.44202357096E-01  0.30461101612E+00  0.14394132879E+01  0.51100000000E-03 0.  1.
         12    1    3    3    0    0  0.38212401137E+00  0.11516221847E+02 -0.12851334853E+02  0.17260538575E+02  0.00000000000E+00 0. -1.
</event>
<event>
 7    1  0.6090311E-013  0.5052886E+02  0.7816164E-02  0.1300439E+00
        -11   -1    0    0    0    0  0.00000000000E+00  0.00000000000E+00  0.45593999997E+02  0.45594000000E+02  0.51100000000E-03 0. -1.
         11   -1    0    0    0    0 -0.00000000000E+00 -0.00000000000E+00 -0.45593999997E+02  0.45594000000E+02  0.51100000000E-03 0.  1.
    9900012    2    1    2    0    0 -0.26915223252E+02 -0.25194213529E+02  0.17146068374E+02  0.50528864511E+02  0.30000014167E+02 0.  0.
        -12    1    1    2    0    0  0.26915223252E+02  0.25194213529E+02 -0.17146068374E+02  0.40659135489E+02  0.00000000000E+00 0.  1.
         11    1    3    3    0    0 -0.23056137375E+02 -0.16106748574E+02  0.12642308259E+02  0.30835706229E+02  0.51100000000E-03 0. -1.
        -11    1    3    3    0    0 -0.75095620109E+01 -0.35867906837E+01  0.85649586978E+01  0.11942240441E+02  0.51100000000E-03 0.  1.
         12    1    3    3    0    0  0.36504761338E+01 -0.55006742711E+01 -0.40611985825E+01  0.77509178403E+01  0.00000000000E+00 0. -1.
</event>
<event>
 7    1  0.6090311E-013  0.5052886E+02  0.7816164E-02  0.1300439E+00
        -11   -1    0    0    0    0  0.00000000000E+00  0.00000000000E+00  0.45593999997E+02  0.45594000000E+02  0.51100000000E-03 0.  1.
         11   -1    0    0    0    0 -0.00000000000E+00 -0.00000000000E+00 -0.45593999997E+02  0.45594000000E+02  0.51100000000E-03 0. -1.
    9900012    2    1    2    0    0  0.97170793737E+01 -0.22328888718E+02 -0.32560167168E+02  0.50528863401E+02  0.30000010795E+02 0.  0.
        -12    1    1    2    0    0 -0.97170793737E+01  0.22328888718E+02  0.32560167168E+02  0.40659136599E+02  0.00000000000E+00 0.  1.
         11    1    3    3    0    0  0.57334338237E+01 -0.11124217817E+02 -0.18060571358E+02  0.21972817832E+02  0.51100000000E-03 0. -1.
        -11    1    3    3    0    0  0.80579841507E+01 -0.11954603696E+02 -0.18049480950E+02  0.23100377073E+02  0.51100000000E-03 0.  1.
        -12    1    3    3    0    0 -0.40743386007E+01  0.74993279504E+00  0.35498851401E+01  0.54556684960E+01  0.00000000000E+00 0.  1.
</event>
<event>
 7    1  0.6090311E-013  0.5052888E+02  0.7816164E-02  0.1300439E+00
        -11   -1    0    0    0    0  0.00000000000E+00  0.00000000000E+00  0.45593999997E+02  0.45594000000E+02  0.51100000000E-03 0.  1.
         11   -1    0    0    0    0 -0.00000000000E+00 -0.00000000000E+00 -0.45593999997E+02  0.45594000000E+02  0.51100000000E-03 0. -1.
    9900012    2    1    2    0    0 -0.32951854660E+02 -0.22219581081E+02  0.85807604149E+01  0.50528880996E+02  0.30000064274E+02 0.  0.
        -12    1    1    2    0    0  0.32951854660E+02  0.22219581081E+02 -0.85807604149E+01  0.40659119004E+02  0.00000000000E+00 0.  1.
         11    1    3    3    0    0 -0.22513242747E+02 -0.98976882315E+01  0.60991731307E+01  0.25337921076E+02  0.51100000000E-03 0.  1.
        -11    1    3    3    0    0 -0.15969486842E+02 -0.74849285869E+01  0.26894219120E+01  0.17840450006E+02  0.51100000000E-03 0. -1.
        -12    1    3    3    0    0  0.55308749291E+01 -0.48369642625E+01 -0.20783462780E+00  0.73505099136E+01  0.00000000000E+00 0.  1.
</event>
<event>
 7    1  0.6090311E-013  0.5052886E+02  0.7816164E-02  0.1300439E+00
        -11   -1    0    0    0    0  0.00000000000E+00  0.00000000000E+00  0.45593999997E+02  0.45594000000E+02  0.51100000000E-03 0.  1.
         11   -1    0    0    0    0 -0.00000000000E+00 -0.00000000000E+00 -0.45593999997E+02  0.45594000000E+02  0.51100000000E-03 0. -1.
    9900012    2    1    2    0    0 -0.40213891639E-01 -0.30145003179E+02 -0.27284473092E+02  0.50528864424E+02  0.30000013904E+02 0.  0.
        -12    1    1    2    0    0  0.40213891639E-01  0.30145003179E+02  0.27284473092E+02  0.40659135576E+02  0.00000000000E+00 0.  1.
         11    1    3    3    0    0  0.13201119649E+01 -0.13896444166E+02 -0.15789608698E+02  0.21075236633E+02  0.51100000000E-03 0. -1.
        -11    1    3    3    0    0 -0.26418231387E+01 -0.21101102904E+02 -0.11985466372E+02  0.24410800431E+02  0.51100000000E-03 0.  1.
         12    1    3    3    0    0  0.12814972822E+01  0.48525438900E+01  0.49060197744E+00  0.50428273607E+01  0.00000000000E+00 0. -1.
</event>
<event>
 7    1  0.6090311E-013  0.5052886E+02  0.7816164E-02  0.1300439E+00
        -11   -1    0    0    0    0  0.00000000000E+00  0.00000000000E+00  0.45593999997E+02  0.45594000000E+02  0.51100000000E-03 0. -1.
         11   -1    0    0    0    0 -0.00000000000E+00 -0.00000000000E+00 -0.45593999997E+02  0.45594000000E+02  0.51100000000E-03 0.  1.
    9900012    2    1    2    0    0 -0.23573348758E+02  0.15731610699E+02  0.29154411217E+02  0.50528855392E+02  0.29999986450E+02 0.  0.
        -12    1    1    2    0    0  0.23573348758E+02 -0.15731610699E+02 -0.29154411217E+02  0.40659144608E+02  0.00000000000E+00 0.  1.
         11    1    3    3    0    0 -0.11885510907E+02  0.92335802982E+01  0.42282439743E+01  0.15633375260E+02  0.51100000000E-03 0. -1.
        -11    1    3    3    0    0 -0.46624021396E+01  0.38161749893E+01 -0.24508566253E+01  0.65044510698E+01  0.51100000000E-03 0.  1.
         12    1    3    3    0    0 -0.70254357109E+01  0.26818554113E+01  0.27377023868E+02  0.28391029063E+02  0.00000000000E+00 0. -1.
</event>
<event>
 7    1  0.6090311E-013  0.5052885E+02  0.7816164E-02  0.1300439E+00
        -11   -1    0    0    0    0  0.00000000000E+00  0.00000000000E+00  0.45593999997E+02  0.45594000000E+02  0.51100000000E-03 0. -1.
         11   -1    0    0    0    0 -0.00000000000E+00 -0.00000000000E+00 -0.45593999997E+02  0.45594000000E+02  0.51100000000E-03 0.  1.
    9900012    2    1    2    0    0  0.33220402646E+02  0.14932060579E+02  0.18072215416E+02  0.50528849060E+02  0.29999967203E+02 0.  0.
        -12    1    1    2    0    0 -0.33220402646E+02 -0.14932060579E+02 -0.18072215416E+02  0.40659150940E+02  0.00000000000E+00 0.  1.
         11    1    3    3    0    0 -0.21794694045E+01 -0.75325583684E+00  0.24689465840E+00  0.23191460658E+01  0.51100000000E-03 0. -1.
        -11    1    3    3    0    0  0.43055429941E+01  0.12850838243E+02  0.47869506850E+01  0.14373470046E+02  0.51100000000E-03 0.  1.
         12    1    3    3    0    0  0.31094329057E+02  0.28344781729E+01  0.13038370072E+02  0.33836232949E+02  0.00000000000E+00 0. -1.
</event>
<event>
 7    1  0.6090311E-013  0.5052886E+02  0.7816164E-02  0.1300439E+00
        -11   -1    0    0    0    0  0.00000000000E+00  0.00000000000E+00  0.45593999997E+02  0.45594000000E+02  0.51100000000E-03 0.  1.
         11   -1    0    0    0    0 -0.00000000000E+00 -0.00000000000E+00 -0.45593999997E+02  0.45594000000E+02  0.51100000000E-03 0. -1.
    9900012    2    1    2    0    0 -0.13903811287E+02 -0.28582988880E+02 -0.25354738241E+02  0.50528856220E+02  0.29999988968E+02 0.  0.
        -12    1    1    2    0    0  0.13903811287E+02  0.28582988880E+02  0.25354738241E+02  0.40659143780E+02  0.00000000000E+00 0.  1.
         11    1    3    3    0    0 -0.43543082739E+01  0.44819418717E+01 -0.66185166061E+00  0.62837768394E+01  0.51100000000E-03 0.  1.
        -11    1    3    3    0    0 -0.63562227598E+01 -0.41197979950E+01 -0.45392124190E+01  0.88305579063E+01  0.51100000000E-03 0. -1.
         12    1    3    3    0    0 -0.31932802534E+01 -0.28945132757E+02 -0.20153674161E+02  0.35414521475E+02  0.00000000000E+00 0. -1.
</event>
<event>
 7    1  0.6090311E-013  0.5052886E+02  0.7816164E-02  0.1300439E+00
        -11   -1    0    0    0    0  0.00000000000E+00  0.00000000000E+00  0.45593999997E+02  0.45594000000E+02  0.51100000000E-03 0.  1.
         11   -1    0    0    0    0 -0.00000000000E+00 -0.00000000000E+00 -0.45593999997E+02  0.45594000000E+02  0.51100000000E-03 0. -1.
    9900012    2    1    2    0    0  0.39106416401E+02  0.97816251592E+01  0.53079094522E+01  0.50528857151E+02  0.29999991797E+02 0.  0.
        -12    1    1    2    0    0 -0.39106416401E+02 -0.97816251592E+01 -0.53079094522E+01  0.40659142849E+02  0.00000000000E+00 0.  1.
         11    1    3    3    0    0  0.80151123974E+01  0.14074537136E+01  0.47723879987E+01  0.94339090610E+01  0.51100000000E-03 0. -1.
        -11    1    3    3    0    0  0.21994927171E+02 -0.61166969827E+01  0.50892519572E+01  0.23389982663E+02  0.51100000000E-03 0.  1.
         12    1    3    3    0    0  0.90963768324E+01  0.14490868428E+02 -0.45537305037E+01  0.17704965427E+02  0.00000000000E+00 0. -1.
</event>
<event>
 7    1  0.6090311E-013  0.5052885E+02  0.7816164E-02  0.1300439E+00
        -11   -1    0    0    0    0  0.00000000000E+00  0.00000000000E+00  0.45593999997E+02  0.45594000000E+02  0.51100000000E-03 0.  1.
         11   -1    0    0    0    0 -0.00000000000E+00 -0.00000000000E+00 -0.45593999997E+02  0.45594000000E+02  0.51100000000E-03 0. -1.
    9900012    2    1    2    0    0 -0.45553097395E+01 -0.43876827948E+01 -0.40164209506E+02  0.50528851800E+02  0.29999975531E+02 0.  0.
        -12    1    1    2    0    0  0.45553097395E+01  0.43876827948E+01  0.40164209506E+02  0.40659148200E+02  0.00000000000E+00 0.  1.
         11    1    3    3    0    0  0.61348723574E+01 -0.15000971744E+01 -0.21809110685E+02  0.22705159315E+02  0.51100000000E-03 0. -1.
        -11    1    3    3    0    0  0.20408819881E+00 -0.73920369068E+01 -0.12820637754E+02  0.14800426153E+02  0.51100000000E-03 0.  1.
        -12    1    3    3    0    0 -0.10894270296E+02  0.45044512864E+01 -0.55344610669E+01  0.13023266333E+02  0.00000000000E+00 0.  1.
</event>
<event>
 7    1  0.6090311E-013  0.5052884E+02  0.7816164E-02  0.1300439E+00
        -11   -1    0    0    0    0  0.00000000000E+00  0.00000000000E+00  0.45593999997E+02  0.45594000000E+02  0.51100000000E-03 0.  1.
         11   -1    0    0    0    0 -0.00000000000E+00 -0.00000000000E+00 -0.45593999997E+02  0.45594000000E+02  0.51100000000E-03 0. -1.
    9900012    2    1    2    0    0  0.29360826740E+02  0.11596385582E+00 -0.28126424755E+02  0.50528839114E+02  0.29999936969E+02 0.  0.
        -12    1    1    2    0    0 -0.29360826740E+02 -0.11596385582E+00  0.28126424755E+02  0.40659160886E+02  0.00000000000E+00 0.  1.
         11    1    3    3    0    0  0.46420488361E+01 -0.56743029521E+01 -0.98809997544E+01  0.12303677816E+02  0.51100000000E-03 0. -1.
        -11    1    3    3    0    0  0.98602459301E+01 -0.62920605258E+01 -0.14638238610E+02  0.18737462617E+02  0.51100000000E-03 0.  1.
        -12    1    3    3    0    0  0.14858531974E+02  0.12082327334E+02 -0.36071863914E+01  0.19487698681E+02  0.00000000000E+00 0.  1.
</event>
<event>
 7    1  0.6090311E-013  0.5052887E+02  0.7816164E-02  0.1300439E+00
        -11   -1    0    0    0    0  0.00000000000E+00  0.00000000000E+00  0.45593999997E+02  0.45594000000E+02  0.51100000000E-03 0.  1.
         11   -1    0    0    0    0 -0.00000000000E+00 -0.00000000000E+00 -0.45593999997E+02  0.45594000000E+02  0.51100000000E-03 0. -1.
    9900012    2    1    2    0    0 -0.12720017974E+02  0.11767007209E+02 -0.36781842193E+02  0.50528865343E+02  0.30000016697E+02 0.  0.
        -12    1    1    2    0    0  0.12720017974E+02 -0.11767007209E+02  0.36781842193E+02  0.40659134657E+02  0.00000000000E+00 0.  1.
         11    1    3    3    0    0 -0.93575213584E+00  0.73269170967E+01 -0.28195502343E+01  0.79062766196E+01  0.51100000000E-03 0. -1.
        -11    1    3    3    0    0  0.14760532709E+01  0.55510861155E+01  0.41579941606E+00  0.57590085723E+01  0.51100000000E-03 0.  1.
         12    1    3    3    0    0 -0.13260319109E+02 -0.11109960028E+01 -0.34378091375E+02  0.36863580151E+02  0.00000000000E+00 0. -1.
</event>
<event>
 7    1  0.6090311E-013  0.5052886E+02  0.7816164E-02  0.1300439E+00
        -11   -1    0    0    0    0  0.00000000000E+00  0.00000000000E+00  0.45593999997E+02  0.45594000000E+02  0.51100000000E-03 0.  1.
         11   -1    0    0    0    0 -0.00000000000E+00 -0.00000000000E+00 -0.45593999997E+02  0.45594000000E+02  0.51100000000E-03 0. -1.
    9900012    2    1    2    0    0 -0.24459224443E+02  0.21340139323E+02 -0.24484897885E+02  0.50528862883E+02  0.30000009219E+02 0.  0.
        -12    1    1    2    0    0  0.24459224443E+02 -0.21340139323E+02  0.24484897885E+02  0.40659137117E+02  0.00000000000E+00 0.  1.
         11    1    3    3    0    0 -0.18040370269E+02  0.44399553779E+01 -0.20570021415E+02  0.27718115817E+02  0.51100000000E-03 0. -1.
        -11    1    3    3    0    0 -0.14678161216E+01 -0.15137250745E+01 -0.30697344265E+01  0.37241264047E+01  0.51100000000E-03 0.  1.
         12    1    3    3    0    0 -0.49510380533E+01  0.18413909019E+02 -0.84514204339E+00  0.19086620661E+02  0.00000000000E+00 0. -1.
</event>
<event>
 7    1  0.6090311E-013  0.5052881E+02  0.7816164E-02  0.1300439E+00
        -11   -1    0    0    0    0  0.00000000000E+00  0.00000000000E+00  0.45593999997E+02  0.45594000000E+02  0.51100000000E-03 0. -1.
         11   -1    0    0    0    0 -0.00000000000E+00 -0.00000000000E+00 -0.45593999997E+02  0.45594000000E+02  0.51100000000E-03 0.  1.
    9900012    2    1    2    0    0 -0.15045842298E+02 -0.36241975795E+02  0.10644794676E+02  0.50528808743E+02  0.29999844654E+02 0.  0.
        -12    1    1    2    0    0  0.15045842298E+02  0.36241975795E+02 -0.10644794676E+02  0.40659191257E+02  0.00000000000E+00 0.  1.
         11    1    3    3    0    0 -0.18063630623E+01 -0.38610359178E+01  0.33898681373E+01  0.54462603794E+01  0.51100000000E-03 0. -1.
        -11    1    3    3    0    0 -0.29668886471E+01 -0.33599012430E+02  0.81466665100E+01  0.34699628816E+02  0.51100000000E-03 0.  1.
         12    1    3    3    0    0 -0.10272590589E+02  0.12180725527E+01 -0.89173997098E+00  0.10382919547E+02  0.00000000000E+00 0. -1.
</event>
<event>
 7    1  0.6090311E-013  0.5052884E+02  0.7816164E-02  0.1300439E+00
        -11   -1    0    0    0    0  0.00000000000E+00  0.00000000000E+00  0.45593999997E+02  0.45594000000E+02  0.51100000000E-03 0. -1.
         11   -1    0    0    0    0 -0.00000000000E+00 -0.00000000000E+00 -0.45593999997E+02  0.45594000000E+02  0.51100000000E-03 0.  1.
    9900012    2    1    2    0    0  0.12014143719E+02 -0.29993919479E+02 -0.24681818469E+02  0.50528843369E+02  0.29999949906E+02 0.  0.
        -12    1    1    2    0    0 -0.12014143719E+02  0.29993919479E+02  0.24681818469E+02  0.40659156631E+02  0.00000000000E+00 0.  1.
         11    1    3    3    0    0 -0.23026154938E+01 -0.67442135453E+01  0.14011153626E+01  0.72628905387E+01  0.51100000000E-03 0. -1.
        -11    1    3    3    0    0 -0.40794407805E+01 -0.60420102127E+01 -0.41427121244E+00  0.73020096816E+01  0.51100000000E-03 0.  1.
        -12    1    3    3    0    0  0.18396199993E+02 -0.17207695721E+02 -0.25668662619E+02  0.35963943149E+02  0.00000000000E+00 0.  1.
</event>
<event>
 7    1  0.6090311E-013  0.5052884E+02  0.7816164E-02  0.1300439E+00
        -11   -1    0    0    0    0  0.00000000000E+00  0.00000000000E+00  0.45593999997E+02  0.45594000000E+02  0.51100000000E-03 0. -1.
         11   -1    0    0    0    0 -0.00000000000E+00 -0.00000000000E+00 -0.45593999997E+02  0.45594000000E+02  0.51100000000E-03 0.  1.
    9900012    2    1    2    0    0  0.34737349470E+02  0.12785475257E+02  0.16823059829E+02  0.50528841527E+02  0.29999944305E+02 0.  0.
        -12    1    1    2    0    0 -0.34737349470E+02 -0.12785475257E+02 -0.16823059829E+02  0.40659158473E+02  0.00000000000E+00 0.  1.
         11    1    3    3    0    0  0.16990190029E+02  0.32491519540E+01  0.17249951151E+02  0.24429170282E+02  0.51100000000E-03 0. -1.
        -11    1    3    3    0    0  0.13501971380E+02  0.66787742085E+01  0.73728487543E+01  0.16771051103E+02  0.51100000000E-03 0.  1.
        -12    1    3    3    0    0  0.42451880600E+01  0.28575490941E+01 -0.77997400771E+01  0.93286201423E+01  0.00000000000E+00 0.  1.
</event>
<event>
 7    1  0.6090311E-013  0.5052886E+02  0.7816164E-02  0.1300439E+00
        -11   -1    0    0    0    0  0.00000000000E+00  0.00000000000E+00  0.45593999997E+02  0.45594000000E+02  0.51100000000E-03 0.  1.
         11   -1    0    0    0    0 -0.00000000000E+00 -0.00000000000E+00 -0.45593999997E+02  0.45594000000E+02  0.51100000000E-03 0. -1.
    9900012    2    1    2    0    0  0.19561080918E+02  0.81103939560E+01 -0.34709521569E+02  0.50528864933E+02  0.30000015451E+02 0.  0.
        -12    1    1    2    0    0 -0.19561080918E+02 -0.81103939560E+01  0.34709521569E+02  0.40659135067E+02  0.00000000000E+00 0.  1.
         11    1    3    3    0    0  0.12632603228E+02  0.11394844337E+02 -0.24836684125E+02  0.30104584707E+02  0.51100000000E-03 0.  1.
        -11    1    3    3    0    0  0.11964933210E+02 -0.60422186380E+00 -0.52446793978E+01  0.13077896353E+02  0.51100000000E-03 0. -1.
        -12    1    3    3    0    0 -0.50364555202E+01 -0.26802285174E+01 -0.46281580468E+01  0.73463838736E+01  0.00000000000E+00 0.  1.
</event>
<event>
 7    1  0.6090311E-013  0.5052884E+02  0.7816164E-02  0.1300439E+00
        -11   -1    0    0    0    0  0.00000000000E+00  0.00000000000E+00  0.45593999997E+02  0.45594000000E+02  0.51100000000E-03 0. -1.
         11   -1    0    0    0    0 -0.00000000000E+00 -0.00000000000E+00 -0.45593999997E+02  0.45594000000E+02  0.51100000000E-03 0.  1.
    9900012    2    1    2    0    0  0.65691165604E+01 -0.39900235151E+02  0.42408799154E+01  0.50528842115E+02  0.29999946093E+02 0.  0.
        -12    1    1    2    0    0 -0.65691165604E+01  0.39900235151E+02 -0.42408799154E+01  0.40659157885E+02  0.00000000000E+00 0.  1.
         11    1    3    3    0    0  0.82828809235E+01 -0.16623984611E+02 -0.92571637899E+01  0.20752302581E+02  0.51100000000E-03 0. -1.
        -11    1    3    3    0    0 -0.36211879786E+00  0.10685158146E+01  0.30464022639E+01  0.32486032513E+01  0.51100000000E-03 0.  1.
         12    1    3    3    0    0 -0.13516455652E+01 -0.24344766354E+02  0.10451641441E+02  0.26527936282E+02  0.00000000000E+00 0. -1.
</event>
<event>
 7    1  0.6090311E-013  0.5052886E+02  0.7816164E-02  0.1300439E+00
        -11   -1    0    0    0    0  0.00000000000E+00  0.00000000000E+00  0.45593999997E+02  0.45594000000E+02  0.51100000000E-03 0.  1.
         11   -1    0    0    0    0 -0.00000000000E+00 -0.00000000000E+00 -0.45593999997E+02  0.45594000000E+02  0.51100000000E-03 0. -1.
    9900012    2    1    2    0    0 -0.92749789557E+01  0.14934516673E+02 -0.36661980338E+02  0.50528858037E+02  0.29999994490E+02 0.  0.
        -12    1    1    2    0    0  0.92749789557E+01 -0.14934516673E+02  0.36661980338E+02  0.40659141963E+02  0.00000000000E+00 0.  1.
         11    1    3    3    0    0 -0.19425194892E+01 -0.12260009622E+01  0.13453175494E+01  0.26620180117E+01  0.51100000000E-03 0. -1.
        -11    1    3    3    0    0  0.64359250791E+01  0.27988622511E+01 -0.23957396728E+01  0.74158162306E+01  0.51100000000E-03 0.  1.
         12    1    3    3    0    0 -0.13768384546E+02  0.13361655384E+02 -0.35611558214E+02  0.40451023795E+02  0.00000000000E+00 0. -1.
</event>
<event>
 7    1  0.6090311E-013  0.5052886E+02  0.7816164E-02  0.1300439E+00
        -11   -1    0    0    0    0  0.00000000000E+00  0.00000000000E+00  0.45593999997E+02  0.45594000000E+02  0.51100000000E-03 0.  1.
         11   -1    0    0    0    0 -0.00000000000E+00 -0.00000000000E+00 -0.45593999997E+02  0.45594000000E+02  0.51100000000E-03 0. -1.
    9900012    2    1    2    0    0 -0.36981617437E+02  0.57056332330E+01  0.15905068218E+02  0.50528862357E+02  0.30000007621E+02 0.  0.
        -12    1    1    2    0    0  0.36981617437E+02 -0.57056332330E+01 -0.15905068218E+02  0.40659137643E+02  0.00000000000E+00 0.  1.
         11    1    3    3    0    0 -0.16035090144E+02 -0.25821644691E+01  0.53148940388E+00  0.16250359089E+02  0.51100000000E-03 0. -1.
        -11    1    3    3    0    0 -0.55718347955E+01 -0.18443185031E+01 -0.43428159641E+01  0.73011577498E+01  0.51100000000E-03 0.  1.
        -12    1    3    3    0    0 -0.15374692498E+02  0.10132116205E+02  0.19716394778E+02  0.26977345519E+02  0.00000000000E+00 0.  1.
</event>
<event>
 7    1  0.6090311E-013  0.5052887E+02  0.7816164E-02  0.1300439E+00
        -11   -1    0    0    0    0  0.00000000000E+00  0.00000000000E+00  0.45593999997E+02  0.45594000000E+02  0.51100000000E-03 0.  1.
         11   -1    0    0    0    0 -0.00000000000E+00 -0.00000000000E+00 -0.45593999997E+02  0.45594000000E+02  0.51100000000E-03 0. -1.
    9900012    2    1    2    0    0 -0.21167923784E+02  0.34628988930E+02 -0.24325235000E+01  0.50528867666E+02  0.30000023757E+02 0.  0.
        -12    1    1    2    0    0  0.21167923784E+02 -0.34628988930E+02  0.24325235000E+01  0.40659132334E+02  0.00000000000E+00 0.  1.
         11    1    3    3    0    0 -0.10993758487E-01  0.10279964325E+02  0.46092854853E+01  0.11266024158E+02  0.51100000000E-03 0. -1.
        -11    1    3    3    0    0  0.32931612580E+00 -0.24133055658E+01  0.26510536446E+01  0.36000803536E+01  0.51100000000E-03 0.  1.
         12    1    3    3    0    0 -0.21486246151E+02  0.26762330170E+02 -0.96928626299E+01  0.35662763154E+02  0.00000000000E+00 0. -1.
</event>
<event>
 7    1  0.6090311E-013  0.5052894E+02  0.7816164E-02  0.1300439E+00
        -11   -1    0    0    0    0  0.00000000000E+00  0.00000000000E+00  0.45593999997E+02  0.45594000000E+02  0.51100000000E-03 0.  1.
         11   -1    0    0    0    0 -0.00000000000E+00 -0.00000000000E+00 -0.45593999997E+02  0.45594000000E+02  0.51100000000E-03 0. -1.
    9900012    2    1    2    0    0 -0.92251368435E+01  0.28980537485E+02 -0.26984897010E+02  0.50528937427E+02  0.30000235802E+02 0.  0.
        -12    1    1    2    0    0  0.92251368435E+01 -0.28980537485E+02  0.26984897010E+02  0.40659062573E+02  0.00000000000E+00 0.  1.
         11    1    3    3    0    0 -0.19876849847E+01  0.38633511389E+01 -0.43205503957E+01  0.61272775034E+01  0.51100000000E-03 0. -1.
        -11    1    3    3    0    0  0.78144401779E+01  0.10580883906E+02 -0.19075410812E+02  0.23170927418E+02  0.51100000000E-03 0.  1.
         12    1    3    3    0    0 -0.15051892037E+02  0.14536302440E+02 -0.35889358025E+01  0.21230732505E+02  0.00000000000E+00 0. -1.
</event>
<event>
 7    1  0.6090311E-013  0.5052886E+02  0.7816164E-02  0.1300439E+00
        -11   -1    0    0    0    0  0.00000000000E+00  0.00000000000E+00  0.45593999997E+02  0.45594000000E+02  0.51100000000E-03 0.  1.
         11   -1    0    0    0    0 -0.00000000000E+00 -0.00000000000E+00 -0.45593999997E+02  0.45594000000E+02  0.51100000000E-03 0. -1.
    9900012    2    1    2    0    0 -0.16418250475E+02 -0.11130654204E+02 -0.35492466451E+02  0.50528860972E+02  0.30000003412E+02 0.  0.
        -12    1    1    2    0    0  0.16418250475E+02  0.11130654204E+02  0.35492466451E+02  0.40659139028E+02  0.00000000000E+00 0.  1.
         11    1    3    3    0    0  0.12029026302E+00  0.28596596215E+01 -0.84490867895E+01  0.89207169406E+01  0.51100000000E-03 0. -1.
        -11    1    3    3    0    0 -0.22210316740E+01  0.62464124731E+01 -0.38832732411E+01  0.76831283867E+01  0.51100000000E-03 0.  1.
         12    1    3    3    0    0 -0.14317509064E+02 -0.20236726299E+02 -0.23160106420E+02  0.33925015645E+02  0.00000000000E+00 0. -1.
</event>
<event>
 7    1  0.6090311E-013  0.5052886E+02  0.7816164E-02  0.1300439E+00
        -11   -1    0    0    0    0  0.00000000000E+00  0.00000000000E+00  0.45593999997E+02  0.45594000000E+02  0.51100000000E-03 0. -1.
         11   -1    0    0    0    0 -0.00000000000E+00 -0.00000000000E+00 -0.45593999997E+02  0.45594000000E+02  0.51100000000E-03 0.  1.
    9900012    2    1    2    0    0 -0.46576350020E+01  0.40373825482E+02  0.11941535447E+01  0.50528863874E+02  0.30000012231E+02 0.  0.
        -12    1    1    2    0    0  0.46576350020E+01 -0.40373825482E+02 -0.11941535447E+01  0.40659136126E+02  0.00000000000E+00 0.  1.
         11    1    3    3    0    0  0.16611941010E+01  0.20916619818E+02  0.58089160392E+01  0.21771726075E+02  0.51100000000E-03 0. -1.
        -11    1    3    3    0    0  0.43712282313E+01  0.16560574531E+02 -0.12117162752E+01  0.17170571384E+02  0.51100000000E-03 0.  1.
        -12    1    3    3    0    0 -0.10690057334E+02  0.28966311327E+01 -0.34030462193E+01  0.11586566416E+02  0.00000000000E+00 0.  1.
</event>
<event>
 7    1  0.6090311E-013  0.5052886E+02  0.7816164E-02  0.1300439E+00
        -11   -1    0    0    0    0  0.00000000000E+00  0.00000000000E+00  0.45593999997E+02  0.45594000000E+02  0.51100000000E-03 0.  1.
         11   -1    0    0    0    0 -0.00000000000E+00 -0.00000000000E+00 -0.45593999997E+02  0.45594000000E+02  0.51100000000E-03 0. -1.
    9900012    2    1    2    0    0  0.35520161180E+02  0.18447402043E+02 -0.71538339625E+01  0.50528857944E+02  0.29999994205E+02 0.  0.
        -12    1    1    2    0    0 -0.35520161180E+02 -0.18447402043E+02  0.71538339625E+01  0.40659142056E+02  0.00000000000E+00 0.  1.
         11    1    3    3    0    0  0.18826049938E+02  0.52425727830E+00 -0.13294828726E+02  0.23053144538E+02  0.51100000000E-03 0. -1.
        -11    1    3    3    0    0  0.40462007095E+00  0.61201617751E+01 -0.82252338283E+00  0.61884281148E+01  0.51100000000E-03 0.  1.
        -12    1    3    3    0    0  0.16289491171E+02  0.11802982990E+02  0.69635181468E+01  0.21287285291E+02  0.00000000000E+00 0.  1.
</event>
<event>
 7    1  0.6090311E-013  0.5052886E+02  0.7816164E-02  0.1300439E+00
        -11   -1    0    0    0    0  0.00000000000E+00  0.00000000000E+00  0.45593999997E+02  0.45594000000E+02  0.51100000000E-03 0. -1.
         11   -1    0    0    0    0 -0.00000000000E+00 -0.00000000000E+00 -0.45593999997E+02  0.45594000000E+02  0.51100000000E-03 0.  1.
    9900012    2    1    2    0    0 -0.13776593833E+02 -0.17979489168E+02  0.33765504165E+02  0.50528857856E+02  0.29999993938E+02 0.  0.
        -12    1    1    2    0    0  0.13776593833E+02  0.17979489168E+02 -0.33765504165E+02  0.40659142144E+02  0.00000000000E+00 0.  1.
         11    1    3    3    0    0 -0.34994857059E+01 -0.68509509658E+01  0.10000032888E+02  0.12616758195E+02  0.51100000000E-03 0. -1.
        -11    1    3    3    0    0 -0.43819521510E+01 -0.12524141796E+01  0.25827881891E+02  0.26226885617E+02  0.51100000000E-03 0.  1.
         12    1    3    3    0    0 -0.58951559762E+01 -0.98761240231E+01 -0.20624106137E+01  0.11685214043E+02  0.00000000000E+00 0. -1.
</event>
<event>
 7    1  0.6090311E-013  0.5052886E+02  0.7816164E-02  0.1300439E+00
        -11   -1    0    0    0    0  0.00000000000E+00  0.00000000000E+00  0.45593999997E+02  0.45594000000E+02  0.51100000000E-03 0.  1.
         11   -1    0    0    0    0 -0.00000000000E+00 -0.00000000000E+00 -0.45593999997E+02  0.45594000000E+02  0.51100000000E-03 0. -1.
    9900012    2    1    2    0    0 -0.19106818315E+02  0.67086420864E+01 -0.35257474566E+02  0.50528857147E+02  0.29999991784E+02 0.  0.
        -12    1    1    2    0    0  0.19106818315E+02 -0.67086420864E+01  0.35257474566E+02  0.40659142853E+02  0.00000000000E+00 0.  1.
         11    1    3    3    0    0 -0.17104810705E+02  0.99482556820E+01 -0.29573013480E+02  0.35582375791E+02  0.51100000000E-03 0. -1.
        -11    1    3    3    0    0  0.23329628663E+01  0.41532486340E+01 -0.39824206089E+01  0.62090147462E+01  0.51100000000E-03 0.  1.
         12    1    3    3    0    0 -0.43349704763E+01 -0.73928622295E+01 -0.17020404769E+01  0.87374666100E+01  0.00000000000E+00 0. -1.
</event>
<event>
 7    1  0.6090311E-013  0.5052886E+02  0.7816164E-02  0.1300439E+00
        -11   -1    0    0    0    0  0.00000000000E+00  0.00000000000E+00  0.45593999997E+02  0.45594000000E+02  0.51100000000E-03 0. -1.
         11   -1    0    0    0    0 -0.00000000000E+00 -0.00000000000E+00 -0.45593999997E+02  0.45594000000E+02  0.51100000000E-03 0.  1.
    9900012    2    1    2    0    0 -0.70923104769E+01  0.20573572411E+02  0.34345203938E+02  0.50528858553E+02  0.29999996058E+02 0.  0.
        -12    1    1    2    0    0  0.70923104769E+01 -0.20573572411E+02 -0.34345203938E+02  0.40659141447E+02  0.00000000000E+00 0.  1.
         11    1    3    3    0    0 -0.59527528683E+01  0.40550926748E+01  0.18416169967E+02  0.19774588740E+02  0.51100000000E-03 0. -1.
        -11    1    3    3    0    0  0.41066603137E+01  0.22539553061E+01  0.14788662180E+02  0.15512881834E+02  0.51100000000E-03 0.  1.
        -12    1    3    3    0    0 -0.52462179223E+01  0.14264524430E+02  0.11403717905E+01  0.15241387979E+02  0.00000000000E+00 0.  1.
</event>
<event>
 7    1  0.6090311E-013  0.5052886E+02  0.7816164E-02  0.1300439E+00
        -11   -1    0    0    0    0  0.00000000000E+00  0.00000000000E+00  0.45593999997E+02  0.45594000000E+02  0.51100000000E-03 0.  1.
         11   -1    0    0    0    0 -0.00000000000E+00 -0.00000000000E+00 -0.45593999997E+02  0.45594000000E+02  0.51100000000E-03 0. -1.
    9900012    2    1    2    0    0  0.38672969226E+02  0.11586579110E+02 -0.48289012180E+01  0.50528860177E+02  0.30000000993E+02 0.  0.
        -12    1    1    2    0    0 -0.38672969226E+02 -0.11586579110E+02  0.48289012180E+01  0.40659139823E+02  0.00000000000E+00 0.  1.
         11    1    3    3    0    0  0.18528719978E+02  0.19618403096E+02  0.54471079280E+00  0.26990589364E+02  0.51100000000E-03 0. -1.
        -11    1    3    3    0    0  0.46463257497E+00  0.91042881582E+00  0.50086245911E+00  0.11382563518E+01  0.51100000000E-03 0.  1.
        -12    1    3    3    0    0  0.19679616673E+02 -0.89422528022E+01 -0.58744744699E+01  0.22400014461E+02  0.00000000000E+00 0.  1.
</event>
<event>
 7    1  0.6090311E-013  0.5052886E+02  0.7816164E-02  0.1300439E+00
        -11   -1    0    0    0    0  0.00000000000E+00  0.00000000000E+00  0.45593999997E+02  0.45594000000E+02  0.51100000000E-03 0.  1.
         11   -1    0    0    0    0 -0.00000000000E+00 -0.00000000000E+00 -0.45593999997E+02  0.45594000000E+02  0.51100000000E-03 0. -1.
    9900012    2    1    2    0    0  0.27441837172E+02  0.28855740283E+02 -0.82132354826E+01  0.50528863121E+02  0.30000009943E+02 0.  0.
        -12    1    1    2    0    0 -0.27441837172E+02 -0.28855740283E+02  0.82132354826E+01  0.40659136879E+02  0.00000000000E+00 0.  1.
         11    1    3    3    0    0  0.62847696191E+01  0.32889625563E+01  0.61156226177E+00  0.71196637928E+01  0.51100000000E-03 0. -1.
        -11    1    3    3    0    0  0.27420812613E+02  0.18778472197E+02 -0.62114401396E+01  0.33809968519E+02  0.51100000000E-03 0.  1.
        -12    1    3    3    0    0 -0.62637450606E+01  0.67883055298E+01 -0.26133576048E+01  0.95992308088E+01  0.00000000000E+00 0.  1.
</event>
<event>
 7    1  0.6090311E-013  0.5052886E+02  0.7816164E-02  0.1300439E+00
        -11   -1    0    0    0    0  0.00000000000E+00  0.00000000000E+00  0.45593999997E+02  0.45594000000E+02  0.51100000000E-03 0.  1.
         11   -1    0    0    0    0 -0.00000000000E+00 -0.00000000000E+00 -0.45593999997E+02  0.45594000000E+02  0.51100000000E-03 0. -1.
    9900012    2    1    2    0    0 -0.21694067964E+02  0.24827995906E+02 -0.23792934794E+02  0.50528859433E+02  0.29999998731E+02 0.  0.
        -12    1    1    2    0    0  0.21694067964E+02 -0.24827995906E+02  0.23792934794E+02  0.40659140567E+02  0.00000000000E+00 0.  1.
         11    1    3    3    0    0 -0.13263230553E+02  0.12874604328E+02 -0.20355589332E+02  0.27495794926E+02  0.51100000000E-03 0. -1.
        -11    1    3    3    0    0 -0.49294699738E+01  0.16374648472E+02 -0.31322210442E+01  0.17385039423E+02  0.51100000000E-03 0.  1.
         12    1    3    3    0    0 -0.35013674367E+01 -0.44212568928E+01 -0.30512441832E+00  0.56480250840E+01  0.00000000000E+00 0. -1.
</event>
<event>
 7    1  0.6090311E-013  0.5052886E+02  0.7816164E-02  0.1300439E+00
        -11   -1    0    0    0    0  0.00000000000E+00  0.00000000000E+00  0.45593999997E+02  0.45594000000E+02  0.51100000000E-03 0. -1.
         11   -1    0    0    0    0 -0.00000000000E+00 -0.00000000000E+00 -0.45593999997E+02  0.45594000000E+02  0.51100000000E-03 0.  1.
    9900012    2    1    2    0    0  0.40081324787E+02 -0.55818000767E+01  0.39365662298E+01  0.50528860284E+02  0.30000001320E+02 0.  0.
        -12    1    1    2    0    0 -0.40081324787E+02  0.55818000767E+01 -0.39365662298E+01  0.40659139716E+02  0.00000000000E+00 0.  1.
         11    1    3    3    0    0  0.98980622223E+01 -0.30424939089E+01  0.13228857550E+02  0.16799734441E+02  0.51100000000E-03 0. -1.
        -11    1    3    3    0    0  0.11384997254E+02 -0.58101252534E+01 -0.69424892900E+00  0.12800691379E+02  0.51100000000E-03 0.  1.
        -12    1    3    3    0    0  0.18798265310E+02  0.32708190856E+01 -0.85980423916E+01  0.20928434465E+02  0.00000000000E+00 0.  1.
</event>
<event>
 7    1  0.6090311E-013  0.5052889E+02  0.7816164E-02  0.1300439E+00
        -11   -1    0    0    0    0  0.00000000000E+00  0.00000000000E+00  0.45593999997E+02  0.45594000000E+02  0.51100000000E-03 0.  1.
         11   -1    0    0    0    0 -0.00000000000E+00 -0.00000000000E+00 -0.45593999997E+02  0.45594000000E+02  0.51100000000E-03 0. -1.
    9900012    2    1    2    0    0  0.38097772348E+02  0.14041926083E+02 -0.21325262136E+01  0.50528885228E+02  0.30000077139E+02 0.  0.
        -12    1    1    2    0    0 -0.38097772348E+02 -0.14041926083E+02  0.21325262136E+01  0.40659114772E+02  0.00000000000E+00 0.  1.
         11    1    3    3    0    0  0.53358396702E+01  0.60099494073E+01 -0.24281608243E+01  0.83956323237E+01  0.51100000000E-03 0. -1.
        -11    1    3    3    0    0  0.26063346632E+02  0.16535653909E+02 -0.24561751208E+01  0.30963828644E+02  0.51100000000E-03 0.  1.
        -12    1    3    3    0    0  0.66985860460E+01 -0.85036772329E+01  0.27518097316E+01  0.11169424260E+02  0.00000000000E+00 0.  1.
</event>
<event>
 7    1  0.6090311E-013  0.5052886E+02  0.7816164E-02  0.1300439E+00
        -11   -1    0    0    0    0  0.00000000000E+00  0.00000000000E+00  0.45593999997E+02  0.45594000000E+02  0.51100000000E-03 0.  1.
         11   -1    0    0    0    0 -0.00000000000E+00 -0.00000000000E+00 -0.45593999997E+02  0.45594000000E+02  0.51100000000E-03 0. -1.
    9900012    2    1    2    0    0  0.75911355567E+01 -0.14266416682E+02 -0.37309646019E+02  0.50528859944E+02  0.30000000287E+02 0.  0.
        -12    1    1    2    0    0 -0.75911355567E+01  0.14266416682E+02  0.37309646019E+02  0.40659140056E+02  0.00000000000E+00 0.  1.
         11    1    3    3    0    0  0.58144185820E+01  0.37653274905E+01 -0.16207979453E+02  0.17626223440E+02  0.51100000000E-03 0. -1.
        -11    1    3    3    0    0  0.71833445861E+01 -0.10410600693E+01 -0.44999723022E+01  0.85401403087E+01  0.51100000000E-03 0.  1.
         12    1    3    3    0    0 -0.54066276113E+01 -0.16990684103E+02 -0.16601694264E+02  0.24362496195E+02  0.00000000000E+00 0. -1.
</event>
<event>
 7    1  0.6090311E-013  0.5052885E+02  0.7816164E-02  0.1300439E+00
        -11   -1    0    0    0    0  0.00000000000E+00  0.00000000000E+00  0.45593999997E+02  0.45594000000E+02  0.51100000000E-03 0.  1.
         11   -1    0    0    0    0 -0.00000000000E+00 -0.00000000000E+00 -0.45593999997E+02  0.45594000000E+02  0.51100000000E-03 0. -1.
    9900012    2    1    2    0    0  0.65799154586E+01  0.30436773580E+02 -0.26143330591E+02  0.50528853332E+02  0.29999980188E+02 0.  0.
        -12    1    1    2    0    0 -0.65799154586E+01 -0.30436773580E+02  0.26143330591E+02  0.40659146668E+02  0.00000000000E+00 0.  1.
         11    1    3    3    0    0  0.58022767838E+01  0.33659317101E+01 -0.13667103905E+01  0.68457146965E+01  0.51100000000E-03 0. -1.
        -11    1    3    3    0    0  0.10775861167E+02  0.21380252839E+02 -0.13102096335E+02  0.27292843824E+02  0.51100000000E-03 0.  1.
         12    1    3    3    0    0 -0.99982224924E+01  0.56905890306E+01 -0.11674523866E+02  0.16390294812E+02  0.00000000000E+00 0. -1.
</event>
<event>
 7    1  0.6090311E-013  0.5052886E+02  0.7816164E-02  0.1300439E+00
        -11   -1    0    0    0    0  0.00000000000E+00  0.00000000000E+00  0.45593999997E+02  0.45594000000E+02  0.51100000000E-03 0. -1.
         11   -1    0    0    0    0 -0.00000000000E+00 -0.00000000000E+00 -0.45593999997E+02  0.45594000000E+02  0.51100000000E-03 0.  1.
    9900012    2    1    2    0    0  0.21477676612E+02  0.17719500744E+02  0.29629280730E+02  0.50528861103E+02  0.30000003809E+02 0.  0.
        -12    1    1    2    0    0 -0.21477676612E+02 -0.17719500744E+02 -0.29629280730E+02  0.40659138897E+02  0.00000000000E+00 0.  1.
         11    1    3    3    0    0  0.15163507706E+02  0.17986101421E+02  0.28583733276E+02  0.37019746333E+02  0.51100000000E-03 0. -1.
        -11    1    3    3    0    0  0.46863404629E+01  0.17310766215E+01  0.60705218252E+01  0.78619112623E+01  0.51100000000E-03 0.  1.
        -12    1    3    3    0    0  0.16278284433E+01 -0.19976772982E+01 -0.50249743714E+01  0.56472035081E+01  0.00000000000E+00 0.  1.
</event>
<event>
 7    1  0.6090311E-013  0.5052886E+02  0.7816164E-02  0.1300439E+00
        -11   -1    0    0    0    0  0.00000000000E+00  0.00000000000E+00  0.45593999997E+02  0.45594000000E+02  0.51100000000E-03 0.  1.
         11   -1    0    0    0    0 -0.00000000000E+00 -0.00000000000E+00 -0.45593999997E+02  0.45594000000E+02  0.51100000000E-03 0. -1.
    9900012    2    1    2    0    0  0.10178342275E+02  0.98599462564E+01 -0.38109690669E+02  0.50528859398E+02  0.29999998625E+02 0.  0.
        -12    1    1    2    0    0 -0.10178342275E+02 -0.98599462564E+01  0.38109690669E+02  0.40659140602E+02  0.00000000000E+00 0.  1.
         11    1    3    3    0    0  0.22000878322E+01  0.13613937373E+02 -0.15318749081E+02  0.20611738183E+02  0.51100000000E-03 0. -1.
        -11    1    3    3    0    0 -0.36090072949E+01 -0.78900236364E-01  0.50038183921E+00  0.36443848793E+01  0.51100000000E-03 0.  1.
         12    1    3    3    0    0  0.11587261738E+02 -0.36750908801E+01 -0.23291323427E+02  0.26272736336E+02  0.00000000000E+00 0. -1.
</event>
<event>
 7    1  0.6090311E-013  0.5052885E+02  0.7816164E-02  0.1300439E+00
        -11   -1    0    0    0    0  0.00000000000E+00  0.00000000000E+00  0.45593999997E+02  0.45594000000E+02  0.51100000000E-03 0.  1.
         11   -1    0    0    0    0 -0.00000000000E+00 -0.00000000000E+00 -0.45593999997E+02  0.45594000000E+02  0.51100000000E-03 0. -1.
    9900012    2    1    2    0    0 -0.22356665111E+02  0.10671833354E+02 -0.32240631593E+02  0.50528845710E+02  0.29999957021E+02 0.  0.
        -12    1    1    2    0    0  0.22356665111E+02 -0.10671833354E+02  0.32240631593E+02  0.40659154290E+02  0.00000000000E+00 0.  1.
         11    1    3    3    0    0 -0.15876192985E+02  0.36965531365E+01 -0.17222090130E+02  0.23713253626E+02  0.51100000000E-03 0. -1.
        -11    1    3    3    0    0 -0.76926509643E+01 -0.24333811407E+01 -0.15330494649E+02  0.17324037898E+02  0.51100000000E-03 0.  1.
         12    1    3    3    0    0  0.12121788378E+01  0.94086613582E+01  0.31195318673E+00  0.94915541867E+01  0.00000000000E+00 0. -1.
</event>
<event>
 7    1  0.6090311E-013  0.5052886E+02  0.7816164E-02  0.1300439E+00
        -11   -1    0    0    0    0  0.00000000000E+00  0.00000000000E+00  0.45593999997E+02  0.45594000000E+02  0.51100000000E-03 0. -1.
         11   -1    0    0    0    0 -0.00000000000E+00 -0.00000000000E+00 -0.45593999997E+02  0.45594000000E+02  0.51100000000E-03 0.  1.
    9900012    2    1    2    0    0 -0.12240851422E+02  0.35654757953E+02  0.15233684004E+02  0.50528864045E+02  0.30000012752E+02 0.  0.
        -12    1    1    2    0    0  0.12240851422E+02 -0.35654757953E+02 -0.15233684004E+02  0.40659135955E+02  0.00000000000E+00 0.  1.
         11    1    3    3    0    0 -0.45810551098E+01  0.24860960755E+02 -0.86893318186E+00  0.25294435766E+02  0.51100000000E-03 0. -1.
        -11    1    3    3    0    0  0.37314363787E+01  0.49790036150E-02  0.28124389091E+01  0.46726282879E+01  0.51100000000E-03 0.  1.
        -12    1    3    3    0    0 -0.11391232691E+02  0.10788818194E+02  0.13290178277E+02  0.20561799991E+02  0.00000000000E+00 0.  1.
</event>
<event>
 7    1  0.6090311E-013  0.5052891E+02  0.7816164E-02  0.1300439E+00
        -11   -1    0    0    0    0  0.00000000000E+00  0.00000000000E+00  0.45593999997E+02  0.45594000000E+02  0.51100000000E-03 0.  1.
         11   -1    0    0    0    0 -0.00000000000E+00 -0.00000000000E+00 -0.45593999997E+02  0.45594000000E+02  0.51100000000E-03 0. -1.
    9900012    2    1    2    0    0  0.31208417962E+02  0.21642522553E+02 -0.14518875667E+02  0.50528906493E+02  0.30000141777E+02 0.  0.
        -12    1    1    2    0    0 -0.31208417962E+02 -0.21642522553E+02  0.14518875667E+02  0.40659093507E+02  0.00000000000E+00 0.  1.
         11    1    3    3    0    0  0.23921265076E+02  0.88886151260E+01 -0.86325580376E+01  0.26939848927E+02  0.51100000000E-03 0. -1.
        -11    1    3    3    0    0 -0.17262183673E+01 -0.29598724679E+01 -0.41633045043E+01  0.53920107135E+01  0.51100000000E-03 0.  1.
        -12    1    3    3    0    0  0.90133712538E+01  0.15713779895E+02 -0.17230131247E+01  0.18197046853E+02  0.00000000000E+00 0.  1.
</event>
<event>
 7    1  0.6090311E-013  0.5052885E+02  0.7816164E-02  0.1300439E+00
        -11   -1    0    0    0    0  0.00000000000E+00  0.00000000000E+00  0.45593999997E+02  0.45594000000E+02  0.51100000000E-03 0.  1.
         11   -1    0    0    0    0 -0.00000000000E+00 -0.00000000000E+00 -0.45593999997E+02  0.45594000000E+02  0.51100000000E-03 0. -1.
    9900012    2    1    2    0    0 -0.31130810140E+01  0.25609340763E+02 -0.31426684285E+02  0.50528854745E+02  0.29999984483E+02 0.  0.
        -12    1    1    2    0    0  0.31130810140E+01 -0.25609340763E+02  0.31426684285E+02  0.40659145255E+02  0.00000000000E+00 0.  1.
         11    1    3    3    0    0 -0.21683724800E+01 -0.19654241199E+01 -0.16652325842E+01  0.33671547342E+01  0.51100000000E-03 0.  1.
        -11    1    3    3    0    0  0.63753396630E+01  0.16376430887E+01 -0.15120904201E+02  0.16491469759E+02  0.51100000000E-03 0. -1.
        -12    1    3    3    0    0 -0.73200481970E+01  0.25937121794E+02 -0.14640547500E+02  0.30670230252E+02  0.00000000000E+00 0.  1.
</event>
<event>
 7    1  0.6090311E-013  0.5052885E+02  0.7816164E-02  0.1300439E+00
        -11   -1    0    0    0    0  0.00000000000E+00  0.00000000000E+00  0.45593999997E+02  0.45594000000E+02  0.51100000000E-03 0.  1.
         11   -1    0    0    0    0 -0.00000000000E+00 -0.00000000000E+00 -0.45593999997E+02  0.45594000000E+02  0.51100000000E-03 0. -1.
    9900012    2    1    2    0    0 -0.12508492130E+02  0.38309484924E+02 -0.53932895868E+01  0.50528848717E+02  0.29999966161E+02 0.  0.
        -12    1    1    2    0    0  0.12508492130E+02 -0.38309484924E+02  0.53932895868E+01  0.40659151283E+02  0.00000000000E+00 0.  1.
         11    1    3    3    0    0 -0.49232323867E+01  0.23147517906E+02 -0.57144574251E+01  0.24345447752E+02  0.51100000000E-03 0. -1.
        -11    1    3    3    0    0 -0.10320056501E+02  0.13947291298E+02  0.71206457295E+01  0.18754575351E+02  0.51100000000E-03 0.  1.
         12    1    3    3    0    0  0.27347967575E+01  0.12146757196E+01 -0.67994778912E+01  0.74288256139E+01  0.00000000000E+00 0. -1.
</event>
<event>
 7    1  0.6090311E-013  0.5052888E+02  0.7816164E-02  0.1300439E+00
        -11   -1    0    0    0    0  0.00000000000E+00  0.00000000000E+00  0.45593999997E+02  0.45594000000E+02  0.51100000000E-03 0.  1.
         11   -1    0    0    0    0 -0.00000000000E+00 -0.00000000000E+00 -0.45593999997E+02  0.45594000000E+02  0.51100000000E-03 0. -1.
    9900012    2    1    2    0    0  0.27434895518E+02 -0.11617728797E+02 -0.27668012088E+02  0.50528880391E+02  0.30000062436E+02 0.  0.
        -12    1    1    2    0    0 -0.27434895518E+02  0.11617728797E+02  0.27668012088E+02  0.40659119609E+02  0.00000000000E+00 0.  1.
         11    1    3    3    0    0  0.73213800186E+01 -0.50294920519E+01 -0.26599848439E+01  0.92722119965E+01  0.51100000000E-03 0. -1.
        -11    1    3    3    0    0  0.19941930124E+02 -0.49548283108E+00 -0.53179507804E+01  0.20644773699E+02  0.51100000000E-03 0.  1.
         12    1    3    3    0    0  0.17158537513E+00 -0.60927539140E+01 -0.19690076464E+02  0.20611894696E+02  0.00000000000E+00 0. -1.
</event>
<event>
 7    1  0.6090311E-013  0.5052885E+02  0.7816164E-02  0.1300439E+00
        -11   -1    0    0    0    0  0.00000000000E+00  0.00000000000E+00  0.45593999997E+02  0.45594000000E+02  0.51100000000E-03 0. -1.
         11   -1    0    0    0    0 -0.00000000000E+00 -0.00000000000E+00 -0.45593999997E+02  0.45594000000E+02  0.51100000000E-03 0.  1.
    9900012    2    1    2    0    0 -0.45696567897E+00 -0.39813916884E+02 -0.82346400198E+01  0.50528854761E+02  0.29999984532E+02 0.  0.
        -12    1    1    2    0    0  0.45696567897E+00  0.39813916884E+02  0.82346400198E+01  0.40659145239E+02  0.00000000000E+00 0.  1.
         11    1    3    3    0    0  0.19665933008E+01 -0.31534739049E+02  0.17642095662E+00  0.31596493171E+02  0.51100000000E-03 0. -1.
        -11    1    3    3    0    0 -0.16855431351E+01 -0.10728815066E+02 -0.78517156877E+00  0.10888756726E+02  0.51100000000E-03 0.  1.
        -12    1    3    3    0    0 -0.73801584467E+00  0.24496372308E+01 -0.76258894077E+01  0.80436048640E+01  0.00000000000E+00 0.  1.
</event>
<event>
 7    1  0.6090311E-013  0.5052886E+02  0.7816164E-02  0.1300439E+00
        -11   -1    0    0    0    0  0.00000000000E+00  0.00000000000E+00  0.45593999997E+02  0.45594000000E+02  0.51100000000E-03 0.  1.
         11   -1    0    0    0    0 -0.00000000000E+00 -0.00000000000E+00 -0.45593999997E+02  0.45594000000E+02  0.51100000000E-03 0. -1.
    9900012    2    1    2    0    0 -0.18500679113E+02 -0.41270766863E+01 -0.35970232289E+02  0.50528862029E+02  0.30000006624E+02 0.  0.
        -12    1    1    2    0    0  0.18500679113E+02  0.41270766863E+01  0.35970232289E+02  0.40659137971E+02  0.00000000000E+00 0.  1.
         11    1    3    3    0    0 -0.16142507982E+02  0.28435278061E+01 -0.20126456538E+02  0.25956511079E+02  0.51100000000E-03 0.  1.
        -11    1    3    3    0    0 -0.78808341212E+01 -0.53936599268E+01 -0.16213655945E+02  0.18817060164E+02  0.51100000000E-03 0. -1.
        -12    1    3    3    0    0  0.55226629909E+01 -0.15769445656E+01  0.36988019426E+00  0.57552907861E+01  0.00000000000E+00 0.  1.
</event>
<event>
 7    1  0.6090311E-013  0.5052887E+02  0.7816164E-02  0.1300439E+00
        -11   -1    0    0    0    0  0.00000000000E+00  0.00000000000E+00  0.45593999997E+02  0.45594000000E+02  0.51100000000E-03 0.  1.
         11   -1    0    0    0    0 -0.00000000000E+00 -0.00000000000E+00 -0.45593999997E+02  0.45594000000E+02  0.51100000000E-03 0. -1.
    9900012    2    1    2    0    0  0.53094002501E+01 -0.29318622192E+02 -0.27665746984E+02  0.50528869482E+02  0.30000029279E+02 0.  0.
        -12    1    1    2    0    0 -0.53094002501E+01  0.29318622192E+02  0.27665746984E+02  0.40659130518E+02  0.00000000000E+00 0.  1.
         11    1    3    3    0    0 -0.20988598627E+01  0.15597843719E+01 -0.25931898342E+01  0.36827671373E+01  0.51100000000E-03 0.  1.
        -11    1    3    3    0    0  0.27191354291E+00  0.21196292137E+01 -0.93727765262E+01  0.96133087462E+01  0.51100000000E-03 0. -1.
         12    1    3    3    0    0  0.71363465700E+01 -0.32998035778E+02 -0.15699780623E+02  0.37232793599E+02  0.00000000000E+00 0. -1.
</event>
<event>
 7    1  0.6090311E-013  0.5052886E+02  0.7816164E-02  0.1300439E+00
        -11   -1    0    0    0    0  0.00000000000E+00  0.00000000000E+00  0.45593999997E+02  0.45594000000E+02  0.51100000000E-03 0.  1.
         11   -1    0    0    0    0 -0.00000000000E+00 -0.00000000000E+00 -0.45593999997E+02  0.45594000000E+02  0.51100000000E-03 0. -1.
    9900012    2    1    2    0    0 -0.12783113679E+02  0.14662017195E+02 -0.35704107215E+02  0.50528855695E+02  0.29999987372E+02 0.  0.
        -12    1    1    2    0    0  0.12783113679E+02 -0.14662017195E+02  0.35704107215E+02  0.40659144305E+02  0.00000000000E+00 0.  1.
         11    1    3    3    0    0  0.64328801298E+01  0.11301788330E+02 -0.57906901587E+01  0.14235324337E+02  0.51100000000E-03 0. -1.
        -11    1    3    3    0    0 -0.78411164879E-01 -0.89361692705E+00 -0.19046808352E+01  0.21053524333E+01  0.51100000000E-03 0.  1.
         12    1    3    3    0    0 -0.19137582644E+02  0.42538457925E+01 -0.28008736221E+02  0.34188178925E+02  0.00000000000E+00 0. -1.
</event>
<event>
 7    1  0.6090311E-013  0.5052886E+02  0.7816164E-02  0.1300439E+00
        -11   -1    0    0    0    0  0.00000000000E+00  0.00000000000E+00  0.45593999997E+02  0.45594000000E+02  0.51100000000E-03 0.  1.
         11   -1    0    0    0    0 -0.00000000000E+00 -0.00000000000E+00 -0.45593999997E+02  0.45594000000E+02  0.51100000000E-03 0. -1.
    9900012    2    1    2    0    0 -0.78335181301E+01 -0.15251034205E+02 -0.36867430745E+02  0.50528862031E+02  0.30000006630E+02 0.  0.
        -12    1    1    2    0    0  0.78335181301E+01  0.15251034205E+02  0.36867430745E+02  0.40659137969E+02  0.00000000000E+00 0.  1.
         11    1    3    3    0    0 -0.13295080485E+02  0.29149157208E+01 -0.12287018439E+02  0.18336486063E+02  0.51100000000E-03 0. -1.
        -11    1    3    3    0    0 -0.18629682251E+01 -0.97653410555E+00 -0.24860214106E+01  0.32564662108E+01  0.51100000000E-03 0.  1.
        -12    1    3    3    0    0  0.73245305795E+01 -0.17189415820E+02 -0.22094390896E+02  0.28935909757E+02  0.00000000000E+00 0.  1.
</event>
<event>
 7    1  0.6090311E-013  0.5052886E+02  0.7816164E-02  0.1300439E+00
        -11   -1    0    0    0    0  0.00000000000E+00  0.00000000000E+00  0.45593999997E+02  0.45594000000E+02  0.51100000000E-03 0.  1.
         11   -1    0    0    0    0 -0.00000000000E+00 -0.00000000000E+00 -0.45593999997E+02  0.45594000000E+02  0.51100000000E-03 0. -1.
    9900012    2    1    2    0    0  0.10578615723E+02 -0.20688859678E+02 -0.33365091818E+02  0.50528863543E+02  0.30000011226E+02 0.  0.
        -12    1    1    2    0    0 -0.10578615723E+02  0.20688859678E+02  0.33365091818E+02  0.40659136457E+02  0.00000000000E+00 0.  1.
         11    1    3    3    0    0  0.15288986714E+01 -0.11253630757E+02 -0.31922141580E+01  0.11797116930E+02  0.51100000000E-03 0. -1.
        -11    1    3    3    0    0 -0.53047233186E+01 -0.69614822955E+01 -0.63670377532E+01  0.10823192470E+02  0.51100000000E-03 0.  1.
        -12    1    3    3    0    0  0.14354440370E+02 -0.24737466260E+01 -0.23805839907E+02  0.27908554143E+02  0.00000000000E+00 0.  1.
</event>
<event>
 7    1  0.6090311E-013  0.5052886E+02  0.7816164E-02  0.1300439E+00
        -11   -1    0    0    0    0  0.00000000000E+00  0.00000000000E+00  0.45593999997E+02  0.45594000000E+02  0.51100000000E-03 0.  1.
         11   -1    0    0    0    0 -0.00000000000E+00 -0.00000000000E+00 -0.45593999997E+02  0.45594000000E+02  0.51100000000E-03 0. -1.
    9900012    2    1    2    0    0 -0.33026130442E+01  0.49602705107E+00 -0.40521752737E+02  0.50528859076E+02  0.29999997648E+02 0.  0.
        -12    1    1    2    0    0  0.33026130442E+01 -0.49602705107E+00  0.40521752737E+02  0.40659140924E+02  0.00000000000E+00 0.  1.
         11    1    3    3    0    0  0.41644114594E+01  0.44189263885E+01 -0.20903197193E+02  0.21767243427E+02  0.51100000000E-03 0. -1.
        -11    1    3    3    0    0  0.49172219158E+01  0.33361266285E+01 -0.25689041106E+01  0.64736450969E+01  0.51100000000E-03 0.  1.
        -12    1    3    3    0    0 -0.12384246419E+02 -0.72590259660E+01 -0.17049651433E+02  0.22287970553E+02  0.00000000000E+00 0.  1.
</event>
<event>
 7    1  0.6090311E-013  0.5052886E+02  0.7816164E-02  0.1300439E+00
        -11   -1    0    0    0    0  0.00000000000E+00  0.00000000000E+00  0.45593999997E+02  0.45594000000E+02  0.51100000000E-03 0. -1.
         11   -1    0    0    0    0 -0.00000000000E+00 -0.00000000000E+00 -0.45593999997E+02  0.45594000000E+02  0.51100000000E-03 0.  1.
    9900012    2    1    2    0    0  0.13463533283E+01  0.40358023358E+02  0.47521644197E+01  0.50528858552E+02  0.29999996054E+02 0.  0.
        -12    1    1    2    0    0 -0.13463533283E+01 -0.40358023358E+02 -0.47521644197E+01  0.40659141448E+02  0.00000000000E+00 0.  1.
         11    1    3    3    0    0 -0.69536623256E+01  0.10997394431E+02 -0.21914090211E+01  0.13194634431E+02  0.51100000000E-03 0. -1.
        -11    1    3    3    0    0 -0.38818038792E+01  0.15312334868E+02 -0.32521411967E+01  0.16128001212E+02  0.51100000000E-03 0.  1.
         12    1    3    3    0    0  0.12181819533E+02  0.14048294059E+02  0.10195714637E+02  0.21206222909E+02  0.00000000000E+00 0. -1.
</event>
<event>
 7    1  0.6090311E-013  0.5052885E+02  0.7816164E-02  0.1300439E+00
        -11   -1    0    0    0    0  0.00000000000E+00  0.00000000000E+00  0.45593999997E+02  0.45594000000E+02  0.51100000000E-03 0. -1.
         11   -1    0    0    0    0 -0.00000000000E+00 -0.00000000000E+00 -0.45593999997E+02  0.45594000000E+02  0.51100000000E-03 0.  1.
    9900012    2    1    2    0    0  0.54376303747E+00  0.39585321852E+02  0.92667732291E+01  0.50528850102E+02  0.29999970369E+02 0.  0.
        -12    1    1    2    0    0 -0.54376303747E+00 -0.39585321852E+02 -0.92667732291E+01  0.40659149898E+02  0.00000000000E+00 0.  1.
         11    1    3    3    0    0  0.94622737773E+01  0.14170155580E+02  0.13822681420E+02  0.21940703182E+02  0.51100000000E-03 0. -1.
        -11    1    3    3    0    0  0.59758559446E+00  0.80571652052E+01  0.69226238435E+00  0.81088992568E+01  0.51100000000E-03 0.  1.
        -12    1    3    3    0    0 -0.95160963343E+01  0.17358001067E+02 -0.52481705751E+01  0.20479247663E+02  0.00000000000E+00 0.  1.
</event>
<event>
 7    1  0.6090311E-013  0.5052886E+02  0.7816164E-02  0.1300439E+00
        -11   -1    0    0    0    0  0.00000000000E+00  0.00000000000E+00  0.45593999997E+02  0.45594000000E+02  0.51100000000E-03 0.  1.
         11   -1    0    0    0    0 -0.00000000000E+00 -0.00000000000E+00 -0.45593999997E+02  0.45594000000E+02  0.51100000000E-03 0. -1.
    9900012    2    1    2    0    0  0.38541860796E+02  0.11697313906E+02 -0.55554846271E+01  0.50528860859E+02  0.30000003066E+02 0.  0.
        -12    1    1    2    0    0 -0.38541860796E+02 -0.11697313906E+02  0.55554846271E+01  0.40659139141E+02  0.00000000000E+00 0.  1.
         11    1    3    3    0    0  0.30042307385E+01  0.76513260735E+00  0.12791378717E+01  0.33536583298E+01  0.51100000000E-03 0. -1.
        -11    1    3    3    0    0  0.11913370053E+02  0.39069539138E+01  0.11058936698E+02  0.16718036848E+02  0.51100000000E-03 0.  1.
         12    1    3    3    0    0  0.23624260005E+02  0.70252273851E+01 -0.17893559197E+02  0.30457165681E+02  0.00000000000E+00 0. -1.
</event>
<event>
 7    1  0.6090311E-013  0.5052885E+02  0.7816164E-02  0.1300439E+00
        -11   -1    0    0    0    0  0.00000000000E+00  0.00000000000E+00  0.45593999997E+02  0.45594000000E+02  0.51100000000E-03 0.  1.
         11   -1    0    0    0    0 -0.00000000000E+00 -0.00000000000E+00 -0.45593999997E+02  0.45594000000E+02  0.51100000000E-03 0. -1.
    9900012    2    1    2    0    0  0.39548369668E+02 -0.77494560074E+01  0.53888027356E+01  0.50528845966E+02  0.29999957798E+02 0.  0.
        -12    1    1    2    0    0 -0.39548369668E+02  0.77494560074E+01 -0.53888027356E+01  0.40659154034E+02  0.00000000000E+00 0.  1.
         11    1    3    3    0    0  0.58396653998E+01 -0.44626416934E+01 -0.17456276325E+01  0.75540769759E+01  0.51100000000E-03 0.  1.
        -11    1    3    3    0    0  0.18468066857E+02 -0.48922346000E+01 -0.86523725702E+01  0.20973006560E+02  0.51100000000E-03 0. -1.
        -12    1    3    3    0    0  0.15240637412E+02  0.16054202860E+01  0.15786802938E+02  0.22001762430E+02  0.00000000000E+00 0.  1.
</event>
<event>
 7    1  0.6090311E-013  0.5052886E+02  0.7816164E-02  0.1300439E+00
        -11   -1    0    0    0    0  0.00000000000E+00  0.00000000000E+00  0.45593999997E+02  0.45594000000E+02  0.51100000000E-03 0.  1.
         11   -1    0    0    0    0 -0.00000000000E+00 -0.00000000000E+00 -0.45593999997E+02  0.45594000000E+02  0.51100000000E-03 0. -1.
    9900012    2    1    2    0    0  0.15365660123E+02  0.17413787609E+02 -0.33373979070E+02  0.50528856023E+02  0.29999988369E+02 0.  0.
        -12    1    1    2    0    0 -0.15365660123E+02 -0.17413787609E+02  0.33373979070E+02  0.40659143977E+02  0.00000000000E+00 0.  1.
         11    1    3    3    0    0  0.60439096120E+01  0.13726206324E+02 -0.76870404758E+01  0.16853135464E+02  0.51100000000E-03 0. -1.
        -11    1    3    3    0    0  0.14971131784E+02  0.53002622434E+01 -0.18095355811E+02  0.24076325902E+02  0.51100000000E-03 0.  1.
         12    1    3    3    0    0 -0.56493812724E+01 -0.16126809579E+01 -0.75915827832E+01  0.95993946573E+01  0.00000000000E+00 0. -1.
</event>
<event>
 7    1  0.6090311E-013  0.5052885E+02  0.7816164E-02  0.1300439E+00
        -11   -1    0    0    0    0  0.00000000000E+00  0.00000000000E+00  0.45593999997E+02  0.45594000000E+02  0.51100000000E-03 0.  1.
         11   -1    0    0    0    0 -0.00000000000E+00 -0.00000000000E+00 -0.45593999997E+02  0.45594000000E+02  0.51100000000E-03 0. -1.
    9900012    2    1    2    0    0  0.24950792820E+02 -0.23056788887E+01 -0.32020430337E+02  0.50528853718E+02  0.29999981360E+02 0.  0.
        -12    1    1    2    0    0 -0.24950792820E+02  0.23056788887E+01  0.32020430337E+02  0.40659146282E+02  0.00000000000E+00 0.  1.
         11    1    3    3    0    0 -0.40698256590E+01 -0.28866556757E+00 -0.38764854037E+01  0.56279612695E+01  0.51100000000E-03 0. -1.
        -11    1    3    3    0    0  0.50590567036E+01  0.69392426323E+01 -0.11614372003E+02  0.14444403080E+02  0.51100000000E-03 0.  1.
         12    1    3    3    0    0  0.23961561775E+02 -0.89562559534E+01 -0.16529572930E+02  0.30456489368E+02  0.00000000000E+00 0. -1.
</event>
<event>
 7    1  0.6090311E-013  0.5052887E+02  0.7816164E-02  0.1300439E+00
        -11   -1    0    0    0    0  0.00000000000E+00  0.00000000000E+00  0.45593999997E+02  0.45594000000E+02  0.51100000000E-03 0. -1.
         11   -1    0    0    0    0 -0.00000000000E+00 -0.00000000000E+00 -0.45593999997E+02  0.45594000000E+02  0.51100000000E-03 0.  1.
    9900012    2    1    2    0    0 -0.39362600700E+02  0.40581583521E+00 -0.10177704660E+02  0.50528871966E+02  0.30000036828E+02 0.  0.
        -12    1    1    2    0    0  0.39362600700E+02 -0.40581583521E+00  0.10177704660E+02  0.40659128034E+02  0.00000000000E+00 0.  1.
         11    1    3    3    0    0 -0.14830777816E+02  0.74121349550E+01 -0.96038695199E+01  0.19160533010E+02  0.51100000000E-03 0. -1.
        -11    1    3    3    0    0 -0.18251884068E+02 -0.19846441638E+01 -0.83620514531E+01  0.20174092031E+02  0.51100000000E-03 0.  1.
        -12    1    3    3    0    0 -0.62799388154E+01 -0.50216749560E+01  0.77882163129E+01  0.11194246925E+02  0.00000000000E+00 0.  1.
</event>
<event>
 7    1  0.6090311E-013  0.5052888E+02  0.7816164E-02  0.1300439E+00
        -11   -1    0    0    0    0  0.00000000000E+00  0.00000000000E+00  0.45593999997E+02  0.45594000000E+02  0.51100000000E-03 0.  1.
         11   -1    0    0    0    0 -0.00000000000E+00 -0.00000000000E+00 -0.45593999997E+02  0.45594000000E+02  0.51100000000E-03 0. -1.
    9900012    2    1    2    0    0 -0.18964138117E+02 -0.32767150334E+02 -0.14826990872E+02  0.50528876377E+02  0.30000050234E+02 0.  0.
        -12    1    1    2    0    0  0.18964138117E+02  0.32767150334E+02  0.14826990872E+02  0.40659123623E+02  0.00000000000E+00 0.  1.
         11    1    3    3    0    0 -0.14975742226E+02 -0.14920723569E+02 -0.35366946685E+01  0.21433829721E+02  0.51100000000E-03 0. -1.
        -11    1    3    3    0    0 -0.90918390180E+01 -0.18750089587E+02 -0.59901631111E+01  0.21682007532E+02  0.51100000000E-03 0.  1.
        -12    1    3    3    0    0  0.51034431276E+01  0.90366282243E+00 -0.53001330928E+01  0.74130391241E+01  0.00000000000E+00 0.  1.
</event>
<event>
 7    1  0.6090311E-013  0.5052886E+02  0.7816164E-02  0.1300439E+00
        -11   -1    0    0    0    0  0.00000000000E+00  0.00000000000E+00  0.45593999997E+02  0.45594000000E+02  0.51100000000E-03 0.  1.
         11   -1    0    0    0    0 -0.00000000000E+00 -0.00000000000E+00 -0.45593999997E+02  0.45594000000E+02  0.51100000000E-03 0. -1.
    9900012    2    1    2    0    0  0.28993279003E+02  0.13836581094E+02 -0.24921963996E+02  0.50528862120E+02  0.30000006901E+02 0.  0.
        -12    1    1    2    0    0 -0.28993279003E+02 -0.13836581094E+02  0.24921963996E+02  0.40659137880E+02  0.00000000000E+00 0.  1.
         11    1    3    3    0    0  0.31282599243E+02  0.74414189987E+01 -0.23028199402E+02  0.39550900117E+02  0.51100000000E-03 0. -1.
        -11    1    3    3    0    0 -0.31213409132E+01  0.31176124789E+01 -0.47998534304E+01  0.65192691216E+01  0.51100000000E-03 0.  1.
        -12    1    3    3    0    0  0.83202067299E+00  0.32775496159E+01  0.29060888365E+01  0.44586928814E+01  0.00000000000E+00 0.  1.
</event>
<event>
 7    1  0.6090311E-013  0.5052887E+02  0.7816164E-02  0.1300439E+00
        -11   -1    0    0    0    0  0.00000000000E+00  0.00000000000E+00  0.45593999997E+02  0.45594000000E+02  0.51100000000E-03 0.  1.
         11   -1    0    0    0    0 -0.00000000000E+00 -0.00000000000E+00 -0.45593999997E+02  0.45594000000E+02  0.51100000000E-03 0. -1.
    9900012    2    1    2    0    0  0.18177998519E+02  0.35158066553E+02 -0.93078283228E+01  0.50528868898E+02  0.30000027502E+02 0.  0.
        -12    1    1    2    0    0 -0.18177998519E+02 -0.35158066553E+02  0.93078283228E+01  0.40659131102E+02  0.00000000000E+00 0.  1.
         11    1    3    3    0    0  0.82068650965E+01  0.17772563048E+02 -0.53326039716E+01  0.20289240927E+02  0.51100000000E-03 0. -1.
        -11    1    3    3    0    0  0.68598226981E+01  0.17038825496E+02 -0.11786547738E+02  0.21824331595E+02  0.51100000000E-03 0.  1.
        -12    1    3    3    0    0  0.31113107241E+01  0.34667800974E+00  0.78113233863E+01  0.84152963768E+01  0.00000000000E+00 0.  1.
</event>
<event>
 7    1  0.6090311E-013  0.5052885E+02  0.7816164E-02  0.1300439E+00
        -11   -1    0    0    0    0  0.00000000000E+00  0.00000000000E+00  0.45593999997E+02  0.45594000000E+02  0.51100000000E-03 0. -1.
         11   -1    0    0    0    0 -0.00000000000E+00 -0.00000000000E+00 -0.45593999997E+02  0.45594000000E+02  0.51100000000E-03 0.  1.
    9900012    2    1    2    0    0  0.37109725443E+02 -0.15853940540E+02 -0.49686027529E+01  0.50528853841E+02  0.29999981735E+02 0.  0.
        -12    1    1    2    0    0 -0.37109725443E+02  0.15853940540E+02  0.49686027529E+01  0.40659146159E+02  0.00000000000E+00 0.  1.
         11    1    3    3    0    0  0.46083207730E+01 -0.23015689658E+01  0.76219410891E+01  0.91993383609E+01  0.51100000000E-03 0.  1.
        -11    1    3    3    0    0  0.80098043664E+01  0.41963541280E+01 -0.39921494760E+01  0.98845137289E+01  0.51100000000E-03 0. -1.
         12    1    3    3    0    0  0.24491600303E+02 -0.17748725702E+02 -0.85983943660E+01  0.31445001751E+02  0.00000000000E+00 0. -1.
</event>
<event>
 7    1  0.6090311E-013  0.5052871E+02  0.7816164E-02  0.1300439E+00
        -11   -1    0    0    0    0  0.00000000000E+00  0.00000000000E+00  0.45593999997E+02  0.45594000000E+02  0.51100000000E-03 0.  1.
         11   -1    0    0    0    0 -0.00000000000E+00 -0.00000000000E+00 -0.45593999997E+02  0.45594000000E+02  0.51100000000E-03 0. -1.
    9900012    2    1    2    0    0 -0.12933774089E+02  0.20037458614E+02 -0.32930157785E+02  0.50528713832E+02  0.29999556162E+02 0.  0.
        -12    1    1    2    0    0  0.12933774089E+02 -0.20037458614E+02  0.32930157785E+02  0.40659286168E+02  0.00000000000E+00 0.  1.
         11    1    3    3    0    0 -0.86034713059E+01  0.66246714974E+01 -0.14856821817E+02  0.18401933206E+02  0.51100000000E-03 0. -1.
        -11    1    3    3    0    0 -0.10742342113E+02 -0.91957555676E+00 -0.85768814929E+01  0.13777025430E+02  0.51100000000E-03 0.  1.
         12    1    3    3    0    0  0.64120393299E+01  0.14332362674E+02 -0.94964544745E+01  0.18349755196E+02  0.00000000000E+00 0. -1.
</event>
<event>
 7    1  0.6090311E-013  0.5052889E+02  0.7816164E-02  0.1300439E+00
        -11   -1    0    0    0    0  0.00000000000E+00  0.00000000000E+00  0.45593999997E+02  0.45594000000E+02  0.51100000000E-03 0. -1.
         11   -1    0    0    0    0 -0.00000000000E+00 -0.00000000000E+00 -0.45593999997E+02  0.45594000000E+02  0.51100000000E-03 0.  1.
    9900012    2    1    2    0    0  0.35033943416E+02  0.13788651068E+02  0.15351191579E+02  0.50528890659E+02  0.30000093646E+02 0.  0.
        -12    1    1    2    0    0 -0.35033943416E+02 -0.13788651068E+02 -0.15351191579E+02  0.40659109341E+02  0.00000000000E+00 0.  1.
         11    1    3    3    0    0  0.96331041543E+01  0.88496694881E+01 -0.41647786132E+01  0.13728027056E+02  0.51100000000E-03 0. -1.
        -11    1    3    3    0    0  0.57012409647E+01 -0.21605203728E+00 -0.29972801389E+01  0.64447277299E+01  0.51100000000E-03 0.  1.
         12    1    3    3    0    0  0.19699598297E+02  0.51550336175E+01  0.22513250331E+02  0.30356135873E+02  0.00000000000E+00 0. -1.
</event>
<event>
 7    1  0.6090311E-013  0.5052886E+02  0.7816164E-02  0.1300439E+00
        -11   -1    0    0    0    0  0.00000000000E+00  0.00000000000E+00  0.45593999997E+02  0.45594000000E+02  0.51100000000E-03 0. -1.
         11   -1    0    0    0    0 -0.00000000000E+00 -0.00000000000E+00 -0.45593999997E+02  0.45594000000E+02  0.51100000000E-03 0.  1.
    9900012    2    1    2    0    0 -0.81292501589E+01  0.33943098149E+02  0.20855378832E+02  0.50528862696E+02  0.30000008651E+02 0.  0.
        -12    1    1    2    0    0  0.81292501589E+01 -0.33943098149E+02 -0.20855378832E+02  0.40659137304E+02  0.00000000000E+00 0.  1.
         11    1    3    3    0    0 -0.85906302988E+01  0.78790690455E+01 -0.48088272317E+00  0.11666615036E+02  0.51100000000E-03 0. -1.
        -11    1    3    3    0    0 -0.41812941891E+01  0.43517878228E-02 -0.91728163819E+00  0.42807295989E+01  0.51100000000E-03 0.  1.
         12    1    3    3    0    0  0.46426743289E+01  0.26059677315E+02  0.22253543194E+02  0.34581518061E+02  0.00000000000E+00 0. -1.
</event>
<event>
 7    1  0.6090311E-013  0.5052886E+02  0.7816164E-02  0.1300439E+00
        -11   -1    0    0    0    0  0.00000000000E+00  0.00000000000E+00  0.45593999997E+02  0.45594000000E+02  0.51100000000E-03 0.  1.
         11   -1    0    0    0    0 -0.00000000000E+00 -0.00000000000E+00 -0.45593999997E+02  0.45594000000E+02  0.51100000000E-03 0. -1.
    9900012    2    1    2    0    0  0.24870348167E+02  0.32068734291E+02 -0.24955084098E+01  0.50528862045E+02  0.30000006673E+02 0.  0.
        -12    1    1    2    0    0 -0.24870348167E+02 -0.32068734291E+02  0.24955084098E+01  0.40659137955E+02  0.00000000000E+00 0.  1.
         11    1    3    3    0    0  0.45974722431E-01  0.15973657693E+01  0.10433798226E+01  0.19084896624E+01  0.51100000000E-03 0. -1.
        -11    1    3    3    0    0  0.14025964109E+02 -0.17991958491E+01 -0.35961754049E+01  0.14590999030E+02  0.51100000000E-03 0.  1.
         12    1    3    3    0    0  0.10798409336E+02  0.32270564371E+02  0.57287172458E-01  0.34029373353E+02  0.00000000000E+00 0. -1.
</event>
<event>
 7    1  0.6090311E-013  0.5052887E+02  0.7816164E-02  0.1300439E+00
        -11   -1    0    0    0    0  0.00000000000E+00  0.00000000000E+00  0.45593999997E+02  0.45594000000E+02  0.51100000000E-03 0.  1.
         11   -1    0    0    0    0 -0.00000000000E+00 -0.00000000000E+00 -0.45593999997E+02  0.45594000000E+02  0.51100000000E-03 0. -1.
    9900012    2    1    2    0    0  0.17168264628E+02  0.36834350265E+02 -0.12831048111E+01  0.50528867843E+02  0.30000024297E+02 0.  0.
        -12    1    1    2    0    0 -0.17168264628E+02 -0.36834350265E+02  0.12831048111E+01  0.40659132157E+02  0.00000000000E+00 0.  1.
         11    1    3    3    0    0  0.72788357191E+01  0.39449988535E+00 -0.18482558275E+01  0.75201814772E+01  0.51100000000E-03 0.  1.
        -11    1    3    3    0    0  0.12934949167E+02  0.11519238038E+02 -0.32245048728E+01  0.17618262878E+02  0.51100000000E-03 0. -1.
         12    1    3    3    0    0 -0.30455202577E+01  0.24920612342E+02  0.37896558893E+01  0.25390423488E+02  0.00000000000E+00 0. -1.
</event>
<event>
 7    1  0.6090311E-013  0.5052886E+02  0.7816164E-02  0.1300439E+00
        -11   -1    0    0    0    0  0.00000000000E+00  0.00000000000E+00  0.45593999997E+02  0.45594000000E+02  0.51100000000E-03 0.  1.
         11   -1    0    0    0    0 -0.00000000000E+00 -0.00000000000E+00 -0.45593999997E+02  0.45594000000E+02  0.51100000000E-03 0. -1.
    9900012    2    1    2    0    0  0.13076818746E+02 -0.21827008748E+02 -0.31713469370E+02  0.50528860328E+02  0.30000001453E+02 0.  0.
        -12    1    1    2    0    0 -0.13076818746E+02  0.21827008748E+02  0.31713469370E+02  0.40659139672E+02  0.00000000000E+00 0.  1.
         11    1    3    3    0    0  0.70218843065E+01 -0.11909422686E+02 -0.61672451222E+01  0.15138564020E+02  0.51100000000E-03 0. -1.
        -11    1    3    3    0    0  0.87857396523E+01 -0.12499754750E+02 -0.76180500736E+01  0.17072427397E+02  0.51100000000E-03 0.  1.
        -12    1    3    3    0    0 -0.27308052126E+01  0.25821686879E+01 -0.17928174174E+02  0.18317868911E+02  0.00000000000E+00 0.  1.
</event>
<event>
 7    1  0.6090311E-013  0.5052886E+02  0.7816164E-02  0.1300439E+00
        -11   -1    0    0    0    0  0.00000000000E+00  0.00000000000E+00  0.45593999997E+02  0.45594000000E+02  0.51100000000E-03 0.  1.
         11   -1    0    0    0    0 -0.00000000000E+00 -0.00000000000E+00 -0.45593999997E+02  0.45594000000E+02  0.51100000000E-03 0. -1.
    9900012    2    1    2    0    0 -0.23984306822E+02  0.21746453841E+02 -0.24596964447E+02  0.50528857259E+02  0.29999992125E+02 0.  0.
        -12    1    1    2    0    0  0.23984306822E+02 -0.21746453841E+02  0.24596964447E+02  0.40659142741E+02  0.00000000000E+00 0.  1.
         11    1    3    3    0    0 -0.46806382933E+01  0.10938248206E+02 -0.21992583309E+01  0.12099189481E+02  0.51100000000E-03 0. -1.
        -11    1    3    3    0    0 -0.17229716251E+02  0.13134865379E+02 -0.25883145117E+02  0.33753888844E+02  0.51100000000E-03 0.  1.
        -12    1    3    3    0    0 -0.20739522773E+01 -0.23266597440E+01  0.34854390009E+01  0.46757789342E+01  0.00000000000E+00 0.  1.
</event>
<event>
 7    1  0.6090311E-013  0.5052887E+02  0.7816164E-02  0.1300439E+00
        -11   -1    0    0    0    0  0.00000000000E+00  0.00000000000E+00  0.45593999997E+02  0.45594000000E+02  0.51100000000E-03 0.  1.
         11   -1    0    0    0    0 -0.00000000000E+00 -0.00000000000E+00 -0.45593999997E+02  0.45594000000E+02  0.51100000000E-03 0. -1.
    9900012    2    1    2    0    0  0.90623396498E+01 -0.92574559242E+01 -0.38540091783E+02  0.50528866158E+02  0.30000019174E+02 0.  0.
        -12    1    1    2    0    0 -0.90623396498E+01  0.92574559242E+01  0.38540091783E+02  0.40659133842E+02  0.00000000000E+00 0.  1.
         11    1    3    3    0    0  0.87757532361E+01 -0.97337602287E+01 -0.12603314526E+02  0.18182504513E+02  0.51100000000E-03 0. -1.
        -11    1    3    3    0    0 -0.91754290085E+01 -0.17134161832E+01 -0.99670211310E+01  0.13655248185E+02  0.51100000000E-03 0.  1.
         12    1    3    3    0    0  0.94620154222E+01  0.21897204876E+01 -0.15969756126E+02  0.18691113460E+02  0.00000000000E+00 0. -1.
</event>
<event>
 7    1  0.6090311E-013  0.5052894E+02  0.7816164E-02  0.1300438E+00
        -11   -1    0    0    0    0  0.00000000000E+00  0.00000000000E+00  0.45593999997E+02  0.45594000000E+02  0.51100000000E-03 0.  1.
         11   -1    0    0    0    0 -0.00000000000E+00 -0.00000000000E+00 -0.45593999997E+02  0.45594000000E+02  0.51100000000E-03 0. -1.
    9900012    2    1    2    0    0  0.83375675382E+01 -0.19614900523E+02 -0.34625128857E+02  0.50528943157E+02  0.30000253219E+02 0.  0.
        -12    1    1    2    0    0 -0.83375675382E+01  0.19614900523E+02  0.34625128857E+02  0.40659056843E+02  0.00000000000E+00 0.  1.
         11    1    3    3    0    0 -0.29799824083E+01 -0.87727248907E+00  0.30122528799E+01  0.43270740515E+01  0.51100000000E-03 0. -1.
        -11    1    3    3    0    0  0.12343482259E+01 -0.42487585694E+00  0.14031717710E+01  0.19165141055E+01  0.51100000000E-03 0.  1.
         12    1    3    3    0    0  0.10083201721E+02 -0.18312752177E+02 -0.39040553508E+02  0.44285355000E+02  0.00000000000E+00 0. -1.
</event>
<event>
 7    1  0.6090311E-013  0.5052889E+02  0.7816164E-02  0.1300439E+00
        -11   -1    0    0    0    0  0.00000000000E+00  0.00000000000E+00  0.45593999997E+02  0.45594000000E+02  0.51100000000E-03 0. -1.
         11   -1    0    0    0    0 -0.00000000000E+00 -0.00000000000E+00 -0.45593999997E+02  0.45594000000E+02  0.51100000000E-03 0.  1.
    9900012    2    1    2    0    0  0.36963930577E+02 -0.16729877997E+02  0.26348256392E+01  0.50528889242E+02  0.30000089339E+02 0.  0.
        -12    1    1    2    0    0 -0.36963930577E+02  0.16729877997E+02 -0.26348256392E+01  0.40659110758E+02  0.00000000000E+00 0.  1.
         11    1    3    3    0    0  0.28860450510E+02 -0.42804336060E+01 -0.10328987578E+01  0.29194427475E+02  0.51100000000E-03 0. -1.
        -11    1    3    3    0    0  0.35854691977E+01 -0.59397045286E+01  0.93071820887E+01  0.11608588112E+02  0.51100000000E-03 0.  1.
        -12    1    3    3    0    0  0.45180108690E+01 -0.65097398627E+01 -0.56394576918E+01  0.97258736548E+01  0.00000000000E+00 0.  1.
</event>
<event>
 7    1  0.6090311E-013  0.5052886E+02  0.7816164E-02  0.1300439E+00
        -11   -1    0    0    0    0  0.00000000000E+00  0.00000000000E+00  0.45593999997E+02  0.45594000000E+02  0.51100000000E-03 0. -1.
         11   -1    0    0    0    0 -0.00000000000E+00 -0.00000000000E+00 -0.45593999997E+02  0.45594000000E+02  0.51100000000E-03 0.  1.
    9900012    2    1    2    0    0  0.27161313673E+02 -0.10089271174E+02 -0.28524300077E+02  0.50528855295E+02  0.29999986153E+02 0.  0.
        -12    1    1    2    0    0 -0.27161313673E+02  0.10089271174E+02  0.28524300077E+02  0.40659144705E+02  0.00000000000E+00 0.  1.
         11    1    3    3    0    0  0.22976000889E+02 -0.15406188012E+02 -0.29074240813E+02  0.40131767031E+02  0.51100000000E-03 0. -1.
        -11    1    3    3    0    0 -0.95088358298E+00 -0.10561555534E+01 -0.13870906412E+01  0.19858662718E+01  0.51100000000E-03 0.  1.
        -12    1    3    3    0    0  0.51361963676E+01  0.63730723920E+01  0.19370313769E+01  0.84112219918E+01  0.00000000000E+00 0.  1.
</event>
<event>
 7    1  0.6090311E-013  0.5052886E+02  0.7816164E-02  0.1300439E+00
        -11   -1    0    0    0    0  0.00000000000E+00  0.00000000000E+00  0.45593999997E+02  0.45594000000E+02  0.51100000000E-03 0.  1.
         11   -1    0    0    0    0 -0.00000000000E+00 -0.00000000000E+00 -0.45593999997E+02  0.45594000000E+02  0.51100000000E-03 0. -1.
    9900012    2    1    2    0    0  0.16332649390E+01 -0.27459229050E+02 -0.29941426661E+02  0.50528857794E+02  0.29999993752E+02 0.  0.
        -12    1    1    2    0    0 -0.16332649390E+01  0.27459229050E+02  0.29941426661E+02  0.40659142206E+02  0.00000000000E+00 0.  1.
         11    1    3    3    0    0  0.33482359735E+01 -0.17557593377E+02 -0.20478157059E+02  0.27181513683E+02  0.51100000000E-03 0. -1.
        -11    1    3    3    0    0  0.54321465456E+01  0.17674543257E+01 -0.76445360741E+01  0.95431149493E+01  0.51100000000E-03 0.  1.
         12    1    3    3    0    0 -0.71471175802E+01 -0.11669089999E+02 -0.18187335283E+01  0.13804229162E+02  0.00000000000E+00 0. -1.
</event>
<event>
 7    1  0.6090311E-013  0.5052886E+02  0.7816164E-02  0.1300439E+00
        -11   -1    0    0    0    0  0.00000000000E+00  0.00000000000E+00  0.45593999997E+02  0.45594000000E+02  0.51100000000E-03 0. -1.
         11   -1    0    0    0    0 -0.00000000000E+00 -0.00000000000E+00 -0.45593999997E+02  0.45594000000E+02  0.51100000000E-03 0.  1.
    9900012    2    1    2    0    0 -0.12562765624E+02  0.13274539188E+02  0.36319820932E+02  0.50528857568E+02  0.29999993063E+02 0.  0.
        -12    1    1    2    0    0  0.12562765624E+02 -0.13274539188E+02 -0.36319820932E+02  0.40659142432E+02  0.00000000000E+00 0.  1.
         11    1    3    3    0    0 -0.39937802850E+01 -0.12999069207E+01  0.18169371888E+02  0.18648488250E+02  0.51100000000E-03 0. -1.
        -11    1    3    3    0    0 -0.43690126190E+01 -0.13105206434E+01  0.14292487347E+02  0.15002697439E+02  0.51100000000E-03 0.  1.
        -12    1    3    3    0    0 -0.41999727202E+01  0.15884966752E+02  0.38579616972E+01  0.16877671878E+02  0.00000000000E+00 0.  1.
</event>
<event>
 7    1  0.6090311E-013  0.5052886E+02  0.7816164E-02  0.1300439E+00
        -11   -1    0    0    0    0  0.00000000000E+00  0.00000000000E+00  0.45593999997E+02  0.45594000000E+02  0.51100000000E-03 0. -1.
         11   -1    0    0    0    0 -0.00000000000E+00 -0.00000000000E+00 -0.45593999997E+02  0.45594000000E+02  0.51100000000E-03 0.  1.
    9900012    2    1    2    0    0  0.12286071940E+02  0.27882472338E+02  0.26921853047E+02  0.50528855901E+02  0.29999987995E+02 0.  0.
        -12    1    1    2    0    0 -0.12286071940E+02 -0.27882472338E+02 -0.26921853047E+02  0.40659144099E+02  0.00000000000E+00 0.  1.
         11    1    3    3    0    0  0.13935025386E+02  0.13511756266E+02  0.76601233165E+01  0.20866959036E+02  0.51100000000E-03 0. -1.
        -11    1    3    3    0    0  0.18969582230E+01  0.10606673932E+02  0.11614326890E+01  0.10837384765E+02  0.51100000000E-03 0.  1.
        -12    1    3    3    0    0 -0.35459116694E+01  0.37640421404E+01  0.18100297042E+02  0.18824512100E+02  0.00000000000E+00 0.  1.
</event>
<event>
 7    1  0.6090311E-013  0.5052888E+02  0.7816164E-02  0.1300439E+00
        -11   -1    0    0    0    0  0.00000000000E+00  0.00000000000E+00  0.45593999997E+02  0.45594000000E+02  0.51100000000E-03 0.  1.
         11   -1    0    0    0    0 -0.00000000000E+00 -0.00000000000E+00 -0.45593999997E+02  0.45594000000E+02  0.51100000000E-03 0. -1.
    9900012    2    1    2    0    0  0.28904621416E+02  0.20109849262E+02 -0.20329304825E+02  0.50528882804E+02  0.30000069770E+02 0.  0.
        -12    1    1    2    0    0 -0.28904621416E+02 -0.20109849262E+02  0.20329304825E+02  0.40659117196E+02  0.00000000000E+00 0.  1.
         11    1    3    3    0    0  0.62004126514E+01  0.67736378076E+01 -0.78230880623E+01  0.12063498385E+02  0.51100000000E-03 0. -1.
        -11    1    3    3    0    0  0.49237400714E+01 -0.15429030906E+00 -0.15205655837E+02  0.15983710191E+02  0.51100000000E-03 0.  1.
         12    1    3    3    0    0  0.17780468693E+02  0.13490501763E+02  0.26994390741E+01  0.22481674228E+02  0.00000000000E+00 0. -1.
</event>
<event>
 7    1  0.6090311E-013  0.5052888E+02  0.7816164E-02  0.1300439E+00
        -11   -1    0    0    0    0  0.00000000000E+00  0.00000000000E+00  0.45593999997E+02  0.45594000000E+02  0.51100000000E-03 0.  1.
         11   -1    0    0    0    0 -0.00000000000E+00 -0.00000000000E+00 -0.45593999997E+02  0.45594000000E+02  0.51100000000E-03 0. -1.
    9900012    2    1    2    0    0 -0.27498314256E+02  0.12358767425E+02 -0.27281275669E+02  0.50528875300E+02  0.30000046963E+02 0.  0.
        -12    1    1    2    0    0  0.27498314256E+02 -0.12358767425E+02  0.27281275669E+02  0.40659124700E+02  0.00000000000E+00 0.  1.
         11    1    3    3    0    0 -0.76296833860E+01  0.10428323777E+02 -0.80621246910E+01  0.15230228500E+02  0.51100000000E-03 0. -1.
        -11    1    3    3    0    0 -0.76307743386E+01  0.94077885634E+01 -0.16866285559E+02  0.20765519292E+02  0.51100000000E-03 0.  1.
        -12    1    3    3    0    0 -0.12237856532E+02 -0.74773449160E+01 -0.23528654195E+01  0.14533127508E+02  0.00000000000E+00 0.  1.
</event>
<event>
 7    1  0.6090311E-013  0.5052885E+02  0.7816164E-02  0.1300439E+00
        -11   -1    0    0    0    0  0.00000000000E+00  0.00000000000E+00  0.45593999997E+02  0.45594000000E+02  0.51100000000E-03 0. -1.
         11   -1    0    0    0    0 -0.00000000000E+00 -0.00000000000E+00 -0.45593999997E+02  0.45594000000E+02  0.51100000000E-03 0.  1.
    9900012    2    1    2    0    0  0.29382383759E+02  0.74716982675E+01  0.27092719052E+02  0.50528853723E+02  0.29999981377E+02 0.  0.
        -12    1    1    2    0    0 -0.29382383759E+02 -0.74716982675E+01 -0.27092719052E+02  0.40659146277E+02  0.00000000000E+00 0.  1.
         11    1    3    3    0    0  0.68345269581E+01  0.12474792830E+01  0.53772185746E+01  0.87852969878E+01  0.51100000000E-03 0. -1.
        -11    1    3    3    0    0  0.12446961529E+02  0.16405446671E+02  0.16820795726E+02  0.26589559998E+02  0.51100000000E-03 0.  1.
         12    1    3    3    0    0  0.10100895272E+02 -0.10181227687E+02  0.48947047514E+01  0.15153996737E+02  0.00000000000E+00 0. -1.
</event>
<event>
 7    1  0.6090311E-013  0.5052887E+02  0.7816164E-02  0.1300439E+00
        -11   -1    0    0    0    0  0.00000000000E+00  0.00000000000E+00  0.45593999997E+02  0.45594000000E+02  0.51100000000E-03 0.  1.
         11   -1    0    0    0    0 -0.00000000000E+00 -0.00000000000E+00 -0.45593999997E+02  0.45594000000E+02  0.51100000000E-03 0. -1.
    9900012    2    1    2    0    0 -0.12180745205E+01  0.27522871177E+02 -0.29902727280E+02  0.50528865206E+02  0.30000016282E+02 0.  0.
        -12    1    1    2    0    0  0.12180745205E+01 -0.27522871177E+02  0.29902727280E+02  0.40659134794E+02  0.00000000000E+00 0.  1.
         11    1    3    3    0    0 -0.61487141123E+01  0.69459977508E+01 -0.11824549590E+02  0.15029089901E+02  0.51100000000E-03 0. -1.
        -11    1    3    3    0    0  0.12498974193E+01  0.98921536785E+01  0.39636666378E+01  0.10729753093E+02  0.51100000000E-03 0.  1.
         12    1    3    3    0    0  0.36807421725E+01  0.10684719748E+02 -0.22041844328E+02  0.24770022212E+02  0.00000000000E+00 0. -1.
</event>
<event>
 7    1  0.6090311E-013  0.5052886E+02  0.7816164E-02  0.1300439E+00
        -11   -1    0    0    0    0  0.00000000000E+00  0.00000000000E+00  0.45593999997E+02  0.45594000000E+02  0.51100000000E-03 0.  1.
         11   -1    0    0    0    0 -0.00000000000E+00 -0.00000000000E+00 -0.45593999997E+02  0.45594000000E+02  0.51100000000E-03 0. -1.
    9900012    2    1    2    0    0 -0.72151264778E+01 -0.11963047988E+02 -0.38183678166E+02  0.50528857786E+02  0.29999993728E+02 0.  0.
        -12    1    1    2    0    0  0.72151264778E+01  0.11963047988E+02  0.38183678166E+02  0.40659142214E+02  0.00000000000E+00 0.  1.
         11    1    3    3    0    0 -0.35009056337E+01 -0.10779613422E+02 -0.22550103106E+02  0.25238136939E+02  0.51100000000E-03 0. -1.
        -11    1    3    3    0    0  0.34304490111E+01 -0.82039404946E+01 -0.11293710052E+02  0.14374300229E+02  0.51100000000E-03 0.  1.
         12    1    3    3    0    0 -0.71446698552E+01  0.70205059289E+01 -0.43398650073E+01  0.10916420618E+02  0.00000000000E+00 0. -1.
</event>
<event>
 7    1  0.6090311E-013  0.5052887E+02  0.7816164E-02  0.1300439E+00
        -11   -1    0    0    0    0  0.00000000000E+00  0.00000000000E+00  0.45593999997E+02  0.45594000000E+02  0.51100000000E-03 0.  1.
         11   -1    0    0    0    0 -0.00000000000E+00 -0.00000000000E+00 -0.45593999997E+02  0.45594000000E+02  0.51100000000E-03 0. -1.
    9900012    2    1    2    0    0  0.13347573704E+02  0.18657042416E+02 -0.33569661894E+02  0.50528866276E+02  0.30000019534E+02 0.  0.
        -12    1    1    2    0    0 -0.13347573704E+02 -0.18657042416E+02  0.33569661894E+02  0.40659133724E+02  0.00000000000E+00 0.  1.
         11    1    3    3    0    0  0.15599894340E+01  0.81834179711E+01 -0.36181610844E+00  0.83386334541E+01  0.51100000000E-03 0. -1.
        -11    1    3    3    0    0  0.28607503858E+01  0.15210613727E+02 -0.16189128468E+02  0.22397199458E+02  0.51100000000E-03 0.  1.
        -12    1    3    3    0    0  0.89268338844E+01 -0.47369892822E+01 -0.17018717317E+02  0.19793033365E+02  0.00000000000E+00 0.  1.
</event>
<event>
 7    1  0.6090311E-013  0.5052894E+02  0.7816164E-02  0.1300439E+00
        -11   -1    0    0    0    0  0.00000000000E+00  0.00000000000E+00  0.45593999997E+02  0.45594000000E+02  0.51100000000E-03 0.  1.
         11   -1    0    0    0    0 -0.00000000000E+00 -0.00000000000E+00 -0.45593999997E+02  0.45594000000E+02  0.51100000000E-03 0. -1.
    9900012    2    1    2    0    0 -0.39858532448E+02 -0.69295730166E+01 -0.40543494997E+01  0.50528937775E+02  0.30000236861E+02 0.  0.
        -12    1    1    2    0    0  0.39858532448E+02  0.69295730166E+01  0.40543494997E+01  0.40659062225E+02  0.00000000000E+00 0.  1.
         11    1    3    3    0    0 -0.17631292868E+02 -0.81857560483E+01 -0.11408386940E+02  0.22539307512E+02  0.51100000000E-03 0. -1.
        -11    1    3    3    0    0 -0.16273569369E+02  0.77703064203E+01  0.35494261202E+01  0.18379476269E+02  0.51100000000E-03 0.  1.
        -12    1    3    3    0    0 -0.59536702117E+01 -0.65141233886E+01  0.38046113202E+01  0.96101539951E+01  0.00000000000E+00 0.  1.
</event>
<event>
 7    1  0.6090311E-013  0.5052885E+02  0.7816164E-02  0.1300439E+00
        -11   -1    0    0    0    0  0.00000000000E+00  0.00000000000E+00  0.45593999997E+02  0.45594000000E+02  0.51100000000E-03 0.  1.
         11   -1    0    0    0    0 -0.00000000000E+00 -0.00000000000E+00 -0.45593999997E+02  0.45594000000E+02  0.51100000000E-03 0. -1.
    9900012    2    1    2    0    0 -0.12765126126E+02 -0.19146357895E+01 -0.38555829583E+02  0.50528852566E+02  0.29999977859E+02 0.  0.
        -12    1    1    2    0    0  0.12765126126E+02  0.19146357895E+01  0.38555829583E+02  0.40659147434E+02  0.00000000000E+00 0.  1.
         11    1    3    3    0    0  0.42391679464E+01 -0.67636962896E+01 -0.65051565529E+01  0.10297339191E+02  0.51100000000E-03 0. -1.
        -11    1    3    3    0    0  0.28984440114E+01 -0.98625781951E+00 -0.17938065000E+01  0.35484396845E+01  0.51100000000E-03 0.  1.
        -12    1    3    3    0    0 -0.19902738084E+02  0.58353183196E+01 -0.30256866530E+02  0.36683073690E+02  0.00000000000E+00 0.  1.
</event>
<event>
 7    1  0.6090311E-013  0.5052887E+02  0.7816164E-02  0.1300439E+00
        -11   -1    0    0    0    0  0.00000000000E+00  0.00000000000E+00  0.45593999997E+02  0.45594000000E+02  0.51100000000E-03 0. -1.
         11   -1    0    0    0    0 -0.00000000000E+00 -0.00000000000E+00 -0.45593999997E+02  0.45594000000E+02  0.51100000000E-03 0.  1.
    9900012    2    1    2    0    0  0.17831150259E+02  0.78725429685E+01 -0.35682463499E+02  0.50528867524E+02  0.30000023326E+02 0.  0.
        -12    1    1    2    0    0 -0.17831150259E+02 -0.78725429685E+01  0.35682463499E+02  0.40659132476E+02  0.00000000000E+00 0.  1.
         11    1    3    3    0    0  0.14935279285E+01  0.49247039686E+01  0.45214089624E+00  0.51660203738E+01  0.51100000000E-03 0. -1.
        -11    1    3    3    0    0  0.17598701654E+02 -0.35212879182E+01 -0.15543596793E+02  0.23742728782E+02  0.51100000000E-03 0.  1.
         12    1    3    3    0    0 -0.12610793237E+01  0.64691269181E+01 -0.20591007603E+02  0.21620118368E+02  0.00000000000E+00 0. -1.
</event>
<event>
 7    1  0.6090311E-013  0.5052886E+02  0.7816164E-02  0.1300439E+00
        -11   -1    0    0    0    0  0.00000000000E+00  0.00000000000E+00  0.45593999997E+02  0.45594000000E+02  0.51100000000E-03 0. -1.
         11   -1    0    0    0    0 -0.00000000000E+00 -0.00000000000E+00 -0.45593999997E+02  0.45594000000E+02  0.51100000000E-03 0.  1.
    9900012    2    1    2    0    0  0.12900774716E+02 -0.35462226603E+02  0.15138246886E+02  0.50528855608E+02  0.29999987105E+02 0.  0.
        -12    1    1    2    0    0 -0.12900774716E+02  0.35462226603E+02 -0.15138246886E+02  0.40659144392E+02  0.00000000000E+00 0.  1.
         11    1    3    3    0    0  0.12355389431E+02 -0.16677524502E+02  0.11288929953E+02  0.23627005973E+02  0.51100000000E-03 0. -1.
        -11    1    3    3    0    0  0.63161521274E+01 -0.16536085200E+02 -0.26792917310E+01  0.17902918641E+02  0.51100000000E-03 0.  1.
         12    1    3    3    0    0 -0.57707668431E+01 -0.22486169011E+01  0.65286086643E+01  0.89989309930E+01  0.00000000000E+00 0. -1.
</event>
<event>
 7    1  0.6090311E-013  0.5052890E+02  0.7816164E-02  0.1300439E+00
        -11   -1    0    0    0    0  0.00000000000E+00  0.00000000000E+00  0.45593999997E+02  0.45594000000E+02  0.51100000000E-03 0.  1.
         11   -1    0    0    0    0 -0.00000000000E+00 -0.00000000000E+00 -0.45593999997E+02  0.45594000000E+02  0.51100000000E-03 0. -1.
    9900012    2    1    2    0    0  0.36482925151E+02 -0.15009534531E+02 -0.98423683625E+01  0.50528902993E+02  0.30000131138E+02 0.  0.
        -12    1    1    2    0    0 -0.36482925151E+02  0.15009534531E+02  0.98423683625E+01  0.40659097007E+02  0.00000000000E+00 0.  1.
         11    1    3    3    0    0  0.52091484255E+01 -0.61063941480E+01 -0.50519095077E+01  0.94839373019E+01  0.51100000000E-03 0. -1.
        -11    1    3    3    0    0  0.13189495792E+02 -0.15864228008E+02  0.14639995632E+01  0.20682838890E+02  0.51100000000E-03 0.  1.
         12    1    3    3    0    0  0.18084280933E+02  0.69610876251E+01 -0.62544584180E+01  0.20362126802E+02  0.00000000000E+00 0. -1.
</event>
<event>
 7    1  0.6090311E-013  0.5052886E+02  0.7816164E-02  0.1300439E+00
        -11   -1    0    0    0    0  0.00000000000E+00  0.00000000000E+00  0.45593999997E+02  0.45594000000E+02  0.51100000000E-03 0.  1.
         11   -1    0    0    0    0 -0.00000000000E+00 -0.00000000000E+00 -0.45593999997E+02  0.45594000000E+02  0.51100000000E-03 0. -1.
    9900012    2    1    2    0    0 -0.27488098960E+01 -0.63402427550E+00 -0.40561163357E+02  0.50528856926E+02  0.29999991112E+02 0.  0.
        -12    1    1    2    0    0  0.27488098960E+01  0.63402427550E+00  0.40561163357E+02  0.40659143074E+02  0.00000000000E+00 0.  1.
         11    1    3    3    0    0 -0.26047800889E+01 -0.13070912475E+02 -0.21861792077E+02  0.25604132192E+02  0.51100000000E-03 0. -1.
        -11    1    3    3    0    0  0.19424956446E+01 -0.98379863784E+00 -0.57925474363E+01  0.61882756202E+01  0.51100000000E-03 0.  1.
         12    1    3    3    0    0 -0.20865254518E+01  0.13420686837E+02 -0.12906823844E+02  0.18736449113E+02  0.00000000000E+00 0. -1.
</event>
<event>
 7    1  0.6090311E-013  0.5052886E+02  0.7816164E-02  0.1300439E+00
        -11   -1    0    0    0    0  0.00000000000E+00  0.00000000000E+00  0.45593999997E+02  0.45594000000E+02  0.51100000000E-03 0. -1.
         11   -1    0    0    0    0 -0.00000000000E+00 -0.00000000000E+00 -0.45593999997E+02  0.45594000000E+02  0.51100000000E-03 0.  1.
    9900012    2    1    2    0    0 -0.15300829579E+02 -0.18662629620E+02  0.32722414351E+02  0.50528861654E+02  0.30000005483E+02 0.  0.
        -12    1    1    2    0    0  0.15300829579E+02  0.18662629620E+02 -0.32722414351E+02  0.40659138346E+02  0.00000000000E+00 0.  1.
         11    1    3    3    0    0 -0.54671070819E+01  0.27154639814E+01  0.40592929097E+01  0.73308160300E+01  0.51100000000E-03 0. -1.
        -11    1    3    3    0    0  0.25812628902E+01  0.35972773588E+01  0.39832144273E+01  0.59556124739E+01  0.51100000000E-03 0.  1.
         12    1    3    3    0    0 -0.12414985387E+02 -0.24975370960E+02  0.24679907014E+02  0.37242433150E+02  0.00000000000E+00 0. -1.
</event>
<event>
 7    1  0.6090311E-013  0.5052886E+02  0.7816164E-02  0.1300439E+00
        -11   -1    0    0    0    0  0.00000000000E+00  0.00000000000E+00  0.45593999997E+02  0.45594000000E+02  0.51100000000E-03 0. -1.
         11   -1    0    0    0    0 -0.00000000000E+00 -0.00000000000E+00 -0.45593999997E+02  0.45594000000E+02  0.51100000000E-03 0.  1.
    9900012    2    1    2    0    0  0.34504156482E+02 -0.18295666263E+02 -0.11309181358E+02  0.50528858328E+02  0.29999995372E+02 0.  0.
        -12    1    1    2    0    0 -0.34504156482E+02  0.18295666263E+02  0.11309181358E+02  0.40659141672E+02  0.00000000000E+00 0.  1.
         11    1    3    3    0    0  0.71753009297E+01 -0.16453777162E+01 -0.45596777801E+01  0.86592651524E+01  0.51100000000E-03 0. -1.
        -11    1    3    3    0    0  0.27699040268E+02 -0.64115397064E+01 -0.11382588943E+02  0.30625283746E+02  0.51100000000E-03 0.  1.
        -12    1    3    3    0    0 -0.37018471624E+00 -0.10238748841E+02  0.46330853648E+01  0.11244309429E+02  0.00000000000E+00 0.  1.
</event>
<event>
 7    1  0.6090311E-013  0.5052886E+02  0.7816164E-02  0.1300439E+00
        -11   -1    0    0    0    0  0.00000000000E+00  0.00000000000E+00  0.45593999997E+02  0.45594000000E+02  0.51100000000E-03 0. -1.
         11   -1    0    0    0    0 -0.00000000000E+00 -0.00000000000E+00 -0.45593999997E+02  0.45594000000E+02  0.51100000000E-03 0.  1.
    9900012    2    1    2    0    0  0.61020328433E+01  0.39660742370E+02  0.65541091643E+01  0.50528860350E+02  0.30000001519E+02 0.  0.
        -12    1    1    2    0    0 -0.61020328433E+01 -0.39660742370E+02 -0.65541091643E+01  0.40659139650E+02  0.00000000000E+00 0.  1.
         11    1    3    3    0    0 -0.43103518892E+01  0.14256243568E+01  0.47239543338E+01  0.65518915608E+01  0.51100000000E-03 0. -1.
        -11    1    3    3    0    0 -0.32836088402E+01  0.12053202785E+02 -0.53172440796E+01  0.13576997799E+02  0.51100000000E-03 0.  1.
         12    1    3    3    0    0  0.13695993573E+02  0.26181915229E+02  0.71473989101E+01  0.30399970989E+02  0.00000000000E+00 0. -1.
</event>
<event>
 7    1  0.6090311E-013  0.5052884E+02  0.7816164E-02  0.1300439E+00
        -11   -1    0    0    0    0  0.00000000000E+00  0.00000000000E+00  0.45593999997E+02  0.45594000000E+02  0.51100000000E-03 0.  1.
         11   -1    0    0    0    0 -0.00000000000E+00 -0.00000000000E+00 -0.45593999997E+02  0.45594000000E+02  0.51100000000E-03 0. -1.
    9900012    2    1    2    0    0  0.29742016882E+02  0.21055583988E+02 -0.18034471171E+02  0.50528839462E+02  0.29999938027E+02 0.  0.
        -12    1    1    2    0    0 -0.29742016882E+02 -0.21055583988E+02  0.18034471171E+02  0.40659160538E+02  0.00000000000E+00 0.  1.
         11    1    3    3    0    0  0.68966161415E+01 -0.10941171014E+01 -0.27901495204E+01  0.75196636256E+01  0.51100000000E-03 0. -1.
        -11    1    3    3    0    0 -0.10638632601E+01 -0.32552312325E+01 -0.60165630008E+01  0.69229593395E+01  0.51100000000E-03 0.  1.
        -12    1    3    3    0    0  0.23909264000E+02  0.25404932322E+02 -0.92277586495E+01  0.36086216496E+02  0.00000000000E+00 0.  1.
</event>
<event>
 7    1  0.6090311E-013  0.5052886E+02  0.7816164E-02  0.1300439E+00
        -11   -1    0    0    0    0  0.00000000000E+00  0.00000000000E+00  0.45593999997E+02  0.45594000000E+02  0.51100000000E-03 0.  1.
         11   -1    0    0    0    0 -0.00000000000E+00 -0.00000000000E+00 -0.45593999997E+02  0.45594000000E+02  0.51100000000E-03 0. -1.
    9900012    2    1    2    0    0 -0.35446292932E+02  0.19337098136E+02 -0.47751680193E+01  0.50528864783E+02  0.30000014995E+02 0.  0.
        -12    1    1    2    0    0  0.35446292932E+02 -0.19337098136E+02  0.47751680193E+01  0.40659135217E+02  0.00000000000E+00 0.  1.
         11    1    3    3    0    0 -0.11157308282E+02  0.13476375811E+02 -0.12178552316E+02  0.21317020662E+02  0.51100000000E-03 0. -1.
        -11    1    3    3    0    0 -0.57292518063E+01  0.56939112827E+01 -0.21195978722E+01  0.83509069780E+01  0.51100000000E-03 0.  1.
        -12    1    3    3    0    0 -0.18559732843E+02  0.16681104247E+00  0.95229821686E+01  0.20860937144E+02  0.00000000000E+00 0.  1.
</event>
<event>
 7    1  0.6090311E-013  0.5052886E+02  0.7816164E-02  0.1300439E+00
        -11   -1    0    0    0    0  0.00000000000E+00  0.00000000000E+00  0.45593999997E+02  0.45594000000E+02  0.51100000000E-03 0.  1.
         11   -1    0    0    0    0 -0.00000000000E+00 -0.00000000000E+00 -0.45593999997E+02  0.45594000000E+02  0.51100000000E-03 0. -1.
    9900012    2    1    2    0    0  0.32296064486E+02  0.13486125388E+02 -0.20694314662E+02  0.50528855658E+02  0.29999987258E+02 0.  0.
        -12    1    1    2    0    0 -0.32296064486E+02 -0.13486125388E+02  0.20694314662E+02  0.40659144342E+02  0.00000000000E+00 0.  1.
         11    1    3    3    0    0  0.49216479372E+01 -0.36235129767E+00 -0.26094939995E+01  0.55824166877E+01  0.51100000000E-03 0. -1.
        -11    1    3    3    0    0  0.27249635576E+02  0.87817344224E+00 -0.76992799858E+01  0.28330067776E+02  0.51100000000E-03 0.  1.
         12    1    3    3    0    0  0.12478097291E+00  0.12970303243E+02 -0.10385540677E+02  0.16616371194E+02  0.00000000000E+00 0. -1.
</event>
<event>
 7    1  0.6090311E-013  0.5052888E+02  0.7816164E-02  0.1300439E+00
        -11   -1    0    0    0    0  0.00000000000E+00  0.00000000000E+00  0.45593999997E+02  0.45594000000E+02  0.51100000000E-03 0.  1.
         11   -1    0    0    0    0 -0.00000000000E+00 -0.00000000000E+00 -0.45593999997E+02  0.45594000000E+02  0.51100000000E-03 0. -1.
    9900012    2    1    2    0    0 -0.16345234346E+02 -0.54878452689E+01 -0.36822289960E+02  0.50528878398E+02  0.30000056379E+02 0.  0.
        -12    1    1    2    0    0  0.16345234346E+02  0.54878452689E+01  0.36822289960E+02  0.40659121602E+02  0.00000000000E+00 0.  1.
         11    1    3    3    0    0 -0.11089298228E+02 -0.15576118069E+02 -0.18264833294E+02  0.26442241297E+02  0.51100000000E-03 0.  1.
        -11    1    3    3    0    0 -0.47177720730E+01  0.30728873488E+01 -0.17984008869E+01  0.59105207895E+01  0.51100000000E-03 0. -1.
        -12    1    3    3    0    0 -0.53816404506E+00  0.70153854509E+01 -0.16759055779E+02  0.18176116312E+02  0.00000000000E+00 0.  1.
</event>
<event>
 7    1  0.6090311E-013  0.5052886E+02  0.7816164E-02  0.1300439E+00
        -11   -1    0    0    0    0  0.00000000000E+00  0.00000000000E+00  0.45593999997E+02  0.45594000000E+02  0.51100000000E-03 0.  1.
         11   -1    0    0    0    0 -0.00000000000E+00 -0.00000000000E+00 -0.45593999997E+02  0.45594000000E+02  0.51100000000E-03 0. -1.
    9900012    2    1    2    0    0  0.29060661791E+02  0.28296526492E+02 -0.28195946075E+01  0.50528860942E+02  0.30000003319E+02 0.  0.
        -12    1    1    2    0    0 -0.29060661791E+02 -0.28296526492E+02  0.28195946075E+01  0.40659139058E+02  0.00000000000E+00 0.  1.
         11    1    3    3    0    0  0.35236847301E+01  0.71711814510E+01  0.71303141943E+01  0.10709041892E+02  0.51100000000E-03 0. -1.
        -11    1    3    3    0    0  0.88879342327E+01  0.67039379414E+01  0.59794051090E+01  0.12636908030E+02  0.51100000000E-03 0.  1.
         12    1    3    3    0    0  0.16649042828E+02  0.14421407099E+02 -0.15929313911E+02  0.27182911019E+02  0.00000000000E+00 0. -1.
</event>
<event>
 7    1  0.6090311E-013  0.5052886E+02  0.7816164E-02  0.1300439E+00
        -11   -1    0    0    0    0  0.00000000000E+00  0.00000000000E+00  0.45593999997E+02  0.45594000000E+02  0.51100000000E-03 0. -1.
         11   -1    0    0    0    0 -0.00000000000E+00 -0.00000000000E+00 -0.45593999997E+02  0.45594000000E+02  0.51100000000E-03 0.  1.
    9900012    2    1    2    0    0  0.29566976355E+02 -0.26514465761E+02  0.87144988519E+01  0.50528862336E+02  0.30000007556E+02 0.  0.
        -12    1    1    2    0    0 -0.29566976355E+02  0.26514465761E+02 -0.87144988519E+01  0.40659137664E+02  0.00000000000E+00 0.  1.
         11    1    3    3    0    0  0.10551865536E+02 -0.16841088936E+02  0.45005854390E+01  0.20376933341E+02  0.51100000000E-03 0. -1.
        -11    1    3    3    0    0  0.13716012880E+02 -0.15322627420E+02 -0.13592201400E+01  0.20609691895E+02  0.51100000000E-03 0.  1.
        -12    1    3    3    0    0  0.52990979391E+01  0.56492505953E+01  0.55731335528E+01  0.95422370990E+01  0.00000000000E+00 0.  1.
</event>
<event>
 7    1  0.6090311E-013  0.5052887E+02  0.7816164E-02  0.1300439E+00
        -11   -1    0    0    0    0  0.00000000000E+00  0.00000000000E+00  0.45593999997E+02  0.45594000000E+02  0.51100000000E-03 0.  1.
         11   -1    0    0    0    0 -0.00000000000E+00 -0.00000000000E+00 -0.45593999997E+02  0.45594000000E+02  0.51100000000E-03 0. -1.
    9900012    2    1    2    0    0 -0.37692798992E+02  0.14028178984E+02 -0.59689264216E+01  0.50528868380E+02  0.30000025929E+02 0.  0.
        -12    1    1    2    0    0  0.37692798992E+02 -0.14028178984E+02  0.59689264216E+01  0.40659131620E+02  0.00000000000E+00 0.  1.
         11    1    3    3    0    0  0.76155381523E+00  0.68958352023E+01  0.15134331733E+01  0.71009145595E+01  0.51100000000E-03 0. -1.
        -11    1    3    3    0    0 -0.64117923253E+01 -0.49350598380E+01 -0.39584996665E+01  0.90075310878E+01  0.51100000000E-03 0.  1.
         12    1    3    3    0    0 -0.32042560482E+02  0.12067403619E+02 -0.35238599284E+01  0.34420422733E+02  0.00000000000E+00 0. -1.
</event>
<event>
 7    1  0.6090311E-013  0.5052886E+02  0.7816164E-02  0.1300439E+00
        -11   -1    0    0    0    0  0.00000000000E+00  0.00000000000E+00  0.45593999997E+02  0.45594000000E+02  0.51100000000E-03 0.  1.
         11   -1    0    0    0    0 -0.00000000000E+00 -0.00000000000E+00 -0.45593999997E+02  0.45594000000E+02  0.51100000000E-03 0. -1.
    9900012    2    1    2    0    0 -0.21921473814E+02  0.27803029254E+02 -0.19990153171E+02  0.50528859900E+02  0.30000000152E+02 0.  0.
        -12    1    1    2    0    0  0.21921473814E+02 -0.27803029254E+02  0.19990153171E+02  0.40659140100E+02  0.00000000000E+00 0.  1.
         11    1    3    3    0    0 -0.75986241572E+01  0.28869191350E+02 -0.10761365657E+02  0.31732889710E+02  0.51100000000E-03 0.  1.
        -11    1    3    3    0    0 -0.12055138042E+02  0.15113216627E+01 -0.45080230888E+01  0.12958885708E+02  0.51100000000E-03 0. -1.
        -12    1    3    3    0    0 -0.22677116153E+01 -0.25774837587E+01 -0.47207644247E+01  0.58370844820E+01  0.00000000000E+00 0.  1.
</event>
<event>
 7    1  0.6090311E-013  0.5052885E+02  0.7816164E-02  0.1300439E+00
        -11   -1    0    0    0    0  0.00000000000E+00  0.00000000000E+00  0.45593999997E+02  0.45594000000E+02  0.51100000000E-03 0.  1.
         11   -1    0    0    0    0 -0.00000000000E+00 -0.00000000000E+00 -0.45593999997E+02  0.45594000000E+02  0.51100000000E-03 0. -1.
    9900012    2    1    2    0    0  0.18734733765E+01  0.21094367884E+02 -0.34708557354E+02  0.50528853273E+02  0.29999980010E+02 0.  0.
        -12    1    1    2    0    0 -0.18734733765E+01 -0.21094367884E+02  0.34708557354E+02  0.40659146727E+02  0.00000000000E+00 0.  1.
         11    1    3    3    0    0  0.58702654000E+01  0.11722822819E+02 -0.23159711270E+02  0.26613094842E+02  0.51100000000E-03 0. -1.
        -11    1    3    3    0    0  0.47821945425E+01  0.21201890919E+01 -0.11383640727E+02  0.12528043059E+02  0.51100000000E-03 0.  1.
        -12    1    3    3    0    0 -0.87789865661E+01  0.72513559734E+01 -0.16520535706E+00  0.11387715372E+02  0.00000000000E+00 0.  1.
</event>
<event>
 7    1  0.6090311E-013  0.5052886E+02  0.7816164E-02  0.1300439E+00
        -11   -1    0    0    0    0  0.00000000000E+00  0.00000000000E+00  0.45593999997E+02  0.45594000000E+02  0.51100000000E-03 0. -1.
         11   -1    0    0    0    0 -0.00000000000E+00 -0.00000000000E+00 -0.45593999997E+02  0.45594000000E+02  0.51100000000E-03 0.  1.
    9900012    2    1    2    0    0  0.27906769855E+02 -0.91501750794E+01  0.28118534114E+02  0.50528862424E+02  0.30000007823E+02 0.  0.
        -12    1    1    2    0    0 -0.27906769855E+02  0.91501750794E+01 -0.28118534114E+02  0.40659137576E+02  0.00000000000E+00 0.  1.
         11    1    3    3    0    0  0.38738945965E+01  0.62989551309E+01  0.12526889830E+02  0.14546713173E+02  0.51100000000E-03 0. -1.
        -11    1    3    3    0    0 -0.12952720794E+01 -0.10821523858E+01  0.45274735918E+01  0.48318527432E+01  0.51100000000E-03 0.  1.
         12    1    3    3    0    0  0.25328147338E+02 -0.14366977824E+02  0.11064170693E+02  0.31150296507E+02  0.00000000000E+00 0. -1.
</event>
<event>
 7    1  0.6090311E-013  0.5052885E+02  0.7816164E-02  0.1300439E+00
        -11   -1    0    0    0    0  0.00000000000E+00  0.00000000000E+00  0.45593999997E+02  0.45594000000E+02  0.51100000000E-03 0.  1.
         11   -1    0    0    0    0 -0.00000000000E+00 -0.00000000000E+00 -0.45593999997E+02  0.45594000000E+02  0.51100000000E-03 0. -1.
    9900012    2    1    2    0    0 -0.35674057401E+02 -0.17964894378E+02 -0.76019953407E+01  0.50528854232E+02  0.29999982923E+02 0.  0.
        -12    1    1    2    0    0  0.35674057401E+02  0.17964894378E+02  0.76019953407E+01  0.40659145768E+02  0.00000000000E+00 0.  1.
         11    1    3    3    0    0 -0.12869516301E+02 -0.14344370331E+02 -0.73976442530E+01  0.20642445368E+02  0.51100000000E-03 0. -1.
        -11    1    3    3    0    0 -0.37478847255E+01 -0.22411634418E+01 -0.81084034457E+01  0.92095418012E+01  0.51100000000E-03 0.  1.
        -12    1    3    3    0    0 -0.19056656375E+02 -0.13793606048E+01  0.79040523580E+01  0.20676867063E+02  0.00000000000E+00 0.  1.
</event>
<event>
 7    1  0.6090311E-013  0.5052886E+02  0.7816164E-02  0.1300439E+00
        -11   -1    0    0    0    0  0.00000000000E+00  0.00000000000E+00  0.45593999997E+02  0.45594000000E+02  0.51100000000E-03 0. -1.
         11   -1    0    0    0    0 -0.00000000000E+00 -0.00000000000E+00 -0.45593999997E+02  0.45594000000E+02  0.51100000000E-03 0.  1.
    9900012    2    1    2    0    0  0.31375710194E+02  0.20631320477E+02  0.15590983037E+02  0.50528864165E+02  0.30000013116E+02 0.  0.
        -12    1    1    2    0    0 -0.31375710194E+02 -0.20631320477E+02 -0.15590983037E+02  0.40659135835E+02  0.00000000000E+00 0.  1.
         11    1    3    3    0    0 -0.59626529597E-01 -0.10479882160E+01  0.23947822776E+01  0.26147307781E+01  0.51100000000E-03 0. -1.
        -11    1    3    3    0    0 -0.24876746760E+01  0.98099657360E+00  0.72566424794E+01  0.77336757047E+01  0.51100000000E-03 0.  1.
         12    1    3    3    0    0  0.33923011400E+02  0.20698312119E+02  0.59395582797E+01  0.40180457682E+02  0.00000000000E+00 0. -1.
</event>
<event>
 7    1  0.6090311E-013  0.5052884E+02  0.7816164E-02  0.1300439E+00
        -11   -1    0    0    0    0  0.00000000000E+00  0.00000000000E+00  0.45593999997E+02  0.45594000000E+02  0.51100000000E-03 0.  1.
         11   -1    0    0    0    0 -0.00000000000E+00 -0.00000000000E+00 -0.45593999997E+02  0.45594000000E+02  0.51100000000E-03 0. -1.
    9900012    2    1    2    0    0  0.31408284074E+02 -0.34201260316E+01 -0.25592767806E+02  0.50528839476E+02  0.29999938071E+02 0.  0.
        -12    1    1    2    0    0 -0.31408284074E+02  0.34201260316E+01  0.25592767806E+02  0.40659160524E+02  0.00000000000E+00 0.  1.
         11    1    3    3    0    0  0.70311440319E+01  0.61999438259E+01 -0.95736904324E+01  0.13398949160E+02  0.51100000000E-03 0. -1.
        -11    1    3    3    0    0 -0.24282534317E+01  0.30039535475E+01 -0.16530186108E+01  0.42015024019E+01  0.51100000000E-03 0.  1.
        -12    1    3    3    0    0  0.26805393474E+02 -0.12624023405E+02 -0.14366058763E+02  0.32928387914E+02  0.00000000000E+00 0.  1.
</event>
<event>
 7    1  0.6090311E-013  0.5052877E+02  0.7816164E-02  0.1300439E+00
        -11   -1    0    0    0    0  0.00000000000E+00  0.00000000000E+00  0.45593999997E+02  0.45594000000E+02  0.51100000000E-03 0.  1.
         11   -1    0    0    0    0 -0.00000000000E+00 -0.00000000000E+00 -0.45593999997E+02  0.45594000000E+02  0.51100000000E-03 0. -1.
    9900012    2    1    2    0    0  0.24283384413E+02  0.27416306366E+02 -0.17658894663E+02  0.50528767665E+02  0.29999719794E+02 0.  0.
        -12    1    1    2    0    0 -0.24283384413E+02 -0.27416306366E+02  0.17658894663E+02  0.40659232335E+02  0.00000000000E+00 0.  1.
         11    1    3    3    0    0  0.98745876608E+01  0.25286052607E+02 -0.21398349252E+02  0.34565608469E+02  0.51100000000E-03 0. -1.
        -11    1    3    3    0    0  0.22084708301E+01 -0.48664725161E-01  0.27542850907E+01  0.35306937399E+01  0.51100000000E-03 0.  1.
        -12    1    3    3    0    0  0.12200325922E+02  0.21789184850E+01  0.98516949764E+00  0.12432465456E+02  0.00000000000E+00 0.  1.
</event>
<event>
 7    1  0.6090311E-013  0.5052887E+02  0.7816164E-02  0.1300439E+00
        -11   -1    0    0    0    0  0.00000000000E+00  0.00000000000E+00  0.45593999997E+02  0.45594000000E+02  0.51100000000E-03 0.  1.
         11   -1    0    0    0    0 -0.00000000000E+00 -0.00000000000E+00 -0.45593999997E+02  0.45594000000E+02  0.51100000000E-03 0. -1.
    9900012    2    1    2    0    0  0.12098279289E+02  0.17409851025E+02 -0.34694287053E+02  0.50528870293E+02  0.30000031743E+02 0.  0.
        -12    1    1    2    0    0 -0.12098279289E+02 -0.17409851025E+02  0.34694287053E+02  0.40659129707E+02  0.00000000000E+00 0.  1.
         11    1    3    3    0    0  0.54108517438E+01  0.63104517407E-01 -0.13302105241E+01  0.55723207978E+01  0.51100000000E-03 0. -1.
        -11    1    3    3    0    0  0.33951824350E+01  0.62920812425E+01 -0.32624101093E+02  0.33398346104E+02  0.51100000000E-03 0.  1.
         12    1    3    3    0    0  0.32922451097E+01  0.11054665265E+02 -0.73997543559E+00  0.11558203391E+02  0.00000000000E+00 0. -1.
</event>
<event>
 7    1  0.6090311E-013  0.5052887E+02  0.7816164E-02  0.1300439E+00
        -11   -1    0    0    0    0  0.00000000000E+00  0.00000000000E+00  0.45593999997E+02  0.45594000000E+02  0.51100000000E-03 0.  1.
         11   -1    0    0    0    0 -0.00000000000E+00 -0.00000000000E+00 -0.45593999997E+02  0.45594000000E+02  0.51100000000E-03 0. -1.
    9900012    2    1    2    0    0  0.37800714992E+02 -0.12158700528E+02 -0.87428046084E+01  0.50528872060E+02  0.30000037113E+02 0.  0.
        -12    1    1    2    0    0 -0.37800714992E+02  0.12158700528E+02  0.87428046084E+01  0.40659127940E+02  0.00000000000E+00 0.  1.
         11    1    3    3    0    0  0.71548353334E+00 -0.74873607400E+01 -0.48125495294E+01  0.89293404444E+01  0.51100000000E-03 0. -1.
        -11    1    3    3    0    0  0.43807039104E+01 -0.61910611426E+01 -0.45677980394E+01  0.88535068765E+01  0.51100000000E-03 0.  1.
         12    1    3    3    0    0  0.32704527548E+02  0.15197213549E+01  0.63754296052E+00  0.32746024739E+02  0.00000000000E+00 0. -1.
</event>
<event>
 7    1  0.6090311E-013  0.5052886E+02  0.7816164E-02  0.1300439E+00
        -11   -1    0    0    0    0  0.00000000000E+00  0.00000000000E+00  0.45593999997E+02  0.45594000000E+02  0.51100000000E-03 0. -1.
         11   -1    0    0    0    0 -0.00000000000E+00 -0.00000000000E+00 -0.45593999997E+02  0.45594000000E+02  0.51100000000E-03 0.  1.
    9900012    2    1    2    0    0  0.28456311340E+02 -0.15311028959E+02  0.24677446140E+02  0.50528860672E+02  0.30000002498E+02 0.  0.
        -12    1    1    2    0    0 -0.28456311340E+02  0.15311028959E+02 -0.24677446140E+02  0.40659139328E+02  0.00000000000E+00 0.  1.
         11    1    3    3    0    0  0.20661840087E+02 -0.11255544035E+02  0.16437883332E+02  0.28701967110E+02  0.51100000000E-03 0. -1.
        -11    1    3    3    0    0  0.51920113521E+01 -0.15776544944E+01 -0.54397137630E+01  0.76835188337E+01  0.51100000000E-03 0.  1.
        -12    1    3    3    0    0  0.26024599014E+01 -0.24778304304E+01  0.13679276571E+02  0.14143374728E+02  0.00000000000E+00 0.  1.
</event>
<event>
 7    1  0.6090311E-013  0.5052886E+02  0.7816164E-02  0.1300439E+00
        -11   -1    0    0    0    0  0.00000000000E+00  0.00000000000E+00  0.45593999997E+02  0.45594000000E+02  0.51100000000E-03 0.  1.
         11   -1    0    0    0    0 -0.00000000000E+00 -0.00000000000E+00 -0.45593999997E+02  0.45594000000E+02  0.51100000000E-03 0. -1.
    9900012    2    1    2    0    0  0.14907384882E+02 -0.26823793598E+02 -0.26672453467E+02  0.50528858334E+02  0.29999995393E+02 0.  0.
        -12    1    1    2    0    0 -0.14907384882E+02  0.26823793598E+02  0.26672453467E+02  0.40659141666E+02  0.00000000000E+00 0.  1.
         11    1    3    3    0    0  0.67679873412E+01 -0.32822861727E+01 -0.95156995730E+01  0.12129616391E+02  0.51100000000E-03 0. -1.
        -11    1    3    3    0    0  0.64380626220E+01  0.25130791945E+01  0.42045720302E+00  0.69239440988E+01  0.51100000000E-03 0.  1.
        -12    1    3    3    0    0  0.17013349188E+01 -0.26054586620E+02 -0.17577211097E+02  0.31475297845E+02  0.00000000000E+00 0.  1.
</event>
<event>
 7    1  0.6090311E-013  0.5052887E+02  0.7816164E-02  0.1300439E+00
        -11   -1    0    0    0    0  0.00000000000E+00  0.00000000000E+00  0.45593999997E+02  0.45594000000E+02  0.51100000000E-03 0. -1.
         11   -1    0    0    0    0 -0.00000000000E+00 -0.00000000000E+00 -0.45593999997E+02  0.45594000000E+02  0.51100000000E-03 0.  1.
    9900012    2    1    2    0    0 -0.22714213503E+02 -0.25762378535E+02  0.21760734697E+02  0.50528865511E+02  0.30000017207E+02 0.  0.
        -12    1    1    2    0    0  0.22714213503E+02  0.25762378535E+02 -0.21760734697E+02  0.40659134489E+02  0.00000000000E+00 0.  1.
         11    1    3    3    0    0 -0.17624162990E+02 -0.51050507588E+01  0.17411816164E+02  0.25295138006E+02  0.51100000000E-03 0. -1.
        -11    1    3    3    0    0 -0.50927250162E+01 -0.59515716877E+01  0.67414570723E+01  0.10334616459E+02  0.51100000000E-03 0.  1.
        -12    1    3    3    0    0  0.26745029941E-02 -0.14705756089E+02 -0.23925385391E+01  0.14899111046E+02  0.00000000000E+00 0.  1.
</event>
<event>
 7    1  0.6090311E-013  0.5052885E+02  0.7816164E-02  0.1300439E+00
        -11   -1    0    0    0    0  0.00000000000E+00  0.00000000000E+00  0.45593999997E+02  0.45594000000E+02  0.51100000000E-03 0. -1.
         11   -1    0    0    0    0 -0.00000000000E+00 -0.00000000000E+00 -0.45593999997E+02  0.45594000000E+02  0.51100000000E-03 0.  1.
    9900012    2    1    2    0    0 -0.38010685686E+02  0.10336745229E+02 -0.10075004607E+02  0.50528852861E+02  0.29999978757E+02 0.  0.
        -12    1    1    2    0    0  0.38010685686E+02 -0.10336745229E+02  0.10075004607E+02  0.40659147139E+02  0.00000000000E+00 0.  1.
         11    1    3    3    0    0 -0.10013154089E+02 -0.28220520693E+01 -0.38159234129E+01  0.11080997448E+02  0.51100000000E-03 0. -1.
        -11    1    3    3    0    0 -0.30470035505E+02  0.14495208324E+02 -0.96006868117E+01  0.35081438333E+02  0.51100000000E-03 0.  1.
         12    1    3    3    0    0  0.24725039080E+01 -0.13364110265E+01  0.33416056178E+01  0.43664170795E+01  0.00000000000E+00 0. -1.
</event>
<event>
 7    1  0.6090311E-013  0.5052886E+02  0.7816164E-02  0.1300439E+00
        -11   -1    0    0    0    0  0.00000000000E+00  0.00000000000E+00  0.45593999997E+02  0.45594000000E+02  0.51100000000E-03 0. -1.
         11   -1    0    0    0    0 -0.00000000000E+00 -0.00000000000E+00 -0.45593999997E+02  0.45594000000E+02  0.51100000000E-03 0.  1.
    9900012    2    1    2    0    0  0.23568237697E+02  0.22215117932E+02  0.24580325745E+02  0.50528859495E+02  0.29999998922E+02 0.  0.
        -12    1    1    2    0    0 -0.23568237697E+02 -0.22215117932E+02 -0.24580325745E+02  0.40659140505E+02  0.00000000000E+00 0.  1.
         11    1    3    3    0    0  0.12187265126E+02  0.13077749892E+02  0.24013605217E+02  0.29936770188E+02  0.51100000000E-03 0.  1.
        -11    1    3    3    0    0  0.98431453487E+00  0.22378933672E+01  0.63757687785E+01  0.68284309768E+01  0.51100000000E-03 0. -1.
        -12    1    3    3    0    0  0.10396658036E+02  0.68994746719E+01 -0.58090482508E+01  0.13763658331E+02  0.00000000000E+00 0.  1.
</event>
<event>
 7    1  0.6090311E-013  0.5052888E+02  0.7816164E-02  0.1300439E+00
        -11   -1    0    0    0    0  0.00000000000E+00  0.00000000000E+00  0.45593999997E+02  0.45594000000E+02  0.51100000000E-03 0.  1.
         11   -1    0    0    0    0 -0.00000000000E+00 -0.00000000000E+00 -0.45593999997E+02  0.45594000000E+02  0.51100000000E-03 0. -1.
    9900012    2    1    2    0    0 -0.15781392018E+02 -0.36345435087E+02 -0.91170603992E+01  0.50528883236E+02  0.30000071084E+02 0.  0.
        -12    1    1    2    0    0  0.15781392018E+02  0.36345435087E+02  0.91170603992E+01  0.40659116764E+02  0.00000000000E+00 0.  1.
         11    1    3    3    0    0 -0.46879608621E+00 -0.45567776706E+01  0.68750101713E+01  0.82613411518E+01  0.51100000000E-03 0. -1.
        -11    1    3    3    0    0 -0.36709301632E+01 -0.22466759447E+01  0.30201318293E+01  0.52578015930E+01  0.51100000000E-03 0.  1.
         12    1    3    3    0    0 -0.11641665769E+02 -0.29541981472E+02 -0.19012202400E+02  0.37009740491E+02  0.00000000000E+00 0. -1.
</event>
<event>
 7    1  0.6090311E-013  0.5052886E+02  0.7816164E-02  0.1300439E+00
        -11   -1    0    0    0    0  0.00000000000E+00  0.00000000000E+00  0.45593999997E+02  0.45594000000E+02  0.51100000000E-03 0.  1.
         11   -1    0    0    0    0 -0.00000000000E+00 -0.00000000000E+00 -0.45593999997E+02  0.45594000000E+02  0.51100000000E-03 0. -1.
    9900012    2    1    2    0    0 -0.73597799495E+01 -0.35878617756E+02  0.17655716394E+02  0.50528857186E+02  0.29999991902E+02 0.  0.
        -12    1    1    2    0    0  0.73597799495E+01  0.35878617756E+02 -0.17655716394E+02  0.40659142814E+02  0.00000000000E+00 0.  1.
         11    1    3    3    0    0 -0.41352934518E+01 -0.32294509436E+02  0.18111352954E+02  0.37256638304E+02  0.51100000000E-03 0. -1.
        -11    1    3    3    0    0  0.20030893287E+01 -0.10222287988E+01  0.48813612665E+01  0.53744773375E+01  0.51100000000E-03 0.  1.
         12    1    3    3    0    0 -0.52275758263E+01 -0.25618795213E+01 -0.53369978263E+01  0.78977415442E+01  0.00000000000E+00 0. -1.
</event>
<event>
 7    1  0.6090311E-013  0.5052886E+02  0.7816164E-02  0.1300439E+00
        -11   -1    0    0    0    0  0.00000000000E+00  0.00000000000E+00  0.45593999997E+02  0.45594000000E+02  0.51100000000E-03 0.  1.
         11   -1    0    0    0    0 -0.00000000000E+00 -0.00000000000E+00 -0.45593999997E+02  0.45594000000E+02  0.51100000000E-03 0. -1.
    9900012    2    1    2    0    0  0.73714622024E+00 -0.21064840709E+01 -0.40597842957E+02  0.50528861883E+02  0.30000006179E+02 0.  0.
        -12    1    1    2    0    0 -0.73714622024E+00  0.21064840709E+01  0.40597842957E+02  0.40659138117E+02  0.00000000000E+00 0.  1.
         11    1    3    3    0    0  0.69518322873E+01  0.66939036848E+00 -0.76609481317E+01  0.10366589707E+02  0.51100000000E-03 0. -1.
        -11    1    3    3    0    0  0.72215178151E+01  0.36366838763E+01 -0.12114312467E+02  0.14564764192E+02  0.51100000000E-03 0.  1.
         12    1    3    3    0    0 -0.13436203882E+02 -0.64125583157E+01 -0.20822582358E+02  0.25597507984E+02  0.00000000000E+00 0. -1.
</event>
<event>
 7    1  0.6090311E-013  0.5052883E+02  0.7816164E-02  0.1300439E+00
        -11   -1    0    0    0    0  0.00000000000E+00  0.00000000000E+00  0.45593999997E+02  0.45594000000E+02  0.51100000000E-03 0. -1.
         11   -1    0    0    0    0 -0.00000000000E+00 -0.00000000000E+00 -0.45593999997E+02  0.45594000000E+02  0.51100000000E-03 0.  1.
    9900012    2    1    2    0    0  0.14254448363E+02 -0.16076610603E+02  0.34518422793E+02  0.50528828603E+02  0.29999905020E+02 0.  0.
        -12    1    1    2    0    0 -0.14254448363E+02  0.16076610603E+02 -0.34518422793E+02  0.40659171397E+02  0.00000000000E+00 0.  1.
         11    1    3    3    0    0  0.32701281359E+01  0.23459406340E+01  0.12975510457E+01  0.42285712080E+01  0.51100000000E-03 0. -1.
        -11    1    3    3    0    0 -0.65727018927E+01 -0.98285135512E+00  0.31454752509E+01  0.73525792598E+01  0.51100000000E-03 0.  1.
         12    1    3    3    0    0  0.17557022120E+02 -0.17439699882E+02  0.30075396496E+02  0.38947678135E+02  0.00000000000E+00 0. -1.
</event>
<event>
 7    1  0.6090311E-013  0.5052886E+02  0.7816164E-02  0.1300439E+00
        -11   -1    0    0    0    0  0.00000000000E+00  0.00000000000E+00  0.45593999997E+02  0.45594000000E+02  0.51100000000E-03 0.  1.
         11   -1    0    0    0    0 -0.00000000000E+00 -0.00000000000E+00 -0.45593999997E+02  0.45594000000E+02  0.51100000000E-03 0. -1.
    9900012    2    1    2    0    0  0.20932217788E+02  0.75130826335E+01 -0.34037653333E+02  0.50528855928E+02  0.29999988080E+02 0.  0.
        -12    1    1    2    0    0 -0.20932217788E+02 -0.75130826335E+01  0.34037653333E+02  0.40659144072E+02  0.00000000000E+00 0.  1.
         11    1    3    3    0    0  0.11037375247E+02  0.14360711223E+02 -0.28601801741E+02  0.33854345988E+02  0.51100000000E-03 0. -1.
        -11    1    3    3    0    0  0.38695265286E+01  0.25202372720E+01 -0.13612509901E+01  0.48143365049E+01  0.51100000000E-03 0.  1.
        -12    1    3    3    0    0  0.60253160128E+01 -0.93678658615E+01 -0.40746006020E+01  0.11860173435E+02  0.00000000000E+00 0.  1.
</event>
<event>
 7    1  0.6090311E-013  0.5052887E+02  0.7816164E-02  0.1300439E+00
        -11   -1    0    0    0    0  0.00000000000E+00  0.00000000000E+00  0.45593999997E+02  0.45594000000E+02  0.51100000000E-03 0.  1.
         11   -1    0    0    0    0 -0.00000000000E+00 -0.00000000000E+00 -0.45593999997E+02  0.45594000000E+02  0.51100000000E-03 0. -1.
    9900012    2    1    2    0    0  0.25596831867E+02  0.30644466670E+02 -0.76735691246E+01  0.50528870617E+02  0.30000032727E+02 0.  0.
        -12    1    1    2    0    0 -0.25596831867E+02 -0.30644466670E+02  0.76735691246E+01  0.40659129383E+02  0.00000000000E+00 0.  1.
         11    1    3    3    0    0  0.60340960311E+01  0.13789795157E+02 -0.51716272586E+01  0.15915856689E+02  0.51100000000E-03 0. -1.
        -11    1    3    3    0    0  0.85347134954E+01  0.22529580447E+01  0.93132035508E+01  0.12831715203E+02  0.51100000000E-03 0.  1.
         12    1    3    3    0    0  0.11028022340E+02  0.14601713468E+02 -0.11815145417E+02  0.21781298726E+02  0.00000000000E+00 0. -1.
</event>
<event>
 7    1  0.6090311E-013  0.5052887E+02  0.7816164E-02  0.1300439E+00
        -11   -1    0    0    0    0  0.00000000000E+00  0.00000000000E+00  0.45593999997E+02  0.45594000000E+02  0.51100000000E-03 0. -1.
         11   -1    0    0    0    0 -0.00000000000E+00 -0.00000000000E+00 -0.45593999997E+02  0.45594000000E+02  0.51100000000E-03 0.  1.
    9900012    2    1    2    0    0  0.20958702343E+02 -0.34836162315E+02  0.58294979817E+00  0.50528865243E+02  0.30000016392E+02 0.  0.
        -12    1    1    2    0    0 -0.20958702343E+02  0.34836162315E+02 -0.58294979817E+00  0.40659134757E+02  0.00000000000E+00 0.  1.
         11    1    3    3    0    0  0.10745830307E+02 -0.14585516363E+02 -0.93091386208E+01  0.20368363181E+02  0.51100000000E-03 0. -1.
        -11    1    3    3    0    0 -0.30265168449E+01  0.11616887836E+01  0.44817349473E+00  0.32726418663E+01  0.51100000000E-03 0.  1.
         12    1    3    3    0    0  0.13239388881E+02 -0.21412334735E+02  0.94439149243E+01  0.26887860195E+02  0.00000000000E+00 0. -1.
</event>
<event>
 7    1  0.6090311E-013  0.5052884E+02  0.7816164E-02  0.1300439E+00
        -11   -1    0    0    0    0  0.00000000000E+00  0.00000000000E+00  0.45593999997E+02  0.45594000000E+02  0.51100000000E-03 0.  1.
         11   -1    0    0    0    0 -0.00000000000E+00 -0.00000000000E+00 -0.45593999997E+02  0.45594000000E+02  0.51100000000E-03 0. -1.
    9900012    2    1    2    0    0  0.21650377749E+02 -0.27555726172E+02 -0.20618206369E+02  0.50528839465E+02  0.29999938037E+02 0.  0.
        -12    1    1    2    0    0 -0.21650377749E+02  0.27555726172E+02  0.20618206369E+02  0.40659160535E+02  0.00000000000E+00 0.  1.
         11    1    3    3    0    0  0.23177288977E+01 -0.18887510103E+02 -0.15100058625E+02  0.24292420132E+02  0.51100000000E-03 0. -1.
        -11    1    3    3    0    0  0.20101268414E+01 -0.80701327271E+01 -0.17828591514E+01  0.85056592435E+01  0.51100000000E-03 0.  1.
        -12    1    3    3    0    0  0.17322522010E+02 -0.59808334224E+00 -0.37352885930E+01  0.17730760090E+02  0.00000000000E+00 0.  1.
</event>
<event>
 7    1  0.6090311E-013  0.5052886E+02  0.7816164E-02  0.1300439E+00
        -11   -1    0    0    0    0  0.00000000000E+00  0.00000000000E+00  0.45593999997E+02  0.45594000000E+02  0.51100000000E-03 0. -1.
         11   -1    0    0    0    0 -0.00000000000E+00 -0.00000000000E+00 -0.45593999997E+02  0.45594000000E+02  0.51100000000E-03 0.  1.
    9900012    2    1    2    0    0 -0.35102890790E+02 -0.73176258343E+01 -0.19167821146E+02  0.50528856414E+02  0.29999989555E+02 0.  0.
        -12    1    1    2    0    0  0.35102890790E+02  0.73176258343E+01  0.19167821146E+02  0.40659143586E+02  0.00000000000E+00 0.  1.
         11    1    3    3    0    0 -0.28473453000E+02 -0.58522166555E+01 -0.19221882089E+02  0.34849199659E+02  0.51100000000E-03 0. -1.
        -11    1    3    3    0    0 -0.46832075689E+01 -0.36043973619E+01 -0.63368743985E+01  0.86648768532E+01  0.51100000000E-03 0.  1.
         12    1    3    3    0    0 -0.19462302212E+01  0.21389881831E+01  0.63909353422E+01  0.70147799017E+01  0.00000000000E+00 0. -1.
</event>
<event>
 7    1  0.6090311E-013  0.5052886E+02  0.7816164E-02  0.1300439E+00
        -11   -1    0    0    0    0  0.00000000000E+00  0.00000000000E+00  0.45593999997E+02  0.45594000000E+02  0.51100000000E-03 0. -1.
         11   -1    0    0    0    0 -0.00000000000E+00 -0.00000000000E+00 -0.45593999997E+02  0.45594000000E+02  0.51100000000E-03 0.  1.
    9900012    2    1    2    0    0 -0.10786060942E+02  0.36278690192E+02  0.14855399009E+02  0.50528863850E+02  0.30000012159E+02 0.  0.
        -12    1    1    2    0    0  0.10786060942E+02 -0.36278690192E+02 -0.14855399009E+02  0.40659136150E+02  0.00000000000E+00 0.  1.
         11    1    3    3    0    0 -0.60603061831E+01  0.25356236356E+02  0.58917822602E+01  0.26727871813E+02  0.51100000000E-03 0. -1.
        -11    1    3    3    0    0  0.43375555103E+01  0.79841003901E+01  0.10783298935E+02  0.14101056096E+02  0.51100000000E-03 0.  1.
        -12    1    3    3    0    0 -0.90633102697E+01  0.29383534463E+01 -0.18196821858E+01  0.96999359419E+01  0.00000000000E+00 0.  1.
</event>
<event>
 7    1  0.6090311E-013  0.5052886E+02  0.7816164E-02  0.1300439E+00
        -11   -1    0    0    0    0  0.00000000000E+00  0.00000000000E+00  0.45593999997E+02  0.45594000000E+02  0.51100000000E-03 0.  1.
         11   -1    0    0    0    0 -0.00000000000E+00 -0.00000000000E+00 -0.45593999997E+02  0.45594000000E+02  0.51100000000E-03 0. -1.
    9900012    2    1    2    0    0 -0.25175196404E+02 -0.54542221787E+00 -0.31923001786E+02  0.50528855365E+02  0.29999986368E+02 0.  0.
        -12    1    1    2    0    0  0.25175196404E+02  0.54542221787E+00  0.31923001786E+02  0.40659144635E+02  0.00000000000E+00 0.  1.
         11    1    3    3    0    0 -0.23991431359E+02  0.31231807270E+01 -0.24014899003E+02  0.34088977850E+02  0.51100000000E-03 0. -1.
        -11    1    3    3    0    0 -0.85109758407E+00  0.19557905102E+01 -0.10153197207E+02  0.10374820356E+02  0.51100000000E-03 0.  1.
        -12    1    3    3    0    0 -0.33266746144E+00 -0.56243934550E+01  0.22450944237E+01  0.60650571595E+01  0.00000000000E+00 0.  1.
</event>
<event>
 7    1  0.6090311E-013  0.5052887E+02  0.7816164E-02  0.1300439E+00
        -11   -1    0    0    0    0  0.00000000000E+00  0.00000000000E+00  0.45593999997E+02  0.45594000000E+02  0.51100000000E-03 0.  1.
         11   -1    0    0    0    0 -0.00000000000E+00 -0.00000000000E+00 -0.45593999997E+02  0.45594000000E+02  0.51100000000E-03 0. -1.
    9900012    2    1    2    0    0 -0.11756537335E+02  0.16457146292E+01 -0.38887539237E+02  0.50528865053E+02  0.30000015815E+02 0.  0.
        -12    1    1    2    0    0  0.11756537335E+02 -0.16457146292E+01  0.38887539237E+02  0.40659134947E+02  0.00000000000E+00 0.  1.
         11    1    3    3    0    0 -0.75074723170E+01 -0.75262888751E+01 -0.24948762928E+02  0.27119143363E+02  0.51100000000E-03 0. -1.
        -11    1    3    3    0    0 -0.44154251004E+01 -0.37531411239E+01 -0.33021298569E+01  0.66697907738E+01  0.51100000000E-03 0.  1.
         12    1    3    3    0    0  0.16636008242E+00  0.12925144628E+02 -0.10636646452E+02  0.16739930916E+02  0.00000000000E+00 0. -1.
</event>
<event>
 7    1  0.6090311E-013  0.5052888E+02  0.7816164E-02  0.1300439E+00
        -11   -1    0    0    0    0  0.00000000000E+00  0.00000000000E+00  0.45593999997E+02  0.45594000000E+02  0.51100000000E-03 0. -1.
         11   -1    0    0    0    0 -0.00000000000E+00 -0.00000000000E+00 -0.45593999997E+02  0.45594000000E+02  0.51100000000E-03 0.  1.
    9900012    2    1    2    0    0  0.31419748274E+02 -0.16540226074E+02 -0.19808700221E+02  0.50528877228E+02  0.30000052821E+02 0.  0.
        -12    1    1    2    0    0 -0.31419748274E+02  0.16540226074E+02  0.19808700221E+02  0.40659122772E+02  0.00000000000E+00 0.  1.
         11    1    3    3    0    0  0.45842563880E+01 -0.53399644828E+01 -0.19074591035E+01  0.72917095253E+01  0.51100000000E-03 0. -1.
        -11    1    3    3    0    0 -0.16202139856E+01 -0.77304199943E+01 -0.11356463805E+02  0.13833067522E+02  0.51100000000E-03 0.  1.
         12    1    3    3    0    0  0.28455705871E+02 -0.34698415974E+01 -0.65447773121E+01  0.29404100180E+02  0.00000000000E+00 0. -1.
</event>
<event>
 7    1  0.6090311E-013  0.5052884E+02  0.7816164E-02  0.1300439E+00
        -11   -1    0    0    0    0  0.00000000000E+00  0.00000000000E+00  0.45593999997E+02  0.45594000000E+02  0.51100000000E-03 0. -1.
         11   -1    0    0    0    0 -0.00000000000E+00 -0.00000000000E+00 -0.45593999997E+02  0.45594000000E+02  0.51100000000E-03 0.  1.
    9900012    2    1    2    0    0 -0.38278431666E+02 -0.13691593313E+02  0.68474439000E+00  0.50528844412E+02  0.29999953075E+02 0.  0.
        -12    1    1    2    0    0  0.38278431666E+02  0.13691593313E+02 -0.68474439000E+00  0.40659155588E+02  0.00000000000E+00 0.  1.
         11    1    3    3    0    0  0.25250179491E+01  0.19619843190E+01  0.27321804609E+01  0.42059372848E+01  0.51100000000E-03 0. -1.
        -11    1    3    3    0    0 -0.14029148866E+01 -0.17367325707E+00  0.33612456642E+01  0.36464099133E+01  0.51100000000E-03 0.  1.
         12    1    3    3    0    0 -0.39400534728E+02 -0.15479904375E+02 -0.54086817352E+01  0.42676497214E+02  0.00000000000E+00 0. -1.
</event>
<event>
 7    1  0.6090311E-013  0.5052886E+02  0.7816164E-02  0.1300439E+00
        -11   -1    0    0    0    0  0.00000000000E+00  0.00000000000E+00  0.45593999997E+02  0.45594000000E+02  0.51100000000E-03 0.  1.
         11   -1    0    0    0    0 -0.00000000000E+00 -0.00000000000E+00 -0.45593999997E+02  0.45594000000E+02  0.51100000000E-03 0. -1.
    9900012    2    1    2    0    0  0.16224490610E+02 -0.32869808072E+01 -0.37136598968E+02  0.50528864233E+02  0.30000013323E+02 0.  0.
        -12    1    1    2    0    0 -0.16224490610E+02  0.32869808072E+01  0.37136598968E+02  0.40659135767E+02  0.00000000000E+00 0.  1.
         11    1    3    3    0    0  0.11415666900E+02 -0.24347294869E+01 -0.21397650394E+02  0.24374265139E+02  0.51100000000E-03 0. -1.
        -11    1    3    3    0    0  0.48174368969E+01  0.92203954699E+00 -0.20497414770E+02  0.21076097070E+02  0.51100000000E-03 0.  1.
        -12    1    3    3    0    0 -0.86131869134E-02 -0.17742908673E+01  0.47584661957E+01  0.50785020237E+01  0.00000000000E+00 0.  1.
</event>
<event>
 7    1  0.6090311E-013  0.5052885E+02  0.7816164E-02  0.1300439E+00
        -11   -1    0    0    0    0  0.00000000000E+00  0.00000000000E+00  0.45593999997E+02  0.45594000000E+02  0.51100000000E-03 0. -1.
         11   -1    0    0    0    0 -0.00000000000E+00 -0.00000000000E+00 -0.45593999997E+02  0.45594000000E+02  0.51100000000E-03 0.  1.
    9900012    2    1    2    0    0 -0.24011664538E+02  0.26761267784E+02  0.18985287879E+02  0.50528847978E+02  0.29999963915E+02 0.  0.
        -12    1    1    2    0    0  0.24011664538E+02 -0.26761267784E+02 -0.18985287879E+02  0.40659152022E+02  0.00000000000E+00 0.  1.
         11    1    3    3    0    0 -0.21691257627E+01  0.19457731464E+02  0.48500135535E+01  0.20170053347E+02  0.51100000000E-03 0. -1.
        -11    1    3    3    0    0 -0.27408837794E+01  0.60596038643E+01  0.76756829132E+01  0.10156148450E+02  0.51100000000E-03 0.  1.
        -12    1    3    3    0    0 -0.19101654996E+02  0.12439324560E+01  0.64595914119E+01  0.20202646182E+02  0.00000000000E+00 0.  1.
</event>
<event>
 7    1  0.6090311E-013  0.5052885E+02  0.7816164E-02  0.1300439E+00
        -11   -1    0    0    0    0  0.00000000000E+00  0.00000000000E+00  0.45593999997E+02  0.45594000000E+02  0.51100000000E-03 0.  1.
         11   -1    0    0    0    0 -0.00000000000E+00 -0.00000000000E+00 -0.45593999997E+02  0.45594000000E+02  0.51100000000E-03 0. -1.
    9900012    2    1    2    0    0 -0.28580908784E+02  0.28881809361E+02  0.14625507178E+01  0.50528852032E+02  0.29999976237E+02 0.  0.
        -12    1    1    2    0    0  0.28580908784E+02 -0.28881809361E+02 -0.14625507178E+01  0.40659147968E+02  0.00000000000E+00 0.  1.
         11    1    3    3    0    0  0.38213083407E+01  0.54896666098E+01  0.23649978402E+01  0.70945085783E+01  0.51100000000E-03 0. -1.
        -11    1    3    3    0    0  0.23671265787E+00 -0.18880259087E+01  0.91241241713E+00  0.21102538696E+01  0.51100000000E-03 0.  1.
        -12    1    3    3    0    0 -0.32638929782E+02  0.25280168660E+02 -0.18148595395E+01  0.41324089584E+02  0.00000000000E+00 0.  1.
</event>
<event>
 7    1  0.6090311E-013  0.5052887E+02  0.7816164E-02  0.1300439E+00
        -11   -1    0    0    0    0  0.00000000000E+00  0.00000000000E+00  0.45593999997E+02  0.45594000000E+02  0.51100000000E-03 0. -1.
         11   -1    0    0    0    0 -0.00000000000E+00 -0.00000000000E+00 -0.45593999997E+02  0.45594000000E+02  0.51100000000E-03 0.  1.
    9900012    2    1    2    0    0 -0.37522749054E+02  0.12112085171E+02  0.99250162995E+01  0.50528865081E+02  0.30000015901E+02 0.  0.
        -12    1    1    2    0    0  0.37522749054E+02 -0.12112085171E+02 -0.99250162995E+01  0.40659134919E+02  0.00000000000E+00 0.  1.
         11    1    3    3    0    0 -0.42961909027E+01  0.21293865091E+01  0.10124791034E+02  0.11202809332E+02  0.51100000000E-03 0. -1.
        -11    1    3    3    0    0 -0.22158290455E+02 -0.92949741331E+00  0.53641555917E+01  0.22817273430E+02  0.51100000000E-03 0.  1.
        -12    1    3    3    0    0 -0.11068267697E+02  0.10912196076E+02 -0.55639303262E+01  0.16508782320E+02  0.00000000000E+00 0.  1.
</event>
<event>
 7    1  0.6090311E-013  0.5052885E+02  0.7816164E-02  0.1300439E+00
        -11   -1    0    0    0    0  0.00000000000E+00  0.00000000000E+00  0.45593999997E+02  0.45594000000E+02  0.51100000000E-03 0.  1.
         11   -1    0    0    0    0 -0.00000000000E+00 -0.00000000000E+00 -0.45593999997E+02  0.45594000000E+02  0.51100000000E-03 0. -1.
    9900012    2    1    2    0    0 -0.40090395203E+02  0.61872817722E+01 -0.27648623055E+01  0.50528847194E+02  0.29999961532E+02 0.  0.
        -12    1    1    2    0    0  0.40090395203E+02 -0.61872817722E+01  0.27648623055E+01  0.40659152806E+02  0.00000000000E+00 0.  1.
         11    1    3    3    0    0 -0.98805726838E+01 -0.14633929868E+01  0.22259004166E+01  0.10233370340E+02  0.51100000000E-03 0.  1.
        -11    1    3    3    0    0 -0.31609622053E+02  0.71421708794E+01  0.26465109973E+01  0.32514348093E+02  0.51100000000E-03 0. -1.
        -12    1    3    3    0    0  0.13997995335E+01  0.50850387953E+00 -0.76372737195E+01  0.77811287610E+01  0.00000000000E+00 0.  1.
</event>
<event>
 7    1  0.6090311E-013  0.5052886E+02  0.7816164E-02  0.1300439E+00
        -11   -1    0    0    0    0  0.00000000000E+00  0.00000000000E+00  0.45593999997E+02  0.45594000000E+02  0.51100000000E-03 0.  1.
         11   -1    0    0    0    0 -0.00000000000E+00 -0.00000000000E+00 -0.45593999997E+02  0.45594000000E+02  0.51100000000E-03 0. -1.
    9900012    2    1    2    0    0 -0.62929253577E+01  0.91549333261E+01 -0.39112046958E+02  0.50528856736E+02  0.29999990534E+02 0.  0.
        -12    1    1    2    0    0  0.62929253577E+01 -0.91549333261E+01  0.39112046958E+02  0.40659143264E+02  0.00000000000E+00 0.  1.
         11    1    3    3    0    0  0.16849266941E+01  0.78396457706E+01 -0.18869168385E+02  0.20502305714E+02  0.51100000000E-03 0. -1.
        -11    1    3    3    0    0 -0.58853712855E-01 -0.27092635248E+00 -0.21799790590E+02  0.21801553497E+02  0.51100000000E-03 0.  1.
        -12    1    3    3    0    0 -0.79189983389E+01  0.15862139080E+01  0.15569120175E+01  0.82249975249E+01  0.00000000000E+00 0.  1.
</event>
<event>
 7    1  0.6090311E-013  0.5052886E+02  0.7816164E-02  0.1300439E+00
        -11   -1    0    0    0    0  0.00000000000E+00  0.00000000000E+00  0.45593999997E+02  0.45594000000E+02  0.51100000000E-03 0. -1.
         11   -1    0    0    0    0 -0.00000000000E+00 -0.00000000000E+00 -0.45593999997E+02  0.45594000000E+02  0.51100000000E-03 0.  1.
    9900012    2    1    2    0    0  0.26255448564E+02  0.31007324597E+02  0.15372691912E+01  0.50528856446E+02  0.29999989652E+02 0.  0.
        -12    1    1    2    0    0 -0.26255448564E+02 -0.31007324597E+02 -0.15372691912E+01  0.40659143554E+02  0.00000000000E+00 0.  1.
         11    1    3    3    0    0  0.74724037870E+01  0.47698679087E+01 -0.80608951916E+00  0.89015863079E+01  0.51100000000E-03 0. -1.
        -11    1    3    3    0    0  0.13267177875E+02  0.88876388366E+01 -0.10708051807E+02  0.19226817382E+02  0.51100000000E-03 0.  1.
         12    1    3    3    0    0  0.55158669023E+01  0.17349817852E+02  0.13051410518E+02  0.22400452756E+02  0.00000000000E+00 0. -1.
</event>
<event>
 7    1  0.6090311E-013  0.5052883E+02  0.7816164E-02  0.1300439E+00
        -11   -1    0    0    0    0  0.00000000000E+00  0.00000000000E+00  0.45593999997E+02  0.45594000000E+02  0.51100000000E-03 0.  1.
         11   -1    0    0    0    0 -0.00000000000E+00 -0.00000000000E+00 -0.45593999997E+02  0.45594000000E+02  0.51100000000E-03 0. -1.
    9900012    2    1    2    0    0 -0.14417893310E+02 -0.28620291808E+02 -0.25023421460E+02  0.50528826715E+02  0.29999899283E+02 0.  0.
        -12    1    1    2    0    0  0.14417893310E+02  0.28620291808E+02  0.25023421460E+02  0.40659173285E+02  0.00000000000E+00 0.  1.
         11    1    3    3    0    0  0.49764282770E+01 -0.27335505579E+01 -0.50102602820E+01  0.75723077990E+01  0.51100000000E-03 0. -1.
        -11    1    3    3    0    0  0.16389771246E+01 -0.12545833459E+02 -0.36998233359E+01  0.13182294041E+02  0.51100000000E-03 0.  1.
        -12    1    3    3    0    0 -0.21033298711E+02 -0.13340907790E+02 -0.16313337842E+02  0.29774224875E+02  0.00000000000E+00 0.  1.
</event>
<event>
 7    1  0.6090311E-013  0.5052892E+02  0.7816164E-02  0.1300439E+00
        -11   -1    0    0    0    0  0.00000000000E+00  0.00000000000E+00  0.45593999997E+02  0.45594000000E+02  0.51100000000E-03 0.  1.
         11   -1    0    0    0    0 -0.00000000000E+00 -0.00000000000E+00 -0.45593999997E+02  0.45594000000E+02  0.51100000000E-03 0. -1.
    9900012    2    1    2    0    0  0.28597638462E+02 -0.13072394505E+01 -0.28872594912E+02  0.50528923061E+02  0.30000192136E+02 0.  0.
        -12    1    1    2    0    0 -0.28597638462E+02  0.13072394505E+01  0.28872594912E+02  0.40659076939E+02  0.00000000000E+00 0.  1.
         11    1    3    3    0    0  0.52161854150E+00 -0.83388557068E+01 -0.10312653445E+01  0.84185574105E+01  0.51100000000E-03 0.  1.
        -11    1    3    3    0    0  0.64315317665E+01  0.68425683025E+01 -0.12245613609E+02  0.15431798170E+02  0.51100000000E-03 0. -1.
        -12    1    3    3    0    0  0.21644488154E+02  0.18904795374E+00 -0.15595715958E+02  0.26678567481E+02  0.00000000000E+00 0.  1.
</event>
<event>
 7    1  0.6090311E-013  0.5052885E+02  0.7816164E-02  0.1300439E+00
        -11   -1    0    0    0    0  0.00000000000E+00  0.00000000000E+00  0.45593999997E+02  0.45594000000E+02  0.51100000000E-03 0.  1.
         11   -1    0    0    0    0 -0.00000000000E+00 -0.00000000000E+00 -0.45593999997E+02  0.45594000000E+02  0.51100000000E-03 0. -1.
    9900012    2    1    2    0    0  0.10570325433E+02  0.23813451623E+02 -0.31214642930E+02  0.50528853536E+02  0.29999980808E+02 0.  0.
        -12    1    1    2    0    0 -0.10570325433E+02 -0.23813451623E+02  0.31214642930E+02  0.40659146464E+02  0.00000000000E+00 0.  1.
         11    1    3    3    0    0 -0.25542707519E+01  0.60150913612E+01 -0.80628010668E+01  0.10378554064E+02  0.51100000000E-03 0. -1.
        -11    1    3    3    0    0 -0.15966446163E+01  0.13609033474E+02 -0.20437389219E+02  0.24605729912E+02  0.51100000000E-03 0.  1.
        -12    1    3    3    0    0  0.14721240801E+02  0.41893267874E+01 -0.27144526441E+01  0.15544569560E+02  0.00000000000E+00 0.  1.
</event>
<event>
 7    1  0.6996379E-013  0.5052887E+02  0.7816164E-02  0.1300439E+00
        -11   -1    0    0    0    0  0.00000000000E+00  0.00000000000E+00  0.45593999997E+02  0.45594000000E+02  0.51100000000E-03 0. -1.
         11   -1    0    0    0    0 -0.00000000000E+00 -0.00000000000E+00 -0.45593999997E+02  0.45594000000E+02  0.51100000000E-03 0.  1.
    9900012    2    1    2    0    0  0.16878755940E+02 -0.39054729193E+01  0.36783417720E+02  0.50528868922E+02  0.30000027577E+02 0.  0.
        -12    1    1    2    0    0 -0.16878755940E+02  0.39054729193E+01 -0.36783417720E+02  0.40659131078E+02  0.00000000000E+00 0.  1.
         11    1    3    3    0    0  0.69455533470E+01  0.41273326063E+01  0.21916985520E+02  0.23358720861E+02  0.51100000000E-03 0. -1.
        -11    1    3    3    0    0  0.27822500091E+01  0.47240611137E+01 -0.10207653198E+01  0.55767042793E+01  0.51100000000E-03 0.  1.
        -12    1    3    3    0    0  0.71509525843E+01 -0.12756866639E+02  0.15887197520E+02  0.21593443782E+02  0.00000000000E+00 0.  1.
</event>
<event>
 7    1  0.6090311E-013  0.5052885E+02  0.7816164E-02  0.1300439E+00
        -11   -1    0    0    0    0  0.00000000000E+00  0.00000000000E+00  0.45593999997E+02  0.45594000000E+02  0.51100000000E-03 0.  1.
         11   -1    0    0    0    0 -0.00000000000E+00 -0.00000000000E+00 -0.45593999997E+02  0.45594000000E+02  0.51100000000E-03 0. -1.
    9900012    2    1    2    0    0  0.16972255453E+02 -0.34122327753E+02  0.14169542968E+02  0.50528847840E+02  0.29999963495E+02 0.  0.
        -12    1    1    2    0    0 -0.16972255453E+02  0.34122327753E+02 -0.14169542968E+02  0.40659152160E+02  0.00000000000E+00 0.  1.
         11    1    3    3    0    0  0.17597821949E+01 -0.23088557327E+01 -0.33372166239E+01  0.44231960417E+01  0.51100000000E-03 0. -1.
        -11    1    3    3    0    0 -0.97301025623E+00 -0.51380777501E+01  0.13710394904E+02  0.14673837964E+02  0.51100000000E-03 0.  1.
         12    1    3    3    0    0  0.16185483514E+02 -0.26675394270E+02  0.37963646883E+01  0.31431813834E+02  0.00000000000E+00 0. -1.
</event>
<event>
 7    1  0.6090311E-013  0.5052886E+02  0.7816164E-02  0.1300439E+00
        -11   -1    0    0    0    0  0.00000000000E+00  0.00000000000E+00  0.45593999997E+02  0.45594000000E+02  0.51100000000E-03 0. -1.
         11   -1    0    0    0    0 -0.00000000000E+00 -0.00000000000E+00 -0.45593999997E+02  0.45594000000E+02  0.51100000000E-03 0.  1.
    9900012    2    1    2    0    0 -0.25954579333E+02  0.31294192965E+02 -0.44619770948E+00  0.50528858419E+02  0.29999995652E+02 0.  0.
        -12    1    1    2    0    0  0.25954579333E+02 -0.31294192965E+02  0.44619770948E+00  0.40659141581E+02  0.00000000000E+00 0.  1.
         11    1    3    3    0    0 -0.80375820204E+01  0.23252230070E+01 -0.18496562405E+01  0.85691665427E+01  0.51100000000E-03 0. -1.
        -11    1    3    3    0    0 -0.23709378766E+02  0.22917067824E+02  0.39344072878E+01  0.33208526014E+02  0.51100000000E-03 0.  1.
        -12    1    3    3    0    0  0.57923814531E+01  0.60519021343E+01 -0.25309487568E+01  0.87511658624E+01  0.00000000000E+00 0.  1.
</event>
<event>
 7    1  0.6090311E-013  0.5052886E+02  0.7816164E-02  0.1300439E+00
        -11   -1    0    0    0    0  0.00000000000E+00  0.00000000000E+00  0.45593999997E+02  0.45594000000E+02  0.51100000000E-03 0.  1.
         11   -1    0    0    0    0 -0.00000000000E+00 -0.00000000000E+00 -0.45593999997E+02  0.45594000000E+02  0.51100000000E-03 0. -1.
    9900012    2    1    2    0    0  0.20261059028E+01 -0.29201933610E+02  0.28218928414E+02  0.50528856471E+02  0.29999989729E+02 0.  0.
        -12    1    1    2    0    0 -0.20261059028E+01  0.29201933610E+02 -0.28218928414E+02  0.40659143529E+02  0.00000000000E+00 0.  1.
         11    1    3    3    0    0 -0.73962979649E+01 -0.46310379795E+01  0.47080001869E+01  0.99154930475E+01  0.51100000000E-03 0. -1.
        -11    1    3    3    0    0 -0.19019463533E+01 -0.71801673178E+00 -0.27189818938E+01  0.33949684473E+01  0.51100000000E-03 0.  1.
        -12    1    3    3    0    0  0.11324350221E+02 -0.23852878898E+02  0.26229910121E+02  0.37218394976E+02  0.00000000000E+00 0.  1.
</event>
<event>
 7    1  0.6090311E-013  0.5052886E+02  0.7816164E-02  0.1300439E+00
        -11   -1    0    0    0    0  0.00000000000E+00  0.00000000000E+00  0.45593999997E+02  0.45594000000E+02  0.51100000000E-03 0. -1.
         11   -1    0    0    0    0 -0.00000000000E+00 -0.00000000000E+00 -0.45593999997E+02  0.45594000000E+02  0.51100000000E-03 0.  1.
    9900012    2    1    2    0    0 -0.18613049915E+02  0.27162751232E+02  0.23851723626E+02  0.50528863246E+02  0.30000010323E+02 0.  0.
        -12    1    1    2    0    0  0.18613049915E+02 -0.27162751232E+02 -0.23851723626E+02  0.40659136754E+02  0.00000000000E+00 0.  1.
         11    1    3    3    0    0 -0.99295412596E+01  0.69038297302E+01  0.20416271292E+02  0.23729365527E+02  0.51100000000E-03 0. -1.
        -11    1    3    3    0    0 -0.10409209939E+02  0.59725020025E+01 -0.16691772456E-01  0.12000946238E+02  0.51100000000E-03 0.  1.
        -12    1    3    3    0    0  0.17257012831E+01  0.14286419499E+02  0.34521441066E+01  0.14798551482E+02  0.00000000000E+00 0.  1.
</event>
<event>
 7    1  0.6090311E-013  0.5052886E+02  0.7816164E-02  0.1300439E+00
        -11   -1    0    0    0    0  0.00000000000E+00  0.00000000000E+00  0.45593999997E+02  0.45594000000E+02  0.51100000000E-03 0.  1.
         11   -1    0    0    0    0 -0.00000000000E+00 -0.00000000000E+00 -0.45593999997E+02  0.45594000000E+02  0.51100000000E-03 0. -1.
    9900012    2    1    2    0    0  0.18120560163E+02 -0.74019848157E+01 -0.35637357319E+02  0.50528864292E+02  0.30000013503E+02 0.  0.
        -12    1    1    2    0    0 -0.18120560163E+02  0.74019848157E+01  0.35637357319E+02  0.40659135708E+02  0.00000000000E+00 0.  1.
         11    1    3    3    0    0  0.14093127573E+02 -0.99855203517E+01 -0.14808518384E+02  0.22751243449E+02  0.51100000000E-03 0. -1.
        -11    1    3    3    0    0  0.91755006508E+01  0.96123967746E+00 -0.39125589179E+01  0.10021073369E+02  0.51100000000E-03 0.  1.
        -12    1    3    3    0    0 -0.51480680613E+01  0.16222958585E+01 -0.16916280016E+02  0.17756547474E+02  0.00000000000E+00 0.  1.
</event>
<event>
 7    1  0.6090311E-013  0.5052886E+02  0.7816164E-02  0.1300439E+00
        -11   -1    0    0    0    0  0.00000000000E+00  0.00000000000E+00  0.45593999997E+02  0.45594000000E+02  0.51100000000E-03 0.  1.
         11   -1    0    0    0    0 -0.00000000000E+00 -0.00000000000E+00 -0.45593999997E+02  0.45594000000E+02  0.51100000000E-03 0. -1.
    9900012    2    1    2    0    0 -0.20939780373E+02  0.49113485975E+01 -0.34504635195E+02  0.50528860842E+02  0.30000003016E+02 0.  0.
        -12    1    1    2    0    0  0.20939780373E+02 -0.49113485975E+01  0.34504635195E+02  0.40659139158E+02  0.00000000000E+00 0.  1.
         11    1    3    3    0    0 -0.12421507033E+02  0.38600499639E+01 -0.81552124777E+01  0.15352567001E+02  0.51100000000E-03 0. -1.
        -11    1    3    3    0    0 -0.48693235382E+01 -0.90865215795E+01 -0.54451873957E+01  0.11658698562E+02  0.51100000000E-03 0.  1.
         12    1    3    3    0    0 -0.36489498018E+01  0.10137820213E+02 -0.20904235321E+02  0.23517595279E+02  0.00000000000E+00 0. -1.
</event>
<event>
 7    1  0.6090311E-013  0.5052877E+02  0.7816164E-02  0.1300439E+00
        -11   -1    0    0    0    0  0.00000000000E+00  0.00000000000E+00  0.45593999997E+02  0.45594000000E+02  0.51100000000E-03 0.  1.
         11   -1    0    0    0    0 -0.00000000000E+00 -0.00000000000E+00 -0.45593999997E+02  0.45594000000E+02  0.51100000000E-03 0. -1.
    9900012    2    1    2    0    0 -0.32513316020E+02  0.18683637844E+02 -0.15715567123E+02  0.50528768678E+02  0.29999722872E+02 0.  0.
        -12    1    1    2    0    0  0.32513316020E+02 -0.18683637844E+02  0.15715567123E+02  0.40659231322E+02  0.00000000000E+00 0.  1.
         11    1    3    3    0    0 -0.23000296277E+02  0.15806247318E+02 -0.84375139026E+01  0.29155492179E+02  0.51100000000E-03 0. -1.
        -11    1    3    3    0    0 -0.76198937387E+01  0.97048162633E+01 -0.19132217643E+01  0.12486258730E+02  0.51100000000E-03 0.  1.
        -12    1    3    3    0    0 -0.18931260043E+01 -0.68274257370E+01 -0.53648314564E+01  0.88870177685E+01  0.00000000000E+00 0.  1.
</event>
<event>
 7    1  0.6090311E-013  0.5052886E+02  0.7816164E-02  0.1300439E+00
        -11   -1    0    0    0    0  0.00000000000E+00  0.00000000000E+00  0.45593999997E+02  0.45594000000E+02  0.51100000000E-03 0.  1.
         11   -1    0    0    0    0 -0.00000000000E+00 -0.00000000000E+00 -0.45593999997E+02  0.45594000000E+02  0.51100000000E-03 0. -1.
    9900012    2    1    2    0    0 -0.14310996260E+02  0.22220211087E+01 -0.37992420732E+02  0.50528855582E+02  0.29999987026E+02 0.  0.
        -12    1    1    2    0    0  0.14310996260E+02 -0.22220211087E+01  0.37992420732E+02  0.40659144418E+02  0.00000000000E+00 0.  1.
         11    1    3    3    0    0  0.43884097279E+00  0.21841702896E+01 -0.27957734256E+01  0.35748469285E+01  0.51100000000E-03 0. -1.
        -11    1    3    3    0    0 -0.20040938418E+02  0.19882500626E+01 -0.12810239489E+02  0.23868275744E+02  0.51100000000E-03 0.  1.
        -12    1    3    3    0    0  0.52911011857E+01 -0.19503992435E+01 -0.22386407818E+02  0.23085732909E+02  0.00000000000E+00 0.  1.
</event>
<event>
 7    1  0.6090311E-013  0.5052886E+02  0.7816164E-02  0.1300439E+00
        -11   -1    0    0    0    0  0.00000000000E+00  0.00000000000E+00  0.45593999997E+02  0.45594000000E+02  0.51100000000E-03 0.  1.
         11   -1    0    0    0    0 -0.00000000000E+00 -0.00000000000E+00 -0.45593999997E+02  0.45594000000E+02  0.51100000000E-03 0. -1.
    9900012    2    1    2    0    0 -0.18766225050E+02 -0.31273502903E+02 -0.17971149913E+02  0.50528863073E+02  0.30000009796E+02 0.  0.
        -12    1    1    2    0    0  0.18766225050E+02  0.31273502903E+02  0.17971149913E+02  0.40659136927E+02  0.00000000000E+00 0.  1.
         11    1    3    3    0    0 -0.62601663607E+01 -0.13789589973E+02 -0.57803414007E+01  0.16209713799E+02  0.51100000000E-03 0. -1.
        -11    1    3    3    0    0  0.28899551394E+01 -0.15537254571E+02 -0.98577863965E+01  0.18626166358E+02  0.51100000000E-03 0.  1.
        -12    1    3    3    0    0 -0.15396013829E+02 -0.19466583598E+01 -0.23330221161E+01  0.15692982916E+02  0.00000000000E+00 0.  1.
</event>
<event>
 7    1  0.6090311E-013  0.5052886E+02  0.7816164E-02  0.1300439E+00
        -11   -1    0    0    0    0  0.00000000000E+00  0.00000000000E+00  0.45593999997E+02  0.45594000000E+02  0.51100000000E-03 0. -1.
         11   -1    0    0    0    0 -0.00000000000E+00 -0.00000000000E+00 -0.45593999997E+02  0.45594000000E+02  0.51100000000E-03 0.  1.
    9900012    2    1    2    0    0  0.85448202356E+01  0.37128614352E+02  0.14199215581E+02  0.50528859826E+02  0.29999999926E+02 0.  0.
        -12    1    1    2    0    0 -0.85448202356E+01 -0.37128614352E+02 -0.14199215581E+02  0.40659140174E+02  0.00000000000E+00 0.  1.
         11    1    3    3    0    0  0.77296648258E+01  0.11425535232E+01  0.25111523565E+01  0.82072549181E+01  0.51100000000E-03 0. -1.
        -11    1    3    3    0    0  0.32529459276E-01  0.20611435339E+01  0.79144299036E+01  0.81784822427E+01  0.51100000000E-03 0.  1.
         12    1    3    3    0    0  0.78262595051E+00  0.33924917295E+02  0.37736333211E+01  0.34143122665E+02  0.00000000000E+00 0. -1.
</event>
<event>
 7    1  0.6090311E-013  0.5052886E+02  0.7816164E-02  0.1300439E+00
        -11   -1    0    0    0    0  0.00000000000E+00  0.00000000000E+00  0.45593999997E+02  0.45594000000E+02  0.51100000000E-03 0.  1.
         11   -1    0    0    0    0 -0.00000000000E+00 -0.00000000000E+00 -0.45593999997E+02  0.45594000000E+02  0.51100000000E-03 0. -1.
    9900012    2    1    2    0    0  0.33759596801E+02 -0.18257171776E+02  0.13421286598E+02  0.50528860421E+02  0.30000001734E+02 0.  0.
        -12    1    1    2    0    0 -0.33759596801E+02  0.18257171776E+02 -0.13421286598E+02  0.40659139579E+02  0.00000000000E+00 0.  1.
         11    1    3    3    0    0  0.19950400637E+02  0.20848353552E+01 -0.43752062166E+00  0.20063809424E+02  0.51100000000E-03 0.  1.
        -11    1    3    3    0    0  0.17617844650E+01 -0.15258870066E+01 -0.19960708398E+01  0.30686340148E+01  0.51100000000E-03 0. -1.
        -12    1    3    3    0    0  0.12047411698E+02 -0.18816120124E+02  0.15854878059E+02  0.27396416982E+02  0.00000000000E+00 0.  1.
</event>
<event>
 7    1  0.6090311E-013  0.5052886E+02  0.7816164E-02  0.1300439E+00
        -11   -1    0    0    0    0  0.00000000000E+00  0.00000000000E+00  0.45593999997E+02  0.45594000000E+02  0.51100000000E-03 0.  1.
         11   -1    0    0    0    0 -0.00000000000E+00 -0.00000000000E+00 -0.45593999997E+02  0.45594000000E+02  0.51100000000E-03 0. -1.
    9900012    2    1    2    0    0 -0.12575685744E+02 -0.37625120829E+02 -0.89088867868E+01  0.50528857694E+02  0.29999993446E+02 0.  0.
        -12    1    1    2    0    0  0.12575685744E+02  0.37625120829E+02  0.89088867868E+01  0.40659142306E+02  0.00000000000E+00 0.  1.
         11    1    3    3    0    0  0.21936869011E+01 -0.13426213301E+01  0.25961622935E+01  0.36544429359E+01  0.51100000000E-03 0.  1.
        -11    1    3    3    0    0  0.55178498765E+01 -0.15056887998E+02 -0.30931563825E+01  0.16331691894E+02  0.51100000000E-03 0. -1.
         12    1    3    3    0    0 -0.20287222521E+02 -0.21225611501E+02 -0.84118926978E+01  0.30542722864E+02  0.00000000000E+00 0. -1.
</event>
<event>
 7    1  0.6090311E-013  0.5052886E+02  0.7816164E-02  0.1300439E+00
        -11   -1    0    0    0    0  0.00000000000E+00  0.00000000000E+00  0.45593999997E+02  0.45594000000E+02  0.51100000000E-03 0.  1.
         11   -1    0    0    0    0 -0.00000000000E+00 -0.00000000000E+00 -0.45593999997E+02  0.45594000000E+02  0.51100000000E-03 0. -1.
    9900012    2    1    2    0    0 -0.28260504302E+02 -0.10937223661E+02 -0.27108791619E+02  0.50528861447E+02  0.30000004853E+02 0.  0.
        -12    1    1    2    0    0  0.28260504302E+02  0.10937223661E+02  0.27108791619E+02  0.40659138553E+02  0.00000000000E+00 0.  1.
         11    1    3    3    0    0 -0.20017238626E+02 -0.47786295980E+00 -0.96794450384E+01  0.22239825803E+02  0.51100000000E-03 0. -1.
        -11    1    3    3    0    0  0.30100199227E+01  0.26590522501E+01 -0.41809422124E+00  0.40380170682E+01  0.51100000000E-03 0.  1.
        -12    1    3    3    0    0 -0.11253285599E+02 -0.13118412951E+02 -0.17011252360E+02  0.24251018576E+02  0.00000000000E+00 0.  1.
</event>
<event>
 7    1  0.6090311E-013  0.5052888E+02  0.7816164E-02  0.1300439E+00
        -11   -1    0    0    0    0  0.00000000000E+00  0.00000000000E+00  0.45593999997E+02  0.45594000000E+02  0.51100000000E-03 0.  1.
         11   -1    0    0    0    0 -0.00000000000E+00 -0.00000000000E+00 -0.45593999997E+02  0.45594000000E+02  0.51100000000E-03 0. -1.
    9900012    2    1    2    0    0  0.27071000827E+01  0.29284031419E+01 -0.40463072949E+02  0.50528877921E+02  0.30000054927E+02 0.  0.
        -12    1    1    2    0    0 -0.27071000827E+01 -0.29284031419E+01  0.40463072949E+02  0.40659122079E+02  0.00000000000E+00 0.  1.
         11    1    3    3    0    0  0.26134472757E+01  0.24562130258E+01 -0.21157857192E+02  0.21459683369E+02  0.51100000000E-03 0. -1.
        -11    1    3    3    0    0  0.10146079495E+02 -0.16623639312E+01 -0.49399213856E+01  0.11406542268E+02  0.51100000000E-03 0.  1.
         12    1    3    3    0    0 -0.10052426688E+02  0.21345540473E+01 -0.14365294371E+02  0.17662652283E+02  0.00000000000E+00 0. -1.
</event>
<event>
 7    1  0.6090311E-013  0.5052887E+02  0.7816164E-02  0.1300439E+00
        -11   -1    0    0    0    0  0.00000000000E+00  0.00000000000E+00  0.45593999997E+02  0.45594000000E+02  0.51100000000E-03 0.  1.
         11   -1    0    0    0    0 -0.00000000000E+00 -0.00000000000E+00 -0.45593999997E+02  0.45594000000E+02  0.51100000000E-03 0. -1.
    9900012    2    1    2    0    0 -0.19406454198E+02 -0.32522727019E+02 -0.14792801152E+02  0.50528865685E+02  0.30000017737E+02 0.  0.
        -12    1    1    2    0    0  0.19406454198E+02  0.32522727019E+02  0.14792801152E+02  0.40659134315E+02  0.00000000000E+00 0.  1.
         11    1    3    3    0    0 -0.70610962482E+01 -0.16844871428E+02 -0.65224751086E+01  0.19394624396E+02  0.51100000000E-03 0. -1.
        -11    1    3    3    0    0 -0.15442682701E+02 -0.12776616846E+02 -0.13674143820E+02  0.24263153062E+02  0.51100000000E-03 0.  1.
        -12    1    3    3    0    0  0.30973247516E+01 -0.29012387444E+01  0.54038177758E+01  0.68710882270E+01  0.00000000000E+00 0.  1.
</event>
<event>
 7    1  0.6090311E-013  0.5052886E+02  0.7816164E-02  0.1300439E+00
        -11   -1    0    0    0    0  0.00000000000E+00  0.00000000000E+00  0.45593999997E+02  0.45594000000E+02  0.51100000000E-03 0.  1.
         11   -1    0    0    0    0 -0.00000000000E+00 -0.00000000000E+00 -0.45593999997E+02  0.45594000000E+02  0.51100000000E-03 0. -1.
    9900012    2    1    2    0    0 -0.40292899372E+02 -0.13051984864E+01  0.52862484966E+01  0.50528859502E+02  0.29999998942E+02 0.  0.
        -12    1    1    2    0    0  0.40292899372E+02  0.13051984864E+01 -0.52862484966E+01  0.40659140498E+02  0.00000000000E+00 0.  1.
         11    1    3    3    0    0 -0.78572536234E+01  0.16331754523E+01  0.40236716594E+01  0.89773955267E+01  0.51100000000E-03 0. -1.
        -11    1    3    3    0    0 -0.15691531799E+02  0.11305471452E+02 -0.14871610584E+01  0.19397151936E+02  0.51100000000E-03 0.  1.
         12    1    3    3    0    0 -0.16744113949E+02 -0.14243845390E+02  0.27497378956E+01  0.22154312039E+02  0.00000000000E+00 0. -1.
</event>
<event>
 7    1  0.6090311E-013  0.5052887E+02  0.7816164E-02  0.1300439E+00
        -11   -1    0    0    0    0  0.00000000000E+00  0.00000000000E+00  0.45593999997E+02  0.45594000000E+02  0.51100000000E-03 0.  1.
         11   -1    0    0    0    0 -0.00000000000E+00 -0.00000000000E+00 -0.45593999997E+02  0.45594000000E+02  0.51100000000E-03 0. -1.
    9900012    2    1    2    0    0  0.32098230706E+01 -0.37265455737E+02 -0.15942019529E+02  0.50528866437E+02  0.30000020021E+02 0.  0.
        -12    1    1    2    0    0 -0.32098230706E+01  0.37265455737E+02  0.15942019529E+02  0.40659133563E+02  0.00000000000E+00 0.  1.
         11    1    3    3    0    0 -0.74321270070E+01 -0.61942709039E+01 -0.71543347312E+01  0.12032872042E+02  0.51100000000E-03 0. -1.
        -11    1    3    3    0    0  0.49295303542E+01  0.60301704704E+00  0.51617879450E+00  0.49930291288E+01  0.51100000000E-03 0.  1.
         12    1    3    3    0    0  0.57124197235E+01 -0.31674201880E+02 -0.93038635922E+01  0.33502965266E+02  0.00000000000E+00 0. -1.
</event>
<event>
 7    1  0.6090311E-013  0.5052886E+02  0.7816164E-02  0.1300439E+00
        -11   -1    0    0    0    0  0.00000000000E+00  0.00000000000E+00  0.45593999997E+02  0.45594000000E+02  0.51100000000E-03 0. -1.
         11   -1    0    0    0    0 -0.00000000000E+00 -0.00000000000E+00 -0.45593999997E+02  0.45594000000E+02  0.51100000000E-03 0.  1.
    9900012    2    1    2    0    0 -0.65846549896E+01 -0.35264235688E+02  0.19137443151E+02  0.50528859203E+02  0.29999998034E+02 0.  0.
        -12    1    1    2    0    0  0.65846549896E+01  0.35264235688E+02 -0.19137443151E+02  0.40659140797E+02  0.00000000000E+00 0.  1.
         11    1    3    3    0    0 -0.34551186144E+00 -0.16280549932E+02  0.16134195952E+01  0.16363948410E+02  0.51100000000E-03 0. -1.
        -11    1    3    3    0    0  0.40318848774E+01 -0.92033348475E+01 -0.17868239810E+01  0.10205400932E+02  0.51100000000E-03 0.  1.
        -12    1    3    3    0    0 -0.10271028006E+02 -0.97803509089E+01  0.19310847537E+02  0.23959509861E+02  0.00000000000E+00 0.  1.
</event>
<event>
 7    1  0.6090311E-013  0.5052886E+02  0.7816164E-02  0.1300439E+00
        -11   -1    0    0    0    0  0.00000000000E+00  0.00000000000E+00  0.45593999997E+02  0.45594000000E+02  0.51100000000E-03 0.  1.
         11   -1    0    0    0    0 -0.00000000000E+00 -0.00000000000E+00 -0.45593999997E+02  0.45594000000E+02  0.51100000000E-03 0. -1.
    9900012    2    1    2    0    0 -0.58167222137E+01  0.62619305003E+01 -0.39750721133E+02  0.50528857590E+02  0.29999993132E+02 0.  0.
        -12    1    1    2    0    0  0.58167222137E+01 -0.62619305003E+01  0.39750721133E+02  0.40659142410E+02  0.00000000000E+00 0.  1.
         11    1    3    3    0    0  0.69737621260E+01 -0.31458556961E+01 -0.76307290916E+01  0.10805452003E+02  0.51100000000E-03 0.  1.
        -11    1    3    3    0    0  0.30576475038E+01 -0.13569330159E+01 -0.95478856942E+01  0.10116946029E+02  0.51100000000E-03 0. -1.
         12    1    3    3    0    0 -0.15848131843E+02  0.10764719212E+02 -0.22572106347E+02  0.29606459559E+02  0.00000000000E+00 0. -1.
</event>
<event>
 7    1  0.6090311E-013  0.5052885E+02  0.7816164E-02  0.1300439E+00
        -11   -1    0    0    0    0  0.00000000000E+00  0.00000000000E+00  0.45593999997E+02  0.45594000000E+02  0.51100000000E-03 0.  1.
         11   -1    0    0    0    0 -0.00000000000E+00 -0.00000000000E+00 -0.45593999997E+02  0.45594000000E+02  0.51100000000E-03 0. -1.
    9900012    2    1    2    0    0 -0.22943042267E+02 -0.88886224158E+01 -0.32369358800E+02  0.50528853599E+02  0.29999981000E+02 0.  0.
        -12    1    1    2    0    0  0.22943042267E+02  0.88886224158E+01  0.32369358800E+02  0.40659146401E+02  0.00000000000E+00 0.  1.
         11    1    3    3    0    0 -0.24039264166E+00  0.19367473989E+01  0.23667353725E+01  0.30676074869E+01  0.51100000000E-03 0. -1.
        -11    1    3    3    0    0 -0.10058553146E+02 -0.12249773299E+02 -0.77880879845E+01  0.17660287427E+02  0.51100000000E-03 0.  1.
         12    1    3    3    0    0 -0.12644096479E+02  0.14244034848E+01 -0.26948006188E+02  0.29800958686E+02  0.00000000000E+00 0. -1.
</event>
<event>
 7    1  0.6090311E-013  0.5052887E+02  0.7816164E-02  0.1300439E+00
        -11   -1    0    0    0    0  0.00000000000E+00  0.00000000000E+00  0.45593999997E+02  0.45594000000E+02  0.51100000000E-03 0. -1.
         11   -1    0    0    0    0 -0.00000000000E+00 -0.00000000000E+00 -0.45593999997E+02  0.45594000000E+02  0.51100000000E-03 0.  1.
    9900012    2    1    2    0    0 -0.37293758268E+01  0.40277122564E+02  0.41243222887E+01  0.50528869654E+02  0.30000029802E+02 0.  0.
        -12    1    1    2    0    0  0.37293758268E+01 -0.40277122564E+02 -0.41243222887E+01  0.40659130346E+02  0.00000000000E+00 0.  1.
         11    1    3    3    0    0 -0.91741194611E+01  0.18791041100E+02 -0.61791813991E+00  0.20920074489E+02  0.51100000000E-03 0. -1.
        -11    1    3    3    0    0  0.10529097017E+02  0.11217726282E+02 -0.31387854252E+01  0.15701950234E+02  0.51100000000E-03 0.  1.
         12    1    3    3    0    0 -0.50843533826E+01  0.10268355182E+02  0.78810258539E+01  0.13906844932E+02  0.00000000000E+00 0. -1.
</event>
<event>
 7    1  0.6090311E-013  0.5052888E+02  0.7816164E-02  0.1300439E+00
        -11   -1    0    0    0    0  0.00000000000E+00  0.00000000000E+00  0.45593999997E+02  0.45594000000E+02  0.51100000000E-03 0. -1.
         11   -1    0    0    0    0 -0.00000000000E+00 -0.00000000000E+00 -0.45593999997E+02  0.45594000000E+02  0.51100000000E-03 0.  1.
    9900012    2    1    2    0    0 -0.35019864004E+01 -0.34436266941E+02  0.21331743997E+02  0.50528884275E+02  0.30000074242E+02 0.  0.
        -12    1    1    2    0    0  0.35019864004E+01  0.34436266941E+02 -0.21331743997E+02  0.40659115725E+02  0.00000000000E+00 0.  1.
         11    1    3    3    0    0  0.57336502651E+01  0.15362850165E+01 -0.36603422323E+00  0.59471756598E+01  0.51100000000E-03 0. -1.
        -11    1    3    3    0    0 -0.25305984306E+01 -0.95902117472E+01  0.24201216883E+00  0.99214242891E+01  0.51100000000E-03 0.  1.
         12    1    3    3    0    0 -0.67050382349E+01 -0.26382340210E+02  0.21455766052E+02  0.34660284326E+02  0.00000000000E+00 0. -1.
</event>
<event>
 7    1  0.6090311E-013  0.5052885E+02  0.7816164E-02  0.1300439E+00
        -11   -1    0    0    0    0  0.00000000000E+00  0.00000000000E+00  0.45593999997E+02  0.45594000000E+02  0.51100000000E-03 0.  1.
         11   -1    0    0    0    0 -0.00000000000E+00 -0.00000000000E+00 -0.45593999997E+02  0.45594000000E+02  0.51100000000E-03 0. -1.
    9900012    2    1    2    0    0  0.11482216745E+02  0.85993668935E+01 -0.38044392820E+02  0.50528852968E+02  0.29999979081E+02 0.  0.
        -12    1    1    2    0    0 -0.11482216745E+02 -0.85993668935E+01  0.38044392820E+02  0.40659147032E+02  0.00000000000E+00 0.  1.
         11    1    3    3    0    0  0.69864195157E+01  0.12166433821E+02 -0.15997161637E+02  0.21277719574E+02  0.51100000000E-03 0. -1.
        -11    1    3    3    0    0  0.11569677009E+02 -0.36512291093E+01 -0.14516696784E+02  0.18918863229E+02  0.51100000000E-03 0.  1.
        -12    1    3    3    0    0 -0.70738797801E+01  0.84162181315E-01 -0.75305343984E+01  0.10332270164E+02  0.00000000000E+00 0.  1.
</event>
<event>
 7    1  0.6090311E-013  0.5052886E+02  0.7816164E-02  0.1300439E+00
        -11   -1    0    0    0    0  0.00000000000E+00  0.00000000000E+00  0.45593999997E+02  0.45594000000E+02  0.51100000000E-03 0.  1.
         11   -1    0    0    0    0 -0.00000000000E+00 -0.00000000000E+00 -0.45593999997E+02  0.45594000000E+02  0.51100000000E-03 0. -1.
    9900012    2    1    2    0    0 -0.28807686525E+02  0.20243300473E+02 -0.20334501181E+02  0.50528856437E+02  0.29999989626E+02 0.  0.
        -12    1    1    2    0    0  0.28807686525E+02 -0.20243300473E+02  0.20334501181E+02  0.40659143563E+02  0.00000000000E+00 0.  1.
         11    1    3    3    0    0 -0.33432868353E+01  0.71490590230E+01 -0.82640264783E+01  0.11427193254E+02  0.51100000000E-03 0. -1.
        -11    1    3    3    0    0 -0.83922755697E+01  0.37084167691E+01  0.72273855533E+01  0.11679800785E+02  0.51100000000E-03 0.  1.
         12    1    3    3    0    0 -0.17072124120E+02  0.93858246812E+01 -0.19297860256E+02  0.27421862398E+02  0.00000000000E+00 0. -1.
</event>
<event>
 7    1  0.6090311E-013  0.5052885E+02  0.7816164E-02  0.1300439E+00
        -11   -1    0    0    0    0  0.00000000000E+00  0.00000000000E+00  0.45593999997E+02  0.45594000000E+02  0.51100000000E-03 0.  1.
         11   -1    0    0    0    0 -0.00000000000E+00 -0.00000000000E+00 -0.45593999997E+02  0.45594000000E+02  0.51100000000E-03 0. -1.
    9900012    2    1    2    0    0  0.47169736959E+01 -0.27822967070E+02 -0.29271133779E+02  0.50528848383E+02  0.29999965146E+02 0.  0.
        -12    1    1    2    0    0 -0.47169736959E+01  0.27822967070E+02  0.29271133779E+02  0.40659151617E+02  0.00000000000E+00 0.  1.
         11    1    3    3    0    0  0.47781261215E+01 -0.89327543848E+01 -0.17128552474E+02  0.19900047745E+02  0.51100000000E-03 0. -1.
        -11    1    3    3    0    0  0.62093290847E+01 -0.18906663800E+02 -0.13709566252E+02  0.24165469389E+02  0.51100000000E-03 0.  1.
        -12    1    3    3    0    0 -0.62704815103E+01  0.16451114069E-01  0.15669849470E+01  0.64633312490E+01  0.00000000000E+00 0.  1.
</event>
<event>
 7    1  0.6090311E-013  0.5052886E+02  0.7816164E-02  0.1300439E+00
        -11   -1    0    0    0    0  0.00000000000E+00  0.00000000000E+00  0.45593999997E+02  0.45594000000E+02  0.51100000000E-03 0. -1.
         11   -1    0    0    0    0 -0.00000000000E+00 -0.00000000000E+00 -0.45593999997E+02  0.45594000000E+02  0.51100000000E-03 0.  1.
    9900012    2    1    2    0    0  0.32090161149E+01 -0.22606077712E+02  0.33642728422E+02  0.50528859458E+02  0.29999998808E+02 0.  0.
        -12    1    1    2    0    0 -0.32090161149E+01  0.22606077712E+02 -0.33642728422E+02  0.40659140542E+02  0.00000000000E+00 0.  1.
         11    1    3    3    0    0  0.43340025705E+01  0.20576590681E+00 -0.69096119166E+00  0.43935572738E+01  0.51100000000E-03 0. -1.
        -11    1    3    3    0    0 -0.55790058884E+01 -0.16250373583E+02  0.86121578982E+01  0.19218980520E+02  0.51100000000E-03 0.  1.
         12    1    3    3    0    0  0.44540194328E+01 -0.65614700352E+01  0.25721531716E+02  0.26916321664E+02  0.00000000000E+00 0. -1.
</event>
<event>
 7    1  0.6090311E-013  0.5052888E+02  0.7816164E-02  0.1300439E+00
        -11   -1    0    0    0    0  0.00000000000E+00  0.00000000000E+00  0.45593999997E+02  0.45594000000E+02  0.51100000000E-03 0.  1.
         11   -1    0    0    0    0 -0.00000000000E+00 -0.00000000000E+00 -0.45593999997E+02  0.45594000000E+02  0.51100000000E-03 0. -1.
    9900012    2    1    2    0    0  0.23042470533E+02  0.26397235537E+02 -0.20625102877E+02  0.50528876042E+02  0.30000049218E+02 0.  0.
        -12    1    1    2    0    0 -0.23042470533E+02 -0.26397235537E+02  0.20625102877E+02  0.40659123958E+02  0.00000000000E+00 0.  1.
         11    1    3    3    0    0  0.91814795848E+01  0.18154330975E+02 -0.12065924936E+02  0.23653030363E+02  0.51100000000E-03 0. -1.
        -11    1    3    3    0    0  0.37645164361E+01 -0.11036644523E+01 -0.12057417337E+02  0.12679549374E+02  0.51100000000E-03 0.  1.
        -12    1    3    3    0    0  0.10096474512E+02  0.93465690152E+01  0.34982393961E+01  0.14196296306E+02  0.00000000000E+00 0.  1.
</event>
<event>
 7    1  0.6090311E-013  0.5052886E+02  0.7816164E-02  0.1300439E+00
        -11   -1    0    0    0    0  0.00000000000E+00  0.00000000000E+00  0.45593999997E+02  0.45594000000E+02  0.51100000000E-03 0. -1.
         11   -1    0    0    0    0 -0.00000000000E+00 -0.00000000000E+00 -0.45593999997E+02  0.45594000000E+02  0.51100000000E-03 0.  1.
    9900012    2    1    2    0    0  0.34358449405E+02  0.19984419429E+02  0.85607102249E+01  0.50528858039E+02  0.29999994496E+02 0.  0.
        -12    1    1    2    0    0 -0.34358449405E+02 -0.19984419429E+02 -0.85607102249E+01  0.40659141961E+02  0.00000000000E+00 0.  1.
         11    1    3    3    0    0  0.23162624895E+00  0.27707971734E+01  0.13593545307E+01  0.30949657019E+01  0.51100000000E-03 0. -1.
        -11    1    3    3    0    0  0.10826174433E+02  0.16254391139E+02 -0.62583368223E+01  0.20508000005E+02  0.51100000000E-03 0.  1.
         12    1    3    3    0    0  0.23300648723E+02  0.95923111671E+00  0.13459692517E+02  0.26925892332E+02  0.00000000000E+00 0. -1.
</event>
<event>
 7    1  0.6090311E-013  0.5052885E+02  0.7816164E-02  0.1300439E+00
        -11   -1    0    0    0    0  0.00000000000E+00  0.00000000000E+00  0.45593999997E+02  0.45594000000E+02  0.51100000000E-03 0. -1.
         11   -1    0    0    0    0 -0.00000000000E+00 -0.00000000000E+00 -0.45593999997E+02  0.45594000000E+02  0.51100000000E-03 0.  1.
    9900012    2    1    2    0    0  0.30534748018E+02  0.48584402682E+01  0.26404374661E+02  0.50528852449E+02  0.29999977503E+02 0.  0.
        -12    1    1    2    0    0 -0.30534748018E+02 -0.48584402682E+01 -0.26404374661E+02  0.40659147551E+02  0.00000000000E+00 0.  1.
         11    1    3    3    0    0  0.10979297579E+01 -0.47929790831E+01  0.65598286915E+01  0.81981370425E+01  0.51100000000E-03 0.  1.
        -11    1    3    3    0    0  0.25829433305E+02  0.71672683455E+00  0.20029740167E+02  0.32693482739E+02  0.51100000000E-03 0. -1.
         12    1    3    3    0    0  0.36073849548E+01  0.89346925167E+01 -0.18519419710E+00  0.96372326667E+01  0.00000000000E+00 0. -1.
</event>
<event>
 7    1  0.6090311E-013  0.5052887E+02  0.7816164E-02  0.1300439E+00
        -11   -1    0    0    0    0  0.00000000000E+00  0.00000000000E+00  0.45593999997E+02  0.45594000000E+02  0.51100000000E-03 0.  1.
         11   -1    0    0    0    0 -0.00000000000E+00 -0.00000000000E+00 -0.45593999997E+02  0.45594000000E+02  0.51100000000E-03 0. -1.
    9900012    2    1    2    0    0  0.80422857047E+01  0.21943807910E+02 -0.33270947745E+02  0.50528867831E+02  0.30000024258E+02 0.  0.
        -12    1    1    2    0    0 -0.80422857047E+01 -0.21943807910E+02  0.33270947745E+02  0.40659132169E+02  0.00000000000E+00 0.  1.
         11    1    3    3    0    0  0.24250588352E+01  0.69913561229E+01 -0.14978920502E+02  0.16707125140E+02  0.51100000000E-03 0. -1.
        -11    1    3    3    0    0 -0.71027315846E+01  0.11018576378E+02 -0.15350092096E+02  0.20186211853E+02  0.51100000000E-03 0.  1.
         12    1    3    3    0    0  0.12719958454E+02  0.39338754094E+01 -0.29419351466E+01  0.13635530837E+02  0.00000000000E+00 0. -1.
</event>
<event>
 7    1  0.7053500E-013  0.5052886E+02  0.7816164E-02  0.1300439E+00
        -11   -1    0    0    0    0  0.00000000000E+00  0.00000000000E+00  0.45593999997E+02  0.45594000000E+02  0.51100000000E-03 0. -1.
         11   -1    0    0    0    0 -0.00000000000E+00 -0.00000000000E+00 -0.45593999997E+02  0.45594000000E+02  0.51100000000E-03 0.  1.
    9900012    2    1    2    0    0  0.14229294207E+02 -0.82294925475E+01  0.37188284045E+02  0.50528857960E+02  0.29999994255E+02 0.  0.
        -12    1    1    2    0    0 -0.14229294207E+02  0.82294925475E+01 -0.37188284045E+02  0.40659142040E+02  0.00000000000E+00 0.  1.
         11    1    3    3    0    0  0.11930820122E+02 -0.87379611538E+01  0.25093375370E+02  0.29126859111E+02  0.51100000000E-03 0. -1.
        -11    1    3    3    0    0 -0.26569907658E+01  0.47101728351E+00  0.15276491539E+02  0.15512983311E+02  0.51100000000E-03 0.  1.
        -12    1    3    3    0    0  0.49554648504E+01  0.37451322786E-01 -0.31815828642E+01  0.58890155379E+01  0.00000000000E+00 0.  1.
</event>
<event>
 7    1  0.6090311E-013  0.5052889E+02  0.7816164E-02  0.1300439E+00
        -11   -1    0    0    0    0  0.00000000000E+00  0.00000000000E+00  0.45593999997E+02  0.45594000000E+02  0.51100000000E-03 0.  1.
         11   -1    0    0    0    0 -0.00000000000E+00 -0.00000000000E+00 -0.45593999997E+02  0.45594000000E+02  0.51100000000E-03 0. -1.
    9900012    2    1    2    0    0  0.17534597815E+02 -0.52157872261E+01 -0.36311105706E+02  0.50528893338E+02  0.30000101791E+02 0.  0.
        -12    1    1    2    0    0 -0.17534597815E+02  0.52157872261E+01  0.36311105706E+02  0.40659106662E+02  0.00000000000E+00 0.  1.
         11    1    3    3    0    0  0.49319858394E+00 -0.55533365384E+01 -0.21646230507E+01  0.59806675852E+01  0.51100000000E-03 0. -1.
        -11    1    3    3    0    0  0.82197270060E+01 -0.11314967129E+02 -0.17284097748E+02  0.22233587844E+02  0.51100000000E-03 0.  1.
         12    1    3    3    0    0  0.88216722254E+01  0.11652516441E+02 -0.16862384907E+02  0.22314637909E+02  0.00000000000E+00 0. -1.
</event>
<event>
 7    1  0.6090311E-013  0.5052886E+02  0.7816164E-02  0.1300439E+00
        -11   -1    0    0    0    0  0.00000000000E+00  0.00000000000E+00  0.45593999997E+02  0.45594000000E+02  0.51100000000E-03 0.  1.
         11   -1    0    0    0    0 -0.00000000000E+00 -0.00000000000E+00 -0.45593999997E+02  0.45594000000E+02  0.51100000000E-03 0. -1.
    9900012    2    1    2    0    0  0.39577086780E+02 -0.24955142974E+01  0.89773337371E+01  0.50528856986E+02  0.29999991296E+02 0.  0.
        -12    1    1    2    0    0 -0.39577086780E+02  0.24955142974E+01 -0.89773337371E+01  0.40659143014E+02  0.00000000000E+00 0.  1.
         11    1    3    3    0    0  0.67006856875E+01 -0.60419089493E+01 -0.23517176822E+01  0.93238634027E+01  0.51100000000E-03 0. -1.
        -11    1    3    3    0    0  0.90593301550E+01 -0.52822632702E+01 -0.43517684335E+01  0.11353926936E+02  0.51100000000E-03 0.  1.
        -12    1    3    3    0    0  0.23817070937E+02  0.88286579221E+01  0.15680819853E+02  0.29851066647E+02  0.00000000000E+00 0.  1.
</event>
<event>
 7    1  0.6090311E-013  0.5052886E+02  0.7816164E-02  0.1300439E+00
        -11   -1    0    0    0    0  0.00000000000E+00  0.00000000000E+00  0.45593999997E+02  0.45594000000E+02  0.51100000000E-03 0.  1.
         11   -1    0    0    0    0 -0.00000000000E+00 -0.00000000000E+00 -0.45593999997E+02  0.45594000000E+02  0.51100000000E-03 0. -1.
    9900012    2    1    2    0    0 -0.15551433251E+01 -0.40379158167E+02  0.45023164508E+01  0.50528859103E+02  0.29999997730E+02 0.  0.
        -12    1    1    2    0    0  0.15551433251E+01  0.40379158167E+02 -0.45023164508E+01  0.40659140897E+02  0.00000000000E+00 0.  1.
         11    1    3    3    0    0  0.51972414728E+00 -0.82949397495E+01  0.69012363195E+01  0.10802925605E+02  0.51100000000E-03 0. -1.
        -11    1    3    3    0    0  0.39729837335E+00  0.30372861798E+01  0.27825541641E+01  0.41383041542E+01  0.51100000000E-03 0.  1.
         12    1    3    3    0    0 -0.24721658457E+01 -0.35121504597E+02 -0.51814740328E+01  0.35587629344E+02  0.00000000000E+00 0. -1.
</event>
<event>
 7    1  0.6090311E-013  0.5052886E+02  0.7816164E-02  0.1300439E+00
        -11   -1    0    0    0    0  0.00000000000E+00  0.00000000000E+00  0.45593999997E+02  0.45594000000E+02  0.51100000000E-03 0.  1.
         11   -1    0    0    0    0 -0.00000000000E+00 -0.00000000000E+00 -0.45593999997E+02  0.45594000000E+02  0.51100000000E-03 0. -1.
    9900012    2    1    2    0    0  0.26885431341E+02  0.47604562621E+01 -0.30127678666E+02  0.50528863462E+02  0.30000010978E+02 0.  0.
        -12    1    1    2    0    0 -0.26885431341E+02 -0.47604562621E+01  0.30127678666E+02  0.40659136538E+02  0.00000000000E+00 0.  1.
         11    1    3    3    0    0  0.11792545235E+02 -0.12127072310E+02 -0.93588389685E+01  0.19331784011E+02  0.51100000000E-03 0. -1.
        -11    1    3    3    0    0  0.31886055104E+01  0.13003672404E+01 -0.16928807717E+01  0.38371872028E+01  0.51100000000E-03 0.  1.
         12    1    3    3    0    0  0.11904280595E+02  0.15587161332E+02 -0.19075958926E+02  0.27359892248E+02  0.00000000000E+00 0. -1.
</event>
<event>
 7    1  0.6090311E-013  0.5052886E+02  0.7816164E-02  0.1300439E+00
        -11   -1    0    0    0    0  0.00000000000E+00  0.00000000000E+00  0.45593999997E+02  0.45594000000E+02  0.51100000000E-03 0.  1.
         11   -1    0    0    0    0 -0.00000000000E+00 -0.00000000000E+00 -0.45593999997E+02  0.45594000000E+02  0.51100000000E-03 0. -1.
    9900012    2    1    2    0    0 -0.20908174109E+02  0.28472163544E+02  0.20133304239E+02  0.50528858580E+02  0.29999996139E+02 0.  0.
        -12    1    1    2    0    0  0.20908174109E+02 -0.28472163544E+02 -0.20133304239E+02  0.40659141420E+02  0.00000000000E+00 0.  1.
         11    1    3    3    0    0 -0.16380810770E+02  0.45365809212E+01  0.79415214992E+01  0.18761111159E+02  0.51100000000E-03 0. -1.
        -11    1    3    3    0    0 -0.56545306619E+01  0.11153512832E+01 -0.21692876954E+00  0.57675630767E+01  0.51100000000E-03 0.  1.
         12    1    3    3    0    0  0.11271673234E+01  0.22820231340E+02  0.12408711509E+02  0.26000184344E+02  0.00000000000E+00 0. -1.
</event>
<event>
 7    1  0.6090311E-013  0.5052888E+02  0.7816164E-02  0.1300439E+00
        -11   -1    0    0    0    0  0.00000000000E+00  0.00000000000E+00  0.45593999997E+02  0.45594000000E+02  0.51100000000E-03 0. -1.
         11   -1    0    0    0    0 -0.00000000000E+00 -0.00000000000E+00 -0.45593999997E+02  0.45594000000E+02  0.51100000000E-03 0.  1.
    9900012    2    1    2    0    0  0.32017937425E+02  0.24618606062E+02  0.46839930847E+01  0.50528882048E+02  0.30000067472E+02 0.  0.
        -12    1    1    2    0    0 -0.32017937425E+02 -0.24618606062E+02 -0.46839930847E+01  0.40659117952E+02  0.00000000000E+00 0.  1.
         11    1    3    3    0    0  0.18016645923E+00 -0.16401697191E+01  0.12985123923E+01  0.20997026824E+01  0.51100000000E-03 0.  1.
        -11    1    3    3    0    0  0.16440339016E+02  0.41871789848E+01  0.11292677747E+02  0.20379935863E+02  0.51100000000E-03 0. -1.
        -12    1    3    3    0    0  0.15397431950E+02  0.22071596797E+02 -0.79071970545E+01  0.28049243503E+02  0.00000000000E+00 0.  1.
</event>
<event>
 7    1  0.6090311E-013  0.5052887E+02  0.7816164E-02  0.1300439E+00
        -11   -1    0    0    0    0  0.00000000000E+00  0.00000000000E+00  0.45593999997E+02  0.45594000000E+02  0.51100000000E-03 0.  1.
         11   -1    0    0    0    0 -0.00000000000E+00 -0.00000000000E+00 -0.45593999997E+02  0.45594000000E+02  0.51100000000E-03 0. -1.
    9900012    2    1    2    0    0  0.39096477372E+02  0.45412836435E+01 -0.10198392686E+02  0.50528868020E+02  0.30000024832E+02 0.  0.
        -12    1    1    2    0    0 -0.39096477372E+02 -0.45412836435E+01  0.10198392686E+02  0.40659131980E+02  0.00000000000E+00 0.  1.
         11    1    3    3    0    0  0.42815998935E+00  0.60991387814E+01  0.17541312360E+01  0.63608011685E+01  0.51100000000E-03 0. -1.
        -11    1    3    3    0    0  0.27147350384E+01 -0.26258472440E+01  0.33787015598E+01  0.50675915945E+01  0.51100000000E-03 0.  1.
         12    1    3    3    0    0  0.35953582344E+02  0.10679921061E+01 -0.15331225482E+02  0.39100475257E+02  0.00000000000E+00 0. -1.
</event>
<event>
 7    1  0.6090311E-013  0.5052886E+02  0.7816164E-02  0.1300439E+00
        -11   -1    0    0    0    0  0.00000000000E+00  0.00000000000E+00  0.45593999997E+02  0.45594000000E+02  0.51100000000E-03 0.  1.
         11   -1    0    0    0    0 -0.00000000000E+00 -0.00000000000E+00 -0.45593999997E+02  0.45594000000E+02  0.51100000000E-03 0. -1.
    9900012    2    1    2    0    0 -0.50229304364E+01  0.38700401172E+02 -0.11411166970E+02  0.50528860651E+02  0.30000002433E+02 0.  0.
        -12    1    1    2    0    0  0.50229304364E+01 -0.38700401172E+02  0.11411166970E+02  0.40659139349E+02  0.00000000000E+00 0.  1.
         11    1    3    3    0    0 -0.68965706901E+01  0.23352063191E+02 -0.82199592026E+01  0.25699207616E+02  0.51100000000E-03 0. -1.
        -11    1    3    3    0    0 -0.30663604942E+01  0.17402536833E+02 -0.61569691959E+01  0.18712539241E+02  0.51100000000E-03 0.  1.
        -12    1    3    3    0    0  0.49400007479E+01 -0.20541988518E+01  0.29657614285E+01  0.61171137935E+01  0.00000000000E+00 0.  1.
</event>
<event>
 7    1  0.6090311E-013  0.5052886E+02  0.7816164E-02  0.1300439E+00
        -11   -1    0    0    0    0  0.00000000000E+00  0.00000000000E+00  0.45593999997E+02  0.45594000000E+02  0.51100000000E-03 0. -1.
         11   -1    0    0    0    0 -0.00000000000E+00 -0.00000000000E+00 -0.45593999997E+02  0.45594000000E+02  0.51100000000E-03 0.  1.
    9900012    2    1    2    0    0  0.41286130460E+01  0.31839800862E+02  0.24946882364E+02  0.50528864442E+02  0.30000013957E+02 0.  0.
        -12    1    1    2    0    0 -0.41286130460E+01 -0.31839800862E+02 -0.24946882364E+02  0.40659135558E+02  0.00000000000E+00 0.  1.
         11    1    3    3    0    0  0.16989341562E+01  0.11141623429E+02  0.88499285596E+01  0.14329807594E+02  0.51100000000E-03 0. -1.
        -11    1    3    3    0    0 -0.53149416583E+01  0.22260102676E+02  0.65453386976E+01  0.23803408052E+02  0.51100000000E-03 0.  1.
        -12    1    3    3    0    0  0.77446205481E+01 -0.15619252431E+01  0.95516151074E+01  0.12395648795E+02  0.00000000000E+00 0.  1.
</event>
<event>
 7    1  0.6090311E-013  0.5052884E+02  0.7816164E-02  0.1300439E+00
        -11   -1    0    0    0    0  0.00000000000E+00  0.00000000000E+00  0.45593999997E+02  0.45594000000E+02  0.51100000000E-03 0.  1.
         11   -1    0    0    0    0 -0.00000000000E+00 -0.00000000000E+00 -0.45593999997E+02  0.45594000000E+02  0.51100000000E-03 0. -1.
    9900012    2    1    2    0    0  0.10102223916E+02  0.32028994089E+02 -0.22918455152E+02  0.50528843873E+02  0.29999951436E+02 0.  0.
        -12    1    1    2    0    0 -0.10102223916E+02 -0.32028994089E+02  0.22918455152E+02  0.40659156127E+02  0.00000000000E+00 0.  1.
         11    1    3    3    0    0  0.79465371692E+01  0.71500186216E+01 -0.84708723903E+01  0.13639131152E+02  0.51100000000E-03 0. -1.
        -11    1    3    3    0    0  0.49868328156E+01 -0.13931659728E+01 -0.82632114591E+01  0.97514140942E+01  0.51100000000E-03 0.  1.
        -12    1    3    3    0    0 -0.28311460693E+01  0.26272141441E+02 -0.61843713025E+01  0.27138298627E+02  0.00000000000E+00 0.  1.
</event>
<event>
 7    1  0.6090311E-013  0.5052885E+02  0.7816164E-02  0.1300439E+00
        -11   -1    0    0    0    0  0.00000000000E+00  0.00000000000E+00  0.45593999997E+02  0.45594000000E+02  0.51100000000E-03 0.  1.
         11   -1    0    0    0    0 -0.00000000000E+00 -0.00000000000E+00 -0.45593999997E+02  0.45594000000E+02  0.51100000000E-03 0. -1.
    9900012    2    1    2    0    0 -0.15470718192E+02  0.10327868874E+02 -0.36154641247E+02  0.50528854897E+02  0.29999984945E+02 0.  0.
        -12    1    1    2    0    0  0.15470718192E+02 -0.10327868874E+02  0.36154641247E+02  0.40659145103E+02  0.00000000000E+00 0.  1.
         11    1    3    3    0    0 -0.72821256886E+01 -0.42865412035E+01 -0.24713267495E+02  0.26117989597E+02  0.51100000000E-03 0.  1.
        -11    1    3    3    0    0 -0.23267245531E+01  0.90400490330E+01 -0.13166477057E+02  0.16139772366E+02  0.51100000000E-03 0. -1.
        -12    1    3    3    0    0 -0.58618679498E+01  0.55743610440E+01  0.17251033060E+01  0.82710929342E+01  0.00000000000E+00 0.  1.
</event>
<event>
 7    1  0.6090311E-013  0.5052885E+02  0.7816164E-02  0.1300439E+00
        -11   -1    0    0    0    0  0.00000000000E+00  0.00000000000E+00  0.45593999997E+02  0.45594000000E+02  0.51100000000E-03 0.  1.
         11   -1    0    0    0    0 -0.00000000000E+00 -0.00000000000E+00 -0.45593999997E+02  0.45594000000E+02  0.51100000000E-03 0. -1.
    9900012    2    1    2    0    0  0.15615586084E+02  0.11693149004E+02 -0.35673382495E+02  0.50528849972E+02  0.29999969975E+02 0.  0.
        -12    1    1    2    0    0 -0.15615586084E+02 -0.11693149004E+02  0.35673382495E+02  0.40659150028E+02  0.00000000000E+00 0.  1.
         11    1    3    3    0    0 -0.21219000081E+01 -0.23725035065E+00 -0.16618459313E+02  0.16755057074E+02  0.51100000000E-03 0. -1.
        -11    1    3    3    0    0 -0.25243424672E+01  0.62315525198E+01 -0.59599889102E+01  0.89847659830E+01  0.51100000000E-03 0.  1.
         12    1    3    3    0    0  0.20261828559E+02  0.56988468351E+01 -0.13094934272E+02  0.24789026915E+02  0.00000000000E+00 0. -1.
</event>
<event>
 7    1  0.6090311E-013  0.5052889E+02  0.7816164E-02  0.1300439E+00
        -11   -1    0    0    0    0  0.00000000000E+00  0.00000000000E+00  0.45593999997E+02  0.45594000000E+02  0.51100000000E-03 0. -1.
         11   -1    0    0    0    0 -0.00000000000E+00 -0.00000000000E+00 -0.45593999997E+02  0.45594000000E+02  0.51100000000E-03 0.  1.
    9900012    2    1    2    0    0 -0.35968773802E+02 -0.18792619152E+02  0.24996338062E+01  0.50528887952E+02  0.30000085419E+02 0.  0.
        -12    1    1    2    0    0  0.35968773802E+02  0.18792619152E+02 -0.24996338062E+01  0.40659112048E+02  0.00000000000E+00 0.  1.
         11    1    3    3    0    0 -0.11553806066E+02 -0.16789169175E+02  0.49553581851E+00  0.20386568917E+02  0.51100000000E-03 0. -1.
        -11    1    3    3    0    0 -0.28727873867E+00 -0.54892710453E+01 -0.97563309197E+00  0.55826952159E+01  0.51100000000E-03 0.  1.
         12    1    3    3    0    0 -0.24127688997E+02  0.34858210681E+01  0.29797310797E+01  0.24559623820E+02  0.00000000000E+00 0. -1.
</event>
<event>
 7    1  0.6090311E-013  0.5052886E+02  0.7816164E-02  0.1300439E+00
        -11   -1    0    0    0    0  0.00000000000E+00  0.00000000000E+00  0.45593999997E+02  0.45594000000E+02  0.51100000000E-03 0. -1.
         11   -1    0    0    0    0 -0.00000000000E+00 -0.00000000000E+00 -0.45593999997E+02  0.45594000000E+02  0.51100000000E-03 0.  1.
    9900012    2    1    2    0    0 -0.32547544083E+02 -0.17469541066E+01  0.24305779300E+02  0.50528863489E+02  0.30000011060E+02 0.  0.
        -12    1    1    2    0    0  0.32547544083E+02  0.17469541066E+01 -0.24305779300E+02  0.40659136511E+02  0.00000000000E+00 0.  1.
         11    1    3    3    0    0 -0.12379985454E+02  0.13476907738E+02  0.11816257826E+02  0.21783365931E+02  0.51100000000E-03 0.  1.
        -11    1    3    3    0    0 -0.38613654138E+01 -0.50380003935E+01  0.51209056307E+01  0.81556891532E+01  0.51100000000E-03 0. -1.
        -12    1    3    3    0    0 -0.16306193215E+02 -0.10185861451E+02  0.73686158435E+01  0.20589808405E+02  0.00000000000E+00 0.  1.
</event>
<event>
 7    1  0.6090311E-013  0.5052886E+02  0.7816164E-02  0.1300439E+00
        -11   -1    0    0    0    0  0.00000000000E+00  0.00000000000E+00  0.45593999997E+02  0.45594000000E+02  0.51100000000E-03 0. -1.
         11   -1    0    0    0    0 -0.00000000000E+00 -0.00000000000E+00 -0.45593999997E+02  0.45594000000E+02  0.51100000000E-03 0.  1.
    9900012    2    1    2    0    0  0.24211185193E+02 -0.23418307641E+02 -0.22772060307E+02  0.50528863858E+02  0.30000012182E+02 0.  0.
        -12    1    1    2    0    0 -0.24211185193E+02  0.23418307641E+02  0.22772060307E+02  0.40659136142E+02  0.00000000000E+00 0.  1.
         11    1    3    3    0    0  0.90578360493E+01 -0.10771654553E+01  0.20338070002E+01  0.93456433962E+01  0.51100000000E-03 0. -1.
        -11    1    3    3    0    0 -0.15043626696E+01 -0.42286790639E+00  0.21473459800E+01  0.26557521207E+01  0.51100000000E-03 0.  1.
         12    1    3    3    0    0  0.16657711814E+02 -0.21918274279E+02 -0.26953213287E+02  0.38527468341E+02  0.00000000000E+00 0. -1.
</event>
<event>
 7    1  0.6090311E-013  0.5052886E+02  0.7816164E-02  0.1300439E+00
        -11   -1    0    0    0    0  0.00000000000E+00  0.00000000000E+00  0.45593999997E+02  0.45594000000E+02  0.51100000000E-03 0. -1.
         11   -1    0    0    0    0 -0.00000000000E+00 -0.00000000000E+00 -0.45593999997E+02  0.45594000000E+02  0.51100000000E-03 0.  1.
    9900012    2    1    2    0    0 -0.98424785381E+01 -0.22545243747E+02  0.32372879091E+02  0.50528859576E+02  0.29999999168E+02 0.  0.
        -12    1    1    2    0    0  0.98424785381E+01  0.22545243747E+02 -0.32372879091E+02  0.40659140424E+02  0.00000000000E+00 0.  1.
         11    1    3    3    0    0 -0.10911290278E+02 -0.19722765789E+02  0.28007755531E+02  0.35951051668E+02  0.51100000000E-03 0. -1.
        -11    1    3    3    0    0  0.23429042848E+01 -0.69206424673E+01  0.65046770541E+01  0.97823982994E+01  0.51100000000E-03 0.  1.
         12    1    3    3    0    0 -0.12740925454E+01  0.40981645098E+01 -0.21395534942E+01  0.47954096090E+01  0.00000000000E+00 0. -1.
</event>
<event>
 7    1  0.6090311E-013  0.5052886E+02  0.7816164E-02  0.1300439E+00
        -11   -1    0    0    0    0  0.00000000000E+00  0.00000000000E+00  0.45593999997E+02  0.45594000000E+02  0.51100000000E-03 0.  1.
         11   -1    0    0    0    0 -0.00000000000E+00 -0.00000000000E+00 -0.45593999997E+02  0.45594000000E+02  0.51100000000E-03 0. -1.
    9900012    2    1    2    0    0  0.18892859846E+01 -0.37390156216E+02 -0.15861028173E+02  0.50528863289E+02  0.30000010453E+02 0.  0.
        -12    1    1    2    0    0 -0.18892859846E+01  0.37390156216E+02  0.15861028173E+02  0.40659136711E+02  0.00000000000E+00 0.  1.
         11    1    3    3    0    0 -0.80769131348E+01 -0.55227000650E+01 -0.49529017930E+01  0.10966675806E+02  0.51100000000E-03 0. -1.
        -11    1    3    3    0    0 -0.26195388460E+01  0.52182759071E+00 -0.28210510673E+01  0.38849217734E+01  0.51100000000E-03 0.  1.
         12    1    3    3    0    0  0.12585737965E+02 -0.32389283742E+02 -0.80870753125E+01  0.35677265710E+02  0.00000000000E+00 0. -1.
</event>
<event>
 7    1  0.6090311E-013  0.5052886E+02  0.7816164E-02  0.1300439E+00
        -11   -1    0    0    0    0  0.00000000000E+00  0.00000000000E+00  0.45593999997E+02  0.45594000000E+02  0.51100000000E-03 0.  1.
         11   -1    0    0    0    0 -0.00000000000E+00 -0.00000000000E+00 -0.45593999997E+02  0.45594000000E+02  0.51100000000E-03 0. -1.
    9900012    2    1    2    0    0 -0.19886543078E+02 -0.26095934078E+01 -0.35367798612E+02  0.50528858937E+02  0.29999997224E+02 0.  0.
        -12    1    1    2    0    0  0.19886543078E+02  0.26095934078E+01  0.35367798612E+02  0.40659141063E+02  0.00000000000E+00 0.  1.
         11    1    3    3    0    0  0.54066381883E+01 -0.45214719024E+01 -0.64085185595E+01  0.95259936517E+01  0.51100000000E-03 0. -1.
        -11    1    3    3    0    0 -0.59431984039E+00  0.21149907703E+01  0.79160646142E+00  0.23351751716E+01  0.51100000000E-03 0.  1.
         12    1    3    3    0    0 -0.24698861426E+02 -0.20311227571E+00 -0.29750886514E+02  0.38667690113E+02  0.00000000000E+00 0. -1.
</event>
<event>
 7    1  0.6090311E-013  0.5052887E+02  0.7816164E-02  0.1300439E+00
        -11   -1    0    0    0    0  0.00000000000E+00  0.00000000000E+00  0.45593999997E+02  0.45594000000E+02  0.51100000000E-03 0. -1.
         11   -1    0    0    0    0 -0.00000000000E+00 -0.00000000000E+00 -0.45593999997E+02  0.45594000000E+02  0.51100000000E-03 0.  1.
    9900012    2    1    2    0    0 -0.28407711040E+02  0.20976202647E+02  0.20153561496E+02  0.50528866156E+02  0.30000019167E+02 0.  0.
        -12    1    1    2    0    0  0.28407711040E+02 -0.20976202647E+02 -0.20153561496E+02  0.40659133844E+02  0.00000000000E+00 0.  1.
         11    1    3    3    0    0 -0.42476572580E+01  0.10950366438E+02  0.48004115793E+01  0.12688462038E+02  0.51100000000E-03 0. -1.
        -11    1    3    3    0    0 -0.40757828962E+01  0.13519493478E+02  0.50288788869E+01  0.14989273940E+02  0.51100000000E-03 0.  1.
        -12    1    3    3    0    0 -0.20084270885E+02 -0.34936572688E+01  0.10324271029E+02  0.22851130178E+02  0.00000000000E+00 0.  1.
</event>
<event>
 7    1  0.6090311E-013  0.5052886E+02  0.7816164E-02  0.1300439E+00
        -11   -1    0    0    0    0  0.00000000000E+00  0.00000000000E+00  0.45593999997E+02  0.45594000000E+02  0.51100000000E-03 0. -1.
         11   -1    0    0    0    0 -0.00000000000E+00 -0.00000000000E+00 -0.45593999997E+02  0.45594000000E+02  0.51100000000E-03 0.  1.
    9900012    2    1    2    0    0 -0.21693852201E+02 -0.12695038837E+02  0.31959016946E+02  0.50528855905E+02  0.29999988009E+02 0.  0.
        -12    1    1    2    0    0  0.21693852201E+02  0.12695038837E+02 -0.31959016946E+02  0.40659144095E+02  0.00000000000E+00 0.  1.
         11    1    3    3    0    0 -0.60244509040E+01 -0.99077091996E+01  0.31489867466E+01  0.12015524461E+02  0.51100000000E-03 0. -1.
        -11    1    3    3    0    0 -0.35027588560E+01 -0.20495116633E+01 -0.26009787814E+01  0.48202602153E+01  0.51100000000E-03 0.  1.
         12    1    3    3    0    0 -0.12166642441E+02 -0.73781797387E+00  0.31411008980E+02  0.33693071229E+02  0.00000000000E+00 0. -1.
</event>
<event>
 7    1  0.6090311E-013  0.5052885E+02  0.7816164E-02  0.1300439E+00
        -11   -1    0    0    0    0  0.00000000000E+00  0.00000000000E+00  0.45593999997E+02  0.45594000000E+02  0.51100000000E-03 0. -1.
         11   -1    0    0    0    0 -0.00000000000E+00 -0.00000000000E+00 -0.45593999997E+02  0.45594000000E+02  0.51100000000E-03 0.  1.
    9900012    2    1    2    0    0  0.14810500127E+02  0.37840527784E+02  0.13820821691E+01  0.50528848409E+02  0.29999965224E+02 0.  0.
        -12    1    1    2    0    0 -0.14810500127E+02 -0.37840527784E+02 -0.13820821691E+01  0.40659151591E+02  0.00000000000E+00 0.  1.
         11    1    3    3    0    0  0.29902364101E+01  0.70897715759E+01  0.85711649429E+01  0.11518300375E+02  0.51100000000E-03 0. -1.
        -11    1    3    3    0    0 -0.15660255942E+01  0.19010480018E+02  0.16233913941E+01  0.19143828942E+02  0.51100000000E-03 0.  1.
        -12    1    3    3    0    0  0.13386289311E+02  0.11740276190E+02 -0.88124741679E+01  0.19866719092E+02  0.00000000000E+00 0.  1.
</event>
<event>
 7    1  0.6090311E-013  0.5052886E+02  0.7816164E-02  0.1300439E+00
        -11   -1    0    0    0    0  0.00000000000E+00  0.00000000000E+00  0.45593999997E+02  0.45594000000E+02  0.51100000000E-03 0. -1.
         11   -1    0    0    0    0 -0.00000000000E+00 -0.00000000000E+00 -0.45593999997E+02  0.45594000000E+02  0.51100000000E-03 0.  1.
    9900012    2    1    2    0    0  0.88451135012E+01 -0.16878619622E+02  0.35917154178E+02  0.50528858378E+02  0.29999995525E+02 0.  0.
        -12    1    1    2    0    0 -0.88451135012E+01  0.16878619622E+02 -0.35917154178E+02  0.40659141622E+02  0.00000000000E+00 0.  1.
         11    1    3    3    0    0  0.65537494964E+01 -0.10097809523E+02  0.28581149231E+02  0.31012892178E+02  0.51100000000E-03 0. -1.
        -11    1    3    3    0    0  0.55332111571E+01 -0.11244333731E+02  0.45201101626E+01  0.13322269435E+02  0.51100000000E-03 0.  1.
         12    1    3    3    0    0 -0.32418471523E+01  0.44635236319E+01  0.28158947851E+01  0.61936967646E+01  0.00000000000E+00 0. -1.
</event>
<event>
 7    1  0.6090311E-013  0.5052886E+02  0.7816164E-02  0.1300439E+00
        -11   -1    0    0    0    0  0.00000000000E+00  0.00000000000E+00  0.45593999997E+02  0.45594000000E+02  0.51100000000E-03 0.  1.
         11   -1    0    0    0    0 -0.00000000000E+00 -0.00000000000E+00 -0.45593999997E+02  0.45594000000E+02  0.51100000000E-03 0. -1.
    9900012    2    1    2    0    0 -0.21541270473E+02  0.96845233486E+01 -0.33096061061E+02  0.50528861004E+02  0.30000003509E+02 0.  0.
        -12    1    1    2    0    0  0.21541270473E+02 -0.96845233486E+01  0.33096061061E+02  0.40659138996E+02  0.00000000000E+00 0.  1.
         11    1    3    3    0    0  0.38824835197E+00  0.13189780402E+01  0.10168540644E+01  0.17100971618E+01  0.51100000000E-03 0. -1.
        -11    1    3    3    0    0  0.27194915365E+01  0.96875190423E+01 -0.77276430337E+01  0.12687006208E+02  0.51100000000E-03 0.  1.
         12    1    3    3    0    0 -0.24649010362E+02 -0.13219737339E+01 -0.26385272092E+02  0.36131757634E+02  0.00000000000E+00 0. -1.
</event>
<event>
 7    1  0.6090311E-013  0.5052887E+02  0.7816164E-02  0.1300439E+00
        -11   -1    0    0    0    0  0.00000000000E+00  0.00000000000E+00  0.45593999997E+02  0.45594000000E+02  0.51100000000E-03 0.  1.
         11   -1    0    0    0    0 -0.00000000000E+00 -0.00000000000E+00 -0.45593999997E+02  0.45594000000E+02  0.51100000000E-03 0. -1.
    9900012    2    1    2    0    0  0.29914281894E+02  0.26453948847E+02 -0.76478430432E+01  0.50528866044E+02  0.30000018829E+02 0.  0.
        -12    1    1    2    0    0 -0.29914281894E+02 -0.26453948847E+02  0.76478430432E+01  0.40659133956E+02  0.00000000000E+00 0.  1.
         11    1    3    3    0    0 -0.94164186303E+00  0.15662913606E+02 -0.18676605128E+01  0.15801952667E+02  0.51100000000E-03 0. -1.
        -11    1    3    3    0    0  0.57928926527E+01 -0.17983386461E+01  0.11552593976E+00  0.60667102845E+01  0.51100000000E-03 0.  1.
        -12    1    3    3    0    0  0.25063031104E+02  0.12589373887E+02 -0.58957084701E+01  0.28660203093E+02  0.00000000000E+00 0.  1.
</event>
<event>
 7    1  0.6090311E-013  0.5052886E+02  0.7816164E-02  0.1300439E+00
        -11   -1    0    0    0    0  0.00000000000E+00  0.00000000000E+00  0.45593999997E+02  0.45594000000E+02  0.51100000000E-03 0.  1.
         11   -1    0    0    0    0 -0.00000000000E+00 -0.00000000000E+00 -0.45593999997E+02  0.45594000000E+02  0.51100000000E-03 0. -1.
    9900012    2    1    2    0    0 -0.10360632153E+02 -0.12131230133E+02 -0.37398610765E+02  0.50528861663E+02  0.30000005511E+02 0.  0.
        -12    1    1    2    0    0  0.10360632153E+02  0.12131230133E+02  0.37398610765E+02  0.40659138337E+02  0.00000000000E+00 0.  1.
         11    1    3    3    0    0 -0.66689035047E+00 -0.74107015467E+01 -0.33329319684E+01  0.81530163695E+01  0.51100000000E-03 0. -1.
        -11    1    3    3    0    0 -0.26593718474E+01 -0.13209894552E+02 -0.13692856823E+02  0.19211140021E+02  0.51100000000E-03 0.  1.
         12    1    3    3    0    0 -0.70343699550E+01  0.84893659655E+01 -0.20372821974E+02  0.23164705272E+02  0.00000000000E+00 0. -1.
</event>
<event>
 7    1  0.6090311E-013  0.5052886E+02  0.7816164E-02  0.1300439E+00
        -11   -1    0    0    0    0  0.00000000000E+00  0.00000000000E+00  0.45593999997E+02  0.45594000000E+02  0.51100000000E-03 0.  1.
         11   -1    0    0    0    0 -0.00000000000E+00 -0.00000000000E+00 -0.45593999997E+02  0.45594000000E+02  0.51100000000E-03 0. -1.
    9900012    2    1    2    0    0 -0.19499905362E+01  0.40068971740E+02  0.66212398713E+01  0.50528858631E+02  0.29999996296E+02 0.  0.
        -12    1    1    2    0    0  0.19499905362E+01 -0.40068971740E+02 -0.66212398713E+01  0.40659141369E+02  0.00000000000E+00 0.  1.
         11    1    3    3    0    0 -0.11758476858E+02  0.13022711739E+02  0.52263846652E+01  0.18307591212E+02  0.51100000000E-03 0. -1.
        -11    1    3    3    0    0  0.42052002621E+01  0.74691760876E+01 -0.61022056006E+01  0.10521844616E+02  0.51100000000E-03 0.  1.
        -12    1    3    3    0    0  0.56032860601E+01  0.19577083914E+02  0.74970608068E+01  0.21699422803E+02  0.00000000000E+00 0.  1.
</event>
<event>
 7    1  0.6090311E-013  0.5052886E+02  0.7816164E-02  0.1300439E+00
        -11   -1    0    0    0    0  0.00000000000E+00  0.00000000000E+00  0.45593999997E+02  0.45594000000E+02  0.51100000000E-03 0.  1.
         11   -1    0    0    0    0 -0.00000000000E+00 -0.00000000000E+00 -0.45593999997E+02  0.45594000000E+02  0.51100000000E-03 0. -1.
    9900012    2    1    2    0    0 -0.10179408590E+02  0.34533018631E+02 -0.18894872858E+02  0.50528856437E+02  0.29999989625E+02 0.  0.
        -12    1    1    2    0    0  0.10179408590E+02 -0.34533018631E+02  0.18894872858E+02  0.40659143563E+02  0.00000000000E+00 0.  1.
         11    1    3    3    0    0 -0.49783171775E+01  0.31396948692E+02 -0.81985928702E+01  0.32829391624E+02  0.51100000000E-03 0. -1.
        -11    1    3    3    0    0  0.18288662646E+01  0.44363540478E+01  0.42341383961E-01  0.47987271338E+01  0.51100000000E-03 0.  1.
        -12    1    3    3    0    0 -0.70299576774E+01 -0.13002841087E+01 -0.10738621371E+02  0.12900737679E+02  0.00000000000E+00 0.  1.
</event>
<event>
 7    1  0.6090311E-013  0.5052886E+02  0.7816164E-02  0.1300439E+00
        -11   -1    0    0    0    0  0.00000000000E+00  0.00000000000E+00  0.45593999997E+02  0.45594000000E+02  0.51100000000E-03 0.  1.
         11   -1    0    0    0    0 -0.00000000000E+00 -0.00000000000E+00 -0.45593999997E+02  0.45594000000E+02  0.51100000000E-03 0. -1.
    9900012    2    1    2    0    0 -0.34436581769E+02  0.19889667732E+01 -0.21525134242E+02  0.50528861336E+02  0.30000004518E+02 0.  0.
        -12    1    1    2    0    0  0.34436581769E+02 -0.19889667732E+01  0.21525134242E+02  0.40659138664E+02  0.00000000000E+00 0.  1.
         11    1    3    3    0    0 -0.83702554907E+01  0.19824445270E+01 -0.11684469685E+02  0.14509241722E+02  0.51100000000E-03 0. -1.
        -11    1    3    3    0    0 -0.19326827317E+01  0.19168000885E+01 -0.11438402957E+02  0.11757824951E+02  0.51100000000E-03 0.  1.
        -12    1    3    3    0    0 -0.24133643546E+02 -0.19102778423E+01  0.15977383998E+01  0.24261794663E+02  0.00000000000E+00 0.  1.
</event>
<event>
 7    1  0.6090311E-013  0.5052886E+02  0.7816164E-02  0.1300439E+00
        -11   -1    0    0    0    0  0.00000000000E+00  0.00000000000E+00  0.45593999997E+02  0.45594000000E+02  0.51100000000E-03 0.  1.
         11   -1    0    0    0    0 -0.00000000000E+00 -0.00000000000E+00 -0.45593999997E+02  0.45594000000E+02  0.51100000000E-03 0. -1.
    9900012    2    1    2    0    0  0.23891594305E+02 -0.25665944856E+02 -0.20581955652E+02  0.50528857090E+02  0.29999991610E+02 0.  0.
        -12    1    1    2    0    0 -0.23891594305E+02  0.25665944856E+02  0.20581955652E+02  0.40659142910E+02  0.00000000000E+00 0.  1.
         11    1    3    3    0    0  0.24153377257E+02 -0.14063190798E+02 -0.17315881274E+02  0.32878544872E+02  0.51100000000E-03 0. -1.
        -11    1    3    3    0    0  0.52358162323E+01 -0.12918285594E+01 -0.24890473305E+01  0.59395243513E+01  0.51100000000E-03 0.  1.
        -12    1    3    3    0    0 -0.54975991847E+01 -0.10310925498E+02 -0.77702704738E+00  0.11710787866E+02  0.00000000000E+00 0.  1.
</event>
<event>
 7    1  0.6090311E-013  0.5052886E+02  0.7816164E-02  0.1300439E+00
        -11   -1    0    0    0    0  0.00000000000E+00  0.00000000000E+00  0.45593999997E+02  0.45594000000E+02  0.51100000000E-03 0.  1.
         11   -1    0    0    0    0 -0.00000000000E+00 -0.00000000000E+00 -0.45593999997E+02  0.45594000000E+02  0.51100000000E-03 0. -1.
    9900012    2    1    2    0    0 -0.28749361943E+02 -0.66884303114E+01 -0.27962560393E+02  0.50528859627E+02  0.29999999322E+02 0.  0.
        -12    1    1    2    0    0  0.28749361943E+02  0.66884303114E+01  0.27962560393E+02  0.40659140373E+02  0.00000000000E+00 0.  1.
         11    1    3    3    0    0 -0.10695135601E+02 -0.53805477617E+00 -0.14181736556E+02  0.17770680360E+02  0.51100000000E-03 0. -1.
        -11    1    3    3    0    0 -0.16654686824E+02 -0.25851324300E+01 -0.19563372155E+02  0.25822219758E+02  0.51100000000E-03 0.  1.
        -12    1    3    3    0    0 -0.13995395178E+01 -0.35652431052E+01  0.57825483177E+01  0.69359595088E+01  0.00000000000E+00 0.  1.
</event>
<event>
 7    1  0.6090311E-013  0.5052886E+02  0.7816164E-02  0.1300439E+00
        -11   -1    0    0    0    0  0.00000000000E+00  0.00000000000E+00  0.45593999997E+02  0.45594000000E+02  0.51100000000E-03 0.  1.
         11   -1    0    0    0    0 -0.00000000000E+00 -0.00000000000E+00 -0.45593999997E+02  0.45594000000E+02  0.51100000000E-03 0. -1.
    9900012    2    1    2    0    0 -0.93006825873E+01 -0.13198217007E+02 -0.37315815957E+02  0.50528858970E+02  0.29999997325E+02 0.  0.
        -12    1    1    2    0    0  0.93006825873E+01  0.13198217007E+02  0.37315815957E+02  0.40659141030E+02  0.00000000000E+00 0.  1.
         11    1    3    3    0    0 -0.14688628854E+00 -0.19528059251E+01 -0.20097828022E+02  0.20193011613E+02  0.51100000000E-03 0. -1.
        -11    1    3    3    0    0 -0.48072660533E+01 -0.32940116950E+01 -0.20019813743E+02  0.20850737698E+02  0.51100000000E-03 0.  1.
        -12    1    3    3    0    0 -0.43465302454E+01 -0.79513993868E+01  0.28018258081E+01  0.94851096589E+01  0.00000000000E+00 0.  1.
</event>
<event>
 7    1  0.6090311E-013  0.5052882E+02  0.7816164E-02  0.1300439E+00
        -11   -1    0    0    0    0  0.00000000000E+00  0.00000000000E+00  0.45593999997E+02  0.45594000000E+02  0.51100000000E-03 0.  1.
         11   -1    0    0    0    0 -0.00000000000E+00 -0.00000000000E+00 -0.45593999997E+02  0.45594000000E+02  0.51100000000E-03 0. -1.
    9900012    2    1    2    0    0  0.61848579003E+01  0.36260819807E+02 -0.17322518797E+02  0.50528816808E+02  0.29999869170E+02 0.  0.
        -12    1    1    2    0    0 -0.61848579003E+01 -0.36260819807E+02  0.17322518797E+02  0.40659183192E+02  0.00000000000E+00 0.  1.
         11    1    3    3    0    0 -0.46356149062E+01  0.18600176351E+02 -0.12357153043E+02  0.22806900654E+02  0.51100000000E-03 0. -1.
        -11    1    3    3    0    0 -0.28263958683E+01  0.12193884616E+02 -0.14045491091E+01  0.12595717292E+02  0.51100000000E-03 0.  1.
        -12    1    3    3    0    0  0.13646868675E+02  0.54667588396E+01 -0.35608166446E+01  0.15126198862E+02  0.00000000000E+00 0.  1.
</event>
<event>
 7    1  0.6090311E-013  0.5052885E+02  0.7816164E-02  0.1300439E+00
        -11   -1    0    0    0    0  0.00000000000E+00  0.00000000000E+00  0.45593999997E+02  0.45594000000E+02  0.51100000000E-03 0. -1.
         11   -1    0    0    0    0 -0.00000000000E+00 -0.00000000000E+00 -0.45593999997E+02  0.45594000000E+02  0.51100000000E-03 0.  1.
    9900012    2    1    2    0    0  0.25591035498E+02  0.31276878142E+02  0.44746360429E+01  0.50528848854E+02  0.29999966577E+02 0.  0.
        -12    1    1    2    0    0 -0.25591035498E+02 -0.31276878142E+02 -0.44746360429E+01  0.40659151146E+02  0.00000000000E+00 0.  1.
         11    1    3    3    0    0  0.12421021697E+02  0.10234109402E+02  0.57273655254E+01  0.17082783478E+02  0.51100000000E-03 0. -1.
        -11    1    3    3    0    0  0.12998783580E+02  0.78194909818E+01  0.81495014132E+01  0.17219964788E+02  0.51100000000E-03 0.  1.
        -12    1    3    3    0    0  0.17123022178E+00  0.13223277758E+02 -0.94022308957E+01  0.16226100588E+02  0.00000000000E+00 0.  1.
</event>
<event>
 7    1  0.6090311E-013  0.5052886E+02  0.7816164E-02  0.1300439E+00
        -11   -1    0    0    0    0  0.00000000000E+00  0.00000000000E+00  0.45593999997E+02  0.45594000000E+02  0.51100000000E-03 0.  1.
         11   -1    0    0    0    0 -0.00000000000E+00 -0.00000000000E+00 -0.45593999997E+02  0.45594000000E+02  0.51100000000E-03 0. -1.
    9900012    2    1    2    0    0  0.33815705872E+02 -0.14173734518E+02 -0.17571822081E+02  0.50528860252E+02  0.30000001222E+02 0.  0.
        -12    1    1    2    0    0 -0.33815705872E+02  0.14173734518E+02  0.17571822081E+02  0.40659139748E+02  0.00000000000E+00 0.  1.
         11    1    3    3    0    0  0.19327283993E+02 -0.56101038507E+01 -0.69875909207E+01  0.21303605303E+02  0.51100000000E-03 0. -1.
        -11    1    3    3    0    0  0.16591585024E+02 -0.81673317077E+01 -0.67519125677E-01  0.18492986777E+02  0.51100000000E-03 0.  1.
        -12    1    3    3    0    0 -0.21031631458E+01 -0.39629895975E+00 -0.10516712035E+02  0.10732268172E+02  0.00000000000E+00 0.  1.
</event>
<event>
 7    1  0.6090311E-013  0.5052886E+02  0.7816164E-02  0.1300439E+00
        -11   -1    0    0    0    0  0.00000000000E+00  0.00000000000E+00  0.45593999997E+02  0.45594000000E+02  0.51100000000E-03 0.  1.
         11   -1    0    0    0    0 -0.00000000000E+00 -0.00000000000E+00 -0.45593999997E+02  0.45594000000E+02  0.51100000000E-03 0. -1.
    9900012    2    1    2    0    0  0.26142164945E+02  0.16979273636E+02 -0.26104741461E+02  0.50528855297E+02  0.29999986161E+02 0.  0.
        -12    1    1    2    0    0 -0.26142164945E+02 -0.16979273636E+02  0.26104741461E+02  0.40659144703E+02  0.00000000000E+00 0.  1.
         11    1    3    3    0    0  0.19100612552E+02  0.88895657019E+01 -0.94247328449E+01  0.23079934309E+02  0.51100000000E-03 0. -1.
        -11    1    3    3    0    0  0.54115495494E+01 -0.20501119445E+01  0.20076150286E+01  0.61252221082E+01  0.51100000000E-03 0.  1.
        -12    1    3    3    0    0  0.16300028435E+01  0.10139819879E+02 -0.18687623645E+02  0.21323698880E+02  0.00000000000E+00 0.  1.
</event>
<event>
 7    1  0.6090311E-013  0.5052885E+02  0.7816164E-02  0.1300439E+00
        -11   -1    0    0    0    0  0.00000000000E+00  0.00000000000E+00  0.45593999997E+02  0.45594000000E+02  0.51100000000E-03 0.  1.
         11   -1    0    0    0    0 -0.00000000000E+00 -0.00000000000E+00 -0.45593999997E+02  0.45594000000E+02  0.51100000000E-03 0. -1.
    9900012    2    1    2    0    0 -0.19885126046E+02  0.14710084782E+02 -0.32270140052E+02  0.50528846405E+02  0.29999959131E+02 0.  0.
        -12    1    1    2    0    0  0.19885126046E+02 -0.14710084782E+02  0.32270140052E+02  0.40659153595E+02  0.00000000000E+00 0.  1.
         11    1    3    3    0    0  0.53353275396E+01  0.18143251005E+01  0.64896443187E+00  0.56726229048E+01  0.51100000000E-03 0.  1.
        -11    1    3    3    0    0 -0.21794813178E+00  0.57227858413E+00 -0.62455610021E+01  0.62755108683E+01  0.51100000000E-03 0. -1.
        -12    1    3    3    0    0 -0.25002505453E+02  0.12323481098E+02 -0.26673543481E+02  0.38580712632E+02  0.00000000000E+00 0.  1.
</event>
<event>
 7    1  0.6090311E-013  0.5052887E+02  0.7816164E-02  0.1300439E+00
        -11   -1    0    0    0    0  0.00000000000E+00  0.00000000000E+00  0.45593999997E+02  0.45594000000E+02  0.51100000000E-03 0. -1.
         11   -1    0    0    0    0 -0.00000000000E+00 -0.00000000000E+00 -0.45593999997E+02  0.45594000000E+02  0.51100000000E-03 0.  1.
    9900012    2    1    2    0    0 -0.16547577436E+02 -0.34156830018E+02  0.14582648287E+02  0.50528868345E+02  0.30000025821E+02 0.  0.
        -12    1    1    2    0    0  0.16547577436E+02  0.34156830018E+02 -0.14582648287E+02  0.40659131655E+02  0.00000000000E+00 0.  1.
         11    1    3    3    0    0 -0.17076011816E+01 -0.81301846983E+01 -0.85547100188E+01  0.11924716717E+02  0.51100000000E-03 0.  1.
        -11    1    3    3    0    0 -0.30046981115E+01 -0.55723181483E+01  0.13746363056E+01  0.64783150218E+01  0.51100000000E-03 0. -1.
        -12    1    3    3    0    0 -0.11835278143E+02 -0.20454327172E+02  0.21762722000E+02  0.32125836606E+02  0.00000000000E+00 0.  1.
</event>
<event>
 7    1  0.6090311E-013  0.5052889E+02  0.7816164E-02  0.1300439E+00
        -11   -1    0    0    0    0  0.00000000000E+00  0.00000000000E+00  0.45593999997E+02  0.45594000000E+02  0.51100000000E-03 0.  1.
         11   -1    0    0    0    0 -0.00000000000E+00 -0.00000000000E+00 -0.45593999997E+02  0.45594000000E+02  0.51100000000E-03 0. -1.
    9900012    2    1    2    0    0 -0.36442046418E+02  0.53866279268E+01 -0.17208274511E+02  0.50528890084E+02  0.30000091899E+02 0.  0.
        -12    1    1    2    0    0  0.36442046418E+02 -0.53866279268E+01  0.17208274511E+02  0.40659109916E+02  0.00000000000E+00 0.  1.
         11    1    3    3    0    0 -0.25154470363E+02 -0.10306725212E+01 -0.21323138296E+00  0.25176479758E+02  0.51100000000E-03 0. -1.
        -11    1    3    3    0    0 -0.96403923133E+01  0.44313772098E+01 -0.28669030107E+01  0.10990605127E+02  0.51100000000E-03 0.  1.
         12    1    3    3    0    0 -0.16471837408E+01  0.19859232381E+01 -0.14128140118E+02  0.14361805199E+02  0.00000000000E+00 0. -1.
</event>
<event>
 7    1  0.6090311E-013  0.5052886E+02  0.7816164E-02  0.1300439E+00
        -11   -1    0    0    0    0  0.00000000000E+00  0.00000000000E+00  0.45593999997E+02  0.45594000000E+02  0.51100000000E-03 0.  1.
         11   -1    0    0    0    0 -0.00000000000E+00 -0.00000000000E+00 -0.45593999997E+02  0.45594000000E+02  0.51100000000E-03 0. -1.
    9900012    2    1    2    0    0 -0.74562216963E+01 -0.31107365633E+02 -0.25097851035E+02  0.50528861234E+02  0.30000004207E+02 0.  0.
        -12    1    1    2    0    0  0.74562216963E+01  0.31107365633E+02  0.25097851035E+02  0.40659138766E+02  0.00000000000E+00 0.  1.
         11    1    3    3    0    0 -0.53976463175E+01 -0.22023631309E+00 -0.10332603521E+02  0.11659579134E+02  0.51100000000E-03 0.  1.
        -11    1    3    3    0    0  0.14094594314E+01 -0.23597028367E+02 -0.18458087810E+02  0.29991787701E+02  0.51100000000E-03 0. -1.
         12    1    3    3    0    0 -0.34680348102E+01 -0.72901009528E+01  0.36928402958E+01  0.88774943986E+01  0.00000000000E+00 0. -1.
</event>
<event>
 7    1  0.6090311E-013  0.5052885E+02  0.7816164E-02  0.1300439E+00
        -11   -1    0    0    0    0  0.00000000000E+00  0.00000000000E+00  0.45593999997E+02  0.45594000000E+02  0.51100000000E-03 0.  1.
         11   -1    0    0    0    0 -0.00000000000E+00 -0.00000000000E+00 -0.45593999997E+02  0.45594000000E+02  0.51100000000E-03 0. -1.
    9900012    2    1    2    0    0 -0.28623994027E+02  0.28405858654E+02  0.51904106392E+01  0.50528853396E+02  0.29999980384E+02 0.  0.
        -12    1    1    2    0    0  0.28623994027E+02 -0.28405858654E+02 -0.51904106392E+01  0.40659146604E+02  0.00000000000E+00 0.  1.
         11    1    3    3    0    0 -0.16380314020E+02  0.13136345432E+02 -0.54278962368E+01  0.21687330784E+02  0.51100000000E-03 0. -1.
        -11    1    3    3    0    0 -0.46302186103E+01  0.12953212352E+02 -0.20230422376E+01  0.13903860427E+02  0.51100000000E-03 0.  1.
         12    1    3    3    0    0 -0.76134613960E+01  0.23163008697E+01  0.12641349114E+02  0.14937662185E+02  0.00000000000E+00 0. -1.
</event>
<event>
 7    1  0.6090311E-013  0.5052886E+02  0.7816164E-02  0.1300439E+00
        -11   -1    0    0    0    0  0.00000000000E+00  0.00000000000E+00  0.45593999997E+02  0.45594000000E+02  0.51100000000E-03 0.  1.
         11   -1    0    0    0    0 -0.00000000000E+00 -0.00000000000E+00 -0.45593999997E+02  0.45594000000E+02  0.51100000000E-03 0. -1.
    9900012    2    1    2    0    0 -0.34952851408E+02  0.11005178378E+02 -0.17616743758E+02  0.50528862856E+02  0.30000009136E+02 0.  0.
        -12    1    1    2    0    0  0.34952851408E+02 -0.11005178378E+02  0.17616743758E+02  0.40659137144E+02  0.00000000000E+00 0.  1.
         11    1    3    3    0    0 -0.14229576831E+02  0.65214925493E+01 -0.98270182695E+01  0.18481910350E+02  0.51100000000E-03 0. -1.
        -11    1    3    3    0    0  0.45320959034E+01  0.64258652555E+00 -0.42699449773E+01  0.62598115859E+01  0.51100000000E-03 0.  1.
         12    1    3    3    0    0 -0.25255370481E+02  0.38410993027E+01 -0.35197805108E+01  0.25787140920E+02  0.00000000000E+00 0. -1.
</event>
<event>
 7    1  0.6090311E-013  0.5052885E+02  0.7816164E-02  0.1300439E+00
        -11   -1    0    0    0    0  0.00000000000E+00  0.00000000000E+00  0.45593999997E+02  0.45594000000E+02  0.51100000000E-03 0.  1.
         11   -1    0    0    0    0 -0.00000000000E+00 -0.00000000000E+00 -0.45593999997E+02  0.45594000000E+02  0.51100000000E-03 0. -1.
    9900012    2    1    2    0    0 -0.18767145614E+02  0.26140440617E+02 -0.24852320518E+02  0.50528853117E+02  0.29999979535E+02 0.  0.
        -12    1    1    2    0    0  0.18767145614E+02 -0.26140440617E+02  0.24852320518E+02  0.40659146883E+02  0.00000000000E+00 0.  1.
         11    1    3    3    0    0 -0.87282135325E+01  0.12566798252E+02 -0.24709516107E+02  0.29063143606E+02  0.51100000000E-03 0. -1.
        -11    1    3    3    0    0 -0.11514487534E+02  0.68763523921E+01 -0.34556943872E+01  0.13849529572E+02  0.51100000000E-03 0.  1.
         12    1    3    3    0    0  0.14755554529E+01  0.66972899723E+01  0.33128899766E+01  0.76161799391E+01  0.00000000000E+00 0. -1.
</event>
<event>
 7    1  0.6090311E-013  0.5052886E+02  0.7816164E-02  0.1300439E+00
        -11   -1    0    0    0    0  0.00000000000E+00  0.00000000000E+00  0.45593999997E+02  0.45594000000E+02  0.51100000000E-03 0.  1.
         11   -1    0    0    0    0 -0.00000000000E+00 -0.00000000000E+00 -0.45593999997E+02  0.45594000000E+02  0.51100000000E-03 0. -1.
    9900012    2    1    2    0    0 -0.36044096360E+01  0.36271390414E+00 -0.40497432979E+02  0.50528863166E+02  0.30000010079E+02 0.  0.
        -12    1    1    2    0    0  0.36044096360E+01 -0.36271390414E+00  0.40497432979E+02  0.40659136834E+02  0.00000000000E+00 0.  1.
         11    1    3    3    0    0 -0.49149524684E+01  0.48079274400E+01 -0.14584117113E+02  0.16123566487E+02  0.51100000000E-03 0. -1.
        -11    1    3    3    0    0  0.10427601044E+00 -0.16500941895E+01 -0.29587565769E+02  0.29633726271E+02  0.51100000000E-03 0.  1.
        -12    1    3    3    0    0  0.12062668219E+01 -0.27951193464E+01  0.36742499031E+01  0.47715704078E+01  0.00000000000E+00 0.  1.
</event>
<event>
 7    1  0.6090311E-013  0.5052888E+02  0.7816164E-02  0.1300439E+00
        -11   -1    0    0    0    0  0.00000000000E+00  0.00000000000E+00  0.45593999997E+02  0.45594000000E+02  0.51100000000E-03 0. -1.
         11   -1    0    0    0    0 -0.00000000000E+00 -0.00000000000E+00 -0.45593999997E+02  0.45594000000E+02  0.51100000000E-03 0.  1.
    9900012    2    1    2    0    0 -0.21607547397E+02 -0.10709046392E+02  0.32735215814E+02  0.50528878840E+02  0.30000057722E+02 0.  0.
        -12    1    1    2    0    0  0.21607547397E+02  0.10709046392E+02 -0.32735215814E+02  0.40659121160E+02  0.00000000000E+00 0.  1.
         11    1    3    3    0    0 -0.12886886944E+02 -0.10148943648E+02  0.23206875394E+02  0.28418866587E+02  0.51100000000E-03 0. -1.
        -11    1    3    3    0    0 -0.14004187666E+02 -0.14234854145E+01  0.90511114978E+01  0.16735178592E+02  0.51100000000E-03 0.  1.
         12    1    3    3    0    0  0.52835272127E+01  0.86338267010E+00  0.47722892217E+00  0.53748336613E+01  0.00000000000E+00 0. -1.
</event>
<event>
 7    1  0.6090311E-013  0.5052886E+02  0.7816164E-02  0.1300439E+00
        -11   -1    0    0    0    0  0.00000000000E+00  0.00000000000E+00  0.45593999997E+02  0.45594000000E+02  0.51100000000E-03 0.  1.
         11   -1    0    0    0    0 -0.00000000000E+00 -0.00000000000E+00 -0.45593999997E+02  0.45594000000E+02  0.51100000000E-03 0. -1.
    9900012    2    1    2    0    0  0.30742294569E+02 -0.26518416966E+02  0.22023608027E+01  0.50528861952E+02  0.30000006389E+02 0.  0.
        -12    1    1    2    0    0 -0.30742294569E+02  0.26518416966E+02 -0.22023608027E+01  0.40659138048E+02  0.00000000000E+00 0.  1.
         11    1    3    3    0    0  0.40453400899E+01 -0.14712442728E+02 -0.40264019330E+01  0.15780768684E+02  0.51100000000E-03 0. -1.
        -11    1    3    3    0    0  0.31232872188E+01  0.42071813547E+01 -0.10301576918E+01  0.53400864350E+01  0.51100000000E-03 0.  1.
         12    1    3    3    0    0  0.23573667260E+02 -0.16013155592E+02  0.72589204275E+01  0.29408006833E+02  0.00000000000E+00 0. -1.
</event>
<event>
 7    1  0.6090311E-013  0.5052885E+02  0.7816164E-02  0.1300439E+00
        -11   -1    0    0    0    0  0.00000000000E+00  0.00000000000E+00  0.45593999997E+02  0.45594000000E+02  0.51100000000E-03 0.  1.
         11   -1    0    0    0    0 -0.00000000000E+00 -0.00000000000E+00 -0.45593999997E+02  0.45594000000E+02  0.51100000000E-03 0. -1.
    9900012    2    1    2    0    0  0.13794826075E+01  0.39064062932E+02  0.11192069903E+02  0.50528850799E+02  0.29999972489E+02 0.  0.
        -12    1    1    2    0    0 -0.13794826075E+01 -0.39064062932E+02 -0.11192069903E+02  0.40659149201E+02  0.00000000000E+00 0.  1.
         11    1    3    3    0    0  0.39588505046E+01  0.10230305385E+01 -0.16203106282E+01  0.43982377827E+01  0.51100000000E-03 0.  1.
        -11    1    3    3    0    0 -0.11452355278E+01 -0.12429620267E+01 -0.32517892919E+01  0.36647855154E+01  0.51100000000E-03 0. -1.
         12    1    3    3    0    0 -0.14341323693E+01  0.39283994420E+02  0.16064169823E+02  0.42465827501E+02  0.00000000000E+00 0. -1.
</event>
<event>
 7    1  0.6090311E-013  0.5052886E+02  0.7816164E-02  0.1300439E+00
        -11   -1    0    0    0    0  0.00000000000E+00  0.00000000000E+00  0.45593999997E+02  0.45594000000E+02  0.51100000000E-03 0.  1.
         11   -1    0    0    0    0 -0.00000000000E+00 -0.00000000000E+00 -0.45593999997E+02  0.45594000000E+02  0.51100000000E-03 0. -1.
    9900012    2    1    2    0    0  0.85831364749E+01 -0.10805798844E+02 -0.38245653950E+02  0.50528861218E+02  0.30000004159E+02 0.  0.
        -12    1    1    2    0    0 -0.85831364749E+01  0.10805798844E+02  0.38245653950E+02  0.40659138782E+02  0.00000000000E+00 0.  1.
         11    1    3    3    0    0  0.11796517579E+02 -0.10635636473E+02 -0.13343618622E+02  0.20744318460E+02  0.51100000000E-03 0.  1.
        -11    1    3    3    0    0 -0.47255797272E+01 -0.65401276082E+01 -0.20118412951E+02  0.21676136944E+02  0.51100000000E-03 0. -1.
        -12    1    3    3    0    0  0.15121986231E+01  0.63699652376E+01 -0.47836223775E+01  0.81084058146E+01  0.00000000000E+00 0.  1.
</event>
