<event>
 7    1  0.6622189E-010  0.4778727E+02  0.7816164E-02  0.1312668E+00
        -11   -1    0    0    0    0  0.00000000000E+00  0.00000000000E+00  0.45593999997E+02  0.45594000000E+02  0.51100000000E-03 0. -1.
         11   -1    0    0    0    0 -0.00000000000E+00 -0.00000000000E+00 -0.45593999997E+02  0.45594000000E+02  0.51100000000E-03 0.  1.
    9900012    2    1    2    0    0  0.26368563089E+02  0.31258534794E+02 -0.14533621784E+02  0.47787270985E+02  0.19999999730E+02 0.  0.
         12    1    1    2    0    0 -0.26368563089E+02 -0.31258534794E+02  0.14533621784E+02  0.43400729015E+02  0.00000000000E+00 0. -1.
         11    1    3    3    0    0  0.33377556645E+01 -0.22645485292E+00  0.35520892580E+00  0.33642336896E+01  0.51100000000E-03 0. -1.
        -11    1    3    3    0    0  0.17791424620E+02  0.13771053143E+02 -0.36286363064E+01  0.22789113550E+02  0.51100000000E-03 0.  1.
        -12    1    3    3    0    0  0.52393828047E+01  0.17713936504E+02 -0.11260194403E+02  0.21633923746E+02  0.00000000000E+00 0.  1.
</event>
<event>
 7    1  0.6622189E-010  0.4778727E+02  0.7816164E-02  0.1312668E+00
        -11   -1    0    0    0    0  0.00000000000E+00  0.00000000000E+00  0.45593999997E+02  0.45594000000E+02  0.51100000000E-03 0. -1.
         11   -1    0    0    0    0 -0.00000000000E+00 -0.00000000000E+00 -0.45593999997E+02  0.45594000000E+02  0.51100000000E-03 0.  1.
    9900012    2    1    2    0    0 -0.34801421053E+02 -0.28064989777E+01  0.25779991634E+02  0.47787270600E+02  0.19999997974E+02 0.  0.
        -12    1    1    2    0    0  0.34801421053E+02  0.28064989777E+01 -0.25779991634E+02  0.43400729400E+02  0.00000000000E+00 0.  1.
         11    1    3    3    0    0 -0.32139845271E+02 -0.29007949357E+01  0.27112675446E+02  0.42148326602E+02  0.51100000000E-03 0. -1.
        -11    1    3    3    0    0  0.48015764178E+00  0.14789410240E+01  0.63744011065E+00  0.16805201781E+01  0.51100000000E-03 0.  1.
         12    1    3    3    0    0 -0.31417334240E+01 -0.13846450659E+01 -0.19701239228E+01  0.39584238198E+01  0.00000000000E+00 0. -1.
</event>
<event>
 7    1  0.7328560E-010  0.4778728E+02  0.7816164E-02  0.1312668E+00
        -11   -1    0    0    0    0  0.00000000000E+00  0.00000000000E+00  0.45593999997E+02  0.45594000000E+02  0.51100000000E-03 0. -1.
         11   -1    0    0    0    0 -0.00000000000E+00 -0.00000000000E+00 -0.45593999997E+02  0.45594000000E+02  0.51100000000E-03 0.  1.
    9900012    2    1    2    0    0  0.33928885900E+02  0.17199390653E+02  0.20895788932E+02  0.47787281892E+02  0.20000049457E+02 0.  0.
        -12    1    1    2    0    0 -0.33928885900E+02 -0.17199390653E+02 -0.20895788932E+02  0.43400718108E+02  0.00000000000E+00 0.  1.
         11    1    3    3    0    0  0.20735191621E+02  0.10566136368E+02  0.20815706613E+02  0.31223149287E+02  0.51100000000E-03 0. -1.
        -11    1    3    3    0    0  0.43583767764E+01  0.63016305153E+01 -0.66773438157E+00  0.76910249474E+01  0.51100000000E-03 0.  1.
         12    1    3    3    0    0  0.88353175021E+01  0.33162376901E+00  0.74781670070E+00  0.88731076577E+01  0.00000000000E+00 0. -1.
</event>
<event>
 7    1  0.6622189E-010  0.4778727E+02  0.7816164E-02  0.1312668E+00
        -11   -1    0    0    0    0  0.00000000000E+00  0.00000000000E+00  0.45593999997E+02  0.45594000000E+02  0.51100000000E-03 0. -1.
         11   -1    0    0    0    0 -0.00000000000E+00 -0.00000000000E+00 -0.45593999997E+02  0.45594000000E+02  0.51100000000E-03 0.  1.
    9900012    2    1    2    0    0 -0.70859222665E+01 -0.83899783885E+01  0.41988347388E+02  0.47787270189E+02  0.19999996100E+02 0.  0.
        -12    1    1    2    0    0  0.70859222665E+01  0.83899783885E+01 -0.41988347388E+02  0.43400729811E+02  0.00000000000E+00 0.  1.
         11    1    3    3    0    0 -0.90306670602E+01 -0.56812908091E+01  0.19917565295E+02  0.22595119392E+02  0.51100000000E-03 0. -1.
        -11    1    3    3    0    0  0.49786594934E+01 -0.56111890963E+01  0.17179852923E+02  0.18746195352E+02  0.51100000000E-03 0.  1.
        -12    1    3    3    0    0 -0.30339146997E+01  0.29025015168E+01  0.48909291695E+01  0.64459554451E+01  0.00000000000E+00 0.  1.
</event>
<event>
 7    1  0.6622189E-010  0.4778727E+02  0.7816164E-02  0.1312668E+00
        -11   -1    0    0    0    0  0.00000000000E+00  0.00000000000E+00  0.45593999997E+02  0.45594000000E+02  0.51100000000E-03 0.  1.
         11   -1    0    0    0    0 -0.00000000000E+00 -0.00000000000E+00 -0.45593999997E+02  0.45594000000E+02  0.51100000000E-03 0. -1.
    9900012    2    1    2    0    0  0.11595511161E+02  0.41734226226E+02 -0.27243613072E+01  0.47787266569E+02  0.19999979596E+02 0.  0.
         12    1    1    2    0    0 -0.11595511161E+02 -0.41734226226E+02  0.27243613072E+01  0.43400733431E+02  0.00000000000E+00 0. -1.
         11    1    3    3    0    0  0.19008774971E+00  0.35961345880E+01 -0.16378591434E+01  0.39561218588E+01  0.51100000000E-03 0. -1.
        -11    1    3    3    0    0  0.16183375165E+02  0.24608057973E+02 -0.12888379333E+01  0.29480828557E+02  0.51100000000E-03 0.  1.
        -12    1    3    3    0    0 -0.47779517532E+01  0.13530033665E+02  0.20233576943E+00  0.14350316154E+02  0.00000000000E+00 0.  1.
</event>
<event>
 7    1  0.6622189E-010  0.4778727E+02  0.7816164E-02  0.1312668E+00
        -11   -1    0    0    0    0  0.00000000000E+00  0.00000000000E+00  0.45593999997E+02  0.45594000000E+02  0.51100000000E-03 0. -1.
         11   -1    0    0    0    0 -0.00000000000E+00 -0.00000000000E+00 -0.45593999997E+02  0.45594000000E+02  0.51100000000E-03 0.  1.
    9900012    2    1    2    0    0  0.21200393165E+01 -0.17769513290E+02 -0.39539514867E+02  0.47787269532E+02  0.19999993103E+02 0.  0.
         12    1    1    2    0    0 -0.21200393165E+01  0.17769513290E+02  0.39539514867E+02  0.43400730468E+02  0.00000000000E+00 0. -1.
         11    1    3    3    0    0 -0.31971001412E+01 -0.63031925928E+01 -0.28976145106E+02  0.29825637825E+02  0.51100000000E-03 0. -1.
        -11    1    3    3    0    0  0.39721383098E+01 -0.56490265856E+01 -0.14338933602E+01  0.70530443460E+01  0.51100000000E-03 0.  1.
        -12    1    3    3    0    0  0.13450011480E+01 -0.58172941117E+01 -0.91294764005E+01  0.10908587361E+02  0.00000000000E+00 0.  1.
</event>
<event>
 7    1  0.6622189E-010  0.4778728E+02  0.7816164E-02  0.1312668E+00
        -11   -1    0    0    0    0  0.00000000000E+00  0.00000000000E+00  0.45593999997E+02  0.45594000000E+02  0.51100000000E-03 0. -1.
         11   -1    0    0    0    0 -0.00000000000E+00 -0.00000000000E+00 -0.45593999997E+02  0.45594000000E+02  0.51100000000E-03 0.  1.
    9900012    2    1    2    0    0  0.36566618163E+02 -0.14462065406E+02  0.18367197514E+02  0.47787275994E+02  0.20000022569E+02 0.  0.
        -12    1    1    2    0    0 -0.36566618163E+02  0.14462065406E+02 -0.18367197514E+02  0.43400724006E+02  0.00000000000E+00 0.  1.
         11    1    3    3    0    0  0.18974318258E+02 -0.12236471646E+01  0.38899574486E+01  0.19407571589E+02  0.51100000000E-03 0. -1.
        -11    1    3    3    0    0  0.75892868437E+01  0.18889505907E+00  0.35093600789E+01  0.83635258453E+01  0.51100000000E-03 0.  1.
         12    1    3    3    0    0  0.10003013061E+02 -0.13427313301E+02  0.10967879986E+02  0.20016178561E+02  0.00000000000E+00 0. -1.
</event>
<event>
 7    1  0.6622189E-010  0.4778728E+02  0.7816164E-02  0.1312668E+00
        -11   -1    0    0    0    0  0.00000000000E+00  0.00000000000E+00  0.45593999997E+02  0.45594000000E+02  0.51100000000E-03 0. -1.
         11   -1    0    0    0    0 -0.00000000000E+00 -0.00000000000E+00 -0.45593999997E+02  0.45594000000E+02  0.51100000000E-03 0.  1.
    9900012    2    1    2    0    0  0.19787535301E+02  0.13413227241E+02 -0.36223771791E+02  0.47787275800E+02  0.20000021684E+02 0.  0.
         12    1    1    2    0    0 -0.19787535301E+02 -0.13413227241E+02  0.36223771791E+02  0.43400724200E+02  0.00000000000E+00 0. -1.
         11    1    3    3    0    0  0.16441419792E+01  0.42028552842E+00  0.43728768315E+00  0.17524450211E+01  0.51100000000E-03 0. -1.
        -11    1    3    3    0    0  0.71380546205E+01  0.13601494944E+02 -0.13773725465E+02  0.20631723193E+02  0.51100000000E-03 0.  1.
         12    1    3    3    0    0  0.11005338701E+02 -0.60855323172E+00 -0.22887334010E+02  0.25403107586E+02  0.00000000000E+00 0. -1.
</event>
<event>
 7    1  0.6622189E-010  0.4778727E+02  0.7816164E-02  0.1312668E+00
        -11   -1    0    0    0    0  0.00000000000E+00  0.00000000000E+00  0.45593999997E+02  0.45594000000E+02  0.51100000000E-03 0. -1.
         11   -1    0    0    0    0 -0.00000000000E+00 -0.00000000000E+00 -0.45593999997E+02  0.45594000000E+02  0.51100000000E-03 0.  1.
    9900012    2    1    2    0    0  0.36243014905E+02 -0.75370350147E+01  0.22655250002E+02  0.47787269835E+02  0.19999994485E+02 0.  0.
        -12    1    1    2    0    0 -0.36243014905E+02  0.75370350147E+01 -0.22655250002E+02  0.43400730165E+02  0.00000000000E+00 0.  1.
         11    1    3    3    0    0  0.58405855279E+01 -0.58653300894E+00  0.19866181159E+01  0.61970244536E+01  0.51100000000E-03 0. -1.
        -11    1    3    3    0    0  0.16093262457E+02 -0.72124226219E+01  0.20810477634E+02  0.27277978595E+02  0.51100000000E-03 0.  1.
        -12    1    3    3    0    0  0.14309166920E+02  0.26192061608E+00 -0.14184574778E+00  0.14312266787E+02  0.00000000000E+00 0.  1.
</event>
<event>
 7    1  0.6622189E-010  0.4778727E+02  0.7816164E-02  0.1312668E+00
        -11   -1    0    0    0    0  0.00000000000E+00  0.00000000000E+00  0.45593999997E+02  0.45594000000E+02  0.51100000000E-03 0.  1.
         11   -1    0    0    0    0 -0.00000000000E+00 -0.00000000000E+00 -0.45593999997E+02  0.45594000000E+02  0.51100000000E-03 0. -1.
    9900012    2    1    2    0    0 -0.24011800000E+02 -0.33332250499E+02  0.14000654701E+02  0.47787265045E+02  0.19999972647E+02 0.  0.
         12    1    1    2    0    0  0.24011800000E+02  0.33332250499E+02 -0.14000654701E+02  0.43400734955E+02  0.00000000000E+00 0. -1.
         11    1    3    3    0    0 -0.34890967981E+01  0.42897155788E-01  0.64153509787E+01  0.73029011408E+01  0.51100000000E-03 0. -1.
        -11    1    3    3    0    0 -0.16920676996E+02 -0.24588234390E+02  0.82428932084E+01  0.30965074990E+02  0.51100000000E-03 0.  1.
         12    1    3    3    0    0 -0.36020262060E+01 -0.87869132648E+01 -0.65758948596E+00  0.95192889148E+01  0.00000000000E+00 0. -1.
</event>
<event>
 7    1  0.6622189E-010  0.4778727E+02  0.7816164E-02  0.1312668E+00
        -11   -1    0    0    0    0  0.00000000000E+00  0.00000000000E+00  0.45593999997E+02  0.45594000000E+02  0.51100000000E-03 0. -1.
         11   -1    0    0    0    0 -0.00000000000E+00 -0.00000000000E+00 -0.45593999997E+02  0.45594000000E+02  0.51100000000E-03 0.  1.
    9900012    2    1    2    0    0 -0.11442417171E+02  0.12743741121E+02 -0.39878459254E+02  0.47787270041E+02  0.19999995425E+02 0.  0.
         12    1    1    2    0    0  0.11442417171E+02 -0.12743741121E+02  0.39878459254E+02  0.43400729959E+02  0.00000000000E+00 0. -1.
         11    1    3    3    0    0 -0.77708670894E+01  0.29424090431E+01 -0.27554570649E+01  0.87542384132E+01  0.51100000000E-03 0. -1.
        -11    1    3    3    0    0 -0.25132276496E+01  0.92923002100E+01 -0.24139814262E+02  0.25988339487E+02  0.51100000000E-03 0.  1.
         12    1    3    3    0    0 -0.11583224317E+01  0.50903186807E+00 -0.12983187927E+02  0.13044692141E+02  0.00000000000E+00 0. -1.
</event>
<event>
 7    1  0.6622189E-010  0.4778727E+02  0.7816164E-02  0.1312668E+00
        -11   -1    0    0    0    0  0.00000000000E+00  0.00000000000E+00  0.45593999997E+02  0.45594000000E+02  0.51100000000E-03 0. -1.
         11   -1    0    0    0    0 -0.00000000000E+00 -0.00000000000E+00 -0.45593999997E+02  0.45594000000E+02  0.51100000000E-03 0.  1.
    9900012    2    1    2    0    0  0.10870888029E+02  0.35661792200E+02  0.22219004576E+02  0.47787265054E+02  0.19999972688E+02 0.  0.
        -12    1    1    2    0    0 -0.10870888029E+02 -0.35661792200E+02 -0.22219004576E+02  0.43400734946E+02  0.00000000000E+00 0.  1.
         11    1    3    3    0    0 -0.25554954462E+01  0.13176517664E+02  0.71826389296E+01  0.15223057412E+02  0.51100000000E-03 0. -1.
        -11    1    3    3    0    0 -0.17802004578E+01  0.67160910903E+01  0.42639827244E+01  0.81520882072E+01  0.51100000000E-03 0.  1.
         12    1    3    3    0    0  0.15206583933E+02  0.15769183446E+02  0.10772382922E+02  0.24412119435E+02  0.00000000000E+00 0. -1.
</event>
<event>
 7    1  0.6622189E-010  0.4778727E+02  0.7816164E-02  0.1312668E+00
        -11   -1    0    0    0    0  0.00000000000E+00  0.00000000000E+00  0.45593999997E+02  0.45594000000E+02  0.51100000000E-03 0. -1.
         11   -1    0    0    0    0 -0.00000000000E+00 -0.00000000000E+00 -0.45593999997E+02  0.45594000000E+02  0.51100000000E-03 0.  1.
    9900012    2    1    2    0    0  0.37247966909E+02 -0.16412474696E+02 -0.15061314614E+02  0.47787267720E+02  0.19999984842E+02 0.  0.
         12    1    1    2    0    0 -0.37247966909E+02  0.16412474696E+02  0.15061314614E+02  0.43400732280E+02  0.00000000000E+00 0. -1.
         11    1    3    3    0    0  0.81657343506E+00 -0.45804854940E+01  0.90815563424E-01  0.46535886435E+01  0.51100000000E-03 0. -1.
        -11    1    3    3    0    0  0.19850567866E+02 -0.33124297599E+01 -0.13882938878E+02  0.24448992365E+02  0.51100000000E-03 0.  1.
        -12    1    3    3    0    0  0.16580825609E+02 -0.85195594418E+01 -0.12691912995E+01  0.18684686711E+02  0.00000000000E+00 0.  1.
</event>
<event>
 7    1  0.6622189E-010  0.4778727E+02  0.7816164E-02  0.1312668E+00
        -11   -1    0    0    0    0  0.00000000000E+00  0.00000000000E+00  0.45593999997E+02  0.45594000000E+02  0.51100000000E-03 0. -1.
         11   -1    0    0    0    0 -0.00000000000E+00 -0.00000000000E+00 -0.45593999997E+02  0.45594000000E+02  0.51100000000E-03 0.  1.
    9900012    2    1    2    0    0 -0.39622539284E+02 -0.45644668955E+01  0.17112664109E+02  0.47787271317E+02  0.20000001243E+02 0.  0.
        -12    1    1    2    0    0  0.39622539284E+02  0.45644668955E+01 -0.17112664109E+02  0.43400728683E+02  0.00000000000E+00 0.  1.
         11    1    3    3    0    0 -0.18362813298E+02  0.51081555933E+01  0.39865795267E+01  0.19472518644E+02  0.51100000000E-03 0. -1.
        -11    1    3    3    0    0  0.41193621691E+00  0.54742251576E+00  0.15700598863E+01  0.17130239827E+01  0.51100000000E-03 0.  1.
         12    1    3    3    0    0 -0.21671662203E+02 -0.10220045005E+02  0.11556024696E+02  0.26601728690E+02  0.00000000000E+00 0. -1.
</event>
<event>
 7    1  0.6622189E-010  0.4778721E+02  0.7816164E-02  0.1312668E+00
        -11   -1    0    0    0    0  0.00000000000E+00  0.00000000000E+00  0.45593999997E+02  0.45594000000E+02  0.51100000000E-03 0. -1.
         11   -1    0    0    0    0 -0.00000000000E+00 -0.00000000000E+00 -0.45593999997E+02  0.45594000000E+02  0.51100000000E-03 0.  1.
    9900012    2    1    2    0    0 -0.18267194071E+02 -0.11814235736E+02 -0.37554786558E+02  0.47787210391E+02  0.19999723456E+02 0.  0.
         12    1    1    2    0    0  0.18267194071E+02  0.11814235736E+02  0.37554786558E+02  0.43400789609E+02  0.00000000000E+00 0. -1.
         11    1    3    3    0    0 -0.40874297704E+01 -0.64361971771E+01 -0.11426015628E+01  0.77095560717E+01  0.51100000000E-03 0. -1.
        -11    1    3    3    0    0 -0.13732387885E+02 -0.32846429324E+01 -0.34196148816E+02  0.36996539708E+02  0.51100000000E-03 0.  1.
        -12    1    3    3    0    0 -0.44737641605E+00 -0.20933956261E+01 -0.22160361788E+01  0.30811146117E+01  0.00000000000E+00 0.  1.
</event>
<event>
 7    1  0.6622189E-010  0.4778727E+02  0.7816164E-02  0.1312668E+00
        -11   -1    0    0    0    0  0.00000000000E+00  0.00000000000E+00  0.45593999997E+02  0.45594000000E+02  0.51100000000E-03 0. -1.
         11   -1    0    0    0    0 -0.00000000000E+00 -0.00000000000E+00 -0.45593999997E+02  0.45594000000E+02  0.51100000000E-03 0.  1.
    9900012    2    1    2    0    0  0.23473023530E+01  0.87622729177E+01 -0.42442147677E+02  0.47787272420E+02  0.20000006272E+02 0.  0.
         12    1    1    2    0    0 -0.23473023530E+01 -0.87622729177E+01  0.42442147677E+02  0.43400727580E+02  0.00000000000E+00 0. -1.
         11    1    3    3    0    0 -0.68645989958E+01  0.26301928213E+01 -0.79628855896E+01  0.10837351190E+02  0.51100000000E-03 0. -1.
        -11    1    3    3    0    0  0.10035193374E+02  0.51073227066E+01 -0.25506478519E+02  0.27881361122E+02  0.51100000000E-03 0.  1.
         12    1    3    3    0    0 -0.82329202529E+00  0.10247573898E+01 -0.89727835684E+01  0.90685601080E+01  0.00000000000E+00 0. -1.
</event>
<event>
 7    1  0.6622189E-010  0.4778727E+02  0.7816164E-02  0.1312668E+00
        -11   -1    0    0    0    0  0.00000000000E+00  0.00000000000E+00  0.45593999997E+02  0.45594000000E+02  0.51100000000E-03 0. -1.
         11   -1    0    0    0    0 -0.00000000000E+00 -0.00000000000E+00 -0.45593999997E+02  0.45594000000E+02  0.51100000000E-03 0.  1.
    9900012    2    1    2    0    0 -0.19797396799E+02  0.19908997960E+02 -0.33095592757E+02  0.47787269825E+02  0.19999994441E+02 0.  0.
         12    1    1    2    0    0  0.19797396799E+02 -0.19908997960E+02  0.33095592757E+02  0.43400730175E+02  0.00000000000E+00 0. -1.
         11    1    3    3    0    0 -0.59918927546E+01  0.28238882855E+01 -0.15263929664E+02  0.16639250971E+02  0.51100000000E-03 0. -1.
        -11    1    3    3    0    0 -0.14203788955E+02  0.88422729214E+01 -0.87650983097E+01  0.18888101009E+02  0.51100000000E-03 0.  1.
        -12    1    3    3    0    0  0.39828491009E+00  0.82428367529E+01 -0.90665647833E+01  0.12259917845E+02  0.00000000000E+00 0.  1.
</event>
<event>
 7    1  0.6622189E-010  0.4778727E+02  0.7816164E-02  0.1312668E+00
        -11   -1    0    0    0    0  0.00000000000E+00  0.00000000000E+00  0.45593999997E+02  0.45594000000E+02  0.51100000000E-03 0. -1.
         11   -1    0    0    0    0 -0.00000000000E+00 -0.00000000000E+00 -0.45593999997E+02  0.45594000000E+02  0.51100000000E-03 0.  1.
    9900012    2    1    2    0    0  0.20912499775E+02  0.28540360480E+02  0.25134416414E+02  0.47787266002E+02  0.19999977007E+02 0.  0.
        -12    1    1    2    0    0 -0.20912499775E+02 -0.28540360480E+02 -0.25134416414E+02  0.43400733998E+02  0.00000000000E+00 0.  1.
         11    1    3    3    0    0  0.83638259501E+01  0.14738593456E+02  0.10854225584E+02  0.20124461108E+02  0.51100000000E-03 0. -1.
        -11    1    3    3    0    0  0.10115540451E+02  0.30896224017E+01  0.12972236862E+01  0.10656111616E+02  0.51100000000E-03 0.  1.
        -12    1    3    3    0    0  0.24331333734E+01  0.10712144622E+02  0.12982967143E+02  0.17006693278E+02  0.00000000000E+00 0.  1.
</event>
<event>
 7    1  0.6622189E-010  0.4778724E+02  0.7816164E-02  0.1312668E+00
        -11   -1    0    0    0    0  0.00000000000E+00  0.00000000000E+00  0.45593999997E+02  0.45594000000E+02  0.51100000000E-03 0. -1.
         11   -1    0    0    0    0 -0.00000000000E+00 -0.00000000000E+00 -0.45593999997E+02  0.45594000000E+02  0.51100000000E-03 0.  1.
    9900012    2    1    2    0    0  0.31129484420E+01  0.71864760007E+01 -0.42688292836E+02  0.47787236981E+02  0.19999844692E+02 0.  0.
         12    1    1    2    0    0 -0.31129484420E+01 -0.71864760007E+01  0.42688292836E+02  0.43400763019E+02  0.00000000000E+00 0. -1.
         11    1    3    3    0    0 -0.49027555317E+00 -0.14285319427E+01 -0.73773180215E+00  0.16808694483E+01  0.51100000000E-03 0. -1.
        -11    1    3    3    0    0  0.46505616983E+01  0.28197929954E+01 -0.21111296084E+01  0.58340230657E+01  0.51100000000E-03 0.  1.
        -12    1    3    3    0    0 -0.10473377031E+01  0.57952149480E+01 -0.39839431426E+02  0.40272344467E+02  0.00000000000E+00 0.  1.
</event>
<event>
 7    1  0.6622189E-010  0.4778728E+02  0.7816164E-02  0.1312668E+00
        -11   -1    0    0    0    0  0.00000000000E+00  0.00000000000E+00  0.45593999997E+02  0.45594000000E+02  0.51100000000E-03 0. -1.
         11   -1    0    0    0    0 -0.00000000000E+00 -0.00000000000E+00 -0.45593999997E+02  0.45594000000E+02  0.51100000000E-03 0.  1.
    9900012    2    1    2    0    0 -0.13673767824E+02 -0.25641448086E+01  0.41110529576E+02  0.47787281030E+02  0.20000045530E+02 0.  0.
        -12    1    1    2    0    0  0.13673767824E+02  0.25641448086E+01 -0.41110529576E+02  0.43400718970E+02  0.00000000000E+00 0.  1.
         11    1    3    3    0    0 -0.43953627052E+01 -0.41118270661E+01  0.29309623293E+02  0.29921235819E+02  0.51100000000E-03 0. -1.
        -11    1    3    3    0    0 -0.27721035619E+01  0.52432304993E+01  0.52893743917E+01  0.79469180154E+01  0.51100000000E-03 0.  1.
         12    1    3    3    0    0 -0.65063015566E+01 -0.36955482419E+01  0.65115318909E+01  0.99191271955E+01  0.00000000000E+00 0. -1.
</event>
<event>
 7    1  0.6622189E-010  0.4778728E+02  0.7816164E-02  0.1312668E+00
        -11   -1    0    0    0    0  0.00000000000E+00  0.00000000000E+00  0.45593999997E+02  0.45594000000E+02  0.51100000000E-03 0. -1.
         11   -1    0    0    0    0 -0.00000000000E+00 -0.00000000000E+00 -0.45593999997E+02  0.45594000000E+02  0.51100000000E-03 0.  1.
    9900012    2    1    2    0    0  0.22511214112E+02 -0.11283754549E+02  0.35348901939E+02  0.47787277128E+02  0.20000027737E+02 0.  0.
        -12    1    1    2    0    0 -0.22511214112E+02  0.11283754549E+02 -0.35348901939E+02  0.43400722872E+02  0.00000000000E+00 0.  1.
         11    1    3    3    0    0  0.14084713824E+02 -0.41350237548E+01  0.19713092103E+02  0.24578111919E+02  0.51100000000E-03 0. -1.
        -11    1    3    3    0    0 -0.27119303034E+00  0.63761833077E+00 -0.19679914588E+01  0.20864068247E+01  0.51100000000E-03 0.  1.
        -12    1    3    3    0    0  0.86976933184E+01 -0.77863491247E+01  0.17603801295E+02  0.21122758385E+02  0.00000000000E+00 0.  1.
</event>
<event>
 7    1  0.6622189E-010  0.4778727E+02  0.7816164E-02  0.1312668E+00
        -11   -1    0    0    0    0  0.00000000000E+00  0.00000000000E+00  0.45593999997E+02  0.45594000000E+02  0.51100000000E-03 0. -1.
         11   -1    0    0    0    0 -0.00000000000E+00 -0.00000000000E+00 -0.45593999997E+02  0.45594000000E+02  0.51100000000E-03 0.  1.
    9900012    2    1    2    0    0  0.40890098646E+02 -0.58638102945E+01  0.13313102798E+02  0.47787272534E+02  0.20000006792E+02 0.  0.
        -12    1    1    2    0    0 -0.40890098646E+02  0.58638102945E+01 -0.13313102798E+02  0.43400727466E+02  0.00000000000E+00 0.  1.
         11    1    3    3    0    0  0.18543788004E+02 -0.22634907036E+01 -0.34781867708E+01  0.19002453715E+02  0.51100000000E-03 0. -1.
        -11    1    3    3    0    0  0.20464511158E+01  0.83439610844E+00  0.34324830958E+01  0.40824158901E+01  0.51100000000E-03 0.  1.
         12    1    3    3    0    0  0.20299859526E+02 -0.44347156993E+01  0.13358806473E+02  0.24702402930E+02  0.00000000000E+00 0. -1.
</event>
<event>
 7    1  0.6622189E-010  0.4778726E+02  0.7816164E-02  0.1312668E+00
        -11   -1    0    0    0    0  0.00000000000E+00  0.00000000000E+00  0.45593999997E+02  0.45594000000E+02  0.51100000000E-03 0. -1.
         11   -1    0    0    0    0 -0.00000000000E+00 -0.00000000000E+00 -0.45593999997E+02  0.45594000000E+02  0.51100000000E-03 0.  1.
    9900012    2    1    2    0    0 -0.72972266238E+01  0.16598185126E+02  0.39431898650E+02  0.47787263865E+02  0.19999967266E+02 0.  0.
        -12    1    1    2    0    0  0.72972266238E+01 -0.16598185126E+02 -0.39431898650E+02  0.43400736135E+02  0.00000000000E+00 0.  1.
         11    1    3    3    0    0  0.33136162747E+01  0.10792348518E+02  0.28636342367E+02  0.30781405812E+02  0.51100000000E-03 0. -1.
        -11    1    3    3    0    0 -0.66737855042E+01  0.82145489743E+00  0.47124802961E+01  0.82110700829E+01  0.51100000000E-03 0.  1.
         12    1    3    3    0    0 -0.39370573944E+01  0.49843817109E+01  0.60830759871E+01  0.87947879697E+01  0.00000000000E+00 0. -1.
</event>
<event>
 7    1  0.6622189E-010  0.4778727E+02  0.7816164E-02  0.1312668E+00
        -11   -1    0    0    0    0  0.00000000000E+00  0.00000000000E+00  0.45593999997E+02  0.45594000000E+02  0.51100000000E-03 0. -1.
         11   -1    0    0    0    0 -0.00000000000E+00 -0.00000000000E+00 -0.45593999997E+02  0.45594000000E+02  0.51100000000E-03 0.  1.
    9900012    2    1    2    0    0  0.65072002534E+01 -0.22655972392E+02  0.36441553050E+02  0.47787268107E+02  0.19999986607E+02 0.  0.
        -12    1    1    2    0    0 -0.65072002534E+01  0.22655972392E+02 -0.36441553050E+02  0.43400731893E+02  0.00000000000E+00 0.  1.
         11    1    3    3    0    0  0.74033798750E+01 -0.19336872552E+02  0.20478573655E+02  0.29122099047E+02  0.51100000000E-03 0. -1.
        -11    1    3    3    0    0 -0.32749684890E+01 -0.97652181912E+00  0.14705858232E+02  0.15097724334E+02  0.51100000000E-03 0.  1.
        -12    1    3    3    0    0  0.23787888674E+01 -0.23425780200E+01  0.12571211630E+01  0.35674447261E+01  0.00000000000E+00 0.  1.
</event>
<event>
 7    1  0.6622189E-010  0.4778727E+02  0.7816164E-02  0.1312668E+00
        -11   -1    0    0    0    0  0.00000000000E+00  0.00000000000E+00  0.45593999997E+02  0.45594000000E+02  0.51100000000E-03 0.  1.
         11   -1    0    0    0    0 -0.00000000000E+00 -0.00000000000E+00 -0.45593999997E+02  0.45594000000E+02  0.51100000000E-03 0. -1.
    9900012    2    1    2    0    0  0.18849447800E+02  0.16799350760E+02  0.35300187062E+02  0.47787273337E+02  0.20000010452E+02 0.  0.
        -12    1    1    2    0    0 -0.18849447800E+02 -0.16799350760E+02 -0.35300187062E+02  0.43400726663E+02  0.00000000000E+00 0.  1.
         11    1    3    3    0    0  0.29667129849E+01  0.97207671372E+01  0.94369288863E+01  0.13869042027E+02  0.51100000000E-03 0. -1.
        -11    1    3    3    0    0  0.47424838954E+01 -0.39205104671E+01  0.90635136277E+01  0.10954854420E+02  0.51100000000E-03 0.  1.
        -12    1    3    3    0    0  0.11140250919E+02  0.10999094090E+02  0.16799744548E+02  0.22963376890E+02  0.00000000000E+00 0.  1.
</event>
<event>
 7    1  0.6622189E-010  0.4778727E+02  0.7816164E-02  0.1312668E+00
        -11   -1    0    0    0    0  0.00000000000E+00  0.00000000000E+00  0.45593999997E+02  0.45594000000E+02  0.51100000000E-03 0. -1.
         11   -1    0    0    0    0 -0.00000000000E+00 -0.00000000000E+00 -0.45593999997E+02  0.45594000000E+02  0.51100000000E-03 0.  1.
    9900012    2    1    2    0    0  0.25667479744E+02 -0.26112654773E+02  0.23300931954E+02  0.47787266301E+02  0.19999978375E+02 0.  0.
        -12    1    1    2    0    0 -0.25667479744E+02  0.26112654773E+02 -0.23300931954E+02  0.43400733699E+02  0.00000000000E+00 0.  1.
         11    1    3    3    0    0  0.81081138811E+01 -0.14666201736E+02  0.47621215000E+01  0.17421733138E+02  0.51100000000E-03 0. -1.
        -11    1    3    3    0    0  0.13751334226E+02 -0.30766692964E+01  0.14810803839E+02  0.20443213973E+02  0.51100000000E-03 0.  1.
        -12    1    3    3    0    0  0.38080316372E+01 -0.83697837399E+01  0.37280066149E+01  0.99223191908E+01  0.00000000000E+00 0.  1.
</event>
<event>
 7    1  0.6622189E-010  0.4778727E+02  0.7816164E-02  0.1312668E+00
        -11   -1    0    0    0    0  0.00000000000E+00  0.00000000000E+00  0.45593999997E+02  0.45594000000E+02  0.51100000000E-03 0. -1.
         11   -1    0    0    0    0 -0.00000000000E+00 -0.00000000000E+00 -0.45593999997E+02  0.45594000000E+02  0.51100000000E-03 0.  1.
    9900012    2    1    2    0    0 -0.94361448004E+01 -0.17874968482E+02  0.38406615045E+02  0.47787269521E+02  0.19999993054E+02 0.  0.
        -12    1    1    2    0    0  0.94361448004E+01  0.17874968482E+02 -0.38406615045E+02  0.43400730479E+02  0.00000000000E+00 0.  1.
         11    1    3    3    0    0 -0.80580632572E+01 -0.39217612248E+01  0.10763982236E+02  0.14006281034E+02  0.51100000000E-03 0. -1.
        -11    1    3    3    0    0  0.57276437616E+01 -0.75435057414E+01  0.17062669362E+02  0.19515252188E+02  0.51100000000E-03 0.  1.
        -12    1    3    3    0    0 -0.71057253048E+01 -0.64097015161E+01  0.10579963446E+02  0.14265736299E+02  0.00000000000E+00 0.  1.
</event>
<event>
 7    1  0.6622189E-010  0.4778727E+02  0.7816164E-02  0.1312668E+00
        -11   -1    0    0    0    0  0.00000000000E+00  0.00000000000E+00  0.45593999997E+02  0.45594000000E+02  0.51100000000E-03 0. -1.
         11   -1    0    0    0    0 -0.00000000000E+00 -0.00000000000E+00 -0.45593999997E+02  0.45594000000E+02  0.51100000000E-03 0.  1.
    9900012    2    1    2    0    0  0.13150573665E+02 -0.20812549452E+02  0.35742462566E+02  0.47787269214E+02  0.19999991656E+02 0.  0.
        -12    1    1    2    0    0 -0.13150573665E+02  0.20812549452E+02 -0.35742462566E+02  0.43400730786E+02  0.00000000000E+00 0.  1.
         11    1    3    3    0    0  0.24925741073E+01 -0.74544016641E+01  0.26516437381E+02  0.27656870421E+02  0.51100000000E-03 0. -1.
        -11    1    3    3    0    0  0.43572558403E+01 -0.54056627076E+01  0.89160542324E+00  0.70001305886E+01  0.51100000000E-03 0.  1.
        -12    1    3    3    0    0  0.63007437175E+01 -0.79524850804E+01  0.83344197619E+01  0.13130268204E+02  0.00000000000E+00 0.  1.
</event>
<event>
 7    1  0.6622189E-010  0.4778727E+02  0.7816164E-02  0.1312668E+00
        -11   -1    0    0    0    0  0.00000000000E+00  0.00000000000E+00  0.45593999997E+02  0.45594000000E+02  0.51100000000E-03 0. -1.
         11   -1    0    0    0    0 -0.00000000000E+00 -0.00000000000E+00 -0.45593999997E+02  0.45594000000E+02  0.51100000000E-03 0.  1.
    9900012    2    1    2    0    0  0.28788459468E+02  0.13607086638E+02  0.29490595423E+02  0.47787269318E+02  0.19999992129E+02 0.  0.
        -12    1    1    2    0    0 -0.28788459468E+02 -0.13607086638E+02 -0.29490595423E+02  0.43400730682E+02  0.00000000000E+00 0.  1.
         11    1    3    3    0    0  0.72100916234E+01  0.46830975502E+01 -0.10398953478E+01  0.86601504882E+01  0.51100000000E-03 0. -1.
        -11    1    3    3    0    0 -0.35132244819E+00 -0.49017995074E+00  0.66489910135E+00  0.89766080610E+00  0.51100000000E-03 0.  1.
         12    1    3    3    0    0  0.21929690293E+02  0.94141690382E+01  0.29865591670E+02  0.38229458024E+02  0.00000000000E+00 0. -1.
</event>
<event>
 7    1  0.6622189E-010  0.4778727E+02  0.7816164E-02  0.1312668E+00
        -11   -1    0    0    0    0  0.00000000000E+00  0.00000000000E+00  0.45593999997E+02  0.45594000000E+02  0.51100000000E-03 0.  1.
         11   -1    0    0    0    0 -0.00000000000E+00 -0.00000000000E+00 -0.45593999997E+02  0.45594000000E+02  0.51100000000E-03 0. -1.
    9900012    2    1    2    0    0 -0.40957614044E+02  0.32087136307E+01 -0.13992901249E+02  0.47787271012E+02  0.19999999850E+02 0.  0.
        -12    1    1    2    0    0  0.40957614044E+02 -0.32087136307E+01  0.13992901249E+02  0.43400728988E+02  0.00000000000E+00 0.  1.
         11    1    3    3    0    0 -0.54172607066E+01  0.82129244787E+00 -0.19638121401E+01  0.58204633175E+01  0.51100000000E-03 0. -1.
        -11    1    3    3    0    0 -0.21356985992E+02  0.21704379786E+01 -0.16520197738E+02  0.27087794027E+02  0.51100000000E-03 0.  1.
        -12    1    3    3    0    0 -0.14183367346E+02  0.21698320429E+00  0.44911086295E+01  0.14879013667E+02  0.00000000000E+00 0.  1.
</event>
<event>
 7    1  0.6622189E-010  0.4778727E+02  0.7816164E-02  0.1312668E+00
        -11   -1    0    0    0    0  0.00000000000E+00  0.00000000000E+00  0.45593999997E+02  0.45594000000E+02  0.51100000000E-03 0. -1.
         11   -1    0    0    0    0 -0.00000000000E+00 -0.00000000000E+00 -0.45593999997E+02  0.45594000000E+02  0.51100000000E-03 0.  1.
    9900012    2    1    2    0    0 -0.56918633436E+01  0.20554975185E+02  0.37798400309E+02  0.47787269832E+02  0.19999994472E+02 0.  0.
        -12    1    1    2    0    0  0.56918633436E+01 -0.20554975185E+02 -0.37798400309E+02  0.43400730168E+02  0.00000000000E+00 0.  1.
         11    1    3    3    0    0 -0.79526691022E+01  0.12484876604E+02  0.98698551281E+01  0.17791321766E+02  0.51100000000E-03 0. -1.
        -11    1    3    3    0    0 -0.53935515149E-01 -0.93364646618E+00  0.74201169290E+01  0.74788194433E+01  0.51100000000E-03 0.  1.
         12    1    3    3    0    0  0.23147412738E+01  0.90037450478E+01  0.20508428252E+02  0.22517128623E+02  0.00000000000E+00 0. -1.
</event>
<event>
 7    1  0.6622189E-010  0.4778727E+02  0.7816164E-02  0.1312668E+00
        -11   -1    0    0    0    0  0.00000000000E+00  0.00000000000E+00  0.45593999997E+02  0.45594000000E+02  0.51100000000E-03 0. -1.
         11   -1    0    0    0    0 -0.00000000000E+00 -0.00000000000E+00 -0.45593999997E+02  0.45594000000E+02  0.51100000000E-03 0.  1.
    9900012    2    1    2    0    0  0.28857491145E+02  0.38449802022E+01  0.32188265325E+02  0.47787273133E+02  0.20000009522E+02 0.  0.
        -12    1    1    2    0    0 -0.28857491145E+02 -0.38449802022E+01 -0.32188265325E+02  0.43400726867E+02  0.00000000000E+00 0.  1.
         11    1    3    3    0    0 -0.11168247583E-01  0.11261731344E+00  0.99326521094E+01  0.99332968131E+01  0.51100000000E-03 0.  1.
        -11    1    3    3    0    0  0.27767074457E+02  0.31892153797E+01  0.23184596492E+02  0.36314006023E+02  0.51100000000E-03 0. -1.
         12    1    3    3    0    0  0.11015849353E+01  0.54314750906E+00 -0.92898327657E+00  0.15399702966E+01  0.00000000000E+00 0. -1.
</event>
<event>
 7    1  0.6622189E-010  0.4778728E+02  0.7816164E-02  0.1312668E+00
        -11   -1    0    0    0    0  0.00000000000E+00  0.00000000000E+00  0.45593999997E+02  0.45594000000E+02  0.51100000000E-03 0.  1.
         11   -1    0    0    0    0 -0.00000000000E+00 -0.00000000000E+00 -0.45593999997E+02  0.45594000000E+02  0.51100000000E-03 0. -1.
    9900012    2    1    2    0    0 -0.36145630449E+02 -0.14301719016E+02  0.19302246566E+02  0.47787280077E+02  0.20000041184E+02 0.  0.
        -12    1    1    2    0    0  0.36145630449E+02  0.14301719016E+02 -0.19302246566E+02  0.43400719923E+02  0.00000000000E+00 0.  1.
         11    1    3    3    0    0 -0.14269299321E+02 -0.12752452840E+02  0.42072210282E+01  0.19594352900E+02  0.51100000000E-03 0. -1.
        -11    1    3    3    0    0 -0.12008442853E+02 -0.15799930079E+01  0.13601462775E+02  0.18212601889E+02  0.51100000000E-03 0.  1.
        -12    1    3    3    0    0 -0.98678882742E+01  0.30726832070E-01  0.14935627626E+01  0.99803252880E+01  0.00000000000E+00 0.  1.
</event>
<event>
 7    1  0.6622189E-010  0.4778727E+02  0.7816164E-02  0.1312668E+00
        -11   -1    0    0    0    0  0.00000000000E+00  0.00000000000E+00  0.45593999997E+02  0.45594000000E+02  0.51100000000E-03 0. -1.
         11   -1    0    0    0    0 -0.00000000000E+00 -0.00000000000E+00 -0.45593999997E+02  0.45594000000E+02  0.51100000000E-03 0.  1.
    9900012    2    1    2    0    0 -0.39333011866E+01  0.27251385368E+02  0.33548688758E+02  0.47787269821E+02  0.19999994422E+02 0.  0.
        -12    1    1    2    0    0  0.39333011866E+01 -0.27251385368E+02 -0.33548688758E+02  0.43400730179E+02  0.00000000000E+00 0.  1.
         11    1    3    3    0    0  0.25789336863E+01  0.17760563517E+02  0.28429919385E+02  0.33620660789E+02  0.51100000000E-03 0. -1.
        -11    1    3    3    0    0 -0.46565540776E+01  0.10124525719E+02  0.36851652451E+01  0.11737544890E+02  0.51100000000E-03 0.  1.
        -12    1    3    3    0    0 -0.18556807953E+01 -0.63370386842E+00  0.14336041280E+01  0.24290641413E+01  0.00000000000E+00 0.  1.
</event>
<event>
 7    1  0.6622189E-010  0.4778726E+02  0.7816164E-02  0.1312668E+00
        -11   -1    0    0    0    0  0.00000000000E+00  0.00000000000E+00  0.45593999997E+02  0.45594000000E+02  0.51100000000E-03 0.  1.
         11   -1    0    0    0    0 -0.00000000000E+00 -0.00000000000E+00 -0.45593999997E+02  0.45594000000E+02  0.51100000000E-03 0. -1.
    9900012    2    1    2    0    0  0.67298823645E+00 -0.37084929661E+02 -0.22536170285E+02  0.47787263921E+02  0.19999967519E+02 0.  0.
         12    1    1    2    0    0 -0.67298823645E+00  0.37084929661E+02  0.22536170285E+02  0.43400736079E+02  0.00000000000E+00 0. -1.
         11    1    3    3    0    0 -0.38343880474E+01 -0.23603552494E+02 -0.59884532060E+01  0.24651405520E+02  0.51100000000E-03 0. -1.
        -11    1    3    3    0    0  0.17131929002E+01 -0.59574035128E+01 -0.19868422258E+01  0.65094722382E+01  0.51100000000E-03 0.  1.
         12    1    3    3    0    0  0.27941833837E+01 -0.75239736535E+01 -0.14560874854E+02  0.16626386162E+02  0.00000000000E+00 0. -1.
</event>
<event>
 7    1  0.6622189E-010  0.4778727E+02  0.7816164E-02  0.1312668E+00
        -11   -1    0    0    0    0  0.00000000000E+00  0.00000000000E+00  0.45593999997E+02  0.45594000000E+02  0.51100000000E-03 0. -1.
         11   -1    0    0    0    0 -0.00000000000E+00 -0.00000000000E+00 -0.45593999997E+02  0.45594000000E+02  0.51100000000E-03 0.  1.
    9900012    2    1    2    0    0  0.52284483007E+01  0.41626535060E+02 -0.11113877629E+02  0.47787269952E+02  0.19999995019E+02 0.  0.
         12    1    1    2    0    0 -0.52284483007E+01 -0.41626535060E+02  0.11113877629E+02  0.43400730048E+02  0.00000000000E+00 0. -1.
         11    1    3    3    0    0  0.65675996285E+01  0.54316081295E+01  0.22878093525E+00  0.85257300409E+01  0.51100000000E-03 0. -1.
        -11    1    3    3    0    0 -0.39457196576E+01  0.33664393600E+02 -0.10886012004E+02  0.35600075248E+02  0.51100000000E-03 0.  1.
        -12    1    3    3    0    0  0.26065683297E+01  0.25305333308E+01 -0.45664656022E+00  0.36614646628E+01  0.00000000000E+00 0.  1.
</event>
<event>
 7    1  0.6622189E-010  0.4778727E+02  0.7816164E-02  0.1312668E+00
        -11   -1    0    0    0    0  0.00000000000E+00  0.00000000000E+00  0.45593999997E+02  0.45594000000E+02  0.51100000000E-03 0. -1.
         11   -1    0    0    0    0 -0.00000000000E+00 -0.00000000000E+00 -0.45593999997E+02  0.45594000000E+02  0.51100000000E-03 0.  1.
    9900012    2    1    2    0    0  0.71251316293E+00 -0.69314855179E+01 -0.42837716428E+02  0.47787272872E+02  0.20000008331E+02 0.  0.
         12    1    1    2    0    0 -0.71251316293E+00  0.69314855179E+01  0.42837716428E+02  0.43400727128E+02  0.00000000000E+00 0. -1.
         11    1    3    3    0    0 -0.13441035296E+01 -0.59726737670E+00 -0.18910900734E+01  0.23957388306E+01  0.51100000000E-03 0. -1.
        -11    1    3    3    0    0 -0.68653134985E+01 -0.25557366472E+01 -0.29494247432E+02  0.30390375962E+02  0.51100000000E-03 0.  1.
        -12    1    3    3    0    0  0.89219301910E+01 -0.37784814940E+01 -0.11452378923E+02  0.15001158079E+02  0.00000000000E+00 0.  1.
</event>
<event>
 7    1  0.6622189E-010  0.4778728E+02  0.7816164E-02  0.1312668E+00
        -11   -1    0    0    0    0  0.00000000000E+00  0.00000000000E+00  0.45593999997E+02  0.45594000000E+02  0.51100000000E-03 0. -1.
         11   -1    0    0    0    0 -0.00000000000E+00 -0.00000000000E+00 -0.45593999997E+02  0.45594000000E+02  0.51100000000E-03 0.  1.
    9900012    2    1    2    0    0 -0.66511868876E+01 -0.16519493489E+02 -0.39578918925E+02  0.47787276787E+02  0.20000026182E+02 0.  0.
         12    1    1    2    0    0  0.66511868876E+01  0.16519493489E+02  0.39578918925E+02  0.43400723213E+02  0.00000000000E+00 0. -1.
         11    1    3    3    0    0 -0.72676362063E+01  0.14852110862E+01 -0.69280740880E+01  0.10150004868E+02  0.51100000000E-03 0. -1.
        -11    1    3    3    0    0 -0.10758942060E+01 -0.92859729738E+01 -0.21005115367E+02  0.22991339984E+02  0.51100000000E-03 0.  1.
         12    1    3    3    0    0  0.16923435248E+01 -0.87187316011E+01 -0.11645729470E+02  0.14645931935E+02  0.00000000000E+00 0. -1.
</event>
<event>
 7    1  0.6622189E-010  0.4778727E+02  0.7816164E-02  0.1312668E+00
        -11   -1    0    0    0    0  0.00000000000E+00  0.00000000000E+00  0.45593999997E+02  0.45594000000E+02  0.51100000000E-03 0. -1.
         11   -1    0    0    0    0 -0.00000000000E+00 -0.00000000000E+00 -0.45593999997E+02  0.45594000000E+02  0.51100000000E-03 0.  1.
    9900012    2    1    2    0    0 -0.19457534780E+01  0.25064618133E+02 -0.35377988933E+02  0.47787272590E+02  0.20000007046E+02 0.  0.
         12    1    1    2    0    0  0.19457534780E+01 -0.25064618133E+02  0.35377988933E+02  0.43400727410E+02  0.00000000000E+00 0. -1.
         11    1    3    3    0    0  0.86114246386E+00  0.23345202035E+01 -0.18268771797E+02  0.18437450316E+02  0.51100000000E-03 0.  1.
        -11    1    3    3    0    0 -0.30511440896E+01  0.18522420723E+02 -0.10494319033E+02  0.21506284708E+02  0.51100000000E-03 0. -1.
        -12    1    3    3    0    0  0.24424814776E+00  0.42076772063E+01 -0.66148981032E+01  0.78435375658E+01  0.00000000000E+00 0.  1.
</event>
<event>
 7    1  0.6622189E-010  0.4778727E+02  0.7816164E-02  0.1312668E+00
        -11   -1    0    0    0    0  0.00000000000E+00  0.00000000000E+00  0.45593999997E+02  0.45594000000E+02  0.51100000000E-03 0. -1.
         11   -1    0    0    0    0 -0.00000000000E+00 -0.00000000000E+00 -0.45593999997E+02  0.45594000000E+02  0.51100000000E-03 0.  1.
    9900012    2    1    2    0    0  0.14518463044E+02 -0.53813429566E+00 -0.40896794097E+02  0.47787272759E+02  0.20000007817E+02 0.  0.
         12    1    1    2    0    0 -0.14518463044E+02  0.53813429566E+00  0.40896794097E+02  0.43400727241E+02  0.00000000000E+00 0. -1.
         11    1    3    3    0    0  0.14082490458E+02 -0.77504236611E+01 -0.24634131067E+02  0.29414724512E+02  0.51100000000E-03 0. -1.
        -11    1    3    3    0    0  0.11608218715E+01  0.50347713713E+01 -0.14737497645E+02  0.15616986498E+02  0.51100000000E-03 0.  1.
         12    1    3    3    0    0 -0.72484928524E+00  0.21775179942E+01 -0.15251653840E+01  0.27555617485E+01  0.00000000000E+00 0. -1.
</event>
<event>
 7    1  0.6622189E-010  0.4778725E+02  0.7816164E-02  0.1312668E+00
        -11   -1    0    0    0    0  0.00000000000E+00  0.00000000000E+00  0.45593999997E+02  0.45594000000E+02  0.51100000000E-03 0. -1.
         11   -1    0    0    0    0 -0.00000000000E+00 -0.00000000000E+00 -0.45593999997E+02  0.45594000000E+02  0.51100000000E-03 0.  1.
    9900012    2    1    2    0    0 -0.10670202675E+01  0.62892682814E+01  0.42929379330E+02  0.47787250727E+02  0.19999907366E+02 0.  0.
        -12    1    1    2    0    0  0.10670202675E+01 -0.62892682814E+01 -0.42929379330E+02  0.43400749273E+02  0.00000000000E+00 0.  1.
         11    1    3    3    0    0  0.13411588085E+01 -0.20369428615E+01  0.33723240873E+02  0.33811311989E+02  0.51100000000E-03 0. -1.
        -11    1    3    3    0    0 -0.24400915772E+01  0.90268196292E+01  0.93890908315E+01  0.13251133779E+02  0.51100000000E-03 0.  1.
         12    1    3    3    0    0  0.31912501203E-01 -0.70060848627E+00 -0.18295237414E+00  0.72480495995E+00  0.00000000000E+00 0. -1.
</event>
<event>
 7    1  0.6622189E-010  0.4778727E+02  0.7816164E-02  0.1312668E+00
        -11   -1    0    0    0    0  0.00000000000E+00  0.00000000000E+00  0.45593999997E+02  0.45594000000E+02  0.51100000000E-03 0. -1.
         11   -1    0    0    0    0 -0.00000000000E+00 -0.00000000000E+00 -0.45593999997E+02  0.45594000000E+02  0.51100000000E-03 0.  1.
    9900012    2    1    2    0    0 -0.21241554185E+01 -0.35512352991E+02  0.24859280465E+02  0.47787273319E+02  0.20000010370E+02 0.  0.
        -12    1    1    2    0    0  0.21241554185E+01  0.35512352991E+02 -0.24859280465E+02  0.43400726681E+02  0.00000000000E+00 0.  1.
         11    1    3    3    0    0 -0.46575885167E+01 -0.12803895696E+02  0.92325928323E+01  0.16458239470E+02  0.51100000000E-03 0. -1.
        -11    1    3    3    0    0  0.80709690911E+01 -0.18050759371E+02  0.12833972853E+02  0.23572893658E+02  0.51100000000E-03 0.  1.
        -12    1    3    3    0    0 -0.55375359929E+01 -0.46576979238E+01  0.27927147801E+01  0.77561401912E+01  0.00000000000E+00 0.  1.
</event>
<event>
 7    1  0.6622189E-010  0.4778727E+02  0.7816164E-02  0.1312668E+00
        -11   -1    0    0    0    0  0.00000000000E+00  0.00000000000E+00  0.45593999997E+02  0.45594000000E+02  0.51100000000E-03 0. -1.
         11   -1    0    0    0    0 -0.00000000000E+00 -0.00000000000E+00 -0.45593999997E+02  0.45594000000E+02  0.51100000000E-03 0.  1.
    9900012    2    1    2    0    0  0.30672141341E+02  0.71782632104E+01  0.29854904262E+02  0.47787273904E+02  0.20000013038E+02 0.  0.
        -12    1    1    2    0    0 -0.30672141341E+02 -0.71782632104E+01 -0.29854904262E+02  0.43400726096E+02  0.00000000000E+00 0.  1.
         11    1    3    3    0    0  0.18265307589E+02 -0.45731017915E+00  0.74483338426E+01  0.19730896361E+02  0.51100000000E-03 0. -1.
        -11    1    3    3    0    0  0.61405299567E+01  0.58551638205E+01  0.59658474701E+01  0.10372096597E+02  0.51100000000E-03 0.  1.
         12    1    3    3    0    0  0.62663037952E+01  0.17804095691E+01  0.16440722950E+02  0.17684280947E+02  0.00000000000E+00 0. -1.
</event>
<event>
 7    1  0.6622189E-010  0.4778727E+02  0.7816164E-02  0.1312668E+00
        -11   -1    0    0    0    0  0.00000000000E+00  0.00000000000E+00  0.45593999997E+02  0.45594000000E+02  0.51100000000E-03 0. -1.
         11   -1    0    0    0    0 -0.00000000000E+00 -0.00000000000E+00 -0.45593999997E+02  0.45594000000E+02  0.51100000000E-03 0.  1.
    9900012    2    1    2    0    0  0.17017613079E+01  0.38871345390E+02  0.19228778916E+02  0.47787269331E+02  0.19999992189E+02 0.  0.
        -12    1    1    2    0    0 -0.17017613079E+01 -0.38871345390E+02 -0.19228778916E+02  0.43400730669E+02  0.00000000000E+00 0.  1.
         11    1    3    3    0    0 -0.27745570024E+01  0.15321333388E+02  0.12180751393E+01  0.15618102658E+02  0.51100000000E-03 0. -1.
        -11    1    3    3    0    0  0.28543839823E+00  0.51850657602E+01  0.10828603412E+02  0.12009372761E+02  0.51100000000E-03 0.  1.
         12    1    3    3    0    0  0.41908799120E+01  0.18364946242E+02  0.71821003655E+01  0.20159793912E+02  0.00000000000E+00 0. -1.
</event>
<event>
 7    1  0.6622189E-010  0.4778727E+02  0.7816164E-02  0.1312668E+00
        -11   -1    0    0    0    0  0.00000000000E+00  0.00000000000E+00  0.45593999997E+02  0.45594000000E+02  0.51100000000E-03 0. -1.
         11   -1    0    0    0    0 -0.00000000000E+00 -0.00000000000E+00 -0.45593999997E+02  0.45594000000E+02  0.51100000000E-03 0.  1.
    9900012    2    1    2    0    0  0.34119720375E+02  0.20727903259E+02 -0.17024171221E+02  0.47787266162E+02  0.19999977737E+02 0.  0.
         12    1    1    2    0    0 -0.34119720375E+02 -0.20727903259E+02  0.17024171221E+02  0.43400733838E+02  0.00000000000E+00 0. -1.
         11    1    3    3    0    0  0.68247309497E+01  0.85183153063E+01 -0.60937801343E+01  0.12500912158E+02  0.51100000000E-03 0. -1.
        -11    1    3    3    0    0  0.11642083039E+02 -0.26470178824E+01 -0.46190129204E+01  0.12801565598E+02  0.51100000000E-03 0.  1.
        -12    1    3    3    0    0  0.15652906386E+02  0.14856605835E+02 -0.63113781660E+01  0.22484788405E+02  0.00000000000E+00 0.  1.
</event>
<event>
 7    1  0.6622189E-010  0.4778726E+02  0.7816164E-02  0.1312668E+00
        -11   -1    0    0    0    0  0.00000000000E+00  0.00000000000E+00  0.45593999997E+02  0.45594000000E+02  0.51100000000E-03 0. -1.
         11   -1    0    0    0    0 -0.00000000000E+00 -0.00000000000E+00 -0.45593999997E+02  0.45594000000E+02  0.51100000000E-03 0.  1.
    9900012    2    1    2    0    0 -0.98656657728E+01 -0.14048240708E+02 -0.39861506881E+02  0.47787260848E+02  0.19999953511E+02 0.  0.
         12    1    1    2    0    0  0.98656657728E+01  0.14048240708E+02  0.39861506881E+02  0.43400739152E+02  0.00000000000E+00 0. -1.
         11    1    3    3    0    0  0.36523180731E+01 -0.51736088278E+01 -0.24950044868E+02  0.25741219761E+02  0.51100000000E-03 0.  1.
        -11    1    3    3    0    0 -0.10238853099E+02 -0.73308099516E+01 -0.12036305681E+02  0.17419745751E+02  0.51100000000E-03 0. -1.
        -12    1    3    3    0    0 -0.32791307470E+01 -0.15438219284E+01 -0.28751563310E+01  0.46262953354E+01  0.00000000000E+00 0.  1.
</event>
<event>
 7    1  0.6622189E-010  0.4778727E+02  0.7816164E-02  0.1312668E+00
        -11   -1    0    0    0    0  0.00000000000E+00  0.00000000000E+00  0.45593999997E+02  0.45594000000E+02  0.51100000000E-03 0. -1.
         11   -1    0    0    0    0 -0.00000000000E+00 -0.00000000000E+00 -0.45593999997E+02  0.45594000000E+02  0.51100000000E-03 0.  1.
    9900012    2    1    2    0    0  0.20833532896E+01  0.43175556920E+02 -0.38928205860E+01  0.47787272720E+02  0.20000007640E+02 0.  0.
         12    1    1    2    0    0 -0.20833532896E+01 -0.43175556920E+02  0.38928205860E+01  0.43400727280E+02  0.00000000000E+00 0. -1.
         11    1    3    3    0    0  0.21198211403E+01  0.93760076918E-01  0.12257814911E+01  0.24505046713E+01  0.51100000000E-03 0. -1.
        -11    1    3    3    0    0 -0.53712156630E+01  0.33154121907E+02 -0.56297097173E+01  0.34054946614E+02  0.51100000000E-03 0.  1.
        -12    1    3    3    0    0  0.53347478124E+01  0.99276749368E+01  0.51110764017E+00  0.11281821435E+02  0.00000000000E+00 0.  1.
</event>
<event>
 7    1  0.6622189E-010  0.4778727E+02  0.7816164E-02  0.1312668E+00
        -11   -1    0    0    0    0  0.00000000000E+00  0.00000000000E+00  0.45593999997E+02  0.45594000000E+02  0.51100000000E-03 0. -1.
         11   -1    0    0    0    0 -0.00000000000E+00 -0.00000000000E+00 -0.45593999997E+02  0.45594000000E+02  0.51100000000E-03 0.  1.
    9900012    2    1    2    0    0  0.23564327146E+02  0.61139612774E+01  0.35930002348E+02  0.47787272989E+02  0.20000008867E+02 0.  0.
        -12    1    1    2    0    0 -0.23564327146E+02 -0.61139612774E+01 -0.35930002348E+02  0.43400727011E+02  0.00000000000E+00 0.  1.
         11    1    3    3    0    0  0.13361791263E+02  0.38333547113E+01  0.30171306814E+02  0.33219569974E+02  0.51100000000E-03 0. -1.
        -11    1    3    3    0    0  0.10862708586E+02  0.32820485534E+00  0.61243438810E+01  0.12474523818E+02  0.51100000000E-03 0.  1.
         12    1    3    3    0    0 -0.66017270354E+00  0.19524017107E+01 -0.36564834711E+00  0.20931791974E+01  0.00000000000E+00 0. -1.
</event>
<event>
 7    1  0.6847265E-010  0.4778727E+02  0.7816164E-02  0.1312668E+00
        -11   -1    0    0    0    0  0.00000000000E+00  0.00000000000E+00  0.45593999997E+02  0.45594000000E+02  0.51100000000E-03 0. -1.
         11   -1    0    0    0    0 -0.00000000000E+00 -0.00000000000E+00 -0.45593999997E+02  0.45594000000E+02  0.51100000000E-03 0.  1.
    9900012    2    1    2    0    0 -0.11228929854E+02 -0.32808781113E+02  0.26098241667E+02  0.47787271874E+02  0.20000003781E+02 0.  0.
        -12    1    1    2    0    0  0.11228929854E+02  0.32808781113E+02 -0.26098241667E+02  0.43400728126E+02  0.00000000000E+00 0.  1.
         11    1    3    3    0    0 -0.12974207077E+02 -0.33214010860E+02  0.22651974331E+02  0.42244674316E+02  0.51100000000E-03 0. -1.
        -11    1    3    3    0    0 -0.36942924890E+00  0.14620313555E+01  0.26482057495E+01  0.30474592052E+01  0.51100000000E-03 0.  1.
         12    1    3    3    0    0  0.21147064724E+01 -0.10568016088E+01  0.79806158610E+00  0.24951383529E+01  0.00000000000E+00 0. -1.
</event>
<event>
 7    1  0.6622189E-010  0.4778727E+02  0.7816164E-02  0.1312668E+00
        -11   -1    0    0    0    0  0.00000000000E+00  0.00000000000E+00  0.45593999997E+02  0.45594000000E+02  0.51100000000E-03 0. -1.
         11   -1    0    0    0    0 -0.00000000000E+00 -0.00000000000E+00 -0.45593999997E+02  0.45594000000E+02  0.51100000000E-03 0.  1.
    9900012    2    1    2    0    0 -0.40839180898E+02 -0.81921832482E+01 -0.12193149491E+02  0.47787268931E+02  0.19999990364E+02 0.  0.
         12    1    1    2    0    0  0.40839180898E+02  0.81921832482E+01  0.12193149491E+02  0.43400731069E+02  0.00000000000E+00 0. -1.
         11    1    3    3    0    0 -0.17788232933E+01  0.17040843875E+01  0.31953083046E+01  0.40346141490E+01  0.51100000000E-03 0. -1.
        -11    1    3    3    0    0 -0.13607774811E+02 -0.33994359672E+01 -0.91712782552E+01  0.16758282886E+02  0.51100000000E-03 0.  1.
         12    1    3    3    0    0 -0.25452582794E+02 -0.64968316686E+01 -0.62171795405E+01  0.26994371896E+02  0.00000000000E+00 0. -1.
</event>
<event>
 7    1  0.6622189E-010  0.4778727E+02  0.7816164E-02  0.1312668E+00
        -11   -1    0    0    0    0  0.00000000000E+00  0.00000000000E+00  0.45593999997E+02  0.45594000000E+02  0.51100000000E-03 0. -1.
         11   -1    0    0    0    0 -0.00000000000E+00 -0.00000000000E+00 -0.45593999997E+02  0.45594000000E+02  0.51100000000E-03 0.  1.
    9900012    2    1    2    0    0  0.28439540360E+02 -0.79028316139E+01 -0.31817625724E+02  0.47787268323E+02  0.19999987592E+02 0.  0.
         12    1    1    2    0    0 -0.28439540360E+02  0.79028316139E+01  0.31817625724E+02  0.43400731677E+02  0.00000000000E+00 0. -1.
         11    1    3    3    0    0  0.22461217608E+02 -0.11022555331E+02 -0.16098263513E+02  0.29751590055E+02  0.51100000000E-03 0. -1.
        -11    1    3    3    0    0  0.51269209824E+01  0.43355550411E+00 -0.59405931819E+01  0.78590035468E+01  0.51100000000E-03 0.  1.
         12    1    3    3    0    0  0.85140176968E+00  0.26861682129E+01 -0.97787690293E+01  0.10176674721E+02  0.00000000000E+00 0. -1.
</event>
<event>
 7    1  0.6622189E-010  0.4778722E+02  0.7816164E-02  0.1312668E+00
        -11   -1    0    0    0    0  0.00000000000E+00  0.00000000000E+00  0.45593999997E+02  0.45594000000E+02  0.51100000000E-03 0. -1.
         11   -1    0    0    0    0 -0.00000000000E+00 -0.00000000000E+00 -0.45593999997E+02  0.45594000000E+02  0.51100000000E-03 0.  1.
    9900012    2    1    2    0    0  0.27559390342E+02  0.20464856102E+01 -0.33465205067E+02  0.47787216026E+02  0.19999749148E+02 0.  0.
         12    1    1    2    0    0 -0.27559390342E+02 -0.20464856102E+01  0.33465205067E+02  0.43400783974E+02  0.00000000000E+00 0. -1.
         11    1    3    3    0    0  0.16335142472E+01  0.22145475274E+01 -0.21320011290E+01  0.34810944575E+01  0.51100000000E-03 0. -1.
        -11    1    3    3    0    0 -0.99096889782E+00 -0.15624662529E+01 -0.93320892954E+01  0.95137380155E+01  0.51100000000E-03 0.  1.
        -12    1    3    3    0    0  0.26916844993E+02  0.13944043357E+01 -0.22001114642E+02  0.34792383553E+02  0.00000000000E+00 0.  1.
</event>
<event>
 7    1  0.6622189E-010  0.4778727E+02  0.7816164E-02  0.1312668E+00
        -11   -1    0    0    0    0  0.00000000000E+00  0.00000000000E+00  0.45593999997E+02  0.45594000000E+02  0.51100000000E-03 0. -1.
         11   -1    0    0    0    0 -0.00000000000E+00 -0.00000000000E+00 -0.45593999997E+02  0.45594000000E+02  0.51100000000E-03 0.  1.
    9900012    2    1    2    0    0 -0.34785698893E+01  0.26159624662E+02 -0.34455719380E+02  0.47787274097E+02  0.20000013919E+02 0.  0.
         12    1    1    2    0    0  0.34785698893E+01 -0.26159624662E+02  0.34455719380E+02  0.43400725903E+02  0.00000000000E+00 0. -1.
         11    1    3    3    0    0  0.55283576220E+00  0.37887905371E+01  0.13364903432E+01  0.40554614796E+01  0.51100000000E-03 0. -1.
        -11    1    3    3    0    0  0.71334083938E+00  0.17623177957E+02 -0.20575530695E+02  0.27100511436E+02  0.51100000000E-03 0.  1.
         12    1    3    3    0    0 -0.47447464909E+01  0.47476561675E+01 -0.15216679028E+02  0.16631301182E+02  0.00000000000E+00 0. -1.
</event>
<event>
 7    1  0.6622189E-010  0.4778726E+02  0.7816164E-02  0.1312668E+00
        -11   -1    0    0    0    0  0.00000000000E+00  0.00000000000E+00  0.45593999997E+02  0.45594000000E+02  0.51100000000E-03 0. -1.
         11   -1    0    0    0    0 -0.00000000000E+00 -0.00000000000E+00 -0.45593999997E+02  0.45594000000E+02  0.51100000000E-03 0.  1.
    9900012    2    1    2    0    0 -0.31023312309E+02  0.14509522328E+02  0.26658053226E+02  0.47787263295E+02  0.19999964665E+02 0.  0.
        -12    1    1    2    0    0  0.31023312309E+02 -0.14509522328E+02 -0.26658053226E+02  0.43400736705E+02  0.00000000000E+00 0.  1.
         11    1    3    3    0    0 -0.10383352412E+02  0.48242416109E+01  0.97589917636E+01  0.15044109643E+02  0.51100000000E-03 0. -1.
        -11    1    3    3    0    0 -0.18141993125E+02  0.13319144862E+02  0.10168617691E+02  0.24696807899E+02  0.51100000000E-03 0.  1.
        -12    1    3    3    0    0 -0.24979667716E+01 -0.36338641451E+01  0.67304437710E+01  0.80463457527E+01  0.00000000000E+00 0.  1.
</event>
<event>
 7    1  0.6622189E-010  0.4778727E+02  0.7816164E-02  0.1312668E+00
        -11   -1    0    0    0    0  0.00000000000E+00  0.00000000000E+00  0.45593999997E+02  0.45594000000E+02  0.51100000000E-03 0. -1.
         11   -1    0    0    0    0 -0.00000000000E+00 -0.00000000000E+00 -0.45593999997E+02  0.45594000000E+02  0.51100000000E-03 0.  1.
    9900012    2    1    2    0    0 -0.18935611870E+02 -0.10926857298E+02 -0.37492267440E+02  0.47787265846E+02  0.19999976300E+02 0.  0.
         12    1    1    2    0    0  0.18935611870E+02  0.10926857298E+02  0.37492267440E+02  0.43400734154E+02  0.00000000000E+00 0. -1.
         11    1    3    3    0    0  0.14644857719E+01 -0.13860612625E+01 -0.24685815769E+01  0.31874409269E+01  0.51100000000E-03 0.  1.
        -11    1    3    3    0    0 -0.12800151016E+00  0.31142112510E+01 -0.76591427810E+01  0.82690485852E+01  0.51100000000E-03 0. -1.
        -12    1    3    3    0    0 -0.20272096132E+02 -0.12655007287E+02 -0.27364543082E+02  0.36330776334E+02  0.00000000000E+00 0.  1.
</event>
<event>
 7    1  0.6622189E-010  0.4778726E+02  0.7816164E-02  0.1312668E+00
        -11   -1    0    0    0    0  0.00000000000E+00  0.00000000000E+00  0.45593999997E+02  0.45594000000E+02  0.51100000000E-03 0.  1.
         11   -1    0    0    0    0 -0.00000000000E+00 -0.00000000000E+00 -0.45593999997E+02  0.45594000000E+02  0.51100000000E-03 0. -1.
    9900012    2    1    2    0    0 -0.31405402928E+02  0.29325861187E+02  0.61088901469E+01  0.47787262607E+02  0.19999961531E+02 0.  0.
         12    1    1    2    0    0  0.31405402928E+02 -0.29325861187E+02 -0.61088901469E+01  0.43400737393E+02  0.00000000000E+00 0. -1.
         11    1    3    3    0    0 -0.96800002373E+01  0.86026962052E+01  0.90973114225E+01  0.15826239666E+02  0.51100000000E-03 0. -1.
        -11    1    3    3    0    0 -0.12168533087E+02  0.69525724074E+01 -0.54148069655E+01  0.15024366719E+02  0.51100000000E-03 0.  1.
        -12    1    3    3    0    0 -0.95568696036E+01  0.13770592574E+02  0.24263856899E+01  0.16936656222E+02  0.00000000000E+00 0.  1.
</event>
<event>
 7    1  0.6622189E-010  0.4778727E+02  0.7816164E-02  0.1312668E+00
        -11   -1    0    0    0    0  0.00000000000E+00  0.00000000000E+00  0.45593999997E+02  0.45594000000E+02  0.51100000000E-03 0. -1.
         11   -1    0    0    0    0 -0.00000000000E+00 -0.00000000000E+00 -0.45593999997E+02  0.45594000000E+02  0.51100000000E-03 0.  1.
    9900012    2    1    2    0    0 -0.20217631220E+02  0.20402764538E+02  0.32536103059E+02  0.47787269416E+02  0.19999992576E+02 0.  0.
        -12    1    1    2    0    0  0.20217631220E+02 -0.20402764538E+02 -0.32536103059E+02  0.43400730584E+02  0.00000000000E+00 0.  1.
         11    1    3    3    0    0 -0.48285125584E+01 -0.33057895801E+01  0.87232451959E+01  0.10504179420E+02  0.51100000000E-03 0. -1.
        -11    1    3    3    0    0 -0.97202105129E+01  0.13299442451E+02  0.16713158283E+02  0.23466727978E+02  0.51100000000E-03 0.  1.
         12    1    3    3    0    0 -0.56689081486E+01  0.10409111668E+02  0.70996995802E+01  0.13816362019E+02  0.00000000000E+00 0. -1.
</event>
<event>
 7    1  0.6622189E-010  0.4778727E+02  0.7816164E-02  0.1312668E+00
        -11   -1    0    0    0    0  0.00000000000E+00  0.00000000000E+00  0.45593999997E+02  0.45594000000E+02  0.51100000000E-03 0. -1.
         11   -1    0    0    0    0 -0.00000000000E+00 -0.00000000000E+00 -0.45593999997E+02  0.45594000000E+02  0.51100000000E-03 0.  1.
    9900012    2    1    2    0    0  0.10431044806E+01  0.20551386928E+02 -0.38212247273E+02  0.47787269439E+02  0.19999992680E+02 0.  0.
         12    1    1    2    0    0 -0.10431044806E+01 -0.20551386928E+02  0.38212247273E+02  0.43400730561E+02  0.00000000000E+00 0. -1.
         11    1    3    3    0    0 -0.21591118660E+00 -0.78377120336E+00  0.14953189138E+01  0.17020263966E+01  0.51100000000E-03 0. -1.
        -11    1    3    3    0    0 -0.25398348372E+01  0.14493365850E+02 -0.31375122575E+02  0.34654101222E+02  0.51100000000E-03 0.  1.
         12    1    3    3    0    0  0.37988505044E+01  0.68417922814E+01 -0.83324436110E+01  0.11431141820E+02  0.00000000000E+00 0. -1.
</event>
<event>
 7    1  0.6622189E-010  0.4778727E+02  0.7816164E-02  0.1312668E+00
        -11   -1    0    0    0    0  0.00000000000E+00  0.00000000000E+00  0.45593999997E+02  0.45594000000E+02  0.51100000000E-03 0. -1.
         11   -1    0    0    0    0 -0.00000000000E+00 -0.00000000000E+00 -0.45593999997E+02  0.45594000000E+02  0.51100000000E-03 0.  1.
    9900012    2    1    2    0    0  0.30331176897E+02  0.38966353957E+01  0.30797065149E+02  0.47787270960E+02  0.19999999617E+02 0.  0.
        -12    1    1    2    0    0 -0.30331176897E+02 -0.38966353957E+01 -0.30797065149E+02  0.43400729040E+02  0.00000000000E+00 0.  1.
         11    1    3    3    0    0  0.28787879163E+02 -0.18168104585E+01  0.29740059894E+02  0.41430833321E+02  0.51100000000E-03 0. -1.
        -11    1    3    3    0    0  0.18433224361E+01  0.35748474002E+01  0.18158836064E+00  0.40262074130E+01  0.51100000000E-03 0.  1.
         12    1    3    3    0    0 -0.30002470169E+00  0.21385984539E+01  0.87541689500E+00  0.23302302266E+01  0.00000000000E+00 0. -1.
</event>
<event>
 7    1  0.6622189E-010  0.4778727E+02  0.7816164E-02  0.1312668E+00
        -11   -1    0    0    0    0  0.00000000000E+00  0.00000000000E+00  0.45593999997E+02  0.45594000000E+02  0.51100000000E-03 0. -1.
         11   -1    0    0    0    0 -0.00000000000E+00 -0.00000000000E+00 -0.45593999997E+02  0.45594000000E+02  0.51100000000E-03 0.  1.
    9900012    2    1    2    0    0  0.11493899273E+01  0.15560431185E+02 -0.40499075371E+02  0.47787271645E+02  0.20000002737E+02 0.  0.
         12    1    1    2    0    0 -0.11493899273E+01 -0.15560431185E+02  0.40499075371E+02  0.43400728355E+02  0.00000000000E+00 0. -1.
         11    1    3    3    0    0 -0.33637513508E-01  0.14281626444E+02 -0.15562520956E+02  0.21122453554E+02  0.51100000000E-03 0. -1.
        -11    1    3    3    0    0  0.27774385260E+01 -0.29642945723E+01 -0.63859530223E+01  0.75684610946E+01  0.51100000000E-03 0.  1.
        -12    1    3    3    0    0 -0.15944110852E+01  0.42430993131E+01 -0.18550601393E+02  0.19096356996E+02  0.00000000000E+00 0.  1.
</event>
<event>
 7    1  0.6622189E-010  0.4778727E+02  0.7816164E-02  0.1312668E+00
        -11   -1    0    0    0    0  0.00000000000E+00  0.00000000000E+00  0.45593999997E+02  0.45594000000E+02  0.51100000000E-03 0.  1.
         11   -1    0    0    0    0 -0.00000000000E+00 -0.00000000000E+00 -0.45593999997E+02  0.45594000000E+02  0.51100000000E-03 0. -1.
    9900012    2    1    2    0    0 -0.23751539208E+02 -0.35215296743E+02 -0.89090055353E+01  0.47787272828E+02  0.20000008132E+02 0.  0.
        -12    1    1    2    0    0  0.23751539208E+02  0.35215296743E+02  0.89090055353E+01  0.43400727172E+02  0.00000000000E+00 0.  1.
         11    1    3    3    0    0 -0.13761792046E+02 -0.11718200661E+02  0.30084709005E+01  0.18323592564E+02  0.51100000000E-03 0. -1.
        -11    1    3    3    0    0 -0.11009628637E+02 -0.18191846305E+02 -0.11141004717E+02  0.24005773912E+02  0.51100000000E-03 0.  1.
         12    1    3    3    0    0  0.10198814752E+01 -0.53052497767E+01 -0.77647171843E+00  0.54579063519E+01  0.00000000000E+00 0. -1.
</event>
<event>
 7    1  0.6622189E-010  0.4778730E+02  0.7816164E-02  0.1312668E+00
        -11   -1    0    0    0    0  0.00000000000E+00  0.00000000000E+00  0.45593999997E+02  0.45594000000E+02  0.51100000000E-03 0. -1.
         11   -1    0    0    0    0 -0.00000000000E+00 -0.00000000000E+00 -0.45593999997E+02  0.45594000000E+02  0.51100000000E-03 0.  1.
    9900012    2    1    2    0    0 -0.17673992790E+02  0.24544438767E+02  0.31125896283E+02  0.47787298221E+02  0.20000123906E+02 0.  0.
        -12    1    1    2    0    0  0.17673992790E+02 -0.24544438767E+02 -0.31125896283E+02  0.43400701779E+02  0.00000000000E+00 0.  1.
         11    1    3    3    0    0  0.23233947277E+00 -0.22576085117E+00  0.15503226354E+01  0.15838087408E+01  0.51100000000E-03 0. -1.
        -11    1    3    3    0    0 -0.20796656979E+02  0.17491467862E+02  0.25945292709E+02  0.37571406728E+02  0.51100000000E-03 0.  1.
        -12    1    3    3    0    0  0.28903247167E+01  0.72787317558E+01  0.36302809385E+01  0.86320827518E+01  0.00000000000E+00 0.  1.
</event>
<event>
 7    1  0.6622189E-010  0.4778727E+02  0.7816164E-02  0.1312668E+00
        -11   -1    0    0    0    0  0.00000000000E+00  0.00000000000E+00  0.45593999997E+02  0.45594000000E+02  0.51100000000E-03 0. -1.
         11   -1    0    0    0    0 -0.00000000000E+00 -0.00000000000E+00 -0.45593999997E+02  0.45594000000E+02  0.51100000000E-03 0.  1.
    9900012    2    1    2    0    0 -0.29358292033E+02  0.76659480280E+01 -0.31031389939E+02  0.47787271529E+02  0.20000002209E+02 0.  0.
         12    1    1    2    0    0  0.29358292033E+02 -0.76659480280E+01  0.31031389939E+02  0.43400728471E+02  0.00000000000E+00 0. -1.
         11    1    3    3    0    0 -0.76827923254E+00  0.17358370321E+01 -0.58138592087E+01  0.61159089546E+01  0.51100000000E-03 0. -1.
        -11    1    3    3    0    0 -0.22949485960E+02  0.38935358603E+01 -0.10036850154E+02  0.25349100351E+02  0.51100000000E-03 0.  1.
        -12    1    3    3    0    0 -0.56405268403E+01  0.20365751356E+01 -0.15180680577E+02  0.16322262223E+02  0.00000000000E+00 0.  1.
</event>
<event>
 7    1  0.6622189E-010  0.4778726E+02  0.7816164E-02  0.1312668E+00
        -11   -1    0    0    0    0  0.00000000000E+00  0.00000000000E+00  0.45593999997E+02  0.45594000000E+02  0.51100000000E-03 0.  1.
         11   -1    0    0    0    0 -0.00000000000E+00 -0.00000000000E+00 -0.45593999997E+02  0.45594000000E+02  0.51100000000E-03 0. -1.
    9900012    2    1    2    0    0 -0.38632787851E+02 -0.17661495207E+02 -0.88996192518E+01  0.47787263452E+02  0.19999965382E+02 0.  0.
        -12    1    1    2    0    0  0.38632787851E+02  0.17661495207E+02  0.88996192518E+01  0.43400736548E+02  0.00000000000E+00 0.  1.
         11    1    3    3    0    0 -0.19100855345E+02 -0.15759947574E+02 -0.11573030108E+02  0.27334111447E+02  0.51100000000E-03 0. -1.
        -11    1    3    3    0    0 -0.29288209215E+01  0.46408861415E+00  0.21704640196E+01  0.36748176218E+01  0.51100000000E-03 0.  1.
         12    1    3    3    0    0 -0.16603111585E+02 -0.23656362476E+01  0.50294683704E+00  0.16778334383E+02  0.00000000000E+00 0. -1.
</event>
<event>
 7    1  0.6622189E-010  0.4778727E+02  0.7816164E-02  0.1312668E+00
        -11   -1    0    0    0    0  0.00000000000E+00  0.00000000000E+00  0.45593999997E+02  0.45594000000E+02  0.51100000000E-03 0. -1.
         11   -1    0    0    0    0 -0.00000000000E+00 -0.00000000000E+00 -0.45593999997E+02  0.45594000000E+02  0.51100000000E-03 0.  1.
    9900012    2    1    2    0    0 -0.15841352968E+02 -0.39336884401E+00  0.40404462530E+02  0.47787265038E+02  0.19999972613E+02 0.  0.
        -12    1    1    2    0    0  0.15841352968E+02  0.39336884401E+00 -0.40404462530E+02  0.43400734962E+02  0.00000000000E+00 0.  1.
         11    1    3    3    0    0 -0.46559424592E+01 -0.88724706030E+01  0.16760409112E+02  0.19527156696E+02  0.51100000000E-03 0.  1.
        -11    1    3    3    0    0 -0.10826038330E+02  0.70593708369E+01  0.23459441064E+02  0.26784010115E+02  0.51100000000E-03 0. -1.
        -12    1    3    3    0    0 -0.35937217848E+00  0.14197309221E+01  0.18461235481E+00  0.14760982269E+01  0.00000000000E+00 0.  1.
</event>
<event>
 7    1  0.6622189E-010  0.4778727E+02  0.7816164E-02  0.1312668E+00
        -11   -1    0    0    0    0  0.00000000000E+00  0.00000000000E+00  0.45593999997E+02  0.45594000000E+02  0.51100000000E-03 0. -1.
         11   -1    0    0    0    0 -0.00000000000E+00 -0.00000000000E+00 -0.45593999997E+02  0.45594000000E+02  0.51100000000E-03 0.  1.
    9900012    2    1    2    0    0  0.63081929640E+00 -0.15393279804E+02 -0.40574282397E+02  0.47787269728E+02  0.19999993998E+02 0.  0.
         12    1    1    2    0    0 -0.63081929640E+00  0.15393279804E+02  0.40574282397E+02  0.43400730272E+02  0.00000000000E+00 0. -1.
         11    1    3    3    0    0  0.74624211317E+01 -0.11247662457E+02 -0.23154833119E+02  0.26801939051E+02  0.51100000000E-03 0. -1.
        -11    1    3    3    0    0 -0.72915955448E+01  0.22731347752E+00 -0.10439700726E+02  0.12736027187E+02  0.51100000000E-03 0.  1.
        -12    1    3    3    0    0  0.45999370949E+00 -0.43729308247E+01 -0.69797485527E+01  0.82493034899E+01  0.00000000000E+00 0.  1.
</event>
<event>
 7    1  0.6622189E-010  0.4778727E+02  0.7816164E-02  0.1312668E+00
        -11   -1    0    0    0    0  0.00000000000E+00  0.00000000000E+00  0.45593999997E+02  0.45594000000E+02  0.51100000000E-03 0. -1.
         11   -1    0    0    0    0 -0.00000000000E+00 -0.00000000000E+00 -0.45593999997E+02  0.45594000000E+02  0.51100000000E-03 0.  1.
    9900012    2    1    2    0    0  0.70673214332E+01 -0.34859270980E+02  0.24869805692E+02  0.47787273732E+02  0.20000012252E+02 0.  0.
        -12    1    1    2    0    0 -0.70673214332E+01  0.34859270980E+02 -0.24869805692E+02  0.43400726268E+02  0.00000000000E+00 0.  1.
         11    1    3    3    0    0  0.26444695645E+01 -0.28652374823E+02  0.11257219645E+02  0.30897844531E+02  0.51100000000E-03 0. -1.
        -11    1    3    3    0    0  0.36883580523E+01 -0.63170479625E+01  0.14179443806E+02  0.15955115386E+02  0.51100000000E-03 0.  1.
         12    1    3    3    0    0  0.73449381642E+00  0.11015180571E+00 -0.56685775829E+00  0.93431381494E+00  0.00000000000E+00 0. -1.
</event>
<event>
 7    1  0.6622189E-010  0.4778727E+02  0.7816164E-02  0.1312668E+00
        -11   -1    0    0    0    0  0.00000000000E+00  0.00000000000E+00  0.45593999997E+02  0.45594000000E+02  0.51100000000E-03 0. -1.
         11   -1    0    0    0    0 -0.00000000000E+00 -0.00000000000E+00 -0.45593999997E+02  0.45594000000E+02  0.51100000000E-03 0.  1.
    9900012    2    1    2    0    0 -0.41817033793E+02  0.71018084827E+01  0.91936496901E+01  0.47787271970E+02  0.20000004219E+02 0.  0.
        -12    1    1    2    0    0  0.41817033793E+02 -0.71018084827E+01 -0.91936496901E+01  0.43400728030E+02  0.00000000000E+00 0.  1.
         11    1    3    3    0    0 -0.90326129299E+01  0.87782649949E+01 -0.47894427357E+00  0.12604579348E+02  0.51100000000E-03 0. -1.
        -11    1    3    3    0    0 -0.77418806831E+01 -0.37901149222E+01  0.35062749968E+01  0.93056784948E+01  0.51100000000E-03 0.  1.
         12    1    3    3    0    0 -0.25042540180E+02  0.21136584100E+01  0.61663189669E+01  0.25877014127E+02  0.00000000000E+00 0. -1.
</event>
<event>
 7    1  0.6622189E-010  0.4778726E+02  0.7816164E-02  0.1312668E+00
        -11   -1    0    0    0    0  0.00000000000E+00  0.00000000000E+00  0.45593999997E+02  0.45594000000E+02  0.51100000000E-03 0. -1.
         11   -1    0    0    0    0 -0.00000000000E+00 -0.00000000000E+00 -0.45593999997E+02  0.45594000000E+02  0.51100000000E-03 0.  1.
    9900012    2    1    2    0    0 -0.11254969309E+02  0.18046313672E+02 -0.37832262063E+02  0.47787264706E+02  0.19999971099E+02 0.  0.
         12    1    1    2    0    0  0.11254969309E+02 -0.18046313672E+02  0.37832262063E+02  0.43400735294E+02  0.00000000000E+00 0. -1.
         11    1    3    3    0    0 -0.77820627672E+01  0.88729472265E+00 -0.12085683994E+02  0.14401789844E+02  0.51100000000E-03 0.  1.
        -11    1    3    3    0    0 -0.11359517719E+01  0.14505953232E+02 -0.11052763407E+02  0.18272291723E+02  0.51100000000E-03 0. -1.
         12    1    3    3    0    0 -0.23369547698E+01  0.26530657170E+01 -0.14693814661E+02  0.15113183139E+02  0.00000000000E+00 0. -1.
</event>
<event>
 7    1  0.6622189E-010  0.4778727E+02  0.7816164E-02  0.1312668E+00
        -11   -1    0    0    0    0  0.00000000000E+00  0.00000000000E+00  0.45593999997E+02  0.45594000000E+02  0.51100000000E-03 0. -1.
         11   -1    0    0    0    0 -0.00000000000E+00 -0.00000000000E+00 -0.45593999997E+02  0.45594000000E+02  0.51100000000E-03 0.  1.
    9900012    2    1    2    0    0 -0.27581504771E+02 -0.29452960840E+02 -0.15981450396E+02  0.47787273457E+02  0.20000011000E+02 0.  0.
         12    1    1    2    0    0  0.27581504771E+02  0.29452960840E+02  0.15981450396E+02  0.43400726543E+02  0.00000000000E+00 0. -1.
         11    1    3    3    0    0  0.44467957165E+00  0.14054364593E+01  0.11201101183E+01  0.18513882631E+01  0.51100000000E-03 0. -1.
        -11    1    3    3    0    0 -0.17778089400E+02 -0.25442240943E+02 -0.12158908140E+02  0.33334773651E+02  0.51100000000E-03 0.  1.
         12    1    3    3    0    0 -0.10248094942E+02 -0.54161563562E+01 -0.49426523737E+01  0.12601111543E+02  0.00000000000E+00 0. -1.
</event>
<event>
 7    1  0.6622189E-010  0.4778727E+02  0.7816164E-02  0.1312668E+00
        -11   -1    0    0    0    0  0.00000000000E+00  0.00000000000E+00  0.45593999997E+02  0.45594000000E+02  0.51100000000E-03 0. -1.
         11   -1    0    0    0    0 -0.00000000000E+00 -0.00000000000E+00 -0.45593999997E+02  0.45594000000E+02  0.51100000000E-03 0.  1.
    9900012    2    1    2    0    0  0.20632292073E+02  0.96048529150E+01 -0.36955091354E+02  0.47787268984E+02  0.19999990608E+02 0.  0.
         12    1    1    2    0    0 -0.20632292073E+02 -0.96048529150E+01  0.36955091354E+02  0.43400731016E+02  0.00000000000E+00 0. -1.
         11    1    3    3    0    0  0.11646211092E+02  0.36177932080E+00 -0.23452857435E+02  0.26187814709E+02  0.51100000000E-03 0. -1.
        -11    1    3    3    0    0  0.30854680367E+01  0.10344375759E+02 -0.77775901912E+01  0.13304778551E+02  0.51100000000E-03 0.  1.
         12    1    3    3    0    0  0.59006129437E+01 -0.11013021647E+01 -0.57246437278E+01  0.82946757247E+01  0.00000000000E+00 0. -1.
</event>
<event>
 7    1  0.7785175E-010  0.4778727E+02  0.7816164E-02  0.1312668E+00
        -11   -1    0    0    0    0  0.00000000000E+00  0.00000000000E+00  0.45593999997E+02  0.45594000000E+02  0.51100000000E-03 0. -1.
         11   -1    0    0    0    0 -0.00000000000E+00 -0.00000000000E+00 -0.45593999997E+02  0.45594000000E+02  0.51100000000E-03 0.  1.
    9900012    2    1    2    0    0 -0.16626562002E+02  0.34354374781E+01 -0.39942192960E+02  0.47787267597E+02  0.19999984280E+02 0.  0.
         12    1    1    2    0    0  0.16626562002E+02 -0.34354374781E+01  0.39942192960E+02  0.43400732403E+02  0.00000000000E+00 0. -1.
         11    1    3    3    0    0 -0.23084771452E+01  0.76116158953E+00 -0.73200956968E+00  0.25385570639E+01  0.51100000000E-03 0. -1.
        -11    1    3    3    0    0  0.12253293114E+00 -0.52887446217E+01 -0.50365125154E+01  0.73042653684E+01  0.51100000000E-03 0.  1.
        -12    1    3    3    0    0 -0.14440617788E+02  0.79630205104E+01 -0.34173670875E+02  0.37944445164E+02  0.00000000000E+00 0.  1.
</event>
<event>
 7    1  0.6622189E-010  0.4778728E+02  0.7816164E-02  0.1312668E+00
        -11   -1    0    0    0    0  0.00000000000E+00  0.00000000000E+00  0.45593999997E+02  0.45594000000E+02  0.51100000000E-03 0. -1.
         11   -1    0    0    0    0 -0.00000000000E+00 -0.00000000000E+00 -0.45593999997E+02  0.45594000000E+02  0.51100000000E-03 0.  1.
    9900012    2    1    2    0    0 -0.14013932003E+02 -0.11287414628E+02  0.39494642501E+02  0.47787276441E+02  0.20000024604E+02 0.  0.
        -12    1    1    2    0    0  0.14013932003E+02  0.11287414628E+02 -0.39494642501E+02  0.43400723559E+02  0.00000000000E+00 0.  1.
         11    1    3    3    0    0 -0.13687719515E+02 -0.19486004388E+01  0.15784684893E+02  0.20983493194E+02  0.51100000000E-03 0.  1.
        -11    1    3    3    0    0 -0.18054453913E+01 -0.10202771775E+02  0.22283467162E+02  0.24574561928E+02  0.51100000000E-03 0. -1.
         12    1    3    3    0    0  0.14792329031E+01  0.86395758579E+00  0.14264904461E+01  0.22292213180E+01  0.00000000000E+00 0. -1.
</event>
<event>
 7    1  0.6622189E-010  0.4778727E+02  0.7816164E-02  0.1312668E+00
        -11   -1    0    0    0    0  0.00000000000E+00  0.00000000000E+00  0.45593999997E+02  0.45594000000E+02  0.51100000000E-03 0. -1.
         11   -1    0    0    0    0 -0.00000000000E+00 -0.00000000000E+00 -0.45593999997E+02  0.45594000000E+02  0.51100000000E-03 0.  1.
    9900012    2    1    2    0    0  0.25804717334E+02 -0.10872491891E+02 -0.33159141442E+02  0.47787272152E+02  0.20000005048E+02 0.  0.
         12    1    1    2    0    0 -0.25804717334E+02  0.10872491891E+02  0.33159141442E+02  0.43400727848E+02  0.00000000000E+00 0. -1.
         11    1    3    3    0    0  0.20631791402E+01 -0.12053982471E+01 -0.14505132425E+02  0.14700631280E+02  0.51100000000E-03 0. -1.
        -11    1    3    3    0    0  0.62162081391E+01 -0.45494838195E+01 -0.10669751528E+02  0.13159887712E+02  0.51100000000E-03 0.  1.
         12    1    3    3    0    0  0.17525330055E+02 -0.51176098242E+01 -0.79842574885E+01  0.19926753160E+02  0.00000000000E+00 0. -1.
</event>
<event>
 7    1  0.6622189E-010  0.4778727E+02  0.7816164E-02  0.1312668E+00
        -11   -1    0    0    0    0  0.00000000000E+00  0.00000000000E+00  0.45593999997E+02  0.45594000000E+02  0.51100000000E-03 0.  1.
         11   -1    0    0    0    0 -0.00000000000E+00 -0.00000000000E+00 -0.45593999997E+02  0.45594000000E+02  0.51100000000E-03 0. -1.
    9900012    2    1    2    0    0  0.36050870494E+02  0.16746755795E+02 -0.17421369500E+02  0.47787271801E+02  0.20000003448E+02 0.  0.
         12    1    1    2    0    0 -0.36050870494E+02 -0.16746755795E+02  0.17421369500E+02  0.43400728199E+02  0.00000000000E+00 0. -1.
         11    1    3    3    0    0  0.31360981155E+01  0.56880822057E+01 -0.73843155441E+01  0.98345059299E+01  0.51100000000E-03 0.  1.
        -11    1    3    3    0    0  0.10812044525E+02  0.30803785894E+01  0.22050348524E+01  0.11456492396E+02  0.51100000000E-03 0. -1.
        -12    1    3    3    0    0  0.22102727853E+02  0.79782949996E+01 -0.12242088808E+02  0.26496273474E+02  0.00000000000E+00 0.  1.
</event>
<event>
 7    1  0.7299524E-010  0.4778727E+02  0.7816164E-02  0.1312668E+00
        -11   -1    0    0    0    0  0.00000000000E+00  0.00000000000E+00  0.45593999997E+02  0.45594000000E+02  0.51100000000E-03 0. -1.
         11   -1    0    0    0    0 -0.00000000000E+00 -0.00000000000E+00 -0.45593999997E+02  0.45594000000E+02  0.51100000000E-03 0.  1.
    9900012    2    1    2    0    0  0.61880397507E+01 -0.29769660145E+02 -0.30969321416E+02  0.47787269936E+02  0.19999994947E+02 0.  0.
         12    1    1    2    0    0 -0.61880397507E+01  0.29769660145E+02  0.30969321416E+02  0.43400730064E+02  0.00000000000E+00 0. -1.
         11    1    3    3    0    0 -0.94766610877E+00 -0.62705022048E+01  0.24006167699E+00  0.63462507690E+01  0.51100000000E-03 0. -1.
        -11    1    3    3    0    0  0.76055600942E+00 -0.11254089224E+02 -0.22357063636E+02  0.25041391023E+02  0.51100000000E-03 0.  1.
        -12    1    3    3    0    0  0.63751498501E+01 -0.12245068717E+02 -0.88523194568E+01  0.16399628144E+02  0.00000000000E+00 0.  1.
</event>
<event>
 7    1  0.6622189E-010  0.4778727E+02  0.7816164E-02  0.1312668E+00
        -11   -1    0    0    0    0  0.00000000000E+00  0.00000000000E+00  0.45593999997E+02  0.45594000000E+02  0.51100000000E-03 0. -1.
         11   -1    0    0    0    0 -0.00000000000E+00 -0.00000000000E+00 -0.45593999997E+02  0.45594000000E+02  0.51100000000E-03 0.  1.
    9900012    2    1    2    0    0  0.28227817457E+02  0.21217546707E+02 -0.25231519856E+02  0.47787267738E+02  0.19999984925E+02 0.  0.
         12    1    1    2    0    0 -0.28227817457E+02 -0.21217546707E+02  0.25231519856E+02  0.43400732262E+02  0.00000000000E+00 0. -1.
         11    1    3    3    0    0  0.50206541104E+01  0.83298656494E+01  0.11957880146E+01  0.97991601002E+01  0.51100000000E-03 0. -1.
        -11    1    3    3    0    0  0.12091934326E+02  0.10277391068E+02 -0.15596324782E+02  0.22250505385E+02  0.51100000000E-03 0.  1.
         12    1    3    3    0    0  0.11115229021E+02  0.26102899892E+01 -0.10830983088E+02  0.15737602253E+02  0.00000000000E+00 0. -1.
</event>
<event>
 7    1  0.6622189E-010  0.4778727E+02  0.7816164E-02  0.1312668E+00
        -11   -1    0    0    0    0  0.00000000000E+00  0.00000000000E+00  0.45593999997E+02  0.45594000000E+02  0.51100000000E-03 0. -1.
         11   -1    0    0    0    0 -0.00000000000E+00 -0.00000000000E+00 -0.45593999997E+02  0.45594000000E+02  0.51100000000E-03 0.  1.
    9900012    2    1    2    0    0 -0.80850362377E+00  0.34360284144E+02 -0.26501700576E+02  0.47787274914E+02  0.20000017642E+02 0.  0.
         12    1    1    2    0    0  0.80850362377E+00 -0.34360284144E+02  0.26501700576E+02  0.43400725086E+02  0.00000000000E+00 0. -1.
         11    1    3    3    0    0  0.46077576831E+01  0.51945893573E+01 -0.10697241719E+01  0.70256316102E+01  0.51100000000E-03 0. -1.
        -11    1    3    3    0    0 -0.29874339517E+01  0.25976736813E+02 -0.16361824315E+02  0.30845176482E+02  0.51100000000E-03 0.  1.
        -12    1    3    3    0    0 -0.24288273552E+01  0.31889579737E+01 -0.90701520900E+01  0.99164668212E+01  0.00000000000E+00 0.  1.
</event>
<event>
 7    1  0.6622189E-010  0.4778727E+02  0.7816164E-02  0.1312668E+00
        -11   -1    0    0    0    0  0.00000000000E+00  0.00000000000E+00  0.45593999997E+02  0.45594000000E+02  0.51100000000E-03 0. -1.
         11   -1    0    0    0    0 -0.00000000000E+00 -0.00000000000E+00 -0.45593999997E+02  0.45594000000E+02  0.51100000000E-03 0.  1.
    9900012    2    1    2    0    0  0.33323139808E+02 -0.18594950422E+02 -0.20674136214E+02  0.47787265719E+02  0.19999975720E+02 0.  0.
         12    1    1    2    0    0 -0.33323139808E+02  0.18594950422E+02  0.20674136214E+02  0.43400734281E+02  0.00000000000E+00 0. -1.
         11    1    3    3    0    0  0.17874554385E+01 -0.72415171537E+01 -0.10577994365E+01  0.75334923867E+01  0.51100000000E-03 0. -1.
        -11    1    3    3    0    0  0.12561843022E+02 -0.32527263859E+01 -0.13523638931E+02  0.18742170078E+02  0.51100000000E-03 0.  1.
        -12    1    3    3    0    0  0.18973841348E+02 -0.81007068829E+01 -0.60926978468E+01  0.21511603254E+02  0.00000000000E+00 0.  1.
</event>
<event>
 7    1  0.6622189E-010  0.4778728E+02  0.7816164E-02  0.1312668E+00
        -11   -1    0    0    0    0  0.00000000000E+00  0.00000000000E+00  0.45593999997E+02  0.45594000000E+02  0.51100000000E-03 0. -1.
         11   -1    0    0    0    0 -0.00000000000E+00 -0.00000000000E+00 -0.45593999997E+02  0.45594000000E+02  0.51100000000E-03 0.  1.
    9900012    2    1    2    0    0  0.15391998799E+02  0.26327413706E+02 -0.30880030163E+02  0.47787278781E+02  0.20000035274E+02 0.  0.
         12    1    1    2    0    0 -0.15391998799E+02 -0.26327413706E+02  0.30880030163E+02  0.43400721219E+02  0.00000000000E+00 0. -1.
         11    1    3    3    0    0 -0.14020887557E+01  0.10719013998E+02 -0.15830569800E+02  0.19169508455E+02  0.51100000000E-03 0. -1.
        -11    1    3    3    0    0  0.95569023319E+01  0.36740613166E+01 -0.79235747545E+01  0.12946665435E+02  0.51100000000E-03 0.  1.
        -12    1    3    3    0    0  0.72371852229E+01  0.11934338391E+02 -0.71258856082E+01  0.15671104891E+02  0.00000000000E+00 0.  1.
</event>
<event>
 7    1  0.6622189E-010  0.4778726E+02  0.7816164E-02  0.1312668E+00
        -11   -1    0    0    0    0  0.00000000000E+00  0.00000000000E+00  0.45593999997E+02  0.45594000000E+02  0.51100000000E-03 0. -1.
         11   -1    0    0    0    0 -0.00000000000E+00 -0.00000000000E+00 -0.45593999997E+02  0.45594000000E+02  0.51100000000E-03 0.  1.
    9900012    2    1    2    0    0 -0.47735787656E+01 -0.36773454352E+02 -0.22551053288E+02  0.47787262638E+02  0.19999961670E+02 0.  0.
         12    1    1    2    0    0  0.47735787656E+01  0.36773454352E+02  0.22551053288E+02  0.43400737362E+02  0.00000000000E+00 0. -1.
         11    1    3    3    0    0 -0.91719004531E+01 -0.15575969076E+02 -0.85600265653E+01  0.20000215640E+02  0.51100000000E-03 0. -1.
        -11    1    3    3    0    0 -0.91329398871E+00 -0.17527572985E+02 -0.10285552534E+02  0.20343119521E+02  0.51100000000E-03 0.  1.
         12    1    3    3    0    0  0.53116156762E+01 -0.36699122898E+01 -0.37054741892E+01  0.74439274764E+01  0.00000000000E+00 0. -1.
</event>
<event>
 7    1  0.6622189E-010  0.4778727E+02  0.7816164E-02  0.1312668E+00
        -11   -1    0    0    0    0  0.00000000000E+00  0.00000000000E+00  0.45593999997E+02  0.45594000000E+02  0.51100000000E-03 0.  1.
         11   -1    0    0    0    0 -0.00000000000E+00 -0.00000000000E+00 -0.45593999997E+02  0.45594000000E+02  0.51100000000E-03 0. -1.
    9900012    2    1    2    0    0  0.50155553032E+01 -0.38165358159E+02  0.20046769447E+02  0.47787270471E+02  0.19999997383E+02 0.  0.
        -12    1    1    2    0    0 -0.50155553032E+01  0.38165358159E+02 -0.20046769447E+02  0.43400729529E+02  0.00000000000E+00 0.  1.
         11    1    3    3    0    0 -0.37961946438E+00 -0.24504532745E+02  0.19674599078E+02  0.31427791604E+02  0.51100000000E-03 0. -1.
        -11    1    3    3    0    0  0.60298905319E+01 -0.58384485153E+01 -0.77082994562E+00  0.84285965592E+01  0.51100000000E-03 0.  1.
        -12    1    3    3    0    0 -0.63471576429E+00 -0.78223768987E+01  0.11430003153E+01  0.79308823070E+01  0.00000000000E+00 0.  1.
</event>
<event>
 7    1  0.6622189E-010  0.4778728E+02  0.7816164E-02  0.1312668E+00
        -11   -1    0    0    0    0  0.00000000000E+00  0.00000000000E+00  0.45593999997E+02  0.45594000000E+02  0.51100000000E-03 0. -1.
         11   -1    0    0    0    0 -0.00000000000E+00 -0.00000000000E+00 -0.45593999997E+02  0.45594000000E+02  0.51100000000E-03 0.  1.
    9900012    2    1    2    0    0 -0.12818844500E+02  0.15947081545E+02 -0.38275189986E+02  0.47787281658E+02  0.20000048393E+02 0.  0.
         12    1    1    2    0    0  0.12818844500E+02 -0.15947081545E+02  0.38275189986E+02  0.43400718342E+02  0.00000000000E+00 0. -1.
         11    1    3    3    0    0  0.15057515526E+01  0.11064687676E+02 -0.13142038387E+02  0.17245514615E+02  0.51100000000E-03 0.  1.
        -11    1    3    3    0    0 -0.13818787773E+02  0.25284808699E+01 -0.16966359372E+02  0.22027470613E+02  0.51100000000E-03 0. -1.
         12    1    3    3    0    0 -0.50580828024E+00  0.23539129983E+01 -0.81667922270E+01  0.85142964301E+01  0.00000000000E+00 0. -1.
</event>
<event>
 7    1  0.6622189E-010  0.4778727E+02  0.7816164E-02  0.1312668E+00
        -11   -1    0    0    0    0  0.00000000000E+00  0.00000000000E+00  0.45593999997E+02  0.45594000000E+02  0.51100000000E-03 0. -1.
         11   -1    0    0    0    0 -0.00000000000E+00 -0.00000000000E+00 -0.45593999997E+02  0.45594000000E+02  0.51100000000E-03 0.  1.
    9900012    2    1    2    0    0 -0.28122213034E+02 -0.25451401508E+02  0.21094793742E+02  0.47787273881E+02  0.20000012933E+02 0.  0.
        -12    1    1    2    0    0  0.28122213034E+02  0.25451401508E+02 -0.21094793742E+02  0.43400726119E+02  0.00000000000E+00 0.  1.
         11    1    3    3    0    0 -0.91419006385E+01 -0.26593544213E+01 -0.75584374604E+00  0.95508017073E+01  0.51100000000E-03 0. -1.
        -11    1    3    3    0    0 -0.92576012246E+01 -0.86275366220E+01  0.35673290554E+01  0.13147752867E+02  0.51100000000E-03 0.  1.
         12    1    3    3    0    0 -0.97227111707E+01 -0.14164510464E+02  0.18283308433E+02  0.25088719307E+02  0.00000000000E+00 0. -1.
</event>
<event>
 7    1  0.6622189E-010  0.4778727E+02  0.7816164E-02  0.1312668E+00
        -11   -1    0    0    0    0  0.00000000000E+00  0.00000000000E+00  0.45593999997E+02  0.45594000000E+02  0.51100000000E-03 0. -1.
         11   -1    0    0    0    0 -0.00000000000E+00 -0.00000000000E+00 -0.45593999997E+02  0.45594000000E+02  0.51100000000E-03 0.  1.
    9900012    2    1    2    0    0 -0.18544846388E+02  0.24206563093E+01  0.39164423237E+02  0.47787274753E+02  0.20000016907E+02 0.  0.
        -12    1    1    2    0    0  0.18544846388E+02 -0.24206563093E+01 -0.39164423237E+02  0.43400725247E+02  0.00000000000E+00 0.  1.
         11    1    3    3    0    0 -0.23004488819E+01  0.78663681408E+01  0.14018405040E+02  0.16238457221E+02  0.51100000000E-03 0. -1.
        -11    1    3    3    0    0 -0.13956989720E+02 -0.48284050258E+01  0.14700016549E+02  0.20837503304E+02  0.51100000000E-03 0.  1.
        -12    1    3    3    0    0 -0.22874077869E+01 -0.61730680568E+00  0.10446001647E+02  0.10711314228E+02  0.00000000000E+00 0.  1.
</event>
<event>
 7    1  0.6622189E-010  0.4778728E+02  0.7816164E-02  0.1312668E+00
        -11   -1    0    0    0    0  0.00000000000E+00  0.00000000000E+00  0.45593999997E+02  0.45594000000E+02  0.51100000000E-03 0. -1.
         11   -1    0    0    0    0 -0.00000000000E+00 -0.00000000000E+00 -0.45593999997E+02  0.45594000000E+02  0.51100000000E-03 0.  1.
    9900012    2    1    2    0    0  0.11100685602E+02  0.80323182622E+01  0.41181049752E+02  0.47787283230E+02  0.20000055558E+02 0.  0.
        -12    1    1    2    0    0 -0.11100685602E+02 -0.80323182622E+01 -0.41181049752E+02  0.43400716770E+02  0.00000000000E+00 0.  1.
         11    1    3    3    0    0  0.70677758144E+00  0.25727378819E+01  0.55035076631E+01  0.61161353498E+01  0.51100000000E-03 0. -1.
        -11    1    3    3    0    0  0.15271702144E+02  0.33664753964E+01  0.21932473462E+02  0.26936804476E+02  0.51100000000E-03 0.  1.
        -12    1    3    3    0    0 -0.48777941235E+01  0.20931049840E+01  0.13745068627E+02  0.14734343404E+02  0.00000000000E+00 0.  1.
</event>
<event>
 7    1  0.6622189E-010  0.4778728E+02  0.7816164E-02  0.1312668E+00
        -11   -1    0    0    0    0  0.00000000000E+00  0.00000000000E+00  0.45593999997E+02  0.45594000000E+02  0.51100000000E-03 0. -1.
         11   -1    0    0    0    0 -0.00000000000E+00 -0.00000000000E+00 -0.45593999997E+02  0.45594000000E+02  0.51100000000E-03 0.  1.
    9900012    2    1    2    0    0  0.10569620947E+02 -0.57254301411E+01 -0.41702821910E+02  0.47787276590E+02  0.20000025282E+02 0.  0.
         12    1    1    2    0    0 -0.10569620947E+02  0.57254301411E+01  0.41702821910E+02  0.43400723410E+02  0.00000000000E+00 0. -1.
         11    1    3    3    0    0  0.13075762472E+01  0.62884614383E+01 -0.10355256824E+02  0.12185476891E+02  0.51100000000E-03 0. -1.
        -11    1    3    3    0    0  0.25746278129E+01 -0.12791893422E+01 -0.13022456662E+02  0.13336019329E+02  0.51100000000E-03 0.  1.
         12    1    3    3    0    0  0.66874168868E+01 -0.10734702237E+02 -0.18325108424E+02  0.22265780370E+02  0.00000000000E+00 0. -1.
</event>
<event>
 7    1  0.6622189E-010  0.4778727E+02  0.7816164E-02  0.1312668E+00
        -11   -1    0    0    0    0  0.00000000000E+00  0.00000000000E+00  0.45593999997E+02  0.45594000000E+02  0.51100000000E-03 0. -1.
         11   -1    0    0    0    0 -0.00000000000E+00 -0.00000000000E+00 -0.45593999997E+02  0.45594000000E+02  0.51100000000E-03 0.  1.
    9900012    2    1    2    0    0 -0.13228134739E+02  0.19493255215E+02  0.36450689133E+02  0.47787270907E+02  0.19999999373E+02 0.  0.
        -12    1    1    2    0    0  0.13228134739E+02 -0.19493255215E+02 -0.36450689133E+02  0.43400729093E+02  0.00000000000E+00 0.  1.
         11    1    3    3    0    0 -0.15054361573E+02  0.14303152493E+02  0.18169572169E+02  0.27592523021E+02  0.51100000000E-03 0. -1.
        -11    1    3    3    0    0  0.41752391996E+01  0.23342955496E+01  0.87629542033E+01  0.99835326773E+01  0.51100000000E-03 0.  1.
         12    1    3    3    0    0 -0.23490123659E+01  0.28558071724E+01  0.95181627608E+01  0.10211215209E+02  0.00000000000E+00 0. -1.
</event>
<event>
 7    1  0.6622189E-010  0.4778728E+02  0.7816164E-02  0.1312668E+00
        -11   -1    0    0    0    0  0.00000000000E+00  0.00000000000E+00  0.45593999997E+02  0.45594000000E+02  0.51100000000E-03 0. -1.
         11   -1    0    0    0    0 -0.00000000000E+00 -0.00000000000E+00 -0.45593999997E+02  0.45594000000E+02  0.51100000000E-03 0.  1.
    9900012    2    1    2    0    0  0.25591732789E+02 -0.14443649430E+02 -0.31938486242E+02  0.47787277662E+02  0.20000030173E+02 0.  0.
         12    1    1    2    0    0 -0.25591732789E+02  0.14443649430E+02  0.31938486242E+02  0.43400722338E+02  0.00000000000E+00 0. -1.
         11    1    3    3    0    0  0.12801859924E+01  0.12612142461E+01 -0.80337502458E+01  0.82322949912E+01  0.51100000000E-03 0. -1.
        -11    1    3    3    0    0  0.25612116293E+02 -0.15569589067E+02 -0.21744884108E+02  0.37030157843E+02  0.51100000000E-03 0.  1.
         12    1    3    3    0    0 -0.13005694963E+01 -0.13527460953E+00 -0.21598518881E+01  0.25248248282E+01  0.00000000000E+00 0. -1.
</event>
<event>
 7    1  0.9571482E-010  0.4778727E+02  0.7816164E-02  0.1312668E+00
        -11   -1    0    0    0    0  0.00000000000E+00  0.00000000000E+00  0.45593999997E+02  0.45594000000E+02  0.51100000000E-03 0. -1.
         11   -1    0    0    0    0 -0.00000000000E+00 -0.00000000000E+00 -0.45593999997E+02  0.45594000000E+02  0.51100000000E-03 0.  1.
    9900012    2    1    2    0    0  0.12348529295E+02 -0.23682480013E+02 -0.34209313041E+02  0.47787272655E+02  0.20000007345E+02 0.  0.
         12    1    1    2    0    0 -0.12348529295E+02  0.23682480013E+02  0.34209313041E+02  0.43400727345E+02  0.00000000000E+00 0. -1.
         11    1    3    3    0    0  0.47571918863E+01 -0.68566709630E+01 -0.17421712494E+01  0.85252549676E+01  0.51100000000E-03 0. -1.
        -11    1    3    3    0    0  0.12498317033E+00 -0.12664823010E+02 -0.24485670366E+02  0.27567397704E+02  0.51100000000E-03 0.  1.
        -12    1    3    3    0    0  0.74663542383E+01 -0.41609860400E+01 -0.79814714260E+01  0.11694619984E+02  0.00000000000E+00 0.  1.
</event>
<event>
 7    1  0.6622189E-010  0.4778727E+02  0.7816164E-02  0.1312668E+00
        -11   -1    0    0    0    0  0.00000000000E+00  0.00000000000E+00  0.45593999997E+02  0.45594000000E+02  0.51100000000E-03 0. -1.
         11   -1    0    0    0    0 -0.00000000000E+00 -0.00000000000E+00 -0.45593999997E+02  0.45594000000E+02  0.51100000000E-03 0.  1.
    9900012    2    1    2    0    0  0.18873774853E+02  0.27314360662E+01 -0.38986449719E+02  0.47787269800E+02  0.19999994326E+02 0.  0.
         12    1    1    2    0    0 -0.18873774853E+02 -0.27314360662E+01  0.38986449719E+02  0.43400730200E+02  0.00000000000E+00 0. -1.
         11    1    3    3    0    0  0.73730851536E+01 -0.55410923550E+01 -0.25167600387E+02  0.26804369022E+02  0.51100000000E-03 0. -1.
        -11    1    3    3    0    0  0.73418303169E+01  0.28436320504E+01 -0.35296398973E+01  0.86282717682E+01  0.51100000000E-03 0.  1.
         12    1    3    3    0    0  0.41588593822E+01  0.54288963708E+01 -0.10289209436E+02  0.12354629010E+02  0.00000000000E+00 0. -1.
</event>
<event>
 7    1  0.6622189E-010  0.4778727E+02  0.7816164E-02  0.1312668E+00
        -11   -1    0    0    0    0  0.00000000000E+00  0.00000000000E+00  0.45593999997E+02  0.45594000000E+02  0.51100000000E-03 0. -1.
         11   -1    0    0    0    0 -0.00000000000E+00 -0.00000000000E+00 -0.45593999997E+02  0.45594000000E+02  0.51100000000E-03 0.  1.
    9900012    2    1    2    0    0  0.20882378326E+02 -0.88595409164E+01  0.37000786596E+02  0.47787269609E+02  0.19999993454E+02 0.  0.
        -12    1    1    2    0    0 -0.20882378326E+02  0.88595409164E+01 -0.37000786596E+02  0.43400730391E+02  0.00000000000E+00 0.  1.
         11    1    3    3    0    0  0.47486113478E+01  0.64865007750E+00  0.77392339775E+01  0.91030653889E+01  0.51100000000E-03 0. -1.
        -11    1    3    3    0    0  0.17365360411E+02 -0.31892942197E+01  0.15511958587E+02  0.23502089253E+02  0.51100000000E-03 0.  1.
        -12    1    3    3    0    0 -0.12315934328E+01 -0.63188967742E+01  0.13749594032E+02  0.15182114967E+02  0.00000000000E+00 0.  1.
</event>
<event>
 7    1  0.6622189E-010  0.4778727E+02  0.7816164E-02  0.1312668E+00
        -11   -1    0    0    0    0  0.00000000000E+00  0.00000000000E+00  0.45593999997E+02  0.45594000000E+02  0.51100000000E-03 0. -1.
         11   -1    0    0    0    0 -0.00000000000E+00 -0.00000000000E+00 -0.45593999997E+02  0.45594000000E+02  0.51100000000E-03 0.  1.
    9900012    2    1    2    0    0  0.11252518056E+01  0.23230733645E+01  0.43323904960E+02  0.47787267258E+02  0.19999982738E+02 0.  0.
        -12    1    1    2    0    0 -0.11252518056E+01 -0.23230733645E+01 -0.43323904960E+02  0.43400732742E+02  0.00000000000E+00 0.  1.
         11    1    3    3    0    0  0.34685836668E+01  0.51225666499E+01  0.96226161396E+01  0.11439689828E+02  0.51100000000E-03 0. -1.
        -11    1    3    3    0    0 -0.43375183901E+01 -0.49997786315E+01  0.76015619648E+01  0.10079464108E+02  0.51100000000E-03 0.  1.
        -12    1    3    3    0    0  0.19941865290E+01  0.22002853461E+01  0.26099726856E+02  0.26268113322E+02  0.00000000000E+00 0.  1.
</event>
<event>
 7    1  0.6622189E-010  0.4778728E+02  0.7816164E-02  0.1312668E+00
        -11   -1    0    0    0    0  0.00000000000E+00  0.00000000000E+00  0.45593999997E+02  0.45594000000E+02  0.51100000000E-03 0. -1.
         11   -1    0    0    0    0 -0.00000000000E+00 -0.00000000000E+00 -0.45593999997E+02  0.45594000000E+02  0.51100000000E-03 0.  1.
    9900012    2    1    2    0    0  0.81179632101E+01 -0.16066131223E+01  0.42604462554E+02  0.47787276942E+02  0.20000026891E+02 0.  0.
        -12    1    1    2    0    0 -0.81179632101E+01  0.16066131223E+01 -0.42604462554E+02  0.43400723058E+02  0.00000000000E+00 0.  1.
         11    1    3    3    0    0  0.31648538661E+01  0.42646900519E-01  0.22420182646E+02  0.22642497850E+02  0.51100000000E-03 0. -1.
        -11    1    3    3    0    0  0.12970056219E+01  0.51099930089E+00 -0.20663017203E+01  0.24925783698E+01  0.51100000000E-03 0.  1.
        -12    1    3    3    0    0  0.36561037220E+01 -0.21602593237E+01  0.22250581629E+02  0.22652200723E+02  0.00000000000E+00 0.  1.
</event>
<event>
 7    1  0.6622189E-010  0.4778727E+02  0.7816164E-02  0.1312668E+00
        -11   -1    0    0    0    0  0.00000000000E+00  0.00000000000E+00  0.45593999997E+02  0.45594000000E+02  0.51100000000E-03 0. -1.
         11   -1    0    0    0    0 -0.00000000000E+00 -0.00000000000E+00 -0.45593999997E+02  0.45594000000E+02  0.51100000000E-03 0.  1.
    9900012    2    1    2    0    0 -0.29012909654E+02 -0.20963466636E+02  0.24543987675E+02  0.47787271999E+02  0.20000004354E+02 0.  0.
        -12    1    1    2    0    0  0.29012909654E+02  0.20963466636E+02 -0.24543987675E+02  0.43400728001E+02  0.00000000000E+00 0.  1.
         11    1    3    3    0    0 -0.11465117479E+02 -0.13494069983E+02  0.12159438551E+02  0.21480009070E+02  0.51100000000E-03 0. -1.
        -11    1    3    3    0    0 -0.15303989141E+02 -0.43012145922E+00  0.10840629070E+02  0.18759433013E+02  0.51100000000E-03 0.  1.
        -12    1    3    3    0    0 -0.22438030345E+01 -0.70392751934E+01  0.15439200541E+01  0.75478299159E+01  0.00000000000E+00 0.  1.
</event>
<event>
 7    1  0.6622189E-010  0.4778726E+02  0.7816164E-02  0.1312668E+00
        -11   -1    0    0    0    0  0.00000000000E+00  0.00000000000E+00  0.45593999997E+02  0.45594000000E+02  0.51100000000E-03 0. -1.
         11   -1    0    0    0    0 -0.00000000000E+00 -0.00000000000E+00 -0.45593999997E+02  0.45594000000E+02  0.51100000000E-03 0.  1.
    9900012    2    1    2    0    0 -0.47511611073E+01 -0.70320935317E+01  0.42562893846E+02  0.47787264939E+02  0.19999972163E+02 0.  0.
        -12    1    1    2    0    0  0.47511611073E+01  0.70320935317E+01 -0.42562893846E+02  0.43400735061E+02  0.00000000000E+00 0.  1.
         11    1    3    3    0    0 -0.43458569476E+00 -0.67808648454E+01  0.17329235140E+02  0.18613741794E+02  0.51100000000E-03 0. -1.
        -11    1    3    3    0    0  0.71256642568E+00  0.25583961517E+01 -0.58545999666E+00  0.27195414042E+01  0.51100000000E-03 0.  1.
        -12    1    3    3    0    0 -0.50291418382E+01 -0.28096248380E+01  0.25819118703E+02  0.26453981741E+02  0.00000000000E+00 0.  1.
</event>
<event>
 7    1  0.6622189E-010  0.4778727E+02  0.7816164E-02  0.1312668E+00
        -11   -1    0    0    0    0  0.00000000000E+00  0.00000000000E+00  0.45593999997E+02  0.45594000000E+02  0.51100000000E-03 0. -1.
         11   -1    0    0    0    0 -0.00000000000E+00 -0.00000000000E+00 -0.45593999997E+02  0.45594000000E+02  0.51100000000E-03 0.  1.
    9900012    2    1    2    0    0 -0.14838230020E+02  0.38678076770E+02  0.12940492798E+02  0.47787273663E+02  0.20000011938E+02 0.  0.
        -12    1    1    2    0    0  0.14838230020E+02 -0.38678076770E+02 -0.12940492798E+02  0.43400726337E+02  0.00000000000E+00 0.  1.
         11    1    3    3    0    0 -0.64693203984E+01  0.23582493431E+02  0.15737390295E+02  0.29080088659E+02  0.51100000000E-03 0. -1.
        -11    1    3    3    0    0 -0.48035171929E+01  0.13929218631E+02 -0.24923708001E+01  0.14943521056E+02  0.51100000000E-03 0.  1.
         12    1    3    3    0    0 -0.35653924291E+01  0.11663647085E+01 -0.30452669706E+00  0.37636639483E+01  0.00000000000E+00 0. -1.
</event>
<event>
 7    1  0.6622189E-010  0.4778726E+02  0.7816164E-02  0.1312668E+00
        -11   -1    0    0    0    0  0.00000000000E+00  0.00000000000E+00  0.45593999997E+02  0.45594000000E+02  0.51100000000E-03 0. -1.
         11   -1    0    0    0    0 -0.00000000000E+00 -0.00000000000E+00 -0.45593999997E+02  0.45594000000E+02  0.51100000000E-03 0.  1.
    9900012    2    1    2    0    0 -0.53250366953E+01 -0.40948459923E+02  0.13360081783E+02  0.47787260708E+02  0.19999952871E+02 0.  0.
        -12    1    1    2    0    0  0.53250366953E+01  0.40948459923E+02 -0.13360081783E+02  0.43400739292E+02  0.00000000000E+00 0.  1.
         11    1    3    3    0    0  0.22092116553E+01 -0.33950639539E+02  0.11607096169E+02  0.35947895946E+02  0.51100000000E-03 0. -1.
        -11    1    3    3    0    0 -0.74577366762E+01 -0.72870678340E+01  0.27623787395E+01  0.10786562497E+02  0.51100000000E-03 0.  1.
         12    1    3    3    0    0 -0.76511674412E-01  0.28924744953E+00 -0.10093931264E+01  0.10528022640E+01  0.00000000000E+00 0. -1.
</event>
<event>
 7    1  0.6622189E-010  0.4778727E+02  0.7816164E-02  0.1312668E+00
        -11   -1    0    0    0    0  0.00000000000E+00  0.00000000000E+00  0.45593999997E+02  0.45594000000E+02  0.51100000000E-03 0. -1.
         11   -1    0    0    0    0 -0.00000000000E+00 -0.00000000000E+00 -0.45593999997E+02  0.45594000000E+02  0.51100000000E-03 0.  1.
    9900012    2    1    2    0    0  0.21252942273E+02  0.61632555562E+01 -0.37335640698E+02  0.47787270275E+02  0.19999996494E+02 0.  0.
         12    1    1    2    0    0 -0.21252942273E+02 -0.61632555562E+01  0.37335640698E+02  0.43400729725E+02  0.00000000000E+00 0. -1.
         11    1    3    3    0    0 -0.17402344554E+01 -0.33474034432E+01 -0.15977433962E+01  0.40971099562E+01  0.51100000000E-03 0. -1.
        -11    1    3    3    0    0  0.15335563206E+02  0.67826775435E+01 -0.21157053261E+02  0.26996390804E+02  0.51100000000E-03 0.  1.
         12    1    3    3    0    0  0.76576135224E+01  0.27279814559E+01 -0.14580844041E+02  0.16693769515E+02  0.00000000000E+00 0. -1.
</event>
<event>
 7    1  0.6622189E-010  0.4778727E+02  0.7816164E-02  0.1312668E+00
        -11   -1    0    0    0    0  0.00000000000E+00  0.00000000000E+00  0.45593999997E+02  0.45594000000E+02  0.51100000000E-03 0.  1.
         11   -1    0    0    0    0 -0.00000000000E+00 -0.00000000000E+00 -0.45593999997E+02  0.45594000000E+02  0.51100000000E-03 0. -1.
    9900012    2    1    2    0    0 -0.43333063015E+02 -0.23975853007E+01  0.34709492691E+00  0.47787271430E+02  0.20000001758E+02 0.  0.
        -12    1    1    2    0    0  0.43333063015E+02  0.23975853007E+01 -0.34709492691E+00  0.43400728570E+02  0.00000000000E+00 0.  1.
         11    1    3    3    0    0 -0.18484601335E+01  0.56095957219E+00 -0.10346151628E+01  0.21913259235E+01  0.51100000000E-03 0. -1.
        -11    1    3    3    0    0 -0.78931316953E+01 -0.13186201945E+01 -0.73325022549E+01  0.10853841567E+02  0.51100000000E-03 0.  1.
        -12    1    3    3    0    0 -0.33591471186E+02 -0.16399246784E+01  0.87142123446E+01  0.34742103940E+02  0.00000000000E+00 0.  1.
</event>
<event>
 7    1  0.6622189E-010  0.4778727E+02  0.7816164E-02  0.1312668E+00
        -11   -1    0    0    0    0  0.00000000000E+00  0.00000000000E+00  0.45593999997E+02  0.45594000000E+02  0.51100000000E-03 0.  1.
         11   -1    0    0    0    0 -0.00000000000E+00 -0.00000000000E+00 -0.45593999997E+02  0.45594000000E+02  0.51100000000E-03 0. -1.
    9900012    2    1    2    0    0 -0.39990134352E+02  0.16148240407E+02 -0.48628000081E+01  0.47787270310E+02  0.19999996650E+02 0.  0.
        -12    1    1    2    0    0  0.39990134352E+02 -0.16148240407E+02  0.48628000081E+01  0.43400729690E+02  0.00000000000E+00 0.  1.
         11    1    3    3    0    0 -0.22838051929E+02  0.11323387487E+02 -0.10541844994E+02  0.27584891086E+02  0.51100000000E-03 0. -1.
        -11    1    3    3    0    0 -0.16792670930E+02  0.31052066655E+01  0.64879836310E+01  0.18268279538E+02  0.51100000000E-03 0.  1.
         12    1    3    3    0    0 -0.35941149255E+00  0.17196462550E+01 -0.80893864495E+00  0.19340996858E+01  0.00000000000E+00 0. -1.
</event>
<event>
 7    1  0.6622189E-010  0.4778727E+02  0.7816164E-02  0.1312668E+00
        -11   -1    0    0    0    0  0.00000000000E+00  0.00000000000E+00  0.45593999997E+02  0.45594000000E+02  0.51100000000E-03 0. -1.
         11   -1    0    0    0    0 -0.00000000000E+00 -0.00000000000E+00 -0.45593999997E+02  0.45594000000E+02  0.51100000000E-03 0.  1.
    9900012    2    1    2    0    0 -0.22664071590E+00 -0.28639269327E+02 -0.32609265066E+02  0.47787270954E+02  0.19999999585E+02 0.  0.
         12    1    1    2    0    0  0.22664071590E+00  0.28639269327E+02  0.32609265066E+02  0.43400729046E+02  0.00000000000E+00 0. -1.
         11    1    3    3    0    0 -0.36073594746E+01 -0.47702634966E+01 -0.11458882989E+02  0.12925728444E+02  0.51100000000E-03 0. -1.
        -11    1    3    3    0    0  0.23544968420E+01 -0.10015940114E+02 -0.93200649423E+00  0.10331086492E+02  0.51100000000E-03 0.  1.
        -12    1    3    3    0    0  0.10262219167E+01 -0.13853065717E+02 -0.20218375583E+02  0.24530456017E+02  0.00000000000E+00 0.  1.
</event>
<event>
 7    1  0.6907944E-010  0.4778727E+02  0.7816164E-02  0.1312668E+00
        -11   -1    0    0    0    0  0.00000000000E+00  0.00000000000E+00  0.45593999997E+02  0.45594000000E+02  0.51100000000E-03 0. -1.
         11   -1    0    0    0    0 -0.00000000000E+00 -0.00000000000E+00 -0.45593999997E+02  0.45594000000E+02  0.51100000000E-03 0.  1.
    9900012    2    1    2    0    0  0.25636890331E+02  0.13456156077E+02  0.32331176230E+02  0.47787271450E+02  0.20000001850E+02 0.  0.
        -12    1    1    2    0    0 -0.25636890331E+02 -0.13456156077E+02 -0.32331176230E+02  0.43400728550E+02  0.00000000000E+00 0.  1.
         11    1    3    3    0    0  0.22088017119E+02  0.72819015586E+01  0.22513384613E+02  0.32369106839E+02  0.51100000000E-03 0. -1.
        -11    1    3    3    0    0  0.20439622075E+01  0.32790792576E+01 -0.11046501716E+01  0.40187553479E+01  0.51100000000E-03 0.  1.
         12    1    3    3    0    0  0.15049110050E+01  0.28951752605E+01  0.10922441789E+02  0.11399409263E+02  0.00000000000E+00 0. -1.
</event>
<event>
 7    1  0.6622189E-010  0.4778727E+02  0.7816164E-02  0.1312668E+00
        -11   -1    0    0    0    0  0.00000000000E+00  0.00000000000E+00  0.45593999997E+02  0.45594000000E+02  0.51100000000E-03 0. -1.
         11   -1    0    0    0    0 -0.00000000000E+00 -0.00000000000E+00 -0.45593999997E+02  0.45594000000E+02  0.51100000000E-03 0.  1.
    9900012    2    1    2    0    0  0.36292351467E+01  0.26654548399E+02  0.34058580221E+02  0.47787272070E+02  0.20000004678E+02 0.  0.
        -12    1    1    2    0    0 -0.36292351467E+01 -0.26654548399E+02 -0.34058580221E+02  0.43400727930E+02  0.00000000000E+00 0.  1.
         11    1    3    3    0    0  0.27670295278E+01  0.10741645694E+02  0.24359106834E+02  0.26765752196E+02  0.51100000000E-03 0. -1.
        -11    1    3    3    0    0  0.51823051286E+00  0.83096809536E+01 -0.44691368170E+00  0.83378110146E+01  0.51100000000E-03 0.  1.
        -12    1    3    3    0    0  0.34397510602E+00  0.76032217517E+01  0.10146387069E+02  0.12683708860E+02  0.00000000000E+00 0.  1.
</event>
<event>
 7    1  0.6622189E-010  0.4778727E+02  0.7816164E-02  0.1312668E+00
        -11   -1    0    0    0    0  0.00000000000E+00  0.00000000000E+00  0.45593999997E+02  0.45594000000E+02  0.51100000000E-03 0. -1.
         11   -1    0    0    0    0 -0.00000000000E+00 -0.00000000000E+00 -0.45593999997E+02  0.45594000000E+02  0.51100000000E-03 0.  1.
    9900012    2    1    2    0    0 -0.29277989599E+02  0.46057168783E+01  0.31705050855E+02  0.47787267834E+02  0.19999985360E+02 0.  0.
        -12    1    1    2    0    0  0.29277989599E+02 -0.46057168783E+01 -0.31705050855E+02  0.43400732166E+02  0.00000000000E+00 0.  1.
         11    1    3    3    0    0 -0.29961104475E+02  0.21870243141E+01  0.22951526516E+02  0.37805071437E+02  0.51100000000E-03 0. -1.
        -11    1    3    3    0    0 -0.87259619405E+00  0.12976704095E+01  0.71742050728E+00  0.17204839595E+01  0.51100000000E-03 0.  1.
         12    1    3    3    0    0  0.15557110701E+01  0.11210221547E+01  0.80361038312E+01  0.82617124370E+01  0.00000000000E+00 0. -1.
</event>
<event>
 7    1  0.6622189E-010  0.4778727E+02  0.7816164E-02  0.1312668E+00
        -11   -1    0    0    0    0  0.00000000000E+00  0.00000000000E+00  0.45593999997E+02  0.45594000000E+02  0.51100000000E-03 0. -1.
         11   -1    0    0    0    0 -0.00000000000E+00 -0.00000000000E+00 -0.45593999997E+02  0.45594000000E+02  0.51100000000E-03 0.  1.
    9900012    2    1    2    0    0  0.89981622887E+01  0.13025368458E+02 -0.40410344628E+02  0.47787273036E+02  0.20000009082E+02 0.  0.
         12    1    1    2    0    0 -0.89981622887E+01 -0.13025368458E+02  0.40410344628E+02  0.43400726964E+02  0.00000000000E+00 0. -1.
         11    1    3    3    0    0  0.54634600247E+01  0.14040720911E+02 -0.14341328471E+02  0.20800599552E+02  0.51100000000E-03 0. -1.
        -11    1    3    3    0    0  0.42530877531E+01  0.13830055474E+01 -0.16428270870E+02  0.17026142952E+02  0.51100000000E-03 0.  1.
         12    1    3    3    0    0 -0.71838548911E+00 -0.23983580004E+01 -0.96407452867E+01  0.99605305326E+01  0.00000000000E+00 0. -1.
</event>
<event>
 7    1  0.6622189E-010  0.4778727E+02  0.7816164E-02  0.1312668E+00
        -11   -1    0    0    0    0  0.00000000000E+00  0.00000000000E+00  0.45593999997E+02  0.45594000000E+02  0.51100000000E-03 0. -1.
         11   -1    0    0    0    0 -0.00000000000E+00 -0.00000000000E+00 -0.45593999997E+02  0.45594000000E+02  0.51100000000E-03 0.  1.
    9900012    2    1    2    0    0  0.84147329630E+01 -0.31723866285E+02  0.28397393720E+02  0.47787269673E+02  0.19999993745E+02 0.  0.
        -12    1    1    2    0    0 -0.84147329630E+01  0.31723866285E+02 -0.28397393720E+02  0.43400730327E+02  0.00000000000E+00 0.  1.
         11    1    3    3    0    0 -0.11786699873E+01 -0.10309907602E+02  0.13176223881E+01  0.10460381767E+02  0.51100000000E-03 0. -1.
        -11    1    3    3    0    0  0.11876864741E+02 -0.18526039558E+02  0.23022500943E+02  0.31848227701E+02  0.51100000000E-03 0.  1.
        -12    1    3    3    0    0 -0.22834617909E+01 -0.28879191244E+01  0.40572703889E+01  0.54786602037E+01  0.00000000000E+00 0.  1.
</event>
<event>
 7    1  0.6622189E-010  0.4778721E+02  0.7816164E-02  0.1312668E+00
        -11   -1    0    0    0    0  0.00000000000E+00  0.00000000000E+00  0.45593999997E+02  0.45594000000E+02  0.51100000000E-03 0. -1.
         11   -1    0    0    0    0 -0.00000000000E+00 -0.00000000000E+00 -0.45593999997E+02  0.45594000000E+02  0.51100000000E-03 0.  1.
    9900012    2    1    2    0    0  0.40858551692E+02  0.14153299610E+02  0.37271676664E+01  0.47787206055E+02  0.19999703685E+02 0.  0.
        -12    1    1    2    0    0 -0.40858551692E+02 -0.14153299610E+02 -0.37271676664E+01  0.43400793945E+02  0.00000000000E+00 0.  1.
         11    1    3    3    0    0  0.32399549159E+02  0.80188641424E+01  0.47559804974E+00  0.33380520691E+02  0.51100000000E-03 0. -1.
        -11    1    3    3    0    0 -0.31539201280E+00 -0.13921264002E+01 -0.13496117772E+01  0.19644185517E+01  0.51100000000E-03 0.  1.
         12    1    3    3    0    0  0.87743945458E+01  0.75265618681E+01  0.46011813939E+01  0.12442266812E+02  0.00000000000E+00 0. -1.
</event>
<event>
 7    1  0.6622189E-010  0.4778726E+02  0.7816164E-02  0.1312668E+00
        -11   -1    0    0    0    0  0.00000000000E+00  0.00000000000E+00  0.45593999997E+02  0.45594000000E+02  0.51100000000E-03 0. -1.
         11   -1    0    0    0    0 -0.00000000000E+00 -0.00000000000E+00 -0.45593999997E+02  0.45594000000E+02  0.51100000000E-03 0.  1.
    9900012    2    1    2    0    0 -0.31281441421E+02 -0.20857050739E+02  0.21681301590E+02  0.47787262891E+02  0.19999962827E+02 0.  0.
        -12    1    1    2    0    0  0.31281441421E+02  0.20857050739E+02 -0.21681301590E+02  0.43400737109E+02  0.00000000000E+00 0.  1.
         11    1    3    3    0    0 -0.83065581078E+01  0.80947714932E+00  0.64442799249E+01  0.10544330461E+02  0.51100000000E-03 0. -1.
        -11    1    3    3    0    0 -0.74562609515E+01 -0.18002208366E+00  0.28187337861E+01  0.79732989249E+01  0.51100000000E-03 0.  1.
         12    1    3    3    0    0 -0.15518622362E+02 -0.21486505805E+02  0.12418287879E+02  0.29269633506E+02  0.00000000000E+00 0. -1.
</event>
<event>
 7    1  0.6622189E-010  0.4778727E+02  0.7816164E-02  0.1312668E+00
        -11   -1    0    0    0    0  0.00000000000E+00  0.00000000000E+00  0.45593999997E+02  0.45594000000E+02  0.51100000000E-03 0. -1.
         11   -1    0    0    0    0 -0.00000000000E+00 -0.00000000000E+00 -0.45593999997E+02  0.45594000000E+02  0.51100000000E-03 0.  1.
    9900012    2    1    2    0    0 -0.15774776207E+02  0.40083517848E+02 -0.53001316747E+01  0.47787270015E+02  0.19999995307E+02 0.  0.
        -12    1    1    2    0    0  0.15774776207E+02 -0.40083517848E+02  0.53001316747E+01  0.43400729985E+02  0.00000000000E+00 0.  1.
         11    1    3    3    0    0 -0.12482971926E+02  0.21800481678E+02  0.88761317389E-01  0.25121573763E+02  0.51100000000E-03 0. -1.
        -11    1    3    3    0    0  0.29856497035E+01  0.22787304001E+01 -0.38928194134E+01  0.54093215503E+01  0.51100000000E-03 0.  1.
        -12    1    3    3    0    0 -0.62774539850E+01  0.16004305769E+02 -0.14960735787E+01  0.17256374702E+02  0.00000000000E+00 0.  1.
</event>
<event>
 7    1  0.6622189E-010  0.4778727E+02  0.7816164E-02  0.1312668E+00
        -11   -1    0    0    0    0  0.00000000000E+00  0.00000000000E+00  0.45593999997E+02  0.45594000000E+02  0.51100000000E-03 0.  1.
         11   -1    0    0    0    0 -0.00000000000E+00 -0.00000000000E+00 -0.45593999997E+02  0.45594000000E+02  0.51100000000E-03 0. -1.
    9900012    2    1    2    0    0 -0.41661611173E+02  0.10858691539E+02 -0.54792384719E+01  0.47787273259E+02  0.20000010096E+02 0.  0.
         12    1    1    2    0    0  0.41661611173E+02 -0.10858691539E+02  0.54792384719E+01  0.43400726741E+02  0.00000000000E+00 0. -1.
         11    1    3    3    0    0 -0.28294188727E+02  0.15652983819E+01 -0.32925873750E+01  0.28528098545E+02  0.51100000000E-03 0.  1.
        -11    1    3    3    0    0  0.16752013072E+01  0.78345958787E+00 -0.30096842095E+00  0.18736836972E+01  0.51100000000E-03 0. -1.
        -12    1    3    3    0    0 -0.15042623753E+02  0.85099335689E+01 -0.18856826759E+01  0.17385491016E+02  0.00000000000E+00 0.  1.
</event>
<event>
 7    1  0.6622189E-010  0.4778727E+02  0.7816164E-02  0.1312668E+00
        -11   -1    0    0    0    0  0.00000000000E+00  0.00000000000E+00  0.45593999997E+02  0.45594000000E+02  0.51100000000E-03 0. -1.
         11   -1    0    0    0    0 -0.00000000000E+00 -0.00000000000E+00 -0.45593999997E+02  0.45594000000E+02  0.51100000000E-03 0.  1.
    9900012    2    1    2    0    0  0.45003325462E-01  0.10086481945E+02  0.42212366519E+02  0.47787273848E+02  0.20000012784E+02 0.  0.
        -12    1    1    2    0    0 -0.45003325462E-01 -0.10086481945E+02 -0.42212366519E+02  0.43400726152E+02  0.00000000000E+00 0.  1.
         11    1    3    3    0    0 -0.15227765128E+01  0.12047862942E+02  0.33857085261E+02  0.35969043251E+02  0.51100000000E-03 0. -1.
        -11    1    3    3    0    0 -0.26887871822E+01 -0.10394129843E+01  0.63136699351E+00  0.29510303971E+01  0.51100000000E-03 0.  1.
        -12    1    3    3    0    0  0.42565670204E+01 -0.92196801213E+00  0.77239142648E+01  0.88672001999E+01  0.00000000000E+00 0.  1.
</event>
<event>
 7    1  0.6622189E-010  0.4778727E+02  0.7816164E-02  0.1312668E+00
        -11   -1    0    0    0    0  0.00000000000E+00  0.00000000000E+00  0.45593999997E+02  0.45594000000E+02  0.51100000000E-03 0. -1.
         11   -1    0    0    0    0 -0.00000000000E+00 -0.00000000000E+00 -0.45593999997E+02  0.45594000000E+02  0.51100000000E-03 0.  1.
    9900012    2    1    2    0    0  0.33988966936E+01  0.10977563125E+02  0.41851692690E+02  0.47787267611E+02  0.19999984345E+02 0.  0.
        -12    1    1    2    0    0 -0.33988966936E+01 -0.10977563125E+02 -0.41851692690E+02  0.43400732389E+02  0.00000000000E+00 0.  1.
         11    1    3    3    0    0  0.26753796709E+01 -0.13058561515E+01  0.24626422421E+02  0.24805717046E+02  0.51100000000E-03 0. -1.
        -11    1    3    3    0    0 -0.65476513254E+00  0.42637863707E+00  0.76200876185E+01  0.76600425388E+01  0.51100000000E-03 0.  1.
         12    1    3    3    0    0  0.13782821552E+01  0.11857040640E+02  0.96051826504E+01  0.15321508026E+02  0.00000000000E+00 0. -1.
</event>
<event>
 7    1  0.6622189E-010  0.4778728E+02  0.7816164E-02  0.1312668E+00
        -11   -1    0    0    0    0  0.00000000000E+00  0.00000000000E+00  0.45593999997E+02  0.45594000000E+02  0.51100000000E-03 0. -1.
         11   -1    0    0    0    0 -0.00000000000E+00 -0.00000000000E+00 -0.45593999997E+02  0.45594000000E+02  0.51100000000E-03 0.  1.
    9900012    2    1    2    0    0 -0.30140771483E+02 -0.29738546218E+01 -0.31085572234E+02  0.47787277448E+02  0.20000029196E+02 0.  0.
         12    1    1    2    0    0  0.30140771483E+02  0.29738546218E+01  0.31085572234E+02  0.43400722552E+02  0.00000000000E+00 0. -1.
         11    1    3    3    0    0  0.61302246404E+00 -0.47878717109E+01 -0.34209858999E+01  0.59163043237E+01  0.51100000000E-03 0. -1.
        -11    1    3    3    0    0 -0.28947436659E+02  0.46041728957E+00 -0.26807735384E+02  0.39456567893E+02  0.51100000000E-03 0.  1.
        -12    1    3    3    0    0 -0.18063572879E+01  0.13535997996E+01 -0.85685095027E+00  0.24144052311E+01  0.00000000000E+00 0.  1.
</event>
<event>
 7    1  0.6622189E-010  0.4778727E+02  0.7816164E-02  0.1312668E+00
        -11   -1    0    0    0    0  0.00000000000E+00  0.00000000000E+00  0.45593999997E+02  0.45594000000E+02  0.51100000000E-03 0. -1.
         11   -1    0    0    0    0 -0.00000000000E+00 -0.00000000000E+00 -0.45593999997E+02  0.45594000000E+02  0.51100000000E-03 0.  1.
    9900012    2    1    2    0    0 -0.21504026277E+02 -0.25467280291E+02 -0.27796000990E+02  0.47787272096E+02  0.20000004794E+02 0.  0.
         12    1    1    2    0    0  0.21504026277E+02  0.25467280291E+02  0.27796000990E+02  0.43400727904E+02  0.00000000000E+00 0. -1.
         11    1    3    3    0    0 -0.20186906027E+02 -0.13393904091E+02 -0.13107157171E+02  0.27544607659E+02  0.51100000000E-03 0. -1.
        -11    1    3    3    0    0  0.17883125476E+01 -0.83997792292E+01 -0.65983628916E+01  0.10830177560E+02  0.51100000000E-03 0.  1.
         12    1    3    3    0    0 -0.31054327979E+01 -0.36735969710E+01 -0.80904809272E+01  0.94124868765E+01  0.00000000000E+00 0. -1.
</event>
<event>
 7    1  0.6622189E-010  0.4778731E+02  0.7816164E-02  0.1312668E+00
        -11   -1    0    0    0    0  0.00000000000E+00  0.00000000000E+00  0.45593999997E+02  0.45594000000E+02  0.51100000000E-03 0. -1.
         11   -1    0    0    0    0 -0.00000000000E+00 -0.00000000000E+00 -0.45593999997E+02  0.45594000000E+02  0.51100000000E-03 0.  1.
    9900012    2    1    2    0    0 -0.24225639464E+02 -0.11411416572E+02 -0.34154325598E+02  0.47787308846E+02  0.20000172351E+02 0.  0.
         12    1    1    2    0    0  0.24225639464E+02  0.11411416572E+02  0.34154325598E+02  0.43400691154E+02  0.00000000000E+00 0. -1.
         11    1    3    3    0    0 -0.12301418429E+02  0.30917514797E+01 -0.78787873925E+01  0.14931815483E+02  0.51100000000E-03 0. -1.
        -11    1    3    3    0    0 -0.15780035890E+01 -0.28082260312E+00 -0.50061297184E+01  0.52564523854E+01  0.51100000000E-03 0.  1.
         12    1    3    3    0    0 -0.10346217446E+02 -0.14222345448E+02 -0.21269408487E+02  0.27599040978E+02  0.00000000000E+00 0. -1.
</event>
<event>
 7    1  0.6622189E-010  0.4778727E+02  0.7816164E-02  0.1312668E+00
        -11   -1    0    0    0    0  0.00000000000E+00  0.00000000000E+00  0.45593999997E+02  0.45594000000E+02  0.51100000000E-03 0. -1.
         11   -1    0    0    0    0 -0.00000000000E+00 -0.00000000000E+00 -0.45593999997E+02  0.45594000000E+02  0.51100000000E-03 0.  1.
    9900012    2    1    2    0    0 -0.73515619668E+01 -0.21345040913E+02  0.37067061013E+02  0.47787271353E+02  0.20000001407E+02 0.  0.
        -12    1    1    2    0    0  0.73515619668E+01  0.21345040913E+02 -0.37067061013E+02  0.43400728647E+02  0.00000000000E+00 0.  1.
         11    1    3    3    0    0  0.56820558275E+01 -0.16764926165E+01  0.10989666849E+02  0.12484757252E+02  0.51100000000E-03 0. -1.
        -11    1    3    3    0    0 -0.87863913321E+01 -0.12885725921E+02  0.15018872093E+02  0.21652000470E+02  0.51100000000E-03 0.  1.
         12    1    3    3    0    0 -0.42472264622E+01 -0.67828223760E+01  0.11058522071E+02  0.13650513631E+02  0.00000000000E+00 0. -1.
</event>
<event>
 7    1  0.6622189E-010  0.4778727E+02  0.7816164E-02  0.1312668E+00
        -11   -1    0    0    0    0  0.00000000000E+00  0.00000000000E+00  0.45593999997E+02  0.45594000000E+02  0.51100000000E-03 0. -1.
         11   -1    0    0    0    0 -0.00000000000E+00 -0.00000000000E+00 -0.45593999997E+02  0.45594000000E+02  0.51100000000E-03 0.  1.
    9900012    2    1    2    0    0 -0.60011921793E+00  0.11686258358E+02  0.41793474492E+02  0.47787270886E+02  0.19999999280E+02 0.  0.
        -12    1    1    2    0    0  0.60011921793E+00 -0.11686258358E+02 -0.41793474492E+02  0.43400729114E+02  0.00000000000E+00 0.  1.
         11    1    3    3    0    0 -0.32503711901E+01  0.81085349320E+01  0.16577121008E+02  0.18738041327E+02  0.51100000000E-03 0. -1.
        -11    1    3    3    0    0  0.61918924111E+01  0.29655928066E+01  0.24421591513E+02  0.25368255845E+02  0.51100000000E-03 0.  1.
        -12    1    3    3    0    0 -0.35416404390E+01  0.61213061982E+00  0.79476197108E+00  0.36809737143E+01  0.00000000000E+00 0.  1.
</event>
<event>
 7    1  0.6622189E-010  0.4778727E+02  0.7816164E-02  0.1312668E+00
        -11   -1    0    0    0    0  0.00000000000E+00  0.00000000000E+00  0.45593999997E+02  0.45594000000E+02  0.51100000000E-03 0. -1.
         11   -1    0    0    0    0 -0.00000000000E+00 -0.00000000000E+00 -0.45593999997E+02  0.45594000000E+02  0.51100000000E-03 0.  1.
    9900012    2    1    2    0    0 -0.13239470342E+02  0.77643553101E+01  0.40596238527E+02  0.47787269927E+02  0.19999994904E+02 0.  0.
        -12    1    1    2    0    0  0.13239470342E+02 -0.77643553101E+01 -0.40596238527E+02  0.43400730073E+02  0.00000000000E+00 0.  1.
         11    1    3    3    0    0  0.77717888328E+00  0.26056261924E+01  0.65308907984E+01  0.70743077225E+01  0.51100000000E-03 0. -1.
        -11    1    3    3    0    0 -0.50443189828E+01 -0.63822532288E-01  0.28481769223E+02  0.28925082639E+02  0.51100000000E-03 0.  1.
        -12    1    3    3    0    0 -0.89723302424E+01  0.52225516500E+01  0.55835785059E+01  0.11787879565E+02  0.00000000000E+00 0.  1.
</event>
<event>
 7    1  0.6622189E-010  0.4778728E+02  0.7816164E-02  0.1312668E+00
        -11   -1    0    0    0    0  0.00000000000E+00  0.00000000000E+00  0.45593999997E+02  0.45594000000E+02  0.51100000000E-03 0. -1.
         11   -1    0    0    0    0 -0.00000000000E+00 -0.00000000000E+00 -0.45593999997E+02  0.45594000000E+02  0.51100000000E-03 0.  1.
    9900012    2    1    2    0    0  0.29651594725E+02 -0.21892108467E+02  0.22915964075E+02  0.47787275439E+02  0.20000020037E+02 0.  0.
        -12    1    1    2    0    0 -0.29651594725E+02  0.21892108467E+02 -0.22915964075E+02  0.43400724561E+02  0.00000000000E+00 0.  1.
         11    1    3    3    0    0  0.76460351250E+01 -0.34883312034E+01  0.64223966254E+01  0.10577215437E+02  0.51100000000E-03 0. -1.
        -11    1    3    3    0    0  0.10573311110E+02 -0.19169426578E+02  0.11132564174E+02  0.24560044961E+02  0.51100000000E-03 0.  1.
        -12    1    3    3    0    0  0.11432248491E+02  0.76564931366E+00  0.53610032760E+01  0.12650015041E+02  0.00000000000E+00 0.  1.
</event>
<event>
 7    1  0.6622189E-010  0.4778726E+02  0.7816164E-02  0.1312668E+00
        -11   -1    0    0    0    0  0.00000000000E+00  0.00000000000E+00  0.45593999997E+02  0.45594000000E+02  0.51100000000E-03 0. -1.
         11   -1    0    0    0    0 -0.00000000000E+00 -0.00000000000E+00 -0.45593999997E+02  0.45594000000E+02  0.51100000000E-03 0.  1.
    9900012    2    1    2    0    0 -0.55973658336E+01 -0.26283987636E+02  0.34079983995E+02  0.47787264759E+02  0.19999971344E+02 0.  0.
        -12    1    1    2    0    0  0.55973658336E+01  0.26283987636E+02 -0.34079983995E+02  0.43400735241E+02  0.00000000000E+00 0.  1.
         11    1    3    3    0    0 -0.70625037524E+01 -0.13820306179E+02  0.10541675932E+02  0.18761843029E+02  0.51100000000E-03 0. -1.
        -11    1    3    3    0    0  0.32667512191E+00 -0.13145535607E+01  0.14674136254E+02  0.14736520714E+02  0.51100000000E-03 0.  1.
        -12    1    3    3    0    0  0.11384627969E+01 -0.11149127897E+02  0.88641718090E+01  0.14288901016E+02  0.00000000000E+00 0.  1.
</event>
<event>
 7    1  0.6622189E-010  0.4778727E+02  0.7816164E-02  0.1312668E+00
        -11   -1    0    0    0    0  0.00000000000E+00  0.00000000000E+00  0.45593999997E+02  0.45594000000E+02  0.51100000000E-03 0. -1.
         11   -1    0    0    0    0 -0.00000000000E+00 -0.00000000000E+00 -0.45593999997E+02  0.45594000000E+02  0.51100000000E-03 0.  1.
    9900012    2    1    2    0    0  0.63804633860E+01 -0.22641848973E+02  0.36472725429E+02  0.47787270304E+02  0.19999996625E+02 0.  0.
        -12    1    1    2    0    0 -0.63804633860E+01  0.22641848973E+02 -0.36472725429E+02  0.43400729696E+02  0.00000000000E+00 0.  1.
         11    1    3    3    0    0  0.25170739067E+01 -0.10837266513E+02  0.35359171027E+01  0.11674104529E+02  0.51100000000E-03 0. -1.
        -11    1    3    3    0    0  0.52726584820E+01 -0.35487333776E+01  0.16077128217E+02  0.17287813281E+02  0.51100000000E-03 0.  1.
         12    1    3    3    0    0 -0.14092690027E+01 -0.82558490818E+01  0.16859680109E+02  0.18825352495E+02  0.00000000000E+00 0. -1.
</event>
<event>
 7    1  0.6622189E-010  0.4778727E+02  0.7816164E-02  0.1312668E+00
        -11   -1    0    0    0    0  0.00000000000E+00  0.00000000000E+00  0.45593999997E+02  0.45594000000E+02  0.51100000000E-03 0. -1.
         11   -1    0    0    0    0 -0.00000000000E+00 -0.00000000000E+00 -0.45593999997E+02  0.45594000000E+02  0.51100000000E-03 0.  1.
    9900012    2    1    2    0    0 -0.19742008635E+02 -0.15452772124E+00 -0.38650385295E+02  0.47787273425E+02  0.20000010854E+02 0.  0.
         12    1    1    2    0    0  0.19742008635E+02  0.15452772124E+00  0.38650385295E+02  0.43400726575E+02  0.00000000000E+00 0. -1.
         11    1    3    3    0    0 -0.83368400182E+01 -0.64252360929E+01 -0.79525890550E+01  0.13192051898E+02  0.51100000000E-03 0. -1.
        -11    1    3    3    0    0 -0.57669512362E+01  0.61046627476E+01 -0.95924488679E+01  0.12749106218E+02  0.51100000000E-03 0.  1.
        -12    1    3    3    0    0 -0.56382173806E+01  0.16604562400E+00 -0.21105347372E+02  0.21846115309E+02  0.00000000000E+00 0.  1.
</event>
<event>
 7    1  0.6622189E-010  0.4778727E+02  0.7816164E-02  0.1312668E+00
        -11   -1    0    0    0    0  0.00000000000E+00  0.00000000000E+00  0.45593999997E+02  0.45594000000E+02  0.51100000000E-03 0. -1.
         11   -1    0    0    0    0 -0.00000000000E+00 -0.00000000000E+00 -0.45593999997E+02  0.45594000000E+02  0.51100000000E-03 0.  1.
    9900012    2    1    2    0    0  0.13600797130E+02  0.15625650427E+02 -0.38137651234E+02  0.47787273330E+02  0.20000010421E+02 0.  0.
         12    1    1    2    0    0 -0.13600797130E+02 -0.15625650427E+02  0.38137651234E+02  0.43400726670E+02  0.00000000000E+00 0. -1.
         11    1    3    3    0    0 -0.10573346666E+01 -0.23110049527E+01 -0.19434396121E+01  0.31993215336E+01  0.51100000000E-03 0. -1.
        -11    1    3    3    0    0  0.15068393406E+02  0.18693118120E+02 -0.36487600961E+02  0.43678761075E+02  0.51100000000E-03 0.  1.
        -12    1    3    3    0    0 -0.41026160902E+00 -0.75646273959E+00  0.29338933933E+00  0.90919072183E+00  0.00000000000E+00 0.  1.
</event>
<event>
 7    1  0.6622189E-010  0.4778727E+02  0.7816164E-02  0.1312668E+00
        -11   -1    0    0    0    0  0.00000000000E+00  0.00000000000E+00  0.45593999997E+02  0.45594000000E+02  0.51100000000E-03 0. -1.
         11   -1    0    0    0    0 -0.00000000000E+00 -0.00000000000E+00 -0.45593999997E+02  0.45594000000E+02  0.51100000000E-03 0.  1.
    9900012    2    1    2    0    0  0.23732645745E+02  0.53627719598E+01  0.35939193485E+02  0.47787269298E+02  0.19999992037E+02 0.  0.
        -12    1    1    2    0    0 -0.23732645745E+02 -0.53627719598E+01 -0.35939193485E+02  0.43400730702E+02  0.00000000000E+00 0.  1.
         11    1    3    3    0    0 -0.18497929836E+01 -0.32396835246E+01  0.59502335768E+01  0.70230024421E+01  0.51100000000E-03 0. -1.
        -11    1    3    3    0    0  0.13964420324E+02  0.17154284474E+01  0.14258759632E+02  0.20031474141E+02  0.51100000000E-03 0.  1.
         12    1    3    3    0    0  0.11618018404E+02  0.68870270370E+01  0.15730200276E+02  0.20732792715E+02  0.00000000000E+00 0. -1.
</event>
<event>
 7    1  0.6622189E-010  0.4778727E+02  0.7816164E-02  0.1312668E+00
        -11   -1    0    0    0    0  0.00000000000E+00  0.00000000000E+00  0.45593999997E+02  0.45594000000E+02  0.51100000000E-03 0. -1.
         11   -1    0    0    0    0 -0.00000000000E+00 -0.00000000000E+00 -0.45593999997E+02  0.45594000000E+02  0.51100000000E-03 0.  1.
    9900012    2    1    2    0    0 -0.33169067246E+02 -0.60332380102E+01 -0.27331965070E+02  0.47787270773E+02  0.19999998761E+02 0.  0.
         12    1    1    2    0    0  0.33169067246E+02  0.60332380102E+01  0.27331965070E+02  0.43400729227E+02  0.00000000000E+00 0. -1.
         11    1    3    3    0    0 -0.16307044512E+02  0.62498588337E+00 -0.65174845276E+01  0.17572362189E+02  0.51100000000E-03 0. -1.
        -11    1    3    3    0    0 -0.14689956603E+02 -0.99818737902E+01 -0.18373014929E+02  0.25553870689E+02  0.51100000000E-03 0.  1.
        -12    1    3    3    0    0 -0.21720661310E+01  0.33236498967E+01 -0.24414656138E+01  0.46610378948E+01  0.00000000000E+00 0.  1.
</event>
<event>
 7    1  0.6622189E-010  0.4778727E+02  0.7816164E-02  0.1312668E+00
        -11   -1    0    0    0    0  0.00000000000E+00  0.00000000000E+00  0.45593999997E+02  0.45594000000E+02  0.51100000000E-03 0. -1.
         11   -1    0    0    0    0 -0.00000000000E+00 -0.00000000000E+00 -0.45593999997E+02  0.45594000000E+02  0.51100000000E-03 0.  1.
    9900012    2    1    2    0    0 -0.15689987409E+02  0.15011444018E+02 -0.37577969681E+02  0.47787274640E+02  0.20000016393E+02 0.  0.
         12    1    1    2    0    0  0.15689987409E+02 -0.15011444018E+02  0.37577969681E+02  0.43400725360E+02  0.00000000000E+00 0. -1.
         11    1    3    3    0    0  0.16562462100E+01 -0.29045192635E+01 -0.94319909768E+01  0.10007089372E+02  0.51100000000E-03 0. -1.
        -11    1    3    3    0    0 -0.78235780641E+01  0.78148202447E+01 -0.98130380805E+01  0.14784299301E+02  0.51100000000E-03 0.  1.
         12    1    3    3    0    0 -0.95226555548E+01  0.10101143037E+02 -0.18332940624E+02  0.22995885967E+02  0.00000000000E+00 0. -1.
</event>
<event>
 7    1  0.6622189E-010  0.4778727E+02  0.7816164E-02  0.1312668E+00
        -11   -1    0    0    0    0  0.00000000000E+00  0.00000000000E+00  0.45593999997E+02  0.45594000000E+02  0.51100000000E-03 0. -1.
         11   -1    0    0    0    0 -0.00000000000E+00 -0.00000000000E+00 -0.45593999997E+02  0.45594000000E+02  0.51100000000E-03 0.  1.
    9900012    2    1    2    0    0  0.29606900114E+02  0.22541905838E+01 -0.31653963416E+02  0.47787270634E+02  0.19999998130E+02 0.  0.
         12    1    1    2    0    0 -0.29606900114E+02 -0.22541905838E+01  0.31653963416E+02  0.43400729366E+02  0.00000000000E+00 0. -1.
         11    1    3    3    0    0  0.35772702223E+01 -0.18854494590E+01 -0.18797733824E+01  0.44592970451E+01  0.51100000000E-03 0. -1.
        -11    1    3    3    0    0  0.12035757690E+02  0.38551434171E+01 -0.28089370092E+01  0.12946494557E+02  0.51100000000E-03 0.  1.
        -12    1    3    3    0    0  0.13993872202E+02  0.28449662574E+00 -0.26965253024E+02  0.30381479032E+02  0.00000000000E+00 0.  1.
</event>
<event>
 7    1  0.6622189E-010  0.4778727E+02  0.7816164E-02  0.1312668E+00
        -11   -1    0    0    0    0  0.00000000000E+00  0.00000000000E+00  0.45593999997E+02  0.45594000000E+02  0.51100000000E-03 0. -1.
         11   -1    0    0    0    0 -0.00000000000E+00 -0.00000000000E+00 -0.45593999997E+02  0.45594000000E+02  0.51100000000E-03 0.  1.
    9900012    2    1    2    0    0 -0.35150466862E+02  0.60771191532E+01 -0.24721178119E+02  0.47787270220E+02  0.19999996242E+02 0.  0.
         12    1    1    2    0    0  0.35150466862E+02 -0.60771191532E+01  0.24721178119E+02  0.43400729780E+02  0.00000000000E+00 0. -1.
         11    1    3    3    0    0 -0.10781350576E+02  0.49650154454E+01  0.99407232709E-01  0.11870079219E+02  0.51100000000E-03 0.  1.
        -11    1    3    3    0    0 -0.63584097666E+01  0.42544298263E+01 -0.65731074595E+01  0.10086391319E+02  0.51100000000E-03 0. -1.
         12    1    3    3    0    0 -0.18010706520E+02 -0.31423261185E+01 -0.18247477892E+02  0.25830799682E+02  0.00000000000E+00 0. -1.
</event>
<event>
 7    1  0.6622189E-010  0.4778727E+02  0.7816164E-02  0.1312668E+00
        -11   -1    0    0    0    0  0.00000000000E+00  0.00000000000E+00  0.45593999997E+02  0.45594000000E+02  0.51100000000E-03 0. -1.
         11   -1    0    0    0    0 -0.00000000000E+00 -0.00000000000E+00 -0.45593999997E+02  0.45594000000E+02  0.51100000000E-03 0.  1.
    9900012    2    1    2    0    0  0.12525638946E+02  0.24775086999E+02  0.33360557523E+02  0.47787269993E+02  0.19999995208E+02 0.  0.
        -12    1    1    2    0    0 -0.12525638946E+02 -0.24775086999E+02 -0.33360557523E+02  0.43400730007E+02  0.00000000000E+00 0.  1.
         11    1    3    3    0    0  0.20089397110E+01  0.19238887571E+02  0.28734850248E+02  0.34639027885E+02  0.51100000000E-03 0. -1.
        -11    1    3    3    0    0  0.84932877617E+01  0.52525436088E+01  0.27100107246E+01  0.10347430104E+02  0.51100000000E-03 0.  1.
         12    1    3    3    0    0  0.20234114731E+01  0.28365581979E+00  0.19156965505E+01  0.28008120050E+01  0.00000000000E+00 0. -1.
</event>
<event>
 7    1  0.6622189E-010  0.4778726E+02  0.7816164E-02  0.1312668E+00
        -11   -1    0    0    0    0  0.00000000000E+00  0.00000000000E+00  0.45593999997E+02  0.45594000000E+02  0.51100000000E-03 0.  1.
         11   -1    0    0    0    0 -0.00000000000E+00 -0.00000000000E+00 -0.45593999997E+02  0.45594000000E+02  0.51100000000E-03 0. -1.
    9900012    2    1    2    0    0 -0.36179702778E+02  0.79286034084E+01  0.22622790396E+02  0.47787259333E+02  0.19999946605E+02 0.  0.
        -12    1    1    2    0    0  0.36179702778E+02 -0.79286034084E+01 -0.22622790396E+02  0.43400740667E+02  0.00000000000E+00 0.  1.
         11    1    3    3    0    0 -0.16518047091E+02  0.78152921188E+01  0.14522704577E+02  0.23341671300E+02  0.51100000000E-03 0. -1.
        -11    1    3    3    0    0 -0.16619509633E+01 -0.32808018414E+01 -0.12446926164E+01  0.38826539503E+01  0.51100000000E-03 0.  1.
         12    1    3    3    0    0 -0.17999704724E+02  0.33941131311E+01  0.93447784359E+01  0.20562934083E+02  0.00000000000E+00 0. -1.
</event>
<event>
 7    1  0.6622189E-010  0.4778727E+02  0.7816164E-02  0.1312668E+00
        -11   -1    0    0    0    0  0.00000000000E+00  0.00000000000E+00  0.45593999997E+02  0.45594000000E+02  0.51100000000E-03 0. -1.
         11   -1    0    0    0    0 -0.00000000000E+00 -0.00000000000E+00 -0.45593999997E+02  0.45594000000E+02  0.51100000000E-03 0.  1.
    9900012    2    1    2    0    0  0.25521850885E+02  0.13187917928E+02  0.32532096027E+02  0.47787270470E+02  0.19999997380E+02 0.  0.
        -12    1    1    2    0    0 -0.25521850885E+02 -0.13187917928E+02 -0.32532096027E+02  0.43400729530E+02  0.00000000000E+00 0.  1.
         11    1    3    3    0    0  0.97569264600E+01 -0.63409612720E+00  0.24454469006E+01  0.10078685562E+02  0.51100000000E-03 0. -1.
        -11    1    3    3    0    0  0.14964858712E+02  0.14361251324E+02  0.24778973320E+02  0.32313929735E+02  0.51100000000E-03 0.  1.
        -12    1    3    3    0    0  0.80006571289E+00 -0.53923726895E+00  0.53076758058E+01  0.53946551731E+01  0.00000000000E+00 0.  1.
</event>
<event>
 7    1  0.6622189E-010  0.4778727E+02  0.7816164E-02  0.1312668E+00
        -11   -1    0    0    0    0  0.00000000000E+00  0.00000000000E+00  0.45593999997E+02  0.45594000000E+02  0.51100000000E-03 0. -1.
         11   -1    0    0    0    0 -0.00000000000E+00 -0.00000000000E+00 -0.45593999997E+02  0.45594000000E+02  0.51100000000E-03 0.  1.
    9900012    2    1    2    0    0  0.28013481843E+02 -0.63898600686E+01  0.32527498775E+02  0.47787266674E+02  0.19999980076E+02 0.  0.
        -12    1    1    2    0    0 -0.28013481843E+02  0.63898600686E+01 -0.32527498775E+02  0.43400733326E+02  0.00000000000E+00 0.  1.
         11    1    3    3    0    0  0.51117614045E+01 -0.61439077525E+01  0.86305699760E+01  0.11762841727E+02  0.51100000000E-03 0. -1.
        -11    1    3    3    0    0  0.84158264613E+01  0.24676008474E+00  0.41531843955E+00  0.84296806128E+01  0.51100000000E-03 0.  1.
        -12    1    3    3    0    0  0.14485893977E+02 -0.49271240078E+00  0.23481610359E+02  0.27594744334E+02  0.00000000000E+00 0.  1.
</event>
<event>
 7    1  0.6622189E-010  0.4778727E+02  0.7816164E-02  0.1312668E+00
        -11   -1    0    0    0    0  0.00000000000E+00  0.00000000000E+00  0.45593999997E+02  0.45594000000E+02  0.51100000000E-03 0. -1.
         11   -1    0    0    0    0 -0.00000000000E+00 -0.00000000000E+00 -0.45593999997E+02  0.45594000000E+02  0.51100000000E-03 0.  1.
    9900012    2    1    2    0    0  0.18686654104E+02 -0.14876725646E+02 -0.36236932145E+02  0.47787271218E+02  0.20000000792E+02 0.  0.
         12    1    1    2    0    0 -0.18686654104E+02  0.14876725646E+02  0.36236932145E+02  0.43400728782E+02  0.00000000000E+00 0. -1.
         11    1    3    3    0    0  0.70287831749E+01  0.11679497727E+01 -0.24293965200E+01  0.75279391140E+01  0.51100000000E-03 0. -1.
        -11    1    3    3    0    0  0.11484276673E+02 -0.86542615712E+01 -0.20579146501E+02  0.25105499896E+02  0.51100000000E-03 0.  1.
         12    1    3    3    0    0  0.17359425609E+00 -0.73904138476E+01 -0.13228389123E+02  0.15153832208E+02  0.00000000000E+00 0. -1.
</event>
<event>
 7    1  0.6622189E-010  0.4778727E+02  0.7816164E-02  0.1312668E+00
        -11   -1    0    0    0    0  0.00000000000E+00  0.00000000000E+00  0.45593999997E+02  0.45594000000E+02  0.51100000000E-03 0. -1.
         11   -1    0    0    0    0 -0.00000000000E+00 -0.00000000000E+00 -0.45593999997E+02  0.45594000000E+02  0.51100000000E-03 0.  1.
    9900012    2    1    2    0    0  0.12013565087E+02 -0.61224529636E+01  0.41253036073E+02  0.47787272338E+02  0.20000005898E+02 0.  0.
        -12    1    1    2    0    0 -0.12013565087E+02  0.61224529636E+01 -0.41253036073E+02  0.43400727662E+02  0.00000000000E+00 0.  1.
         11    1    3    3    0    0  0.12203879041E+02 -0.10254451523E+02  0.27928347012E+02  0.32157129952E+02  0.51100000000E-03 0. -1.
        -11    1    3    3    0    0 -0.28182525191E+01  0.24865228797E+01  0.11345269725E+02  0.11951589379E+02  0.51100000000E-03 0.  1.
         12    1    3    3    0    0  0.26279385652E+01  0.16454756799E+01  0.19794193357E+01  0.36785530066E+01  0.00000000000E+00 0. -1.
</event>
<event>
 7    1  0.6622189E-010  0.4778727E+02  0.7816164E-02  0.1312668E+00
        -11   -1    0    0    0    0  0.00000000000E+00  0.00000000000E+00  0.45593999997E+02  0.45594000000E+02  0.51100000000E-03 0. -1.
         11   -1    0    0    0    0 -0.00000000000E+00 -0.00000000000E+00 -0.45593999997E+02  0.45594000000E+02  0.51100000000E-03 0.  1.
    9900012    2    1    2    0    0 -0.17336594166E+02  0.15008639935E+01 -0.39759444383E+02  0.47787268351E+02  0.19999987721E+02 0.  0.
         12    1    1    2    0    0  0.17336594166E+02 -0.15008639935E+01  0.39759444383E+02  0.43400731649E+02  0.00000000000E+00 0. -1.
         11    1    3    3    0    0 -0.18459097981E+01 -0.19892713842E+01 -0.22975848589E+02  0.23135561421E+02  0.51100000000E-03 0. -1.
        -11    1    3    3    0    0 -0.40735427776E+01  0.15037023536E+01 -0.10651021773E+00  0.43435257817E+01  0.51100000000E-03 0.  1.
         12    1    3    3    0    0 -0.11417141590E+02  0.19864330241E+01 -0.16677085576E+02  0.20308181148E+02  0.00000000000E+00 0. -1.
</event>
<event>
 7    1  0.6622189E-010  0.4778727E+02  0.7816164E-02  0.1312668E+00
        -11   -1    0    0    0    0  0.00000000000E+00  0.00000000000E+00  0.45593999997E+02  0.45594000000E+02  0.51100000000E-03 0.  1.
         11   -1    0    0    0    0 -0.00000000000E+00 -0.00000000000E+00 -0.45593999997E+02  0.45594000000E+02  0.51100000000E-03 0. -1.
    9900012    2    1    2    0    0 -0.21995941428E+01 -0.42120832957E+02 -0.10228417369E+02  0.47787270683E+02  0.19999998353E+02 0.  0.
         12    1    1    2    0    0  0.21995941428E+01  0.42120832957E+02  0.10228417369E+02  0.43400729317E+02  0.00000000000E+00 0. -1.
         11    1    3    3    0    0 -0.11803544756E+01 -0.80990282142E+01  0.57515777421E+01  0.10003406494E+02  0.51100000000E-03 0. -1.
        -11    1    3    3    0    0 -0.22670205207E+01 -0.25131972936E+02 -0.12444575148E+02  0.28135793868E+02  0.51100000000E-03 0.  1.
         12    1    3    3    0    0  0.12477808535E+01 -0.88898318065E+01 -0.35354199628E+01  0.96480703211E+01  0.00000000000E+00 0. -1.
</event>
<event>
 7    1  0.6622189E-010  0.4778726E+02  0.7816164E-02  0.1312668E+00
        -11   -1    0    0    0    0  0.00000000000E+00  0.00000000000E+00  0.45593999997E+02  0.45594000000E+02  0.51100000000E-03 0. -1.
         11   -1    0    0    0    0 -0.00000000000E+00 -0.00000000000E+00 -0.45593999997E+02  0.45594000000E+02  0.51100000000E-03 0.  1.
    9900012    2    1    2    0    0  0.58161318942E+01 -0.10100281907E+02  0.41806475620E+02  0.47787257051E+02  0.19999936197E+02 0.  0.
        -12    1    1    2    0    0 -0.58161318942E+01  0.10100281907E+02 -0.41806475620E+02  0.43400742949E+02  0.00000000000E+00 0.  1.
         11    1    3    3    0    0  0.85653234897E+01 -0.13847453893E+02  0.21970945125E+02  0.27346648345E+02  0.51100000000E-03 0. -1.
        -11    1    3    3    0    0 -0.25434779467E+01  0.21717111771E+01  0.13791543022E+02  0.14191274385E+02  0.51100000000E-03 0.  1.
         12    1    3    3    0    0 -0.20571364876E+00  0.15754608087E+01  0.60439874733E+01  0.62493343200E+01  0.00000000000E+00 0. -1.
</event>
<event>
 7    1  0.6622189E-010  0.4778727E+02  0.7816164E-02  0.1312668E+00
        -11   -1    0    0    0    0  0.00000000000E+00  0.00000000000E+00  0.45593999997E+02  0.45594000000E+02  0.51100000000E-03 0.  1.
         11   -1    0    0    0    0 -0.00000000000E+00 -0.00000000000E+00 -0.45593999997E+02  0.45594000000E+02  0.51100000000E-03 0. -1.
    9900012    2    1    2    0    0 -0.41357205906E+02  0.69697160168E+01  0.11163693988E+02  0.47787268610E+02  0.19999988901E+02 0.  0.
        -12    1    1    2    0    0  0.41357205906E+02 -0.69697160168E+01 -0.11163693988E+02  0.43400731390E+02  0.00000000000E+00 0.  1.
         11    1    3    3    0    0 -0.43822374494E+01  0.10884178567E+01  0.56883459980E+00  0.45510692762E+01  0.51100000000E-03 0. -1.
        -11    1    3    3    0    0 -0.34549700950E+02  0.66055814679E+01  0.14932720853E+02  0.38213893999E+02  0.51100000000E-03 0.  1.
        -12    1    3    3    0    0 -0.24252675069E+01 -0.72428330789E+00 -0.43378614644E+01  0.50223053347E+01  0.00000000000E+00 0.  1.
</event>
<event>
 7    1  0.6622189E-010  0.4778727E+02  0.7816164E-02  0.1312668E+00
        -11   -1    0    0    0    0  0.00000000000E+00  0.00000000000E+00  0.45593999997E+02  0.45594000000E+02  0.51100000000E-03 0. -1.
         11   -1    0    0    0    0 -0.00000000000E+00 -0.00000000000E+00 -0.45593999997E+02  0.45594000000E+02  0.51100000000E-03 0.  1.
    9900012    2    1    2    0    0  0.19635713538E+02  0.25597383728E+02 -0.29031632571E+02  0.47787274319E+02  0.20000014931E+02 0.  0.
         12    1    1    2    0    0 -0.19635713538E+02 -0.25597383728E+02  0.29031632571E+02  0.43400725681E+02  0.00000000000E+00 0. -1.
         11    1    3    3    0    0  0.10512303361E+01  0.65526570816E+01 -0.60403289846E+01  0.89737380478E+01  0.51100000000E-03 0. -1.
        -11    1    3    3    0    0 -0.11942591846E+01  0.60753230683E+01 -0.56062732621E+00  0.62169211548E+01  0.51100000000E-03 0.  1.
        -12    1    3    3    0    0  0.19778742386E+02  0.12969403578E+02 -0.22430676261E+02  0.32596615117E+02  0.00000000000E+00 0.  1.
</event>
<event>
 7    1  0.6622189E-010  0.4778727E+02  0.7816164E-02  0.1312668E+00
        -11   -1    0    0    0    0  0.00000000000E+00  0.00000000000E+00  0.45593999997E+02  0.45594000000E+02  0.51100000000E-03 0. -1.
         11   -1    0    0    0    0 -0.00000000000E+00 -0.00000000000E+00 -0.45593999997E+02  0.45594000000E+02  0.51100000000E-03 0.  1.
    9900012    2    1    2    0    0  0.38204797784E+02  0.28895246069E+01  0.20387921920E+02  0.47787270900E+02  0.19999999343E+02 0.  0.
        -12    1    1    2    0    0 -0.38204797784E+02 -0.28895246069E+01 -0.20387921920E+02  0.43400729100E+02  0.00000000000E+00 0.  1.
         11    1    3    3    0    0  0.17627719030E+02 -0.38819187219E+01  0.51279989206E+01  0.18764384998E+02  0.51100000000E-03 0. -1.
        -11    1    3    3    0    0  0.87980533654E+01  0.77691520888E+01  0.11942951200E+02  0.16745135139E+02  0.51100000000E-03 0.  1.
        -12    1    3    3    0    0  0.11779025389E+02 -0.99770876003E+00  0.33169717987E+01  0.12277750763E+02  0.00000000000E+00 0.  1.
</event>
<event>
 7    1  0.6622189E-010  0.4778726E+02  0.7816164E-02  0.1312668E+00
        -11   -1    0    0    0    0  0.00000000000E+00  0.00000000000E+00  0.45593999997E+02  0.45594000000E+02  0.51100000000E-03 0.  1.
         11   -1    0    0    0    0 -0.00000000000E+00 -0.00000000000E+00 -0.45593999997E+02  0.45594000000E+02  0.51100000000E-03 0. -1.
    9900012    2    1    2    0    0 -0.27240661873E+02 -0.18545022181E+02 -0.28242738953E+02  0.47787264862E+02  0.19999971811E+02 0.  0.
         12    1    1    2    0    0  0.27240661873E+02  0.18545022181E+02  0.28242738953E+02  0.43400735138E+02  0.00000000000E+00 0. -1.
         11    1    3    3    0    0 -0.14978541986E+01  0.39391030964E+00  0.19995581384E+01  0.25292223197E+01  0.51100000000E-03 0. -1.
        -11    1    3    3    0    0 -0.25095233468E+02 -0.16663180582E+02 -0.23787654483E+02  0.38383392710E+02  0.51100000000E-03 0.  1.
         12    1    3    3    0    0 -0.64757420652E+00 -0.22757519089E+01 -0.64546426087E+01  0.68746498318E+01  0.00000000000E+00 0. -1.
</event>
<event>
 7    1  0.6622189E-010  0.4778726E+02  0.7816164E-02  0.1312668E+00
        -11   -1    0    0    0    0  0.00000000000E+00  0.00000000000E+00  0.45593999997E+02  0.45594000000E+02  0.51100000000E-03 0.  1.
         11   -1    0    0    0    0 -0.00000000000E+00 -0.00000000000E+00 -0.45593999997E+02  0.45594000000E+02  0.51100000000E-03 0. -1.
    9900012    2    1    2    0    0 -0.34509229442E+02 -0.13287368525E+02  0.22719658177E+02  0.47787263293E+02  0.19999964660E+02 0.  0.
        -12    1    1    2    0    0  0.34509229442E+02  0.13287368525E+02 -0.22719658177E+02  0.43400736707E+02  0.00000000000E+00 0.  1.
         11    1    3    3    0    0 -0.74092134042E+01 -0.47245318742E+01 -0.20893781434E+01  0.90323388990E+01  0.51100000000E-03 0. -1.
        -11    1    3    3    0    0 -0.17238372217E+02 -0.21292897159E+01  0.18578762593E+02  0.25433556007E+02  0.51100000000E-03 0.  1.
         12    1    3    3    0    0 -0.98616438203E+01 -0.64335469346E+01  0.62302737278E+01  0.13321368388E+02  0.00000000000E+00 0. -1.
</event>
<event>
 7    1  0.6622189E-010  0.4778727E+02  0.7816164E-02  0.1312668E+00
        -11   -1    0    0    0    0  0.00000000000E+00  0.00000000000E+00  0.45593999997E+02  0.45594000000E+02  0.51100000000E-03 0. -1.
         11   -1    0    0    0    0 -0.00000000000E+00 -0.00000000000E+00 -0.45593999997E+02  0.45594000000E+02  0.51100000000E-03 0.  1.
    9900012    2    1    2    0    0  0.42709413851E+01  0.86267204825E+01  0.42319761289E+02  0.47787269106E+02  0.19999991162E+02 0.  0.
        -12    1    1    2    0    0 -0.42709413851E+01 -0.86267204825E+01 -0.42319761289E+02  0.43400730894E+02  0.00000000000E+00 0.  1.
         11    1    3    3    0    0 -0.21571221663E+01  0.70304246249E+01  0.18714752170E+02  0.20107759584E+02  0.51100000000E-03 0. -1.
        -11    1    3    3    0    0  0.93092197395E+01  0.43070822786E+01  0.14590939168E+02  0.17835583421E+02  0.51100000000E-03 0.  1.
        -12    1    3    3    0    0 -0.28811561880E+01 -0.27107864211E+01  0.90140699510E+01  0.98439261010E+01  0.00000000000E+00 0.  1.
</event>
<event>
 7    1  0.6622189E-010  0.4778727E+02  0.7816164E-02  0.1312668E+00
        -11   -1    0    0    0    0  0.00000000000E+00  0.00000000000E+00  0.45593999997E+02  0.45594000000E+02  0.51100000000E-03 0. -1.
         11   -1    0    0    0    0 -0.00000000000E+00 -0.00000000000E+00 -0.45593999997E+02  0.45594000000E+02  0.51100000000E-03 0.  1.
    9900012    2    1    2    0    0  0.55382366483E+01 -0.25939404010E+02  0.34352557743E+02  0.47787274556E+02  0.20000016012E+02 0.  0.
        -12    1    1    2    0    0 -0.55382366483E+01  0.25939404010E+02 -0.34352557743E+02  0.43400725444E+02  0.00000000000E+00 0.  1.
         11    1    3    3    0    0  0.28488636629E+01 -0.19284888792E+02  0.10284722503E+02  0.22040836579E+02  0.51100000000E-03 0. -1.
        -11    1    3    3    0    0 -0.30777085062E+00 -0.33394529428E+01  0.17394817482E+02  0.17715144491E+02  0.51100000000E-03 0.  1.
         12    1    3    3    0    0  0.29971438360E+01 -0.33150622754E+01  0.66730177574E+01  0.80312934858E+01  0.00000000000E+00 0. -1.
</event>
<event>
 7    1  0.6622189E-010  0.4778727E+02  0.7816164E-02  0.1312668E+00
        -11   -1    0    0    0    0  0.00000000000E+00  0.00000000000E+00  0.45593999997E+02  0.45594000000E+02  0.51100000000E-03 0. -1.
         11   -1    0    0    0    0 -0.00000000000E+00 -0.00000000000E+00 -0.45593999997E+02  0.45594000000E+02  0.51100000000E-03 0.  1.
    9900012    2    1    2    0    0  0.41544552231E+02  0.56899542102E+01  0.11193657059E+02  0.47787270083E+02  0.19999995615E+02 0.  0.
        -12    1    1    2    0    0 -0.41544552231E+02 -0.56899542102E+01 -0.11193657059E+02  0.43400729917E+02  0.00000000000E+00 0.  1.
         11    1    3    3    0    0  0.29900667084E+02  0.52805800521E+01  0.15626093912E+02  0.34148341526E+02  0.51100000000E-03 0. -1.
        -11    1    3    3    0    0  0.11804245496E+02 -0.39610796820E+00 -0.33435367131E+01  0.12275029583E+02  0.51100000000E-03 0.  1.
        -12    1    3    3    0    0 -0.16036034858E+00  0.80548212628E+00 -0.10889001399E+01  0.13638989742E+01  0.00000000000E+00 0.  1.
</event>
<event>
 7    1  0.6622189E-010  0.4778727E+02  0.7816164E-02  0.1312668E+00
        -11   -1    0    0    0    0  0.00000000000E+00  0.00000000000E+00  0.45593999997E+02  0.45594000000E+02  0.51100000000E-03 0. -1.
         11   -1    0    0    0    0 -0.00000000000E+00 -0.00000000000E+00 -0.45593999997E+02  0.45594000000E+02  0.51100000000E-03 0.  1.
    9900012    2    1    2    0    0 -0.59402275312E+01  0.27730679644E+02 -0.32853405962E+02  0.47787272126E+02  0.20000004933E+02 0.  0.
         12    1    1    2    0    0  0.59402275312E+01 -0.27730679644E+02  0.32853405962E+02  0.43400727874E+02  0.00000000000E+00 0. -1.
         11    1    3    3    0    0 -0.19185226350E+01  0.20168600209E+02 -0.14038312822E+02  0.24648070728E+02  0.51100000000E-03 0. -1.
        -11    1    3    3    0    0 -0.24061621077E+01 -0.95278181260E+00 -0.11531311413E+02  0.11818145051E+02  0.51100000000E-03 0.  1.
        -12    1    3    3    0    0 -0.16155427885E+01  0.85148612479E+01 -0.72837817275E+01  0.11321056348E+02  0.00000000000E+00 0.  1.
</event>
<event>
 7    1  0.6622189E-010  0.4778727E+02  0.7816164E-02  0.1312668E+00
        -11   -1    0    0    0    0  0.00000000000E+00  0.00000000000E+00  0.45593999997E+02  0.45594000000E+02  0.51100000000E-03 0. -1.
         11   -1    0    0    0    0 -0.00000000000E+00 -0.00000000000E+00 -0.45593999997E+02  0.45594000000E+02  0.51100000000E-03 0.  1.
    9900012    2    1    2    0    0 -0.31670971796E+02  0.83351906125E+01 -0.28479771294E+02  0.47787271550E+02  0.20000002306E+02 0.  0.
         12    1    1    2    0    0  0.31670971796E+02 -0.83351906125E+01  0.28479771294E+02  0.43400728450E+02  0.00000000000E+00 0. -1.
         11    1    3    3    0    0 -0.20527025949E+02  0.25715744438E+00 -0.14873245751E+02  0.25350312892E+02  0.51100000000E-03 0. -1.
        -11    1    3    3    0    0 -0.62783680291E+01  0.78250085423E+01 -0.25452701660E+01  0.10350220494E+02  0.51100000000E-03 0.  1.
        -12    1    3    3    0    0 -0.48655778175E+01  0.25302462585E+00 -0.11061255376E+02  0.12086738165E+02  0.00000000000E+00 0.  1.
</event>
<event>
 7    1  0.6622189E-010  0.4778727E+02  0.7816164E-02  0.1312668E+00
        -11   -1    0    0    0    0  0.00000000000E+00  0.00000000000E+00  0.45593999997E+02  0.45594000000E+02  0.51100000000E-03 0. -1.
         11   -1    0    0    0    0 -0.00000000000E+00 -0.00000000000E+00 -0.45593999997E+02  0.45594000000E+02  0.51100000000E-03 0.  1.
    9900012    2    1    2    0    0  0.24913793388E+02  0.19671354544E+01  0.35483185844E+02  0.47787271890E+02  0.20000003855E+02 0.  0.
        -12    1    1    2    0    0 -0.24913793388E+02 -0.19671354544E+01 -0.35483185844E+02  0.43400728110E+02  0.00000000000E+00 0.  1.
         11    1    3    3    0    0  0.23650729135E+02 -0.24019285997E+00  0.26450791909E+02  0.35483222431E+02  0.51100000000E-03 0. -1.
        -11    1    3    3    0    0 -0.21310117511E+01 -0.98519317850E-01  0.76997562068E+01  0.79898162085E+01  0.51100000000E-03 0.  1.
         12    1    3    3    0    0  0.33940760039E+01  0.23058476322E+01  0.13326377277E+01  0.43142332501E+01  0.00000000000E+00 0. -1.
</event>
<event>
 7    1  0.6622189E-010  0.4778727E+02  0.7816164E-02  0.1312668E+00
        -11   -1    0    0    0    0  0.00000000000E+00  0.00000000000E+00  0.45593999997E+02  0.45594000000E+02  0.51100000000E-03 0. -1.
         11   -1    0    0    0    0 -0.00000000000E+00 -0.00000000000E+00 -0.45593999997E+02  0.45594000000E+02  0.51100000000E-03 0.  1.
    9900012    2    1    2    0    0  0.76484451093E+01 -0.39060538856E+02 -0.17303148252E+02  0.47787270194E+02  0.19999996121E+02 0.  0.
         12    1    1    2    0    0 -0.76484451093E+01  0.39060538856E+02  0.17303148252E+02  0.43400729806E+02  0.00000000000E+00 0. -1.
         11    1    3    3    0    0  0.20228482633E+01 -0.86614395512E-03 -0.35679403692E+00  0.20540735363E+01  0.51100000000E-03 0. -1.
        -11    1    3    3    0    0 -0.19647443719E+01 -0.12639958742E+02  0.11178414654E+01  0.12840496378E+02  0.51100000000E-03 0.  1.
        -12    1    3    3    0    0  0.75903412179E+01 -0.26419713970E+02 -0.18064195681E+02  0.32892700279E+02  0.00000000000E+00 0.  1.
</event>
<event>
 7    1  0.6622189E-010  0.4778728E+02  0.7816164E-02  0.1312668E+00
        -11   -1    0    0    0    0  0.00000000000E+00  0.00000000000E+00  0.45593999997E+02  0.45594000000E+02  0.51100000000E-03 0.  1.
         11   -1    0    0    0    0 -0.00000000000E+00 -0.00000000000E+00 -0.45593999997E+02  0.45594000000E+02  0.51100000000E-03 0. -1.
    9900012    2    1    2    0    0 -0.23990710166E+00  0.35566422983E+02  0.24871565278E+02  0.47787276981E+02  0.20000027068E+02 0.  0.
        -12    1    1    2    0    0  0.23990710166E+00 -0.35566422983E+02 -0.24871565278E+02  0.43400723019E+02  0.00000000000E+00 0.  1.
         11    1    3    3    0    0  0.20156174691E+00  0.30904369415E+02  0.23099070694E+02  0.38583516471E+02  0.51100000000E-03 0. -1.
        -11    1    3    3    0    0 -0.23299031029E+01 -0.10152808561E+01 -0.83772244359E+00  0.26760087517E+01  0.51100000000E-03 0.  1.
        -12    1    3    3    0    0  0.18884342543E+01  0.56773344241E+01  0.26102170271E+01  0.65277517588E+01  0.00000000000E+00 0.  1.
</event>
<event>
 7    1  0.6622189E-010  0.4778727E+02  0.7816164E-02  0.1312668E+00
        -11   -1    0    0    0    0  0.00000000000E+00  0.00000000000E+00  0.45593999997E+02  0.45594000000E+02  0.51100000000E-03 0. -1.
         11   -1    0    0    0    0 -0.00000000000E+00 -0.00000000000E+00 -0.45593999997E+02  0.45594000000E+02  0.51100000000E-03 0.  1.
    9900012    2    1    2    0    0  0.29780323247E+02  0.18553031173E+02 -0.25544868852E+02  0.47787274855E+02  0.20000017376E+02 0.  0.
         12    1    1    2    0    0 -0.29780323247E+02 -0.18553031173E+02  0.25544868852E+02  0.43400725145E+02  0.00000000000E+00 0. -1.
         11    1    3    3    0    0  0.84089109320E-01 -0.77128955629E+00 -0.10253433959E+01  0.12858024337E+01  0.51100000000E-03 0. -1.
        -11    1    3    3    0    0  0.33646327991E+01  0.78687515253E+01  0.27550248193E+00  0.85623540173E+01  0.51100000000E-03 0.  1.
        -12    1    3    3    0    0  0.26331601339E+02  0.11455569204E+02 -0.24795027938E+02  0.37939118404E+02  0.00000000000E+00 0.  1.
</event>
<event>
 7    1  0.6622189E-010  0.4778727E+02  0.7816164E-02  0.1312668E+00
        -11   -1    0    0    0    0  0.00000000000E+00  0.00000000000E+00  0.45593999997E+02  0.45594000000E+02  0.51100000000E-03 0. -1.
         11   -1    0    0    0    0 -0.00000000000E+00 -0.00000000000E+00 -0.45593999997E+02  0.45594000000E+02  0.51100000000E-03 0.  1.
    9900012    2    1    2    0    0  0.38011199666E+02  0.14339699215E+02 -0.15269096845E+02  0.47787267379E+02  0.19999983287E+02 0.  0.
         12    1    1    2    0    0 -0.38011199666E+02 -0.14339699215E+02  0.15269096845E+02  0.43400732621E+02  0.00000000000E+00 0. -1.
         11    1    3    3    0    0 -0.13465818898E+01 -0.19083908557E+01  0.59557128853E-01  0.23364044506E+01  0.51100000000E-03 0. -1.
        -11    1    3    3    0    0  0.17489019806E+02  0.88263673423E+01 -0.86173204093E+01  0.21401607078E+02  0.51100000000E-03 0.  1.
         12    1    3    3    0    0  0.21868761750E+02  0.74217227284E+01 -0.67113335648E+01  0.24049255850E+02  0.00000000000E+00 0. -1.
</event>
<event>
 7    1  0.6622189E-010  0.4778727E+02  0.7816164E-02  0.1312668E+00
        -11   -1    0    0    0    0  0.00000000000E+00  0.00000000000E+00  0.45593999997E+02  0.45594000000E+02  0.51100000000E-03 0. -1.
         11   -1    0    0    0    0 -0.00000000000E+00 -0.00000000000E+00 -0.45593999997E+02  0.45594000000E+02  0.51100000000E-03 0.  1.
    9900012    2    1    2    0    0  0.18178815085E+02 -0.73686077484E+01  0.38715083995E+02  0.47787269283E+02  0.19999991969E+02 0.  0.
        -12    1    1    2    0    0 -0.18178815085E+02  0.73686077484E+01 -0.38715083995E+02  0.43400730717E+02  0.00000000000E+00 0.  1.
         11    1    3    3    0    0 -0.72149980640E+00 -0.26316062163E+01  0.84349740332E+00  0.28561164856E+01  0.51100000000E-03 0. -1.
        -11    1    3    3    0    0  0.15070140395E+02 -0.11818086875E+01  0.14374037339E+02  0.20859500305E+02  0.51100000000E-03 0.  1.
        -12    1    3    3    0    0  0.38301744960E+01 -0.35551928446E+01  0.23497549252E+02  0.24071652492E+02  0.00000000000E+00 0.  1.
</event>
<event>
 7    1  0.6622189E-010  0.4778727E+02  0.7816164E-02  0.1312668E+00
        -11   -1    0    0    0    0  0.00000000000E+00  0.00000000000E+00  0.45593999997E+02  0.45594000000E+02  0.51100000000E-03 0. -1.
         11   -1    0    0    0    0 -0.00000000000E+00 -0.00000000000E+00 -0.45593999997E+02  0.45594000000E+02  0.51100000000E-03 0.  1.
    9900012    2    1    2    0    0  0.47321646306E+01  0.25948364262E+02  0.34466100533E+02  0.47787273325E+02  0.20000010398E+02 0.  0.
        -12    1    1    2    0    0 -0.47321646306E+01 -0.25948364262E+02 -0.34466100533E+02  0.43400726675E+02  0.00000000000E+00 0.  1.
         11    1    3    3    0    0 -0.74261145337E+00  0.74881411772E+01  0.19413541365E+02  0.20820886596E+02  0.51100000000E-03 0. -1.
        -11    1    3    3    0    0  0.60336354502E+00  0.36704074868E+01 -0.17042555066E+01  0.40915065415E+01  0.51100000000E-03 0.  1.
        -12    1    3    3    0    0  0.48714125389E+01  0.14789815598E+02  0.16756814674E+02  0.22874880187E+02  0.00000000000E+00 0.  1.
</event>
<event>
 7    1  0.6622189E-010  0.4778727E+02  0.7816164E-02  0.1312668E+00
        -11   -1    0    0    0    0  0.00000000000E+00  0.00000000000E+00  0.45593999997E+02  0.45594000000E+02  0.51100000000E-03 0. -1.
         11   -1    0    0    0    0 -0.00000000000E+00 -0.00000000000E+00 -0.45593999997E+02  0.45594000000E+02  0.51100000000E-03 0.  1.
    9900012    2    1    2    0    0  0.17409913734E+02  0.20181842125E+02 -0.34252172261E+02  0.47787272444E+02  0.20000006383E+02 0.  0.
         12    1    1    2    0    0 -0.17409913734E+02 -0.20181842125E+02  0.34252172261E+02  0.43400727556E+02  0.00000000000E+00 0. -1.
         11    1    3    3    0    0 -0.23338755049E+01  0.30027521411E+01  0.19049845550E+00  0.38078583503E+01  0.51100000000E-03 0. -1.
        -11    1    3    3    0    0  0.73034513758E+01  0.34371419006E+01 -0.15501367940E+02  0.17477035067E+02  0.51100000000E-03 0.  1.
         12    1    3    3    0    0  0.12440337863E+02  0.13741948084E+02 -0.18941302776E+02  0.26502379028E+02  0.00000000000E+00 0. -1.
</event>
<event>
 7    1  0.6622189E-010  0.4778727E+02  0.7816164E-02  0.1312668E+00
        -11   -1    0    0    0    0  0.00000000000E+00  0.00000000000E+00  0.45593999997E+02  0.45594000000E+02  0.51100000000E-03 0. -1.
         11   -1    0    0    0    0 -0.00000000000E+00 -0.00000000000E+00 -0.45593999997E+02  0.45594000000E+02  0.51100000000E-03 0.  1.
    9900012    2    1    2    0    0 -0.63166407823E+01  0.30675531361E+02  0.30045552756E+02  0.47787269414E+02  0.19999992564E+02 0.  0.
        -12    1    1    2    0    0  0.63166407823E+01 -0.30675531361E+02 -0.30045552756E+02  0.43400730586E+02  0.00000000000E+00 0.  1.
         11    1    3    3    0    0 -0.52430290878E+01  0.21155490135E+02  0.12245732834E+02  0.25000041796E+02  0.51100000000E-03 0. -1.
        -11    1    3    3    0    0 -0.25455084380E+01  0.51615731054E+01  0.17213038500E+02  0.18149659633E+02  0.51100000000E-03 0.  1.
         12    1    3    3    0    0  0.14718967435E+01  0.43584681203E+01  0.58678142139E+00  0.46375679850E+01  0.00000000000E+00 0. -1.
</event>
<event>
 7    1  0.6622189E-010  0.4778727E+02  0.7816164E-02  0.1312668E+00
        -11   -1    0    0    0    0  0.00000000000E+00  0.00000000000E+00  0.45593999997E+02  0.45594000000E+02  0.51100000000E-03 0. -1.
         11   -1    0    0    0    0 -0.00000000000E+00 -0.00000000000E+00 -0.45593999997E+02  0.45594000000E+02  0.51100000000E-03 0.  1.
    9900012    2    1    2    0    0 -0.16018617081E+01 -0.30115614686E+02  0.31210690070E+02  0.47787269782E+02  0.19999994243E+02 0.  0.
        -12    1    1    2    0    0  0.16018617081E+01  0.30115614686E+02 -0.31210690070E+02  0.43400730218E+02  0.00000000000E+00 0.  1.
         11    1    3    3    0    0 -0.34489202164E+01 -0.56876308449E+01  0.20746006927E+01  0.69676512242E+01  0.51100000000E-03 0. -1.
        -11    1    3    3    0    0  0.83336560934E+01 -0.13779951691E+02  0.17113820537E+02  0.23499356292E+02  0.51100000000E-03 0.  1.
        -12    1    3    3    0    0 -0.64865975851E+01 -0.10648032150E+02  0.12022268840E+02  0.17320262266E+02  0.00000000000E+00 0.  1.
</event>
<event>
 7    1  0.6622189E-010  0.4778728E+02  0.7816164E-02  0.1312668E+00
        -11   -1    0    0    0    0  0.00000000000E+00  0.00000000000E+00  0.45593999997E+02  0.45594000000E+02  0.51100000000E-03 0. -1.
         11   -1    0    0    0    0 -0.00000000000E+00 -0.00000000000E+00 -0.45593999997E+02  0.45594000000E+02  0.51100000000E-03 0.  1.
    9900012    2    1    2    0    0 -0.12843761364E+02  0.22772203167E+02 -0.34642277517E+02  0.47787276105E+02  0.20000023073E+02 0.  0.
         12    1    1    2    0    0  0.12843761364E+02 -0.22772203167E+02  0.34642277517E+02  0.43400723895E+02  0.00000000000E+00 0. -1.
         11    1    3    3    0    0 -0.10388268596E+02  0.89330447300E+01 -0.25868660050E+02  0.29272905316E+02  0.51100000000E-03 0. -1.
        -11    1    3    3    0    0 -0.49816535544E+01  0.65433536761E+01 -0.64499363372E+01  0.10451508431E+02  0.51100000000E-03 0.  1.
         12    1    3    3    0    0  0.25261607859E+01  0.72958047606E+01 -0.23236811295E+01  0.80628623585E+01  0.00000000000E+00 0. -1.
</event>
<event>
 7    1  0.6622189E-010  0.4778727E+02  0.7816164E-02  0.1312668E+00
        -11   -1    0    0    0    0  0.00000000000E+00  0.00000000000E+00  0.45593999997E+02  0.45594000000E+02  0.51100000000E-03 0. -1.
         11   -1    0    0    0    0 -0.00000000000E+00 -0.00000000000E+00 -0.45593999997E+02  0.45594000000E+02  0.51100000000E-03 0.  1.
    9900012    2    1    2    0    0  0.25484309893E+02  0.24192279565E+02  0.25473648542E+02  0.47787271765E+02  0.20000003286E+02 0.  0.
        -12    1    1    2    0    0 -0.25484309893E+02 -0.24192279565E+02 -0.25473648542E+02  0.43400728235E+02  0.00000000000E+00 0.  1.
         11    1    3    3    0    0  0.17020061362E+02  0.90529320416E+01  0.31781983750E+01  0.19538142503E+02  0.51100000000E-03 0. -1.
        -11    1    3    3    0    0  0.56243834300E+01  0.10335303213E+02  0.15129768771E+02  0.19166692067E+02  0.51100000000E-03 0.  1.
         12    1    3    3    0    0  0.28398651019E+01  0.48040443104E+01  0.71656813960E+01  0.90824371951E+01  0.00000000000E+00 0. -1.
</event>
<event>
 7    1  0.6622189E-010  0.4778727E+02  0.7816164E-02  0.1312668E+00
        -11   -1    0    0    0    0  0.00000000000E+00  0.00000000000E+00  0.45593999997E+02  0.45594000000E+02  0.51100000000E-03 0. -1.
         11   -1    0    0    0    0 -0.00000000000E+00 -0.00000000000E+00 -0.45593999997E+02  0.45594000000E+02  0.51100000000E-03 0.  1.
    9900012    2    1    2    0    0  0.22443120575E+02  0.27837765945E+02 -0.24596511895E+02  0.47787271073E+02  0.20000000132E+02 0.  0.
         12    1    1    2    0    0 -0.22443120575E+02 -0.27837765945E+02  0.24596511895E+02  0.43400728927E+02  0.00000000000E+00 0. -1.
         11    1    3    3    0    0  0.18485104193E+02  0.20807920609E+02 -0.91999121532E+01  0.29313939022E+02  0.51100000000E-03 0. -1.
        -11    1    3    3    0    0 -0.11326684034E+01  0.19318389805E+01 -0.11702523029E+01  0.25267430166E+01  0.51100000000E-03 0.  1.
         12    1    3    3    0    0  0.50906847851E+01  0.50980063552E+01 -0.14226347439E+02  0.15946589035E+02  0.00000000000E+00 0. -1.
</event>
<event>
 7    1  0.6622189E-010  0.4778727E+02  0.7816164E-02  0.1312668E+00
        -11   -1    0    0    0    0  0.00000000000E+00  0.00000000000E+00  0.45593999997E+02  0.45594000000E+02  0.51100000000E-03 0. -1.
         11   -1    0    0    0    0 -0.00000000000E+00 -0.00000000000E+00 -0.45593999997E+02  0.45594000000E+02  0.51100000000E-03 0.  1.
    9900012    2    1    2    0    0  0.60790168685E+01 -0.20762952200E+02  0.37624042521E+02  0.47787271829E+02  0.20000003576E+02 0.  0.
        -12    1    1    2    0    0 -0.60790168685E+01  0.20762952200E+02 -0.37624042521E+02  0.43400728171E+02  0.00000000000E+00 0.  1.
         11    1    3    3    0    0  0.10897725284E+02 -0.54765746037E+01  0.10804471913E+02  0.16293860787E+02  0.51100000000E-03 0. -1.
        -11    1    3    3    0    0 -0.44614830111E+01 -0.86139529947E+01  0.13932578225E+02  0.16977094955E+02  0.51100000000E-03 0.  1.
         12    1    3    3    0    0 -0.35722540443E+00 -0.66724246016E+01  0.12886992384E+02  0.14516316087E+02  0.00000000000E+00 0. -1.
</event>
<event>
 7    1  0.6622189E-010  0.4778727E+02  0.7816164E-02  0.1312668E+00
        -11   -1    0    0    0    0  0.00000000000E+00  0.00000000000E+00  0.45593999997E+02  0.45594000000E+02  0.51100000000E-03 0. -1.
         11   -1    0    0    0    0 -0.00000000000E+00 -0.00000000000E+00 -0.45593999997E+02  0.45594000000E+02  0.51100000000E-03 0.  1.
    9900012    2    1    2    0    0 -0.38459376984E+01  0.42024860179E+02 -0.10136252873E+02  0.47787265765E+02  0.19999975929E+02 0.  0.
         12    1    1    2    0    0  0.38459376984E+01 -0.42024860179E+02  0.10136252873E+02  0.43400734235E+02  0.00000000000E+00 0. -1.
         11    1    3    3    0    0  0.52240289565E+00  0.57218458036E+00  0.12463614746E+01  0.14675548255E+01  0.51100000000E-03 0. -1.
        -11    1    3    3    0    0  0.17363428125E+01  0.18931114647E+02  0.24902651061E+01  0.19172986431E+02  0.51100000000E-03 0.  1.
        -12    1    3    3    0    0 -0.61046834066E+01  0.22521560951E+02 -0.13872879454E+02  0.27146724508E+02  0.00000000000E+00 0.  1.
</event>
<event>
 7    1  0.6622189E-010  0.4778728E+02  0.7816164E-02  0.1312668E+00
        -11   -1    0    0    0    0  0.00000000000E+00  0.00000000000E+00  0.45593999997E+02  0.45594000000E+02  0.51100000000E-03 0. -1.
         11   -1    0    0    0    0 -0.00000000000E+00 -0.00000000000E+00 -0.45593999997E+02  0.45594000000E+02  0.51100000000E-03 0.  1.
    9900012    2    1    2    0    0 -0.75191514953E+01  0.32101998521E+02 -0.28223159203E+02  0.47787278075E+02  0.20000032053E+02 0.  0.
         12    1    1    2    0    0  0.75191514953E+01 -0.32101998521E+02  0.28223159203E+02  0.43400721925E+02  0.00000000000E+00 0. -1.
         11    1    3    3    0    0 -0.40632951078E+01  0.51141553981E+01  0.14423351856E+01  0.66891915519E+01  0.51100000000E-03 0. -1.
        -11    1    3    3    0    0  0.15243542434E+01  0.49255037547E+01 -0.24420415076E+01  0.57050688061E+01  0.51100000000E-03 0.  1.
         12    1    3    3    0    0 -0.49802106308E+01  0.22062339368E+02 -0.27223452881E+02  0.35393017717E+02  0.00000000000E+00 0. -1.
</event>
<event>
 7    1  0.6622189E-010  0.4778727E+02  0.7816164E-02  0.1312668E+00
        -11   -1    0    0    0    0  0.00000000000E+00  0.00000000000E+00  0.45593999997E+02  0.45594000000E+02  0.51100000000E-03 0. -1.
         11   -1    0    0    0    0 -0.00000000000E+00 -0.00000000000E+00 -0.45593999997E+02  0.45594000000E+02  0.51100000000E-03 0.  1.
    9900012    2    1    2    0    0 -0.14285040401E+02 -0.29194856473E+02  0.28761449178E+02  0.47787274401E+02  0.20000015302E+02 0.  0.
        -12    1    1    2    0    0  0.14285040401E+02  0.29194856473E+02 -0.28761449178E+02  0.43400725599E+02  0.00000000000E+00 0.  1.
         11    1    3    3    0    0 -0.11929800976E+02 -0.21257318393E+02  0.19214979713E+02  0.31038833455E+02  0.51100000000E-03 0. -1.
        -11    1    3    3    0    0  0.40130209008E+01 -0.41680852924E+01  0.66159242572E+01  0.87890685396E+01  0.51100000000E-03 0.  1.
         12    1    3    3    0    0 -0.63682603250E+01 -0.37694527880E+01  0.29305452080E+01  0.79593724064E+01  0.00000000000E+00 0. -1.
</event>
<event>
 7    1  0.6622189E-010  0.4778727E+02  0.7816164E-02  0.1312668E+00
        -11   -1    0    0    0    0  0.00000000000E+00  0.00000000000E+00  0.45593999997E+02  0.45594000000E+02  0.51100000000E-03 0. -1.
         11   -1    0    0    0    0 -0.00000000000E+00 -0.00000000000E+00 -0.45593999997E+02  0.45594000000E+02  0.51100000000E-03 0.  1.
    9900012    2    1    2    0    0 -0.32369858982E+02  0.10239665428E+01  0.28892336237E+02  0.47787269923E+02  0.19999994887E+02 0.  0.
        -12    1    1    2    0    0  0.32369858982E+02 -0.10239665428E+01 -0.28892336237E+02  0.43400730077E+02  0.00000000000E+00 0.  1.
         11    1    3    3    0    0 -0.16318999061E+02 -0.52040706664E+01  0.22719021254E+02  0.28452522012E+02  0.51100000000E-03 0. -1.
        -11    1    3    3    0    0 -0.53616627156E+01  0.25708405127E+01 -0.88783912941E+00  0.60120634227E+01  0.51100000000E-03 0.  1.
         12    1    3    3    0    0 -0.10689197206E+02  0.36571966965E+01  0.70611541124E+01  0.13322684488E+02  0.00000000000E+00 0. -1.
</event>
<event>
 7    1  0.6622189E-010  0.4778727E+02  0.7816164E-02  0.1312668E+00
        -11   -1    0    0    0    0  0.00000000000E+00  0.00000000000E+00  0.45593999997E+02  0.45594000000E+02  0.51100000000E-03 0.  1.
         11   -1    0    0    0    0 -0.00000000000E+00 -0.00000000000E+00 -0.45593999997E+02  0.45594000000E+02  0.51100000000E-03 0. -1.
    9900012    2    1    2    0    0  0.38293490657E+01  0.35822116702E+02 -0.24201965650E+02  0.47787273040E+02  0.20000009100E+02 0.  0.
         12    1    1    2    0    0 -0.38293490657E+01 -0.35822116702E+02  0.24201965650E+02  0.43400726960E+02  0.00000000000E+00 0. -1.
         11    1    3    3    0    0 -0.20260043899E+00  0.20302260045E+02 -0.21340882793E+02  0.29456002589E+02  0.51100000000E-03 0. -1.
        -11    1    3    3    0    0  0.35039969403E+01  0.16318965598E+02 -0.16282867613E+01  0.16770150590E+02  0.51100000000E-03 0.  1.
         12    1    3    3    0    0  0.52795256432E+00 -0.79910894087E+00 -0.12327960960E+01  0.15611198621E+01  0.00000000000E+00 0. -1.
</event>
<event>
 7    1  0.6622189E-010  0.4778727E+02  0.7816164E-02  0.1312668E+00
        -11   -1    0    0    0    0  0.00000000000E+00  0.00000000000E+00  0.45593999997E+02  0.45594000000E+02  0.51100000000E-03 0. -1.
         11   -1    0    0    0    0 -0.00000000000E+00 -0.00000000000E+00 -0.45593999997E+02  0.45594000000E+02  0.51100000000E-03 0.  1.
    9900012    2    1    2    0    0  0.42480145442E+02 -0.86501753327E+01 -0.20578956943E+01  0.47787271611E+02  0.20000002582E+02 0.  0.
         12    1    1    2    0    0 -0.42480145442E+02  0.86501753327E+01  0.20578956943E+01  0.43400728389E+02  0.00000000000E+00 0. -1.
         11    1    3    3    0    0  0.59792777502E+01  0.19892007033E+01  0.29314875230E+01  0.69499856986E+01  0.51100000000E-03 0. -1.
        -11    1    3    3    0    0  0.28953993053E+02 -0.14028498146E+02 -0.50297143408E+01  0.32564251881E+02  0.51100000000E-03 0.  1.
        -12    1    3    3    0    0  0.75468746383E+01  0.33891221098E+01  0.40331123586E-01  0.82730340312E+01  0.00000000000E+00 0.  1.
</event>
<event>
 7    1  0.6622189E-010  0.4778729E+02  0.7816164E-02  0.1312668E+00
        -11   -1    0    0    0    0  0.00000000000E+00  0.00000000000E+00  0.45593999997E+02  0.45594000000E+02  0.51100000000E-03 0.  1.
         11   -1    0    0    0    0 -0.00000000000E+00 -0.00000000000E+00 -0.45593999997E+02  0.45594000000E+02  0.51100000000E-03 0. -1.
    9900012    2    1    2    0    0  0.14414744543E+02  0.39733824788E+02 -0.98518791412E+01  0.47787294763E+02  0.20000108141E+02 0.  0.
         12    1    1    2    0    0 -0.14414744543E+02 -0.39733824788E+02  0.98518791412E+01  0.43400705237E+02  0.00000000000E+00 0. -1.
         11    1    3    3    0    0  0.10262532742E+01  0.88765409302E+01 -0.85838367192E+01  0.12390658891E+02  0.51100000000E-03 0. -1.
        -11    1    3    3    0    0  0.82455200275E+01  0.28398633514E+02 -0.20518399156E+01  0.29642554433E+02  0.51100000000E-03 0.  1.
         12    1    3    3    0    0  0.51429712409E+01  0.24586503431E+01  0.78379749365E+00  0.57540814389E+01  0.00000000000E+00 0. -1.
</event>
<event>
 7    1  0.6622189E-010  0.4778727E+02  0.7816164E-02  0.1312668E+00
        -11   -1    0    0    0    0  0.00000000000E+00  0.00000000000E+00  0.45593999997E+02  0.45594000000E+02  0.51100000000E-03 0. -1.
         11   -1    0    0    0    0 -0.00000000000E+00 -0.00000000000E+00 -0.45593999997E+02  0.45594000000E+02  0.51100000000E-03 0.  1.
    9900012    2    1    2    0    0 -0.21443314893E+01  0.38288859585E+00 -0.43346031949E+02  0.47787271355E+02  0.20000001417E+02 0.  0.
         12    1    1    2    0    0  0.21443314893E+01 -0.38288859585E+00  0.43346031949E+02  0.43400728645E+02  0.00000000000E+00 0. -1.
         11    1    3    3    0    0 -0.82086577243E+01 -0.66967483517E+01 -0.20699939066E+02  0.23253300362E+02  0.51100000000E-03 0. -1.
        -11    1    3    3    0    0  0.44556908114E+01  0.59654697187E+01 -0.18743839634E+02  0.20168577888E+02  0.51100000000E-03 0.  1.
         12    1    3    3    0    0  0.16086354236E+01  0.11141672289E+01 -0.39022532487E+01  0.43653931045E+01  0.00000000000E+00 0. -1.
</event>
<event>
 7    1  0.6622189E-010  0.4778727E+02  0.7816164E-02  0.1312668E+00
        -11   -1    0    0    0    0  0.00000000000E+00  0.00000000000E+00  0.45593999997E+02  0.45594000000E+02  0.51100000000E-03 0. -1.
         11   -1    0    0    0    0 -0.00000000000E+00 -0.00000000000E+00 -0.45593999997E+02  0.45594000000E+02  0.51100000000E-03 0.  1.
    9900012    2    1    2    0    0  0.43164775435E+02 -0.33591125352E+01  0.30235066922E+01  0.47787273415E+02  0.20000010809E+02 0.  0.
         12    1    1    2    0    0 -0.43164775435E+02  0.33591125352E+01 -0.30235066922E+01  0.43400726585E+02  0.00000000000E+00 0. -1.
         11    1    3    3    0    0  0.17734769817E+02 -0.79260209173E+01  0.56143477550E+01  0.20220404769E+02  0.51100000000E-03 0. -1.
        -11    1    3    3    0    0  0.14142003831E+02  0.22472604624E+01 -0.60351295952E+01  0.15539280595E+02  0.51100000000E-03 0.  1.
         12    1    3    3    0    0  0.11288001787E+02  0.23196479197E+01  0.34442885324E+01  0.12027588051E+02  0.00000000000E+00 0. -1.
</event>
<event>
 7    1  0.6622189E-010  0.4778727E+02  0.7816164E-02  0.1312668E+00
        -11   -1    0    0    0    0  0.00000000000E+00  0.00000000000E+00  0.45593999997E+02  0.45594000000E+02  0.51100000000E-03 0. -1.
         11   -1    0    0    0    0 -0.00000000000E+00 -0.00000000000E+00 -0.45593999997E+02  0.45594000000E+02  0.51100000000E-03 0.  1.
    9900012    2    1    2    0    0 -0.33000820663E+01 -0.28179832016E+02  0.32842498377E+02  0.47787272198E+02  0.20000005258E+02 0.  0.
        -12    1    1    2    0    0  0.33000820663E+01  0.28179832016E+02 -0.32842498377E+02  0.43400727802E+02  0.00000000000E+00 0.  1.
         11    1    3    3    0    0  0.46872229420E+01 -0.55898581315E+01  0.23308491866E+01  0.76582916522E+01  0.51100000000E-03 0. -1.
        -11    1    3    3    0    0 -0.73079800686E+00 -0.38985529061E+01  0.44693135620E+00  0.39915571381E+01  0.51100000000E-03 0.  1.
         12    1    3    3    0    0 -0.72565070014E+01 -0.18691420979E+02  0.30064717834E+02  0.36137423407E+02  0.00000000000E+00 0. -1.
</event>
<event>
 7    1  0.6622189E-010  0.4778727E+02  0.7816164E-02  0.1312668E+00
        -11   -1    0    0    0    0  0.00000000000E+00  0.00000000000E+00  0.45593999997E+02  0.45594000000E+02  0.51100000000E-03 0. -1.
         11   -1    0    0    0    0 -0.00000000000E+00 -0.00000000000E+00 -0.45593999997E+02  0.45594000000E+02  0.51100000000E-03 0.  1.
    9900012    2    1    2    0    0 -0.39135552753E+02  0.26745650816E+01  0.18570914083E+02  0.47787266855E+02  0.19999980899E+02 0.  0.
        -12    1    1    2    0    0  0.39135552753E+02 -0.26745650816E+01 -0.18570914083E+02  0.43400733145E+02  0.00000000000E+00 0.  1.
         11    1    3    3    0    0 -0.22181967441E+02  0.62272479525E+01  0.39523298838E+01  0.23376039194E+02  0.51100000000E-03 0.  1.
        -11    1    3    3    0    0 -0.17070486749E+02 -0.16823348884E+01  0.14618309168E+02  0.22537229903E+02  0.51100000000E-03 0. -1.
        -12    1    3    3    0    0  0.11690143768E+00 -0.18703479825E+01  0.27503208347E-03  0.18739977581E+01  0.00000000000E+00 0.  1.
</event>
<event>
 7    1  0.6622189E-010  0.4778727E+02  0.7816164E-02  0.1312668E+00
        -11   -1    0    0    0    0  0.00000000000E+00  0.00000000000E+00  0.45593999997E+02  0.45594000000E+02  0.51100000000E-03 0.  1.
         11   -1    0    0    0    0 -0.00000000000E+00 -0.00000000000E+00 -0.45593999997E+02  0.45594000000E+02  0.51100000000E-03 0. -1.
    9900012    2    1    2    0    0  0.24930523401E+02  0.20949972797E+02  0.28691304554E+02  0.47787270579E+02  0.19999997879E+02 0.  0.
        -12    1    1    2    0    0 -0.24930523401E+02 -0.20949972797E+02 -0.28691304554E+02  0.43400729421E+02  0.00000000000E+00 0.  1.
         11    1    3    3    0    0  0.22403886117E+02  0.96771074731E+01  0.25594991126E+02  0.35365012275E+02  0.51100000000E-03 0. -1.
        -11    1    3    3    0    0  0.38599636804E+00  0.68289798905E+01  0.30509038920E+01  0.74894575478E+01  0.51100000000E-03 0.  1.
         12    1    3    3    0    0  0.21406409158E+01  0.44438854333E+01  0.45409535854E-01  0.49328007562E+01  0.00000000000E+00 0. -1.
</event>
<event>
 7    1  0.6622189E-010  0.4778727E+02  0.7816164E-02  0.1312668E+00
        -11   -1    0    0    0    0  0.00000000000E+00  0.00000000000E+00  0.45593999997E+02  0.45594000000E+02  0.51100000000E-03 0. -1.
         11   -1    0    0    0    0 -0.00000000000E+00 -0.00000000000E+00 -0.45593999997E+02  0.45594000000E+02  0.51100000000E-03 0.  1.
    9900012    2    1    2    0    0  0.35436190744E+01 -0.94008880260E+01  0.42221908896E+02  0.47787268179E+02  0.19999986935E+02 0.  0.
        -12    1    1    2    0    0 -0.35436190744E+01  0.94008880260E+01 -0.42221908896E+02  0.43400731821E+02  0.00000000000E+00 0.  1.
         11    1    3    3    0    0 -0.43738257971E+00  0.36865728365E+01  0.18152509530E+02  0.18528241290E+02  0.51100000000E-03 0. -1.
        -11    1    3    3    0    0  0.70557467653E+01 -0.96222323387E+01  0.16076443125E+02  0.20020562964E+02  0.51100000000E-03 0.  1.
        -12    1    3    3    0    0 -0.30747451112E+01 -0.34652285238E+01  0.79929562413E+01  0.92384639251E+01  0.00000000000E+00 0.  1.
</event>
<event>
 7    1  0.7672099E-010  0.4778727E+02  0.7816164E-02  0.1312668E+00
        -11   -1    0    0    0    0  0.00000000000E+00  0.00000000000E+00  0.45593999997E+02  0.45594000000E+02  0.51100000000E-03 0. -1.
         11   -1    0    0    0    0 -0.00000000000E+00 -0.00000000000E+00 -0.45593999997E+02  0.45594000000E+02  0.51100000000E-03 0.  1.
    9900012    2    1    2    0    0  0.87123134226E+01 -0.17655165292E+02 -0.38678342380E+02  0.47787269178E+02  0.19999991489E+02 0.  0.
         12    1    1    2    0    0 -0.87123134226E+01  0.17655165292E+02  0.38678342380E+02  0.43400730822E+02  0.00000000000E+00 0. -1.
         11    1    3    3    0    0  0.67805681547E+01 -0.61973785893E+01 -0.69852819049E+01  0.11540267303E+02  0.51100000000E-03 0. -1.
        -11    1    3    3    0    0 -0.36491866135E+01 -0.10713149951E+02 -0.16193395189E+02  0.19756370942E+02  0.51100000000E-03 0.  1.
        -12    1    3    3    0    0  0.55809318814E+01 -0.74463675190E+00 -0.15499665286E+02  0.16490630932E+02  0.00000000000E+00 0.  1.
</event>
<event>
 7    1  0.6622189E-010  0.4778727E+02  0.7816164E-02  0.1312668E+00
        -11   -1    0    0    0    0  0.00000000000E+00  0.00000000000E+00  0.45593999997E+02  0.45594000000E+02  0.51100000000E-03 0. -1.
         11   -1    0    0    0    0 -0.00000000000E+00 -0.00000000000E+00 -0.45593999997E+02  0.45594000000E+02  0.51100000000E-03 0.  1.
    9900012    2    1    2    0    0  0.14447786194E+02 -0.38530986124E+01  0.40743565253E+02  0.47787274149E+02  0.20000014156E+02 0.  0.
        -12    1    1    2    0    0 -0.14447786194E+02  0.38530986124E+01 -0.40743565253E+02  0.43400725851E+02  0.00000000000E+00 0.  1.
         11    1    3    3    0    0  0.18775337981E+01  0.39953462015E+01  0.14711198497E+02  0.15359273613E+02  0.51100000000E-03 0. -1.
        -11    1    3    3    0    0 -0.11060899639E+01  0.19269232666E+01  0.52286812110E+01  0.56811597188E+01  0.51100000000E-03 0.  1.
         12    1    3    3    0    0  0.13676342360E+02 -0.97753680805E+01  0.20803685546E+02  0.26746840818E+02  0.00000000000E+00 0. -1.
</event>
<event>
 7    1  0.6622189E-010  0.4778727E+02  0.7816164E-02  0.1312668E+00
        -11   -1    0    0    0    0  0.00000000000E+00  0.00000000000E+00  0.45593999997E+02  0.45594000000E+02  0.51100000000E-03 0. -1.
         11   -1    0    0    0    0 -0.00000000000E+00 -0.00000000000E+00 -0.45593999997E+02  0.45594000000E+02  0.51100000000E-03 0.  1.
    9900012    2    1    2    0    0  0.13431705557E+02  0.23389304775E+02  0.34002249691E+02  0.47787271019E+02  0.19999999885E+02 0.  0.
        -12    1    1    2    0    0 -0.13431705557E+02 -0.23389304775E+02 -0.34002249691E+02  0.43400728981E+02  0.00000000000E+00 0.  1.
         11    1    3    3    0    0  0.90978351306E+01  0.21051242887E+02  0.21601452792E+02  0.31504732885E+02  0.51100000000E-03 0. -1.
        -11    1    3    3    0    0 -0.23564413393E+01 -0.54834463242E+00  0.64038592394E+01  0.68456490591E+01  0.51100000000E-03 0.  1.
        -12    1    3    3    0    0  0.66903117657E+01  0.28864065195E+01  0.59969376595E+01  0.94368890748E+01  0.00000000000E+00 0.  1.
</event>
<event>
 7    1  0.6622189E-010  0.4778727E+02  0.7816164E-02  0.1312668E+00
        -11   -1    0    0    0    0  0.00000000000E+00  0.00000000000E+00  0.45593999997E+02  0.45594000000E+02  0.51100000000E-03 0. -1.
         11   -1    0    0    0    0 -0.00000000000E+00 -0.00000000000E+00 -0.45593999997E+02  0.45594000000E+02  0.51100000000E-03 0.  1.
    9900012    2    1    2    0    0 -0.15823752513E+02  0.62899611933E+01 -0.39920777890E+02  0.47787271173E+02  0.20000000587E+02 0.  0.
         12    1    1    2    0    0  0.15823752513E+02 -0.62899611933E+01  0.39920777890E+02  0.43400728827E+02  0.00000000000E+00 0. -1.
         11    1    3    3    0    0 -0.23342280129E+01 -0.23894092182E+01 -0.32667391195E+01  0.46722030740E+01  0.51100000000E-03 0. -1.
        -11    1    3    3    0    0 -0.25892278327E+01 -0.36568106908E+01 -0.16472526110E+02  0.17071042203E+02  0.51100000000E-03 0.  1.
        -12    1    3    3    0    0 -0.10900296667E+02  0.12336181102E+02 -0.20181512660E+02  0.26044025896E+02  0.00000000000E+00 0.  1.
</event>
<event>
 7    1  0.6622189E-010  0.4778728E+02  0.7816164E-02  0.1312668E+00
        -11   -1    0    0    0    0  0.00000000000E+00  0.00000000000E+00  0.45593999997E+02  0.45594000000E+02  0.51100000000E-03 0.  1.
         11   -1    0    0    0    0 -0.00000000000E+00 -0.00000000000E+00 -0.45593999997E+02  0.45594000000E+02  0.51100000000E-03 0. -1.
    9900012    2    1    2    0    0  0.14201036824E+02  0.28715745769E+02  0.29280698983E+02  0.47787276102E+02  0.20000023058E+02 0.  0.
        -12    1    1    2    0    0 -0.14201036824E+02 -0.28715745769E+02 -0.29280698983E+02  0.43400723898E+02  0.00000000000E+00 0.  1.
         11    1    3    3    0    0  0.73433453010E+00  0.13506806759E+02  0.36385126001E+01  0.14007564037E+02  0.51100000000E-03 0. -1.
        -11    1    3    3    0    0 -0.70391014744E+00  0.36073903536E+01  0.43512102179E+01  0.56957690684E+01  0.51100000000E-03 0.  1.
         12    1    3    3    0    0  0.14170612441E+02  0.11601548657E+02  0.21290976165E+02  0.28083942997E+02  0.00000000000E+00 0. -1.
</event>
<event>
 7    1  0.6622189E-010  0.4778727E+02  0.7816164E-02  0.1312668E+00
        -11   -1    0    0    0    0  0.00000000000E+00  0.00000000000E+00  0.45593999997E+02  0.45594000000E+02  0.51100000000E-03 0. -1.
         11   -1    0    0    0    0 -0.00000000000E+00 -0.00000000000E+00 -0.45593999997E+02  0.45594000000E+02  0.51100000000E-03 0.  1.
    9900012    2    1    2    0    0 -0.25163976827E+02  0.37558006182E+01 -0.35160935261E+02  0.47787272628E+02  0.20000007218E+02 0.  0.
         12    1    1    2    0    0  0.25163976827E+02 -0.37558006182E+01  0.35160935261E+02  0.43400727372E+02  0.00000000000E+00 0. -1.
         11    1    3    3    0    0  0.12616040922E+01  0.14736840393E+00 -0.26579719570E+01  0.29458746608E+01  0.51100000000E-03 0. -1.
        -11    1    3    3    0    0 -0.10836333672E+02  0.63070781701E+01 -0.58255927728E+01  0.13825443714E+02  0.51100000000E-03 0.  1.
        -12    1    3    3    0    0 -0.15589247248E+02 -0.26986459559E+01 -0.26677370531E+02  0.31015954252E+02  0.00000000000E+00 0.  1.
</event>
<event>
 7    1  0.6622189E-010  0.4778727E+02  0.7816164E-02  0.1312668E+00
        -11   -1    0    0    0    0  0.00000000000E+00  0.00000000000E+00  0.45593999997E+02  0.45594000000E+02  0.51100000000E-03 0. -1.
         11   -1    0    0    0    0 -0.00000000000E+00 -0.00000000000E+00 -0.45593999997E+02  0.45594000000E+02  0.51100000000E-03 0.  1.
    9900012    2    1    2    0    0 -0.21103067404E+02  0.36488071625E+02  0.10339449971E+02  0.47787273618E+02  0.20000011736E+02 0.  0.
        -12    1    1    2    0    0  0.21103067404E+02 -0.36488071625E+02 -0.10339449971E+02  0.43400726382E+02  0.00000000000E+00 0.  1.
         11    1    3    3    0    0 -0.18578231817E+02  0.25399501342E+02  0.15493458552E+02  0.35076097617E+02  0.51100000000E-03 0. -1.
        -11    1    3    3    0    0 -0.15289054113E+00  0.49474364555E+01 -0.29829279698E+01  0.57791316418E+01  0.51100000000E-03 0.  1.
         12    1    3    3    0    0 -0.23719450458E+01  0.61411338271E+01 -0.21710806115E+01  0.69320443596E+01  0.00000000000E+00 0. -1.
</event>
<event>
 7    1  0.6622189E-010  0.4778728E+02  0.7816164E-02  0.1312668E+00
        -11   -1    0    0    0    0  0.00000000000E+00  0.00000000000E+00  0.45593999997E+02  0.45594000000E+02  0.51100000000E-03 0. -1.
         11   -1    0    0    0    0 -0.00000000000E+00 -0.00000000000E+00 -0.45593999997E+02  0.45594000000E+02  0.51100000000E-03 0.  1.
    9900012    2    1    2    0    0  0.40395320544E+02  0.91491067981E+01  0.12966650788E+02  0.47787284456E+02  0.20000061150E+02 0.  0.
        -12    1    1    2    0    0 -0.40395320544E+02 -0.91491067981E+01 -0.12966650788E+02  0.43400715544E+02  0.00000000000E+00 0.  1.
         11    1    3    3    0    0  0.71227042142E+01  0.29781167072E-01 -0.66298640962E+00  0.71535553036E+01  0.51100000000E-03 0. -1.
        -11    1    3    3    0    0  0.46896706049E+01  0.40639329200E+00 -0.37919112691E+01  0.60445642708E+01  0.51100000000E-03 0.  1.
        -12    1    3    3    0    0  0.28582945725E+02  0.87129323390E+01  0.17421548467E+02  0.34589164882E+02  0.00000000000E+00 0.  1.
</event>
<event>
 7    1  0.1027808E-009  0.4778728E+02  0.7816164E-02  0.1312668E+00
        -11   -1    0    0    0    0  0.00000000000E+00  0.00000000000E+00  0.45593999997E+02  0.45594000000E+02  0.51100000000E-03 0. -1.
         11   -1    0    0    0    0 -0.00000000000E+00 -0.00000000000E+00 -0.45593999997E+02  0.45594000000E+02  0.51100000000E-03 0.  1.
    9900012    2    1    2    0    0  0.14584369833E+02 -0.25101305673E+02 -0.32262104793E+02  0.47787276555E+02  0.20000025125E+02 0.  0.
         12    1    1    2    0    0 -0.14584369833E+02  0.25101305673E+02  0.32262104793E+02  0.43400723445E+02  0.00000000000E+00 0. -1.
         11    1    3    3    0    0 -0.30142127352E+01  0.71073164683E+00 -0.20452799979E+01  0.37113054870E+01  0.51100000000E-03 0. -1.
        -11    1    3    3    0    0  0.10792626122E+02 -0.19712738229E+02 -0.24730400915E+02  0.33416546153E+02  0.51100000000E-03 0.  1.
         12    1    3    3    0    0  0.68059564461E+01 -0.60992990901E+01 -0.54864238793E+01  0.10659424915E+02  0.00000000000E+00 0. -1.
</event>
<event>
 7    1  0.6622189E-010  0.4778727E+02  0.7816164E-02  0.1312668E+00
        -11   -1    0    0    0    0  0.00000000000E+00  0.00000000000E+00  0.45593999997E+02  0.45594000000E+02  0.51100000000E-03 0. -1.
         11   -1    0    0    0    0 -0.00000000000E+00 -0.00000000000E+00 -0.45593999997E+02  0.45594000000E+02  0.51100000000E-03 0.  1.
    9900012    2    1    2    0    0 -0.30653220823E+02  0.79867202492E+01 -0.29668428623E+02  0.47787270696E+02  0.19999998411E+02 0.  0.
         12    1    1    2    0    0  0.30653220823E+02 -0.79867202492E+01  0.29668428623E+02  0.43400729304E+02  0.00000000000E+00 0. -1.
         11    1    3    3    0    0  0.15756802886E+01  0.29167930931E+01 -0.33594318306E+01  0.47197704187E+01  0.51100000000E-03 0. -1.
        -11    1    3    3    0    0 -0.18462297337E+02  0.42257079035E+00 -0.92338147807E+01  0.20646993115E+02  0.51100000000E-03 0.  1.
         12    1    3    3    0    0 -0.13766603775E+02  0.46473563657E+01 -0.17075182012E+02  0.22420507162E+02  0.00000000000E+00 0. -1.
</event>
<event>
 7    1  0.6622189E-010  0.4778727E+02  0.7816164E-02  0.1312668E+00
        -11   -1    0    0    0    0  0.00000000000E+00  0.00000000000E+00  0.45593999997E+02  0.45594000000E+02  0.51100000000E-03 0. -1.
         11   -1    0    0    0    0 -0.00000000000E+00 -0.00000000000E+00 -0.45593999997E+02  0.45594000000E+02  0.51100000000E-03 0.  1.
    9900012    2    1    2    0    0 -0.25152296037E+02 -0.82246034593E+00 -0.35359702361E+02  0.47787274338E+02  0.20000015016E+02 0.  0.
         12    1    1    2    0    0  0.25152296037E+02  0.82246034593E+00  0.35359702361E+02  0.43400725662E+02  0.00000000000E+00 0. -1.
         11    1    3    3    0    0 -0.47885741707E+01  0.20047668894E+01  0.14016185549E+01  0.53771802744E+01  0.51100000000E-03 0. -1.
        -11    1    3    3    0    0 -0.10635883762E+02 -0.20420506210E+01 -0.24119461947E+02  0.26439372893E+02  0.51100000000E-03 0.  1.
        -12    1    3    3    0    0 -0.97278381046E+01 -0.78517661431E+00 -0.12641858969E+02  0.15970721170E+02  0.00000000000E+00 0.  1.
</event>
<event>
 7    1  0.6978489E-010  0.4778726E+02  0.7816164E-02  0.1312668E+00
        -11   -1    0    0    0    0  0.00000000000E+00  0.00000000000E+00  0.45593999997E+02  0.45594000000E+02  0.51100000000E-03 0. -1.
         11   -1    0    0    0    0 -0.00000000000E+00 -0.00000000000E+00 -0.45593999997E+02  0.45594000000E+02  0.51100000000E-03 0.  1.
    9900012    2    1    2    0    0 -0.11798939951E+02  0.23392378511E+02  0.34600667208E+02  0.47787256600E+02  0.19999934144E+02 0.  0.
        -12    1    1    2    0    0  0.11798939951E+02 -0.23392378511E+02 -0.34600667208E+02  0.43400743400E+02  0.00000000000E+00 0.  1.
         11    1    3    3    0    0 -0.12026044272E+02  0.17563715772E+02  0.18299217474E+02  0.28070824942E+02  0.51100000000E-03 0. -1.
        -11    1    3    3    0    0  0.18019470407E+01  0.57737301092E+00 -0.57033353054E+00  0.19762725846E+01  0.51100000000E-03 0.  1.
         12    1    3    3    0    0 -0.15748427195E+01  0.52512897287E+01  0.16871783265E+02  0.17740159074E+02  0.00000000000E+00 0. -1.
</event>
<event>
 7    1  0.6622189E-010  0.4778727E+02  0.7816164E-02  0.1312668E+00
        -11   -1    0    0    0    0  0.00000000000E+00  0.00000000000E+00  0.45593999997E+02  0.45594000000E+02  0.51100000000E-03 0.  1.
         11   -1    0    0    0    0 -0.00000000000E+00 -0.00000000000E+00 -0.45593999997E+02  0.45594000000E+02  0.51100000000E-03 0. -1.
    9900012    2    1    2    0    0  0.93317979892E+01  0.38032532609E+02 -0.18710076253E+02  0.47787274848E+02  0.20000017340E+02 0.  0.
         12    1    1    2    0    0 -0.93317979892E+01 -0.38032532609E+02  0.18710076253E+02  0.43400725152E+02  0.00000000000E+00 0. -1.
         11    1    3    3    0    0 -0.49774682394E+01  0.15872660653E+02 -0.49221829690E+01  0.17347750047E+02  0.51100000000E-03 0. -1.
        -11    1    3    3    0    0  0.10234273931E+02  0.15958024815E+02 -0.12978334330E+02  0.22974683483E+02  0.51100000000E-03 0.  1.
         12    1    3    3    0    0  0.40749922978E+01  0.62018471413E+01 -0.80955895354E+00  0.74648413172E+01  0.00000000000E+00 0. -1.
</event>
<event>
 7    1  0.6622189E-010  0.4778727E+02  0.7816164E-02  0.1312668E+00
        -11   -1    0    0    0    0  0.00000000000E+00  0.00000000000E+00  0.45593999997E+02  0.45594000000E+02  0.51100000000E-03 0. -1.
         11   -1    0    0    0    0 -0.00000000000E+00 -0.00000000000E+00 -0.45593999997E+02  0.45594000000E+02  0.51100000000E-03 0.  1.
    9900012    2    1    2    0    0 -0.16103846537E+02  0.38262692164E+02  0.12659221784E+02  0.47787269809E+02  0.19999994369E+02 0.  0.
        -12    1    1    2    0    0  0.16103846537E+02 -0.38262692164E+02 -0.12659221784E+02  0.43400730191E+02  0.00000000000E+00 0.  1.
         11    1    3    3    0    0 -0.47488911434E+01  0.13538117068E+02  0.13594377371E+02  0.19764606680E+02  0.51100000000E-03 0. -1.
        -11    1    3    3    0    0 -0.25966750441E+01  0.13485448342E+02 -0.10529122443E+01  0.13773476785E+02  0.51100000000E-03 0.  1.
         12    1    3    3    0    0 -0.87582803499E+01  0.11239126754E+02  0.11775665678E+00  0.14249186345E+02  0.00000000000E+00 0. -1.
</event>
<event>
 7    1  0.6622189E-010  0.4778727E+02  0.7816164E-02  0.1312668E+00
        -11   -1    0    0    0    0  0.00000000000E+00  0.00000000000E+00  0.45593999997E+02  0.45594000000E+02  0.51100000000E-03 0. -1.
         11   -1    0    0    0    0 -0.00000000000E+00 -0.00000000000E+00 -0.45593999997E+02  0.45594000000E+02  0.51100000000E-03 0.  1.
    9900012    2    1    2    0    0  0.29788269476E+02 -0.30606517012E+02 -0.77151558951E+01  0.47787268295E+02  0.19999987466E+02 0.  0.
         12    1    1    2    0    0 -0.29788269476E+02  0.30606517012E+02  0.77151558951E+01  0.43400731705E+02  0.00000000000E+00 0. -1.
         11    1    3    3    0    0  0.91662706117E+01 -0.11274583501E+01 -0.20651328097E+01  0.94634271298E+01  0.51100000000E-03 0. -1.
        -11    1    3    3    0    0  0.87547089607E+01 -0.21421445939E+02 -0.70830185878E+00  0.23152213002E+02  0.51100000000E-03 0.  1.
        -12    1    3    3    0    0  0.11867289904E+02 -0.80576127233E+01 -0.49417212267E+01  0.15171628164E+02  0.00000000000E+00 0.  1.
</event>
<event>
 7    1  0.6622189E-010  0.4778727E+02  0.7816164E-02  0.1312668E+00
        -11   -1    0    0    0    0  0.00000000000E+00  0.00000000000E+00  0.45593999997E+02  0.45594000000E+02  0.51100000000E-03 0. -1.
         11   -1    0    0    0    0 -0.00000000000E+00 -0.00000000000E+00 -0.45593999997E+02  0.45594000000E+02  0.51100000000E-03 0.  1.
    9900012    2    1    2    0    0  0.37388624046E+02 -0.97757378285E+01 -0.19752190909E+02  0.47787270699E+02  0.19999998427E+02 0.  0.
         12    1    1    2    0    0 -0.37388624046E+02  0.97757378285E+01  0.19752190909E+02  0.43400729301E+02  0.00000000000E+00 0. -1.
         11    1    3    3    0    0 -0.14937379747E+01 -0.15334795415E+01 -0.15633000726E+01  0.26507961105E+01  0.51100000000E-03 0. -1.
        -11    1    3    3    0    0  0.28544283553E+02 -0.10791531601E+02 -0.11793797763E+02  0.32715851567E+02  0.51100000000E-03 0.  1.
        -12    1    3    3    0    0  0.10338078468E+02  0.25492733141E+01 -0.63950930728E+01  0.12420623022E+02  0.00000000000E+00 0.  1.
</event>
<event>
 7    1  0.6622189E-010  0.4778727E+02  0.7816164E-02  0.1312668E+00
        -11   -1    0    0    0    0  0.00000000000E+00  0.00000000000E+00  0.45593999997E+02  0.45594000000E+02  0.51100000000E-03 0. -1.
         11   -1    0    0    0    0 -0.00000000000E+00 -0.00000000000E+00 -0.45593999997E+02  0.45594000000E+02  0.51100000000E-03 0.  1.
    9900012    2    1    2    0    0 -0.39140265819E+02  0.61821579416E+01  0.17704357780E+02  0.47787265333E+02  0.19999973961E+02 0.  0.
        -12    1    1    2    0    0  0.39140265819E+02 -0.61821579416E+01 -0.17704357780E+02  0.43400734667E+02  0.00000000000E+00 0.  1.
         11    1    3    3    0    0 -0.65898573073E+00 -0.33958181550E+01  0.45349711685E+01  0.57036660926E+01  0.51100000000E-03 0. -1.
        -11    1    3    3    0    0 -0.87415371948E+01  0.33960515313E+01  0.12835040607E+01  0.94654646725E+01  0.51100000000E-03 0.  1.
         12    1    3    3    0    0 -0.29739742893E+02  0.61819245653E+01  0.11885882551E+02  0.32618134568E+02  0.00000000000E+00 0. -1.
</event>
<event>
 7    1  0.6622189E-010  0.4778726E+02  0.7816164E-02  0.1312668E+00
        -11   -1    0    0    0    0  0.00000000000E+00  0.00000000000E+00  0.45593999997E+02  0.45594000000E+02  0.51100000000E-03 0. -1.
         11   -1    0    0    0    0 -0.00000000000E+00 -0.00000000000E+00 -0.45593999997E+02  0.45594000000E+02  0.51100000000E-03 0.  1.
    9900012    2    1    2    0    0 -0.15993015479E+02  0.27936219653E+01 -0.40249761598E+02  0.47787260646E+02  0.19999952588E+02 0.  0.
         12    1    1    2    0    0  0.15993015479E+02 -0.27936219653E+01  0.40249761598E+02  0.43400739354E+02  0.00000000000E+00 0. -1.
         11    1    3    3    0    0  0.54885623821E+00  0.33850007492E+01 -0.28084806997E+01  0.44324978673E+01  0.51100000000E-03 0. -1.
        -11    1    3    3    0    0  0.72426046737E+00 -0.24756403769E+01 -0.13687260211E+02  0.13928188714E+02  0.51100000000E-03 0.  1.
        -12    1    3    3    0    0 -0.17266132185E+02  0.18842615930E+01 -0.23754020687E+02  0.29426574064E+02  0.00000000000E+00 0.  1.
</event>
<event>
 7    1  0.6622189E-010  0.4778727E+02  0.7816164E-02  0.1312668E+00
        -11   -1    0    0    0    0  0.00000000000E+00  0.00000000000E+00  0.45593999997E+02  0.45594000000E+02  0.51100000000E-03 0. -1.
         11   -1    0    0    0    0 -0.00000000000E+00 -0.00000000000E+00 -0.45593999997E+02  0.45594000000E+02  0.51100000000E-03 0.  1.
    9900012    2    1    2    0    0 -0.18377922326E+02 -0.22087927700E+02  0.32526889691E+02  0.47787272678E+02  0.20000007448E+02 0.  0.
        -12    1    1    2    0    0  0.18377922326E+02  0.22087927700E+02 -0.32526889691E+02  0.43400727322E+02  0.00000000000E+00 0.  1.
         11    1    3    3    0    0 -0.11703994152E+02 -0.47887809202E+01  0.16372071630E+02  0.20687209370E+02  0.51100000000E-03 0. -1.
        -11    1    3    3    0    0 -0.15187019745E+01 -0.75960400761E+01  0.22652363444E+00  0.77496834609E+01  0.51100000000E-03 0.  1.
        -12    1    3    3    0    0 -0.51552261996E+01 -0.97031067036E+01  0.15928294427E+02  0.19350379847E+02  0.00000000000E+00 0.  1.
</event>
<event>
 7    1  0.6622189E-010  0.4778727E+02  0.7816164E-02  0.1312668E+00
        -11   -1    0    0    0    0  0.00000000000E+00  0.00000000000E+00  0.45593999997E+02  0.45594000000E+02  0.51100000000E-03 0. -1.
         11   -1    0    0    0    0 -0.00000000000E+00 -0.00000000000E+00 -0.45593999997E+02  0.45594000000E+02  0.51100000000E-03 0.  1.
    9900012    2    1    2    0    0  0.17680714682E+02  0.36795671352E+02 -0.14734117369E+02  0.47787270553E+02  0.19999997759E+02 0.  0.
         12    1    1    2    0    0 -0.17680714682E+02 -0.36795671352E+02  0.14734117369E+02  0.43400729447E+02  0.00000000000E+00 0. -1.
         11    1    3    3    0    0 -0.19005070279E+01  0.12298839642E+02 -0.62909044149E+01  0.13944492179E+02  0.51100000000E-03 0. -1.
        -11    1    3    3    0    0  0.11296810371E+02  0.77728404418E+01 -0.61861053988E+01  0.15043366424E+02  0.51100000000E-03 0.  1.
         12    1    3    3    0    0  0.82844113391E+01  0.16723991268E+02 -0.22571075555E+01  0.18799411951E+02  0.00000000000E+00 0. -1.
</event>
<event>
 7    1  0.6622189E-010  0.4778727E+02  0.7816164E-02  0.1312668E+00
        -11   -1    0    0    0    0  0.00000000000E+00  0.00000000000E+00  0.45593999997E+02  0.45594000000E+02  0.51100000000E-03 0. -1.
         11   -1    0    0    0    0 -0.00000000000E+00 -0.00000000000E+00 -0.45593999997E+02  0.45594000000E+02  0.51100000000E-03 0.  1.
    9900012    2    1    2    0    0  0.36013284364E+02 -0.22206913637E+02  0.96705458215E+01  0.47787272812E+02  0.20000008059E+02 0.  0.
        -12    1    1    2    0    0 -0.36013284364E+02  0.22206913637E+02 -0.96705458215E+01  0.43400727188E+02  0.00000000000E+00 0.  1.
         11    1    3    3    0    0  0.29805177519E+02 -0.11067780341E+02  0.24413386707E+00  0.31794716074E+02  0.51100000000E-03 0. -1.
        -11    1    3    3    0    0  0.56548346564E+01 -0.85749902015E+01  0.71031406302E+01  0.12488483456E+02  0.51100000000E-03 0.  1.
         12    1    3    3    0    0  0.55327218867E+00 -0.25641430945E+01  0.23232713243E+01  0.35040732826E+01  0.00000000000E+00 0. -1.
</event>
<event>
 7    1  0.6622189E-010  0.4778727E+02  0.7816164E-02  0.1312668E+00
        -11   -1    0    0    0    0  0.00000000000E+00  0.00000000000E+00  0.45593999997E+02  0.45594000000E+02  0.51100000000E-03 0. -1.
         11   -1    0    0    0    0 -0.00000000000E+00 -0.00000000000E+00 -0.45593999997E+02  0.45594000000E+02  0.51100000000E-03 0.  1.
    9900012    2    1    2    0    0  0.21669423364E+02  0.55056534270E+01  0.37198753628E+02  0.47787269591E+02  0.19999993372E+02 0.  0.
        -12    1    1    2    0    0 -0.21669423364E+02 -0.55056534270E+01 -0.37198753628E+02  0.43400730409E+02  0.00000000000E+00 0.  1.
         11    1    3    3    0    0  0.19955057011E+02  0.45176798574E+01  0.35896783550E+02  0.41318189712E+02  0.51100000000E-03 0. -1.
        -11    1    3    3    0    0  0.18489964207E+01  0.17574512513E+01 -0.18951597044E+01  0.31779007585E+01  0.51100000000E-03 0.  1.
         12    1    3    3    0    0 -0.13463006676E+00 -0.76947768176E+00  0.31971297820E+01  0.32911791200E+01  0.00000000000E+00 0. -1.
</event>
<event>
 7    1  0.6622189E-010  0.4778726E+02  0.7816164E-02  0.1312668E+00
        -11   -1    0    0    0    0  0.00000000000E+00  0.00000000000E+00  0.45593999997E+02  0.45594000000E+02  0.51100000000E-03 0. -1.
         11   -1    0    0    0    0 -0.00000000000E+00 -0.00000000000E+00 -0.45593999997E+02  0.45594000000E+02  0.51100000000E-03 0.  1.
    9900012    2    1    2    0    0 -0.13630045866E+02  0.10650819435E+02  0.39804595325E+02  0.47787263671E+02  0.19999966381E+02 0.  0.
        -12    1    1    2    0    0  0.13630045866E+02 -0.10650819435E+02 -0.39804595325E+02  0.43400736329E+02  0.00000000000E+00 0.  1.
         11    1    3    3    0    0 -0.18003098082E+01 -0.32996568845E+01  0.15608042475E+02  0.16054277969E+02  0.51100000000E-03 0. -1.
        -11    1    3    3    0    0  0.15244204382E+01  0.14787868166E+01  0.15247575962E+01  0.26144892636E+01  0.51100000000E-03 0.  1.
         12    1    3    3    0    0 -0.13354156496E+02  0.12471689503E+02  0.22671795254E+02  0.29118496438E+02  0.00000000000E+00 0. -1.
</event>
<event>
 7    1  0.6622189E-010  0.4778727E+02  0.7816164E-02  0.1312668E+00
        -11   -1    0    0    0    0  0.00000000000E+00  0.00000000000E+00  0.45593999997E+02  0.45594000000E+02  0.51100000000E-03 0. -1.
         11   -1    0    0    0    0 -0.00000000000E+00 -0.00000000000E+00 -0.45593999997E+02  0.45594000000E+02  0.51100000000E-03 0.  1.
    9900012    2    1    2    0    0  0.65587484971E+01  0.52750958448E+01  0.42576752862E+02  0.47787266109E+02  0.19999977498E+02 0.  0.
        -12    1    1    2    0    0 -0.65587484971E+01 -0.52750958448E+01 -0.42576752862E+02  0.43400733891E+02  0.00000000000E+00 0.  1.
         11    1    3    3    0    0 -0.35206729587E+01 -0.22726406574E+01  0.66772193403E+01  0.78832285277E+01  0.51100000000E-03 0. -1.
        -11    1    3    3    0    0  0.76249593148E+01  0.73516783828E+01  0.35912331232E+02  0.37441724245E+02  0.51100000000E-03 0.  1.
        -12    1    3    3    0    0  0.24544621411E+01  0.19605811938E+00 -0.12797711117E-01  0.24623133370E+01  0.00000000000E+00 0.  1.
</event>
<event>
 7    1  0.6622189E-010  0.4778728E+02  0.7816164E-02  0.1312668E+00
        -11   -1    0    0    0    0  0.00000000000E+00  0.00000000000E+00  0.45593999997E+02  0.45594000000E+02  0.51100000000E-03 0. -1.
         11   -1    0    0    0    0 -0.00000000000E+00 -0.00000000000E+00 -0.45593999997E+02  0.45594000000E+02  0.51100000000E-03 0.  1.
    9900012    2    1    2    0    0 -0.32824042503E+02 -0.81903206817E+01  0.27186819254E+02  0.47787282722E+02  0.20000053242E+02 0.  0.
        -12    1    1    2    0    0  0.32824042503E+02  0.81903206817E+01 -0.27186819254E+02  0.43400717278E+02  0.00000000000E+00 0.  1.
         11    1    3    3    0    0 -0.12540696854E+01 -0.20002024796E+01  0.61403729335E+01  0.65785774115E+01  0.51100000000E-03 0. -1.
        -11    1    3    3    0    0 -0.32947371260E+02 -0.51939600948E+01  0.18483475661E+02  0.38133258019E+02  0.51100000000E-03 0.  1.
        -12    1    3    3    0    0  0.13773984417E+01 -0.99615810729E+00  0.25629706590E+01  0.30754472912E+01  0.00000000000E+00 0.  1.
</event>
<event>
 7    1  0.6622189E-010  0.4778727E+02  0.7816164E-02  0.1312668E+00
        -11   -1    0    0    0    0  0.00000000000E+00  0.00000000000E+00  0.45593999997E+02  0.45594000000E+02  0.51100000000E-03 0. -1.
         11   -1    0    0    0    0 -0.00000000000E+00 -0.00000000000E+00 -0.45593999997E+02  0.45594000000E+02  0.51100000000E-03 0.  1.
    9900012    2    1    2    0    0  0.37470678944E+02 -0.39044433326E+01 -0.21548241927E+02  0.47787272029E+02  0.20000004487E+02 0.  0.
         12    1    1    2    0    0 -0.37470678944E+02  0.39044433326E+01  0.21548241927E+02  0.43400727971E+02  0.00000000000E+00 0. -1.
         11    1    3    3    0    0  0.27407399888E+02  0.57333634838E+01 -0.14010997782E+02  0.31310462861E+02  0.51100000000E-03 0. -1.
        -11    1    3    3    0    0  0.59043130813E+01 -0.60987699273E+01 -0.69756707315E+01  0.10987078320E+02  0.51100000000E-03 0.  1.
         12    1    3    3    0    0  0.41589659749E+01 -0.35390368891E+01 -0.56157341427E+00  0.54897308479E+01  0.00000000000E+00 0. -1.
</event>
<event>
 7    1  0.8646574E-010  0.4778727E+02  0.7816164E-02  0.1312668E+00
        -11   -1    0    0    0    0  0.00000000000E+00  0.00000000000E+00  0.45593999997E+02  0.45594000000E+02  0.51100000000E-03 0. -1.
         11   -1    0    0    0    0 -0.00000000000E+00 -0.00000000000E+00 -0.45593999997E+02  0.45594000000E+02  0.51100000000E-03 0.  1.
    9900012    2    1    2    0    0 -0.11229005802E+02 -0.17093235262E+02 -0.38279942760E+02  0.47787270965E+02  0.19999999637E+02 0.  0.
         12    1    1    2    0    0  0.11229005802E+02  0.17093235262E+02  0.38279942760E+02  0.43400729035E+02  0.00000000000E+00 0. -1.
         11    1    3    3    0    0  0.11998436872E+01 -0.82995423177E+00  0.22134604829E+00  0.14756162220E+01  0.51100000000E-03 0. -1.
        -11    1    3    3    0    0 -0.44449098760E+01 -0.12541478792E+02 -0.10477069010E+02  0.16935610098E+02  0.51100000000E-03 0.  1.
        -12    1    3    3    0    0 -0.79839396134E+01 -0.37218022387E+01 -0.28024219798E+02  0.29376044645E+02  0.00000000000E+00 0.  1.
</event>
<event>
 7    1  0.6622189E-010  0.4778727E+02  0.7816164E-02  0.1312668E+00
        -11   -1    0    0    0    0  0.00000000000E+00  0.00000000000E+00  0.45593999997E+02  0.45594000000E+02  0.51100000000E-03 0. -1.
         11   -1    0    0    0    0 -0.00000000000E+00 -0.00000000000E+00 -0.45593999997E+02  0.45594000000E+02  0.51100000000E-03 0.  1.
    9900012    2    1    2    0    0 -0.30890462796E+02 -0.23472151921E+02  0.19454068009E+02  0.47787269941E+02  0.19999994970E+02 0.  0.
        -12    1    1    2    0    0  0.30890462796E+02  0.23472151921E+02 -0.19454068009E+02  0.43400730059E+02  0.00000000000E+00 0.  1.
         11    1    3    3    0    0 -0.67641689521E+01 -0.32688623750E+01 -0.29202024682E+01  0.80602125007E+01  0.51100000000E-03 0. -1.
        -11    1    3    3    0    0 -0.12119826998E+02 -0.54781776043E+01  0.57839974610E+01  0.14503629312E+02  0.51100000000E-03 0.  1.
         12    1    3    3    0    0 -0.12006466846E+02 -0.14725111942E+02  0.16590273016E+02  0.25223428128E+02  0.00000000000E+00 0. -1.
</event>
<event>
 7    1  0.6622189E-010  0.4778727E+02  0.7816164E-02  0.1312668E+00
        -11   -1    0    0    0    0  0.00000000000E+00  0.00000000000E+00  0.45593999997E+02  0.45594000000E+02  0.51100000000E-03 0. -1.
         11   -1    0    0    0    0 -0.00000000000E+00 -0.00000000000E+00 -0.45593999997E+02  0.45594000000E+02  0.51100000000E-03 0.  1.
    9900012    2    1    2    0    0 -0.13656042074E+02  0.27672128886E+02  0.30518669249E+02  0.47787269880E+02  0.19999994691E+02 0.  0.
        -12    1    1    2    0    0  0.13656042074E+02 -0.27672128886E+02 -0.30518669249E+02  0.43400730120E+02  0.00000000000E+00 0.  1.
         11    1    3    3    0    0 -0.28047936529E+01  0.23075316226E+02  0.25002037382E+02  0.34138526036E+02  0.51100000000E-03 0. -1.
        -11    1    3    3    0    0 -0.10769482899E+02  0.36478970391E+01  0.56327865110E+01  0.12689255252E+02  0.51100000000E-03 0.  1.
         12    1    3    3    0    0 -0.81765521994E-01  0.94891562120E+00 -0.11615464425E+00  0.95948859197E+00  0.00000000000E+00 0. -1.
</event>
<event>
 7    1  0.6622189E-010  0.4778727E+02  0.7816164E-02  0.1312668E+00
        -11   -1    0    0    0    0  0.00000000000E+00  0.00000000000E+00  0.45593999997E+02  0.45594000000E+02  0.51100000000E-03 0. -1.
         11   -1    0    0    0    0 -0.00000000000E+00 -0.00000000000E+00 -0.45593999997E+02  0.45594000000E+02  0.51100000000E-03 0.  1.
    9900012    2    1    2    0    0  0.22046751050E+02 -0.27745818017E+02  0.25054613688E+02  0.47787270556E+02  0.19999997771E+02 0.  0.
        -12    1    1    2    0    0 -0.22046751050E+02  0.27745818017E+02 -0.25054613688E+02  0.43400729444E+02  0.00000000000E+00 0.  1.
         11    1    3    3    0    0  0.15741209949E+02 -0.19903434776E+02  0.22785382423E+02  0.34104340764E+02  0.51100000000E-03 0. -1.
        -11    1    3    3    0    0  0.49476629218E+00 -0.40260364420E+01 -0.29282760101E+01  0.50028555615E+01  0.51100000000E-03 0.  1.
        -12    1    3    3    0    0  0.58107748083E+01 -0.38163467988E+01  0.51975072751E+01  0.86800742299E+01  0.00000000000E+00 0.  1.
</event>
<event>
 7    1  0.6622189E-010  0.4778728E+02  0.7816164E-02  0.1312668E+00
        -11   -1    0    0    0    0  0.00000000000E+00  0.00000000000E+00  0.45593999997E+02  0.45594000000E+02  0.51100000000E-03 0. -1.
         11   -1    0    0    0    0 -0.00000000000E+00 -0.00000000000E+00 -0.45593999997E+02  0.45594000000E+02  0.51100000000E-03 0.  1.
    9900012    2    1    2    0    0  0.19975215583E+01  0.12058773412E+02 -0.41643952087E+02  0.47787275882E+02  0.20000022057E+02 0.  0.
         12    1    1    2    0    0 -0.19975215583E+01 -0.12058773412E+02  0.41643952087E+02  0.43400724118E+02  0.00000000000E+00 0. -1.
         11    1    3    3    0    0  0.44379051822E+01  0.17363391316E+01 -0.29495138686E+02  0.29877635153E+02  0.51100000000E-03 0. -1.
        -11    1    3    3    0    0  0.96063287103E+00  0.84983908624E+00 -0.59556348290E+01  0.60921776454E+01  0.51100000000E-03 0.  1.
         12    1    3    3    0    0 -0.34010164949E+01  0.94725951940E+01 -0.61931785715E+01  0.11817463083E+02  0.00000000000E+00 0. -1.
</event>
<event>
 7    1  0.6622189E-010  0.4778727E+02  0.7816164E-02  0.1312668E+00
        -11   -1    0    0    0    0  0.00000000000E+00  0.00000000000E+00  0.45593999997E+02  0.45594000000E+02  0.51100000000E-03 0. -1.
         11   -1    0    0    0    0 -0.00000000000E+00 -0.00000000000E+00 -0.45593999997E+02  0.45594000000E+02  0.51100000000E-03 0.  1.
    9900012    2    1    2    0    0 -0.32514265786E+02  0.16191723788E+02  0.23754449656E+02  0.47787271005E+02  0.19999999821E+02 0.  0.
        -12    1    1    2    0    0  0.32514265786E+02 -0.16191723788E+02 -0.23754449656E+02  0.43400728995E+02  0.00000000000E+00 0.  1.
         11    1    3    3    0    0  0.14697945558E+01  0.53895892194E+01  0.41404636949E+01  0.69535176608E+01  0.51100000000E-03 0. -1.
        -11    1    3    3    0    0 -0.18258507786E+02  0.74970807048E+01  0.10389062420E+02  0.22304975765E+02  0.51100000000E-03 0.  1.
         12    1    3    3    0    0 -0.15725552556E+02  0.33050538638E+01  0.92249235412E+01  0.18528777579E+02  0.00000000000E+00 0. -1.
</event>
<event>
 7    1  0.6622189E-010  0.4778727E+02  0.7816164E-02  0.1312668E+00
        -11   -1    0    0    0    0  0.00000000000E+00  0.00000000000E+00  0.45593999997E+02  0.45594000000E+02  0.51100000000E-03 0. -1.
         11   -1    0    0    0    0 -0.00000000000E+00 -0.00000000000E+00 -0.45593999997E+02  0.45594000000E+02  0.51100000000E-03 0.  1.
    9900012    2    1    2    0    0  0.28205600157E+01 -0.22218213533E+02  0.37175510922E+02  0.47787272083E+02  0.20000004736E+02 0.  0.
        -12    1    1    2    0    0 -0.28205600157E+01  0.22218213533E+02 -0.37175510922E+02  0.43400727917E+02  0.00000000000E+00 0.  1.
         11    1    3    3    0    0 -0.56719642103E+01 -0.18312790475E+02  0.27565373726E+02  0.33576469468E+02  0.51100000000E-03 0. -1.
        -11    1    3    3    0    0  0.81196033336E+01 -0.18020714788E+01  0.79478938861E+01  0.11504105241E+02  0.51100000000E-03 0.  1.
        -12    1    3    3    0    0  0.37292089250E+00 -0.21033515785E+01  0.16622433101E+01  0.27066973745E+01  0.00000000000E+00 0.  1.
</event>
<event>
 7    1  0.6622189E-010  0.4778727E+02  0.7816164E-02  0.1312668E+00
        -11   -1    0    0    0    0  0.00000000000E+00  0.00000000000E+00  0.45593999997E+02  0.45594000000E+02  0.51100000000E-03 0. -1.
         11   -1    0    0    0    0 -0.00000000000E+00 -0.00000000000E+00 -0.45593999997E+02  0.45594000000E+02  0.51100000000E-03 0.  1.
    9900012    2    1    2    0    0  0.14979948247E+02 -0.17325158359E+02  0.36865476347E+02  0.47787270652E+02  0.19999998209E+02 0.  0.
        -12    1    1    2    0    0 -0.14979948247E+02  0.17325158359E+02 -0.36865476347E+02  0.43400729348E+02  0.00000000000E+00 0.  1.
         11    1    3    3    0    0  0.16243375345E+02 -0.10861519680E+02  0.21554696890E+02  0.29093380874E+02  0.51100000000E-03 0. -1.
        -11    1    3    3    0    0 -0.57736426423E+00  0.95099491945E+00  0.85942687162E+01  0.86659792209E+01  0.51100000000E-03 0.  1.
        -12    1    3    3    0    0 -0.68606283333E+00 -0.74146335984E+01  0.67165107407E+01  0.10027910557E+02  0.00000000000E+00 0.  1.
</event>
<event>
 7    1  0.6622189E-010  0.4778727E+02  0.7816164E-02  0.1312668E+00
        -11   -1    0    0    0    0  0.00000000000E+00  0.00000000000E+00  0.45593999997E+02  0.45594000000E+02  0.51100000000E-03 0. -1.
         11   -1    0    0    0    0 -0.00000000000E+00 -0.00000000000E+00 -0.45593999997E+02  0.45594000000E+02  0.51100000000E-03 0.  1.
    9900012    2    1    2    0    0  0.32989628002E+02  0.47183518221E+01  0.27803679550E+02  0.47787274244E+02  0.20000014589E+02 0.  0.
        -12    1    1    2    0    0 -0.32989628002E+02 -0.47183518221E+01 -0.27803679550E+02  0.43400725756E+02  0.00000000000E+00 0.  1.
         11    1    3    3    0    0  0.14490266269E+01  0.86934327122E+00  0.98835049071E+01  0.10026919038E+02  0.51100000000E-03 0. -1.
        -11    1    3    3    0    0  0.18424035253E+02  0.69738853092E+01  0.11687882922E+02  0.22906041971E+02  0.51100000000E-03 0.  1.
         12    1    3    3    0    0  0.13116566123E+02 -0.31248767583E+01  0.62322917200E+01  0.14854313235E+02  0.00000000000E+00 0. -1.
</event>
<event>
 7    1  0.6622189E-010  0.4778728E+02  0.7816164E-02  0.1312668E+00
        -11   -1    0    0    0    0  0.00000000000E+00  0.00000000000E+00  0.45593999997E+02  0.45594000000E+02  0.51100000000E-03 0. -1.
         11   -1    0    0    0    0 -0.00000000000E+00 -0.00000000000E+00 -0.45593999997E+02  0.45594000000E+02  0.51100000000E-03 0.  1.
    9900012    2    1    2    0    0  0.17377582974E+02  0.15645113296E+02  0.36563268137E+02  0.47787279534E+02  0.20000038708E+02 0.  0.
        -12    1    1    2    0    0 -0.17377582974E+02 -0.15645113296E+02 -0.36563268137E+02  0.43400720466E+02  0.00000000000E+00 0.  1.
         11    1    3    3    0    0 -0.11274824817E+01 -0.31645893049E+01  0.30396981399E+01  0.45305195351E+01  0.51100000000E-03 0. -1.
        -11    1    3    3    0    0  0.46725424183E+01  0.24326529567E+01  0.33480574382E+01  0.62417899619E+01  0.51100000000E-03 0.  1.
         12    1    3    3    0    0  0.13832523038E+02  0.16377049644E+02  0.30175512559E+02  0.37014970037E+02  0.00000000000E+00 0. -1.
</event>
<event>
 7    1  0.6622189E-010  0.4778727E+02  0.7816164E-02  0.1312668E+00
        -11   -1    0    0    0    0  0.00000000000E+00  0.00000000000E+00  0.45593999997E+02  0.45594000000E+02  0.51100000000E-03 0. -1.
         11   -1    0    0    0    0 -0.00000000000E+00 -0.00000000000E+00 -0.45593999997E+02  0.45594000000E+02  0.51100000000E-03 0.  1.
    9900012    2    1    2    0    0  0.25355776468E+02 -0.33054086529E+00 -0.35222129960E+02  0.47787273088E+02  0.20000009318E+02 0.  0.
         12    1    1    2    0    0 -0.25355776468E+02  0.33054086529E+00  0.35222129960E+02  0.43400726912E+02  0.00000000000E+00 0. -1.
         11    1    3    3    0    0  0.23836123863E+02  0.10693039734E+01 -0.30617663347E+02  0.38816820077E+02  0.51100000000E-03 0. -1.
        -11    1    3    3    0    0  0.24463825097E+01  0.10985992547E+01 -0.55329124232E+01  0.61485630720E+01  0.51100000000E-03 0.  1.
         12    1    3    3    0    0 -0.92672990540E+00 -0.24984440934E+01  0.92844580998E+00  0.28218899389E+01  0.00000000000E+00 0. -1.
</event>
<event>
 7    1  0.6622189E-010  0.4778727E+02  0.7816164E-02  0.1312668E+00
        -11   -1    0    0    0    0  0.00000000000E+00  0.00000000000E+00  0.45593999997E+02  0.45594000000E+02  0.51100000000E-03 0. -1.
         11   -1    0    0    0    0 -0.00000000000E+00 -0.00000000000E+00 -0.45593999997E+02  0.45594000000E+02  0.51100000000E-03 0.  1.
    9900012    2    1    2    0    0 -0.55731644807E+01 -0.20345459940E+02  0.37929214427E+02  0.47787271785E+02  0.20000003378E+02 0.  0.
        -12    1    1    2    0    0  0.55731644807E+01  0.20345459940E+02 -0.37929214427E+02  0.43400728215E+02  0.00000000000E+00 0.  1.
         11    1    3    3    0    0  0.29590823229E+01 -0.18834566936E+02  0.27341232589E+02  0.33332267844E+02  0.51100000000E-03 0. -1.
        -11    1    3    3    0    0 -0.77620671321E+01 -0.27001614740E+01  0.99387001210E+01  0.12896445964E+02  0.51100000000E-03 0.  1.
        -12    1    3    3    0    0 -0.77017967157E+00  0.11892684701E+01  0.64928171691E+00  0.15585579772E+01  0.00000000000E+00 0.  1.
</event>
<event>
 7    1  0.6622189E-010  0.4778727E+02  0.7816164E-02  0.1312668E+00
        -11   -1    0    0    0    0  0.00000000000E+00  0.00000000000E+00  0.45593999997E+02  0.45594000000E+02  0.51100000000E-03 0. -1.
         11   -1    0    0    0    0 -0.00000000000E+00 -0.00000000000E+00 -0.45593999997E+02  0.45594000000E+02  0.51100000000E-03 0.  1.
    9900012    2    1    2    0    0  0.49171175882E+01  0.14934471892E+02 -0.40452531229E+02  0.47787265226E+02  0.19999973472E+02 0.  0.
         12    1    1    2    0    0 -0.49171175882E+01 -0.14934471892E+02  0.40452531229E+02  0.43400734774E+02  0.00000000000E+00 0. -1.
         11    1    3    3    0    0 -0.16931124041E+01 -0.73109402656E+00 -0.98959103101E+01  0.10066288751E+02  0.51100000000E-03 0. -1.
        -11    1    3    3    0    0  0.79081085428E+01  0.14848544133E+02 -0.16442865980E+02  0.23524142609E+02  0.51100000000E-03 0.  1.
        -12    1    3    3    0    0 -0.12978785506E+01  0.81702178497E+00 -0.14113754940E+02  0.14196833866E+02  0.00000000000E+00 0.  1.
</event>
<event>
 7    1  0.6622189E-010  0.4778728E+02  0.7816164E-02  0.1312668E+00
        -11   -1    0    0    0    0  0.00000000000E+00  0.00000000000E+00  0.45593999997E+02  0.45594000000E+02  0.51100000000E-03 0. -1.
         11   -1    0    0    0    0 -0.00000000000E+00 -0.00000000000E+00 -0.45593999997E+02  0.45594000000E+02  0.51100000000E-03 0.  1.
    9900012    2    1    2    0    0  0.19765648194E+02 -0.63124468276E+01 -0.38119484408E+02  0.47787275064E+02  0.20000018325E+02 0.  0.
         12    1    1    2    0    0 -0.19765648194E+02  0.63124468276E+01  0.38119484408E+02  0.43400724936E+02  0.00000000000E+00 0. -1.
         11    1    3    3    0    0  0.12325221876E+02 -0.12509813065E+02 -0.30592370054E+02  0.35274631437E+02  0.51100000000E-03 0. -1.
        -11    1    3    3    0    0  0.40455295236E+01  0.35567880184E+01 -0.56912326755E+01  0.78362733338E+01  0.51100000000E-03 0.  1.
         12    1    3    3    0    0  0.33948967947E+01  0.26405782193E+01 -0.18358816779E+01  0.46763702927E+01  0.00000000000E+00 0. -1.
</event>
<event>
 7    1  0.6622189E-010  0.4778727E+02  0.7816164E-02  0.1312668E+00
        -11   -1    0    0    0    0  0.00000000000E+00  0.00000000000E+00  0.45593999997E+02  0.45594000000E+02  0.51100000000E-03 0. -1.
         11   -1    0    0    0    0 -0.00000000000E+00 -0.00000000000E+00 -0.45593999997E+02  0.45594000000E+02  0.51100000000E-03 0.  1.
    9900012    2    1    2    0    0  0.53383922311E+01  0.91018939618E+01 -0.42098459338E+02  0.47787272081E+02  0.20000004724E+02 0.  0.
         12    1    1    2    0    0 -0.53383922311E+01 -0.91018939618E+01  0.42098459338E+02  0.43400727919E+02  0.00000000000E+00 0. -1.
         11    1    3    3    0    0 -0.27016576711E+01 -0.51023327338E+01 -0.72046161698E+01  0.92325103798E+01  0.51100000000E-03 0. -1.
        -11    1    3    3    0    0  0.25226944657E+01  0.53655081597E+01 -0.11244591454E+02  0.12711943298E+02  0.51100000000E-03 0.  1.
         12    1    3    3    0    0  0.55173554366E+01  0.88387185359E+01 -0.23649251714E+02  0.25842818403E+02  0.00000000000E+00 0. -1.
</event>
<event>
 7    1  0.6622189E-010  0.4778729E+02  0.7816164E-02  0.1312668E+00
        -11   -1    0    0    0    0  0.00000000000E+00  0.00000000000E+00  0.45593999997E+02  0.45594000000E+02  0.51100000000E-03 0.  1.
         11   -1    0    0    0    0 -0.00000000000E+00 -0.00000000000E+00 -0.45593999997E+02  0.45594000000E+02  0.51100000000E-03 0. -1.
    9900012    2    1    2    0    0  0.36415024186E+02  0.14216756613E+02 -0.18853420435E+02  0.47787290130E+02  0.20000087019E+02 0.  0.
         12    1    1    2    0    0 -0.36415024186E+02 -0.14216756613E+02  0.18853420435E+02  0.43400709870E+02  0.00000000000E+00 0. -1.
         11    1    3    3    0    0  0.64227621484E+01  0.77513582788E+01  0.72801558668E+00  0.10092840816E+02  0.51100000000E-03 0. -1.
        -11    1    3    3    0    0  0.16895083274E+02  0.69837003189E+01 -0.15494998559E+02  0.23964784363E+02  0.51100000000E-03 0.  1.
         12    1    3    3    0    0  0.13097178764E+02 -0.51830198443E+00 -0.40864374627E+01  0.13729664951E+02  0.00000000000E+00 0. -1.
</event>
<event>
 7    1  0.6622189E-010  0.4778727E+02  0.7816164E-02  0.1312668E+00
        -11   -1    0    0    0    0  0.00000000000E+00  0.00000000000E+00  0.45593999997E+02  0.45594000000E+02  0.51100000000E-03 0. -1.
         11   -1    0    0    0    0 -0.00000000000E+00 -0.00000000000E+00 -0.45593999997E+02  0.45594000000E+02  0.51100000000E-03 0.  1.
    9900012    2    1    2    0    0 -0.12058748312E+02 -0.10991662549E+02 -0.40216833596E+02  0.47787265434E+02  0.19999974419E+02 0.  0.
         12    1    1    2    0    0  0.12058748312E+02  0.10991662549E+02  0.40216833596E+02  0.43400734566E+02  0.00000000000E+00 0. -1.
         11    1    3    3    0    0  0.46357031636E-01 -0.53469701937E+01 -0.27672367980E+02  0.28184254276E+02  0.51100000000E-03 0. -1.
        -11    1    3    3    0    0 -0.89183222954E+01 -0.64777682767E+01 -0.67139224428E+01  0.12906382500E+02  0.51100000000E-03 0.  1.
        -12    1    3    3    0    0 -0.31867830478E+01  0.83307592148E+00 -0.58305431726E+01  0.66966286571E+01  0.00000000000E+00 0.  1.
</event>
<event>
 7    1  0.6622189E-010  0.4778727E+02  0.7816164E-02  0.1312668E+00
        -11   -1    0    0    0    0  0.00000000000E+00  0.00000000000E+00  0.45593999997E+02  0.45594000000E+02  0.51100000000E-03 0.  1.
         11   -1    0    0    0    0 -0.00000000000E+00 -0.00000000000E+00 -0.45593999997E+02  0.45594000000E+02  0.51100000000E-03 0. -1.
    9900012    2    1    2    0    0 -0.13632466818E+02 -0.36167104166E+02 -0.19741320303E+02  0.47787270713E+02  0.19999998490E+02 0.  0.
         12    1    1    2    0    0  0.13632466818E+02  0.36167104166E+02  0.19741320303E+02  0.43400729287E+02  0.00000000000E+00 0. -1.
         11    1    3    3    0    0 -0.43321368022E+01 -0.12232471712E+01 -0.19272474155E+00  0.45056504527E+01  0.51100000000E-03 0. -1.
        -11    1    3    3    0    0 -0.11404474734E+02 -0.34643971377E+02 -0.18759507252E+02  0.41014459759E+02  0.51100000000E-03 0.  1.
         12    1    3    3    0    0  0.21041447183E+01 -0.29988561782E+00 -0.78908830964E+00  0.22671605015E+01  0.00000000000E+00 0. -1.
</event>
<event>
 7    1  0.6622189E-010  0.4778727E+02  0.7816164E-02  0.1312668E+00
        -11   -1    0    0    0    0  0.00000000000E+00  0.00000000000E+00  0.45593999997E+02  0.45594000000E+02  0.51100000000E-03 0. -1.
         11   -1    0    0    0    0 -0.00000000000E+00 -0.00000000000E+00 -0.45593999997E+02  0.45594000000E+02  0.51100000000E-03 0.  1.
    9900012    2    1    2    0    0 -0.16207809392E+02  0.13440291527E+02 -0.37951140195E+02  0.47787267705E+02  0.19999984774E+02 0.  0.
         12    1    1    2    0    0  0.16207809392E+02 -0.13440291527E+02  0.37951140195E+02  0.43400732295E+02  0.00000000000E+00 0. -1.
         11    1    3    3    0    0 -0.40593135785E+01  0.20261220527E+01 -0.18580106822E+02  0.19125991924E+02  0.51100000000E-03 0. -1.
        -11    1    3    3    0    0 -0.10390577634E+02  0.13522548740E+02 -0.12158564563E+02  0.20944071249E+02  0.51100000000E-03 0.  1.
        -12    1    3    3    0    0 -0.17579181797E+01 -0.21083792653E+01 -0.72124688103E+01  0.77172045322E+01  0.00000000000E+00 0.  1.
</event>
<event>
 7    1  0.6622189E-010  0.4778727E+02  0.7816164E-02  0.1312668E+00
        -11   -1    0    0    0    0  0.00000000000E+00  0.00000000000E+00  0.45593999997E+02  0.45594000000E+02  0.51100000000E-03 0. -1.
         11   -1    0    0    0    0 -0.00000000000E+00 -0.00000000000E+00 -0.45593999997E+02  0.45594000000E+02  0.51100000000E-03 0.  1.
    9900012    2    1    2    0    0 -0.17049819780E+02 -0.18116963108E+02  0.35562660248E+02  0.47787268316E+02  0.19999987561E+02 0.  0.
        -12    1    1    2    0    0  0.17049819780E+02  0.18116963108E+02 -0.35562660248E+02  0.43400731684E+02  0.00000000000E+00 0.  1.
         11    1    3    3    0    0 -0.13410954542E+01 -0.13799613592E+02  0.18803955200E+02  0.23362718244E+02  0.51100000000E-03 0. -1.
        -11    1    3    3    0    0 -0.14638060229E+02 -0.30196645646E+01  0.11370354460E+02  0.18779673644E+02  0.51100000000E-03 0.  1.
        -12    1    3    3    0    0 -0.10706640963E+01 -0.12976849517E+01  0.53883505877E+01  0.56448764289E+01  0.00000000000E+00 0.  1.
</event>
<event>
 7    1  0.6622189E-010  0.4778727E+02  0.7816164E-02  0.1312668E+00
        -11   -1    0    0    0    0  0.00000000000E+00  0.00000000000E+00  0.45593999997E+02  0.45594000000E+02  0.51100000000E-03 0. -1.
         11   -1    0    0    0    0 -0.00000000000E+00 -0.00000000000E+00 -0.45593999997E+02  0.45594000000E+02  0.51100000000E-03 0.  1.
    9900012    2    1    2    0    0  0.24343791565E+02  0.34922972394E+02 -0.84492035414E+01  0.47787271560E+02  0.20000002353E+02 0.  0.
         12    1    1    2    0    0 -0.24343791565E+02 -0.34922972394E+02  0.84492035414E+01  0.43400728440E+02  0.00000000000E+00 0. -1.
         11    1    3    3    0    0 -0.90322194510E+00  0.71494901236E+01 -0.38621643676E+01  0.81760218182E+01  0.51100000000E-03 0. -1.
        -11    1    3    3    0    0  0.17768460369E+02  0.19765333322E+02  0.22873254267E+01  0.26676177445E+02  0.51100000000E-03 0.  1.
        -12    1    3    3    0    0  0.74785531407E+01  0.80081489486E+01 -0.68743646005E+01  0.12935072297E+02  0.00000000000E+00 0.  1.
</event>
<event>
 7    1  0.6622189E-010  0.4778727E+02  0.7816164E-02  0.1312668E+00
        -11   -1    0    0    0    0  0.00000000000E+00  0.00000000000E+00  0.45593999997E+02  0.45594000000E+02  0.51100000000E-03 0. -1.
         11   -1    0    0    0    0 -0.00000000000E+00 -0.00000000000E+00 -0.45593999997E+02  0.45594000000E+02  0.51100000000E-03 0.  1.
    9900012    2    1    2    0    0  0.16376007413E+01  0.20752449276E+02 -0.38082512300E+02  0.47787266939E+02  0.19999981281E+02 0.  0.
         12    1    1    2    0    0 -0.16376007413E+01 -0.20752449276E+02  0.38082512300E+02  0.43400733061E+02  0.00000000000E+00 0. -1.
         11    1    3    3    0    0 -0.39688248286E+01 -0.53654236978E-01 -0.54524112431E+01  0.67441261793E+01  0.51100000000E-03 0. -1.
        -11    1    3    3    0    0  0.89979115146E+01  0.18378189279E+02 -0.29126226109E+02  0.35595748348E+02  0.51100000000E-03 0.  1.
        -12    1    3    3    0    0 -0.33914859446E+01  0.24279142335E+01 -0.35038749481E+01  0.54473924119E+01  0.00000000000E+00 0.  1.
</event>
<event>
 7    1  0.6622189E-010  0.4778727E+02  0.7816164E-02  0.1312668E+00
        -11   -1    0    0    0    0  0.00000000000E+00  0.00000000000E+00  0.45593999997E+02  0.45594000000E+02  0.51100000000E-03 0.  1.
         11   -1    0    0    0    0 -0.00000000000E+00 -0.00000000000E+00 -0.45593999997E+02  0.45594000000E+02  0.51100000000E-03 0. -1.
    9900012    2    1    2    0    0  0.18139980178E+02 -0.39130717039E+02 -0.48323548751E+01  0.47787267857E+02  0.19999985469E+02 0.  0.
        -12    1    1    2    0    0 -0.18139980178E+02  0.39130717039E+02  0.48323548751E+01  0.43400732143E+02  0.00000000000E+00 0.  1.
         11    1    3    3    0    0  0.40219875944E+01 -0.97076806429E+01 -0.14416115838E+01  0.10606304347E+02  0.51100000000E-03 0. -1.
        -11    1    3    3    0    0  0.11808892580E+02 -0.22475067229E+02 -0.10029391199E+02  0.27297752270E+02  0.51100000000E-03 0.  1.
        -12    1    3    3    0    0  0.23091000036E+01 -0.69479691674E+01  0.66386479082E+01  0.98832112406E+01  0.00000000000E+00 0.  1.
</event>
<event>
 7    1  0.6622189E-010  0.4778727E+02  0.7816164E-02  0.1312668E+00
        -11   -1    0    0    0    0  0.00000000000E+00  0.00000000000E+00  0.45593999997E+02  0.45594000000E+02  0.51100000000E-03 0. -1.
         11   -1    0    0    0    0 -0.00000000000E+00 -0.00000000000E+00 -0.45593999997E+02  0.45594000000E+02  0.51100000000E-03 0.  1.
    9900012    2    1    2    0    0 -0.18944254472E+02 -0.82169326177E+00 -0.39039257973E+02  0.47787267053E+02  0.19999981800E+02 0.  0.
         12    1    1    2    0    0  0.18944254472E+02  0.82169326177E+00  0.39039257973E+02  0.43400732947E+02  0.00000000000E+00 0. -1.
         11    1    3    3    0    0 -0.81369810994E+01  0.22241414712E+01 -0.60069819635E+01  0.10355727848E+02  0.51100000000E-03 0. -1.
        -11    1    3    3    0    0 -0.37664226082E+01  0.14190253153E+01 -0.26596485704E+02  0.26899305273E+02  0.51100000000E-03 0.  1.
        -12    1    3    3    0    0 -0.70408507641E+01 -0.44648600483E+01 -0.64357903046E+01  0.10532233931E+02  0.00000000000E+00 0.  1.
</event>
<event>
 7    1  0.6622189E-010  0.4778727E+02  0.7816164E-02  0.1312668E+00
        -11   -1    0    0    0    0  0.00000000000E+00  0.00000000000E+00  0.45593999997E+02  0.45594000000E+02  0.51100000000E-03 0. -1.
         11   -1    0    0    0    0 -0.00000000000E+00 -0.00000000000E+00 -0.45593999997E+02  0.45594000000E+02  0.51100000000E-03 0.  1.
    9900012    2    1    2    0    0 -0.20346301567E+02 -0.10180281370E+02 -0.36959617115E+02  0.47787269435E+02  0.19999992664E+02 0.  0.
         12    1    1    2    0    0  0.20346301567E+02  0.10180281370E+02  0.36959617115E+02  0.43400730565E+02  0.00000000000E+00 0. -1.
         11    1    3    3    0    0 -0.60884504201E+01  0.43223498846E+01 -0.81019310074E+01  0.11017859291E+02  0.51100000000E-03 0. -1.
        -11    1    3    3    0    0 -0.63176845469E+01 -0.10433523950E+02 -0.23182189875E+02  0.26195142445E+02  0.51100000000E-03 0.  1.
         12    1    3    3    0    0 -0.79401666002E+01 -0.40691073041E+01 -0.56754962328E+01  0.10574267699E+02  0.00000000000E+00 0. -1.
</event>
<event>
 7    1  0.6622189E-010  0.4778727E+02  0.7816164E-02  0.1312668E+00
        -11   -1    0    0    0    0  0.00000000000E+00  0.00000000000E+00  0.45593999997E+02  0.45594000000E+02  0.51100000000E-03 0. -1.
         11   -1    0    0    0    0 -0.00000000000E+00 -0.00000000000E+00 -0.45593999997E+02  0.45594000000E+02  0.51100000000E-03 0.  1.
    9900012    2    1    2    0    0 -0.77604873671E+01  0.86807869613E-02 -0.42701265954E+02  0.47787270126E+02  0.19999995814E+02 0.  0.
         12    1    1    2    0    0  0.77604873671E+01 -0.86807869613E-02  0.42701265954E+02  0.43400729874E+02  0.00000000000E+00 0. -1.
         11    1    3    3    0    0 -0.10088772577E+01  0.36757932367E+01 -0.36894855581E+01  0.53048650486E+01  0.51100000000E-03 0.  1.
        -11    1    3    3    0    0 -0.10560412844E+02  0.12096502515E+01 -0.24519798640E+02  0.26724634679E+02  0.51100000000E-03 0. -1.
        -12    1    3    3    0    0  0.38088027342E+01 -0.48767627012E+01 -0.14491981756E+02  0.15757770398E+02  0.00000000000E+00 0.  1.
</event>
<event>
 7    1  0.6622189E-010  0.4778728E+02  0.7816164E-02  0.1312668E+00
        -11   -1    0    0    0    0  0.00000000000E+00  0.00000000000E+00  0.45593999997E+02  0.45594000000E+02  0.51100000000E-03 0. -1.
         11   -1    0    0    0    0 -0.00000000000E+00 -0.00000000000E+00 -0.45593999997E+02  0.45594000000E+02  0.51100000000E-03 0.  1.
    9900012    2    1    2    0    0 -0.14475731556E+02 -0.39697949776E+02 -0.99070096384E+01  0.47787275807E+02  0.20000021715E+02 0.  0.
         12    1    1    2    0    0  0.14475731556E+02  0.39697949776E+02  0.99070096384E+01  0.43400724193E+02  0.00000000000E+00 0. -1.
         11    1    3    3    0    0 -0.64776810397E+01 -0.16990303394E+02 -0.33228571451E+00  0.18186290857E+02  0.51100000000E-03 0. -1.
        -11    1    3    3    0    0  0.12763892478E+01 -0.36960891560E+01  0.30569071436E+01  0.49633583497E+01  0.51100000000E-03 0.  1.
        -12    1    3    3    0    0 -0.92744397637E+01 -0.19011557226E+02 -0.12631631067E+02  0.24637626601E+02  0.00000000000E+00 0.  1.
</event>
<event>
 7    1  0.6622189E-010  0.4778727E+02  0.7816164E-02  0.1312668E+00
        -11   -1    0    0    0    0  0.00000000000E+00  0.00000000000E+00  0.45593999997E+02  0.45594000000E+02  0.51100000000E-03 0. -1.
         11   -1    0    0    0    0 -0.00000000000E+00 -0.00000000000E+00 -0.45593999997E+02  0.45594000000E+02  0.51100000000E-03 0.  1.
    9900012    2    1    2    0    0  0.15649331664E+01  0.62012366026E+01 -0.42926900012E+02  0.47787273095E+02  0.20000009350E+02 0.  0.
         12    1    1    2    0    0 -0.15649331664E+01 -0.62012366026E+01  0.42926900012E+02  0.43400726905E+02  0.00000000000E+00 0. -1.
         11    1    3    3    0    0 -0.36580988262E+01  0.73718114822E+01 -0.32101554482E+02  0.33139630233E+02  0.51100000000E-03 0. -1.
        -11    1    3    3    0    0  0.58505193572E+01 -0.33180310493E+01 -0.10376723178E+02  0.12365851809E+02  0.51100000000E-03 0.  1.
         12    1    3    3    0    0 -0.62748736456E+00  0.21474561697E+01 -0.44862235142E+00  0.22817910526E+01  0.00000000000E+00 0. -1.
</event>
<event>
 7    1  0.6622189E-010  0.4778727E+02  0.7816164E-02  0.1312668E+00
        -11   -1    0    0    0    0  0.00000000000E+00  0.00000000000E+00  0.45593999997E+02  0.45594000000E+02  0.51100000000E-03 0. -1.
         11   -1    0    0    0    0 -0.00000000000E+00 -0.00000000000E+00 -0.45593999997E+02  0.45594000000E+02  0.51100000000E-03 0.  1.
    9900012    2    1    2    0    0  0.24637781506E+02 -0.16458439917E+02 -0.31713130412E+02  0.47787272327E+02  0.20000005847E+02 0.  0.
         12    1    1    2    0    0 -0.24637781506E+02  0.16458439917E+02  0.31713130412E+02  0.43400727673E+02  0.00000000000E+00 0. -1.
         11    1    3    3    0    0  0.80912512461E+01 -0.82005535828E+01 -0.19490846421E+01  0.11684021439E+02  0.51100000000E-03 0. -1.
        -11    1    3    3    0    0  0.74906824502E+01 -0.76985632295E+01 -0.20456446432E+02  0.23105073041E+02  0.51100000000E-03 0.  1.
         12    1    3    3    0    0  0.90558478094E+01 -0.55932310510E+00 -0.93075993383E+01  0.12998177846E+02  0.00000000000E+00 0. -1.
</event>
<event>
 7    1  0.6622189E-010  0.4778727E+02  0.7816164E-02  0.1312668E+00
        -11   -1    0    0    0    0  0.00000000000E+00  0.00000000000E+00  0.45593999997E+02  0.45594000000E+02  0.51100000000E-03 0. -1.
         11   -1    0    0    0    0 -0.00000000000E+00 -0.00000000000E+00 -0.45593999997E+02  0.45594000000E+02  0.51100000000E-03 0.  1.
    9900012    2    1    2    0    0 -0.13945220854E+02  0.32925136661E+02 -0.24598561621E+02  0.47787273708E+02  0.20000012144E+02 0.  0.
         12    1    1    2    0    0  0.13945220854E+02 -0.32925136661E+02  0.24598561621E+02  0.43400726292E+02  0.00000000000E+00 0. -1.
         11    1    3    3    0    0 -0.52227095925E+01  0.17638090150E+01 -0.98135947088E+01  0.11255858879E+02  0.51100000000E-03 0. -1.
        -11    1    3    3    0    0 -0.86448406388E+01  0.24523519719E+02 -0.14746443433E+02  0.29893040716E+02  0.51100000000E-03 0.  1.
         12    1    3    3    0    0 -0.77670622591E-01  0.66378079277E+01 -0.38523479739E-01  0.66383741134E+01  0.00000000000E+00 0. -1.
</event>
<event>
 7    1  0.6622189E-010  0.4778726E+02  0.7816164E-02  0.1312668E+00
        -11   -1    0    0    0    0  0.00000000000E+00  0.00000000000E+00  0.45593999997E+02  0.45594000000E+02  0.51100000000E-03 0. -1.
         11   -1    0    0    0    0 -0.00000000000E+00 -0.00000000000E+00 -0.45593999997E+02  0.45594000000E+02  0.51100000000E-03 0.  1.
    9900012    2    1    2    0    0 -0.17847856379E+02 -0.33868102825E+02 -0.20445772459E+02  0.47787262935E+02  0.19999963027E+02 0.  0.
         12    1    1    2    0    0  0.17847856379E+02  0.33868102825E+02  0.20445772459E+02  0.43400737065E+02  0.00000000000E+00 0. -1.
         11    1    3    3    0    0 -0.25332530199E+01 -0.79502161328E+00  0.26526273049E+01  0.37531136551E+01  0.51100000000E-03 0. -1.
        -11    1    3    3    0    0 -0.75550634629E+01 -0.10376573171E+02 -0.12124944523E+02  0.17656911810E+02  0.51100000000E-03 0.  1.
         12    1    3    3    0    0 -0.77595398966E+01 -0.22696508041E+02 -0.10973455240E+02  0.26377237471E+02  0.00000000000E+00 0. -1.
</event>
<event>
 7    1  0.6622189E-010  0.4778727E+02  0.7816164E-02  0.1312668E+00
        -11   -1    0    0    0    0  0.00000000000E+00  0.00000000000E+00  0.45593999997E+02  0.45594000000E+02  0.51100000000E-03 0. -1.
         11   -1    0    0    0    0 -0.00000000000E+00 -0.00000000000E+00 -0.45593999997E+02  0.45594000000E+02  0.51100000000E-03 0.  1.
    9900012    2    1    2    0    0  0.24681237580E+02 -0.28620159480E+02 -0.21338843769E+02  0.47787271083E+02  0.20000000175E+02 0.  0.
         12    1    1    2    0    0 -0.24681237580E+02  0.28620159480E+02  0.21338843769E+02  0.43400728917E+02  0.00000000000E+00 0. -1.
         11    1    3    3    0    0  0.10506026138E+02 -0.14961438673E+02 -0.31631495246E+01  0.18553348689E+02  0.51100000000E-03 0. -1.
        -11    1    3    3    0    0  0.88851028977E+01 -0.14850275406E+01 -0.41341729513E+01  0.99116974606E+01  0.51100000000E-03 0.  1.
        -12    1    3    3    0    0  0.52901085448E+01 -0.12173693266E+02 -0.14041521294E+02  0.19322224934E+02  0.00000000000E+00 0.  1.
</event>
<event>
 7    1  0.6622189E-010  0.4778726E+02  0.7816164E-02  0.1312668E+00
        -11   -1    0    0    0    0  0.00000000000E+00  0.00000000000E+00  0.45593999997E+02  0.45594000000E+02  0.51100000000E-03 0. -1.
         11   -1    0    0    0    0 -0.00000000000E+00 -0.00000000000E+00 -0.45593999997E+02  0.45594000000E+02  0.51100000000E-03 0.  1.
    9900012    2    1    2    0    0 -0.22362607886E+02 -0.35920087845E+02 -0.96584283854E+01  0.47787260592E+02  0.19999952345E+02 0.  0.
         12    1    1    2    0    0  0.22362607886E+02  0.35920087845E+02  0.96584283854E+01  0.43400739408E+02  0.00000000000E+00 0. -1.
         11    1    3    3    0    0  0.33074807483E+01 -0.53387463851E+01 -0.12659874597E+01  0.64065877325E+01  0.51100000000E-03 0. -1.
        -11    1    3    3    0    0 -0.19126643430E+02 -0.22412396740E+02 -0.30279503121E+01  0.29619461506E+02  0.51100000000E-03 0.  1.
         12    1    3    3    0    0 -0.65434452048E+01 -0.81689447194E+01 -0.53644906136E+01  0.11761211354E+02  0.00000000000E+00 0. -1.
</event>
<event>
 7    1  0.6622189E-010  0.4778727E+02  0.7816164E-02  0.1312668E+00
        -11   -1    0    0    0    0  0.00000000000E+00  0.00000000000E+00  0.45593999997E+02  0.45594000000E+02  0.51100000000E-03 0. -1.
         11   -1    0    0    0    0 -0.00000000000E+00 -0.00000000000E+00 -0.45593999997E+02  0.45594000000E+02  0.51100000000E-03 0.  1.
    9900012    2    1    2    0    0  0.27656122170E+01 -0.93712728074E+01  0.42286571653E+02  0.47787268357E+02  0.19999987748E+02 0.  0.
        -12    1    1    2    0    0 -0.27656122170E+01  0.93712728074E+01 -0.42286571653E+02  0.43400731643E+02  0.00000000000E+00 0.  1.
         11    1    3    3    0    0 -0.62966525275E+01 -0.89130066917E+01  0.15738396431E+02  0.19151674700E+02  0.51100000000E-03 0. -1.
        -11    1    3    3    0    0  0.28521471209E+01  0.25535268172E+01  0.97755624601E+01  0.10498421980E+02  0.51100000000E-03 0.  1.
         12    1    3    3    0    0  0.62101176236E+01 -0.30117929328E+01  0.16772612762E+02  0.18137171677E+02  0.00000000000E+00 0. -1.
</event>
<event>
 7    1  0.6622189E-010  0.4778727E+02  0.7816164E-02  0.1312668E+00
        -11   -1    0    0    0    0  0.00000000000E+00  0.00000000000E+00  0.45593999997E+02  0.45594000000E+02  0.51100000000E-03 0. -1.
         11   -1    0    0    0    0 -0.00000000000E+00 -0.00000000000E+00 -0.45593999997E+02  0.45594000000E+02  0.51100000000E-03 0.  1.
    9900012    2    1    2    0    0  0.21725757687E+02 -0.22974477267E+02  0.29728571336E+02  0.47787272973E+02  0.20000008794E+02 0.  0.
        -12    1    1    2    0    0 -0.21725757687E+02  0.22974477267E+02 -0.29728571336E+02  0.43400727027E+02  0.00000000000E+00 0.  1.
         11    1    3    3    0    0  0.59634274936E+01  0.15117505689E+01  0.86526412365E+01  0.10616781899E+02  0.51100000000E-03 0. -1.
        -11    1    3    3    0    0  0.51106572707E+01 -0.12887898987E+02  0.51945913242E+01  0.14805422565E+02  0.51100000000E-03 0.  1.
        -12    1    3    3    0    0  0.10651672923E+02 -0.11598328848E+02  0.15881338775E+02  0.22365068509E+02  0.00000000000E+00 0.  1.
</event>
<event>
 7    1  0.6622189E-010  0.4778727E+02  0.7816164E-02  0.1312668E+00
        -11   -1    0    0    0    0  0.00000000000E+00  0.00000000000E+00  0.45593999997E+02  0.45594000000E+02  0.51100000000E-03 0. -1.
         11   -1    0    0    0    0 -0.00000000000E+00 -0.00000000000E+00 -0.45593999997E+02  0.45594000000E+02  0.51100000000E-03 0.  1.
    9900012    2    1    2    0    0  0.13751486154E+02 -0.17065214052E+02  0.37460628128E+02  0.47787267727E+02  0.19999984874E+02 0.  0.
        -12    1    1    2    0    0 -0.13751486154E+02  0.17065214052E+02 -0.37460628128E+02  0.43400732273E+02  0.00000000000E+00 0.  1.
         11    1    3    3    0    0  0.57044984607E+01 -0.12267184708E+02  0.11073252595E+02  0.17482621275E+02  0.51100000000E-03 0. -1.
        -11    1    3    3    0    0  0.16361008372E+01 -0.42969799787E+01  0.22106495634E+02  0.22579592830E+02  0.51100000000E-03 0.  1.
        -12    1    3    3    0    0  0.64108868564E+01 -0.50104936532E+00  0.42808798984E+01  0.77250536217E+01  0.00000000000E+00 0.  1.
</event>
<event>
 7    1  0.6622189E-010  0.4778724E+02  0.7816164E-02  0.1312668E+00
        -11   -1    0    0    0    0  0.00000000000E+00  0.00000000000E+00  0.45593999997E+02  0.45594000000E+02  0.51100000000E-03 0. -1.
         11   -1    0    0    0    0 -0.00000000000E+00 -0.00000000000E+00 -0.45593999997E+02  0.45594000000E+02  0.51100000000E-03 0.  1.
    9900012    2    1    2    0    0 -0.12054248772E+02  0.29698569347E+02  0.29262879846E+02  0.47787238813E+02  0.19999853044E+02 0.  0.
        -12    1    1    2    0    0  0.12054248772E+02 -0.29698569347E+02 -0.29262879846E+02  0.43400761187E+02  0.00000000000E+00 0.  1.
         11    1    3    3    0    0 -0.13695296766E+02  0.12865604403E+02  0.16957897323E+02  0.25311167734E+02  0.51100000000E-03 0. -1.
        -11    1    3    3    0    0  0.46242145018E+01  0.99031955336E+01  0.51650836969E+01  0.12088619913E+02  0.51100000000E-03 0.  1.
         12    1    3    3    0    0 -0.29831665080E+01  0.69297694099E+01  0.71398988265E+01  0.10387451167E+02  0.00000000000E+00 0. -1.
</event>
<event>
 7    1  0.6622189E-010  0.4778727E+02  0.7816164E-02  0.1312668E+00
        -11   -1    0    0    0    0  0.00000000000E+00  0.00000000000E+00  0.45593999997E+02  0.45594000000E+02  0.51100000000E-03 0. -1.
         11   -1    0    0    0    0 -0.00000000000E+00 -0.00000000000E+00 -0.45593999997E+02  0.45594000000E+02  0.51100000000E-03 0.  1.
    9900012    2    1    2    0    0 -0.17758439517E+02 -0.18087601515E+02  0.35229245729E+02  0.47787271236E+02  0.20000000872E+02 0.  0.
        -12    1    1    2    0    0  0.17758439517E+02  0.18087601515E+02 -0.35229245729E+02  0.43400728764E+02  0.00000000000E+00 0.  1.
         11    1    3    3    0    0 -0.90727177191E+01 -0.86313305712E+01  0.33134600077E+01  0.12953497278E+02  0.51100000000E-03 0. -1.
        -11    1    3    3    0    0 -0.62104627183E+01 -0.69181433077E+01  0.28222320236E+02  0.29714136598E+02  0.51100000000E-03 0.  1.
         12    1    3    3    0    0 -0.24752590797E+01 -0.25381276358E+01  0.36934654856E+01  0.51196373602E+01  0.00000000000E+00 0. -1.
</event>
<event>
 7    1  0.6622189E-010  0.4778726E+02  0.7816164E-02  0.1312668E+00
        -11   -1    0    0    0    0  0.00000000000E+00  0.00000000000E+00  0.45593999997E+02  0.45594000000E+02  0.51100000000E-03 0. -1.
         11   -1    0    0    0    0 -0.00000000000E+00 -0.00000000000E+00 -0.45593999997E+02  0.45594000000E+02  0.51100000000E-03 0.  1.
    9900012    2    1    2    0    0  0.98223447321E+01 -0.28140204218E+02 -0.31547969349E+02  0.47787263607E+02  0.19999966088E+02 0.  0.
         12    1    1    2    0    0 -0.98223447321E+01  0.28140204218E+02  0.31547969349E+02  0.43400736393E+02  0.00000000000E+00 0. -1.
         11    1    3    3    0    0  0.12157612300E+02 -0.10035183897E+02 -0.12552769178E+02  0.20151537584E+02  0.51100000000E-03 0. -1.
        -11    1    3    3    0    0  0.29264021749E+00 -0.13386243586E+02 -0.17493788609E+02  0.22029747974E+02  0.51100000000E-03 0.  1.
         12    1    3    3    0    0 -0.26279077859E+01 -0.47187767343E+01 -0.15014115612E+01  0.56059780481E+01  0.00000000000E+00 0. -1.
</event>
<event>
 7    1  0.6622189E-010  0.4778727E+02  0.7816164E-02  0.1312668E+00
        -11   -1    0    0    0    0  0.00000000000E+00  0.00000000000E+00  0.45593999997E+02  0.45594000000E+02  0.51100000000E-03 0. -1.
         11   -1    0    0    0    0 -0.00000000000E+00 -0.00000000000E+00 -0.45593999997E+02  0.45594000000E+02  0.51100000000E-03 0.  1.
    9900012    2    1    2    0    0  0.26465574898E+02 -0.72326160677E+01  0.33628641831E+02  0.47787274876E+02  0.20000017469E+02 0.  0.
        -12    1    1    2    0    0 -0.26465574898E+02  0.72326160677E+01 -0.33628641831E+02  0.43400725124E+02  0.00000000000E+00 0.  1.
         11    1    3    3    0    0  0.26264442882E+02 -0.58732382969E+01  0.22401525338E+02  0.35016342266E+02  0.51100000000E-03 0. -1.
        -11    1    3    3    0    0 -0.16383696828E+01  0.15662676531E+01  0.24484467169E+01  0.33365163217E+01  0.51100000000E-03 0.  1.
         12    1    3    3    0    0  0.18395016995E+01 -0.29256454239E+01  0.87786697767E+01  0.94344162881E+01  0.00000000000E+00 0. -1.
</event>
<event>
 7    1  0.6622189E-010  0.4778728E+02  0.7816164E-02  0.1312668E+00
        -11   -1    0    0    0    0  0.00000000000E+00  0.00000000000E+00  0.45593999997E+02  0.45594000000E+02  0.51100000000E-03 0. -1.
         11   -1    0    0    0    0 -0.00000000000E+00 -0.00000000000E+00 -0.45593999997E+02  0.45594000000E+02  0.51100000000E-03 0.  1.
    9900012    2    1    2    0    0 -0.39345844327E+00 -0.23921771746E+02  0.36210724523E+02  0.47787279459E+02  0.20000038363E+02 0.  0.
        -12    1    1    2    0    0  0.39345844327E+00  0.23921771746E+02 -0.36210724523E+02  0.43400720541E+02  0.00000000000E+00 0.  1.
         11    1    3    3    0    0  0.35091116931E+01  0.15100210028E+01  0.96038642908E+01  0.10335774663E+02  0.51100000000E-03 0.  1.
        -11    1    3    3    0    0 -0.53863989424E+00 -0.22454697335E+01  0.53067485305E+01  0.57873869308E+01  0.51100000000E-03 0. -1.
         12    1    3    3    0    0 -0.33639302421E+01 -0.23186323016E+02  0.21300111702E+02  0.31664117865E+02  0.00000000000E+00 0. -1.
</event>
<event>
 7    1  0.6622189E-010  0.4778727E+02  0.7816164E-02  0.1312668E+00
        -11   -1    0    0    0    0  0.00000000000E+00  0.00000000000E+00  0.45593999997E+02  0.45594000000E+02  0.51100000000E-03 0.  1.
         11   -1    0    0    0    0 -0.00000000000E+00 -0.00000000000E+00 -0.45593999997E+02  0.45594000000E+02  0.51100000000E-03 0. -1.
    9900012    2    1    2    0    0  0.27329844020E+02 -0.35018685110E+01 -0.33532666173E+02  0.47787272381E+02  0.20000006093E+02 0.  0.
         12    1    1    2    0    0 -0.27329844020E+02  0.35018685110E+01  0.33532666173E+02  0.43400727619E+02  0.00000000000E+00 0. -1.
         11    1    3    3    0    0  0.48725189205E+01 -0.33075784513E+00 -0.20824570471E+02  0.21389567012E+02  0.51100000000E-03 0. -1.
        -11    1    3    3    0    0  0.17846450484E+02 -0.10938479163E+01 -0.11287639635E+02  0.21144812767E+02  0.51100000000E-03 0.  1.
        -12    1    3    3    0    0  0.46108746157E+01 -0.20772627496E+01 -0.14204560658E+01  0.52528926019E+01  0.00000000000E+00 0.  1.
</event>
<event>
 7    1  0.6622189E-010  0.4778727E+02  0.7816164E-02  0.1312668E+00
        -11   -1    0    0    0    0  0.00000000000E+00  0.00000000000E+00  0.45593999997E+02  0.45594000000E+02  0.51100000000E-03 0. -1.
         11   -1    0    0    0    0 -0.00000000000E+00 -0.00000000000E+00 -0.45593999997E+02  0.45594000000E+02  0.51100000000E-03 0.  1.
    9900012    2    1    2    0    0 -0.21267912318E+02  0.19649542956E+02 -0.32329467622E+02  0.47787272939E+02  0.20000008637E+02 0.  0.
         12    1    1    2    0    0  0.21267912318E+02 -0.19649542956E+02  0.32329467622E+02  0.43400727061E+02  0.00000000000E+00 0. -1.
         11    1    3    3    0    0 -0.36881589279E+01  0.31320127488E+01 -0.10673700979E+01  0.49549267728E+01  0.51100000000E-03 0. -1.
        -11    1    3    3    0    0 -0.12710336886E+02  0.14782165472E+02 -0.12008652823E+02  0.22897004667E+02  0.51100000000E-03 0.  1.
        -12    1    3    3    0    0 -0.48694165038E+01  0.17353647347E+01 -0.19253444701E+02  0.19935341499E+02  0.00000000000E+00 0.  1.
</event>
<event>
 7    1  0.6622189E-010  0.4778727E+02  0.7816164E-02  0.1312668E+00
        -11   -1    0    0    0    0  0.00000000000E+00  0.00000000000E+00  0.45593999997E+02  0.45594000000E+02  0.51100000000E-03 0. -1.
         11   -1    0    0    0    0 -0.00000000000E+00 -0.00000000000E+00 -0.45593999997E+02  0.45594000000E+02  0.51100000000E-03 0.  1.
    9900012    2    1    2    0    0 -0.23861778891E+02  0.17661917866E+00 -0.36251997958E+02  0.47787273714E+02  0.20000012174E+02 0.  0.
         12    1    1    2    0    0  0.23861778891E+02 -0.17661917866E+00  0.36251997958E+02  0.43400726286E+02  0.00000000000E+00 0. -1.
         11    1    3    3    0    0  0.59326307209E-01 -0.45476287671E+01 -0.66972152010E+01  0.80955011410E+01  0.51100000000E-03 0. -1.
        -11    1    3    3    0    0 -0.24526117842E+02  0.34349745209E+01 -0.29066395860E+02  0.38186186965E+02  0.51100000000E-03 0.  1.
        -12    1    3    3    0    0  0.60501264393E+00  0.12892734249E+01 -0.48838689672E+00  0.15055856085E+01  0.00000000000E+00 0.  1.
</event>
<event>
 7    1  0.6622189E-010  0.4778727E+02  0.7816164E-02  0.1312668E+00
        -11   -1    0    0    0    0  0.00000000000E+00  0.00000000000E+00  0.45593999997E+02  0.45594000000E+02  0.51100000000E-03 0. -1.
         11   -1    0    0    0    0 -0.00000000000E+00 -0.00000000000E+00 -0.45593999997E+02  0.45594000000E+02  0.51100000000E-03 0.  1.
    9900012    2    1    2    0    0  0.85528147727E+01 -0.10984894769E+02  0.41107235876E+02  0.47787269649E+02  0.19999993639E+02 0.  0.
        -12    1    1    2    0    0 -0.85528147727E+01  0.10984894769E+02 -0.41107235876E+02  0.43400730351E+02  0.00000000000E+00 0.  1.
         11    1    3    3    0    0  0.34045659060E+00 -0.40350150365E+01  0.47914002626E+01  0.62733383276E+01  0.51100000000E-03 0. -1.
        -11    1    3    3    0    0 -0.53147825163E+00  0.21842188217E+01 -0.73483050569E+00  0.23650067920E+01  0.51100000000E-03 0.  1.
        -12    1    3    3    0    0  0.87438364337E+01 -0.91340985543E+01  0.37050666119E+02  0.39148924530E+02  0.00000000000E+00 0.  1.
</event>
<event>
 7    1  0.6622189E-010  0.4778727E+02  0.7816164E-02  0.1312668E+00
        -11   -1    0    0    0    0  0.00000000000E+00  0.00000000000E+00  0.45593999997E+02  0.45594000000E+02  0.51100000000E-03 0. -1.
         11   -1    0    0    0    0 -0.00000000000E+00 -0.00000000000E+00 -0.45593999997E+02  0.45594000000E+02  0.51100000000E-03 0.  1.
    9900012    2    1    2    0    0  0.25565744429E+02  0.86200764436E+01 -0.33995741236E+02  0.47787269266E+02  0.19999991891E+02 0.  0.
         12    1    1    2    0    0 -0.25565744429E+02 -0.86200764436E+01  0.33995741236E+02  0.43400730734E+02  0.00000000000E+00 0. -1.
         11    1    3    3    0    0  0.17008813886E+02 -0.49279331466E+00 -0.12276617833E+02  0.20982324484E+02  0.51100000000E-03 0. -1.
        -11    1    3    3    0    0  0.96627451208E+01  0.52515491532E+01 -0.19004118751E+02  0.21956865476E+02  0.51100000000E-03 0.  1.
         12    1    3    3    0    0 -0.11058145783E+01  0.38613206051E+01 -0.27150046517E+01  0.48480793058E+01  0.00000000000E+00 0. -1.
</event>
<event>
 7    1  0.6622189E-010  0.4778727E+02  0.7816164E-02  0.1312668E+00
        -11   -1    0    0    0    0  0.00000000000E+00  0.00000000000E+00  0.45593999997E+02  0.45594000000E+02  0.51100000000E-03 0.  1.
         11   -1    0    0    0    0 -0.00000000000E+00 -0.00000000000E+00 -0.45593999997E+02  0.45594000000E+02  0.51100000000E-03 0. -1.
    9900012    2    1    2    0    0 -0.28083511284E+02  0.32996312974E+02 -0.24864999846E+01  0.47787274683E+02  0.20000016589E+02 0.  0.
         12    1    1    2    0    0  0.28083511284E+02 -0.32996312974E+02  0.24864999846E+01  0.43400725317E+02  0.00000000000E+00 0. -1.
         11    1    3    3    0    0 -0.77466352139E+01  0.10161409848E+01  0.26055285661E+01  0.82359989685E+01  0.51100000000E-03 0. -1.
        -11    1    3    3    0    0 -0.18591416622E+02  0.32070202812E+02 -0.60474142751E+01  0.37559418261E+02  0.51100000000E-03 0.  1.
        -12    1    3    3    0    0 -0.17454594473E+01 -0.90030823243E-01  0.95538572444E+00  0.19918574532E+01  0.00000000000E+00 0.  1.
</event>
<event>
 7    1  0.6622189E-010  0.4778728E+02  0.7816164E-02  0.1312668E+00
        -11   -1    0    0    0    0  0.00000000000E+00  0.00000000000E+00  0.45593999997E+02  0.45594000000E+02  0.51100000000E-03 0. -1.
         11   -1    0    0    0    0 -0.00000000000E+00 -0.00000000000E+00 -0.45593999997E+02  0.45594000000E+02  0.51100000000E-03 0.  1.
    9900012    2    1    2    0    0 -0.43567323147E+01 -0.22250383084E+02  0.37007589217E+02  0.47787281993E+02  0.20000049919E+02 0.  0.
        -12    1    1    2    0    0  0.43567323147E+01  0.22250383084E+02 -0.37007589217E+02  0.43400718007E+02  0.00000000000E+00 0.  1.
         11    1    3    3    0    0 -0.11262154747E+01 -0.59405839732E+01  0.76826060128E+01  0.97765706997E+01  0.51100000000E-03 0. -1.
        -11    1    3    3    0    0 -0.61258990350E+01 -0.14027079185E+02  0.98774091382E+01  0.18216717624E+02  0.51100000000E-03 0.  1.
        -12    1    3    3    0    0  0.28953821950E+01 -0.22827199256E+01  0.19447574066E+02  0.19793993669E+02  0.00000000000E+00 0.  1.
</event>
<event>
 7    1  0.6622189E-010  0.4778726E+02  0.7816164E-02  0.1312668E+00
        -11   -1    0    0    0    0  0.00000000000E+00  0.00000000000E+00  0.45593999997E+02  0.45594000000E+02  0.51100000000E-03 0. -1.
         11   -1    0    0    0    0 -0.00000000000E+00 -0.00000000000E+00 -0.45593999997E+02  0.45594000000E+02  0.51100000000E-03 0.  1.
    9900012    2    1    2    0    0  0.42342220985E+02 -0.95234882172E+01  0.25281036254E+00  0.47787257854E+02  0.19999939860E+02 0.  0.
        -12    1    1    2    0    0 -0.42342220985E+02  0.95234882172E+01 -0.25281036254E+00  0.43400742146E+02  0.00000000000E+00 0.  1.
         11    1    3    3    0    0  0.33267280197E+02 -0.12458253552E+02 -0.16897556319E+01  0.35563679332E+02  0.51100000000E-03 0. -1.
        -11    1    3    3    0    0  0.80076733927E+01  0.51974480654E+01  0.18225036170E+01  0.97189412619E+01  0.51100000000E-03 0.  1.
        -12    1    3    3    0    0  0.10672673949E+01 -0.22626827302E+01  0.12006237741E+00  0.25046372600E+01  0.00000000000E+00 0.  1.
</event>
<event>
 7    1  0.6622189E-010  0.4778727E+02  0.7816164E-02  0.1312668E+00
        -11   -1    0    0    0    0  0.00000000000E+00  0.00000000000E+00  0.45593999997E+02  0.45594000000E+02  0.51100000000E-03 0. -1.
         11   -1    0    0    0    0 -0.00000000000E+00 -0.00000000000E+00 -0.45593999997E+02  0.45594000000E+02  0.51100000000E-03 0.  1.
    9900012    2    1    2    0    0  0.30369398921E+02  0.22199438010E+02 -0.21645042442E+02  0.47787270730E+02  0.19999998568E+02 0.  0.
         12    1    1    2    0    0 -0.30369398921E+02 -0.22199438010E+02  0.21645042442E+02  0.43400729270E+02  0.00000000000E+00 0. -1.
         11    1    3    3    0    0  0.28368337243E+01  0.36824400576E+01 -0.43815344907E+01  0.63879445138E+01  0.51100000000E-03 0. -1.
        -11    1    3    3    0    0  0.12634846098E+02  0.18730734274E+02 -0.12105803342E+02  0.25632600672E+02  0.51100000000E-03 0.  1.
         12    1    3    3    0    0  0.14897719099E+02 -0.21373632196E+00 -0.51577046091E+01  0.15766725545E+02  0.00000000000E+00 0. -1.
</event>
<event>
 7    1  0.6622189E-010  0.4778727E+02  0.7816164E-02  0.1312668E+00
        -11   -1    0    0    0    0  0.00000000000E+00  0.00000000000E+00  0.45593999997E+02  0.45594000000E+02  0.51100000000E-03 0. -1.
         11   -1    0    0    0    0 -0.00000000000E+00 -0.00000000000E+00 -0.45593999997E+02  0.45594000000E+02  0.51100000000E-03 0.  1.
    9900012    2    1    2    0    0  0.29638067534E+01 -0.35877869853E+02 -0.24240818288E+02  0.47787274580E+02  0.20000016122E+02 0.  0.
         12    1    1    2    0    0 -0.29638067534E+01  0.35877869853E+02  0.24240818288E+02  0.43400725420E+02  0.00000000000E+00 0. -1.
         11    1    3    3    0    0  0.45052793423E+01 -0.17956840380E+02 -0.45926222539E+01  0.19074533751E+02  0.51100000000E-03 0. -1.
        -11    1    3    3    0    0 -0.43122784218E+01 -0.15633376674E+02 -0.19135540888E+02  0.25083204276E+02  0.51100000000E-03 0.  1.
        -12    1    3    3    0    0  0.27708058330E+01 -0.22876527981E+01 -0.51265514626E+00  0.36295365528E+01  0.00000000000E+00 0.  1.
</event>
<event>
 7    1  0.6622189E-010  0.4778727E+02  0.7816164E-02  0.1312668E+00
        -11   -1    0    0    0    0  0.00000000000E+00  0.00000000000E+00  0.45593999997E+02  0.45594000000E+02  0.51100000000E-03 0. -1.
         11   -1    0    0    0    0 -0.00000000000E+00 -0.00000000000E+00 -0.45593999997E+02  0.45594000000E+02  0.51100000000E-03 0.  1.
    9900012    2    1    2    0    0 -0.16308371464E+02 -0.34431794101E+02  0.20787300504E+02  0.47787270893E+02  0.19999999308E+02 0.  0.
        -12    1    1    2    0    0  0.16308371464E+02  0.34431794101E+02 -0.20787300504E+02  0.43400729107E+02  0.00000000000E+00 0.  1.
         11    1    3    3    0    0 -0.15880222552E+02 -0.35116457262E+02  0.18616854413E+02  0.42801101708E+02  0.51100000000E-03 0. -1.
        -11    1    3    3    0    0  0.15304023601E+01  0.15483558567E+01  0.17760432806E+01  0.28096026834E+01  0.51100000000E-03 0.  1.
         12    1    3    3    0    0 -0.19585512720E+01 -0.86369269564E+00  0.39440281077E+00  0.21765665013E+01  0.00000000000E+00 0. -1.
</event>
<event>
 7    1  0.6622189E-010  0.4778727E+02  0.7816164E-02  0.1312668E+00
        -11   -1    0    0    0    0  0.00000000000E+00  0.00000000000E+00  0.45593999997E+02  0.45594000000E+02  0.51100000000E-03 0. -1.
         11   -1    0    0    0    0 -0.00000000000E+00 -0.00000000000E+00 -0.45593999997E+02  0.45594000000E+02  0.51100000000E-03 0.  1.
    9900012    2    1    2    0    0  0.14305869597E+02 -0.13376059825E+02 -0.38730435888E+02  0.47787267916E+02  0.19999985735E+02 0.  0.
         12    1    1    2    0    0 -0.14305869597E+02  0.13376059825E+02  0.38730435888E+02  0.43400732084E+02  0.00000000000E+00 0. -1.
         11    1    3    3    0    0  0.59906416628E+01 -0.12242840287E+01 -0.10979583688E+02  0.12567335324E+02  0.51100000000E-03 0. -1.
        -11    1    3    3    0    0  0.81627749784E+01 -0.14631176892E+02 -0.28095793619E+02  0.32712013878E+02  0.51100000000E-03 0.  1.
        -12    1    3    3    0    0  0.15245295577E+00  0.24794010953E+01  0.34494141924E+00  0.25079187144E+01  0.00000000000E+00 0.  1.
</event>
<event>
 7    1  0.6622189E-010  0.4778727E+02  0.7816164E-02  0.1312668E+00
        -11   -1    0    0    0    0  0.00000000000E+00  0.00000000000E+00  0.45593999997E+02  0.45594000000E+02  0.51100000000E-03 0. -1.
         11   -1    0    0    0    0 -0.00000000000E+00 -0.00000000000E+00 -0.45593999997E+02  0.45594000000E+02  0.51100000000E-03 0.  1.
    9900012    2    1    2    0    0  0.25013024827E+02  0.20876730500E+02 -0.28672879899E+02  0.47787270409E+02  0.19999997102E+02 0.  0.
         12    1    1    2    0    0 -0.25013024827E+02 -0.20876730500E+02  0.28672879899E+02  0.43400729591E+02  0.00000000000E+00 0. -1.
         11    1    3    3    0    0 -0.90429966667E+00  0.95487703602E+01 -0.61259018236E+01  0.11380836819E+02  0.51100000000E-03 0. -1.
        -11    1    3    3    0    0  0.16911677565E+02  0.77865721533E+01 -0.12310896967E+02  0.22320253770E+02  0.51100000000E-03 0.  1.
         12    1    3    3    0    0  0.90056469287E+01  0.35413879867E+01 -0.10236081108E+02  0.14086179820E+02  0.00000000000E+00 0. -1.
</event>
<event>
 7    1  0.6622189E-010  0.4778727E+02  0.7816164E-02  0.1312668E+00
        -11   -1    0    0    0    0  0.00000000000E+00  0.00000000000E+00  0.45593999997E+02  0.45594000000E+02  0.51100000000E-03 0. -1.
         11   -1    0    0    0    0 -0.00000000000E+00 -0.00000000000E+00 -0.45593999997E+02  0.45594000000E+02  0.51100000000E-03 0.  1.
    9900012    2    1    2    0    0 -0.14770496704E+02 -0.17779499458E+02  0.36733432690E+02  0.47787271307E+02  0.20000001199E+02 0.  0.
        -12    1    1    2    0    0  0.14770496704E+02  0.17779499458E+02 -0.36733432690E+02  0.43400728693E+02  0.00000000000E+00 0.  1.
         11    1    3    3    0    0 -0.18254701822E+02 -0.15469826030E+02  0.26674126595E+02  0.35833764606E+02  0.51100000000E-03 0. -1.
        -11    1    3    3    0    0  0.43143939061E+01 -0.30713696224E+01  0.77875497495E+01  0.94177087180E+01  0.51100000000E-03 0.  1.
         12    1    3    3    0    0 -0.83018878864E+00  0.76169619459E+00  0.22717563456E+01  0.25357979831E+01  0.00000000000E+00 0. -1.
</event>
<event>
 7    1  0.6622189E-010  0.4778727E+02  0.7816164E-02  0.1312668E+00
        -11   -1    0    0    0    0  0.00000000000E+00  0.00000000000E+00  0.45593999997E+02  0.45594000000E+02  0.51100000000E-03 0. -1.
         11   -1    0    0    0    0 -0.00000000000E+00 -0.00000000000E+00 -0.45593999997E+02  0.45594000000E+02  0.51100000000E-03 0.  1.
    9900012    2    1    2    0    0 -0.15419895929E+01  0.30330434903E+02 -0.31005003622E+02  0.47787271171E+02  0.20000000575E+02 0.  0.
         12    1    1    2    0    0  0.15419895929E+01 -0.30330434903E+02  0.31005003622E+02  0.43400728829E+02  0.00000000000E+00 0. -1.
         11    1    3    3    0    0 -0.10612154987E+02  0.15418022069E+02 -0.14114952055E+02  0.23442805074E+02  0.51100000000E-03 0. -1.
        -11    1    3    3    0    0  0.52430615235E+01  0.74625749929E+01 -0.95881909114E+01  0.13233031583E+02  0.51100000000E-03 0.  1.
         12    1    3    3    0    0  0.38271038706E+01  0.74498378414E+01 -0.73018606562E+01  0.11111434513E+02  0.00000000000E+00 0. -1.
</event>
<event>
 7    1  0.6622189E-010  0.4778728E+02  0.7816164E-02  0.1312668E+00
        -11   -1    0    0    0    0  0.00000000000E+00  0.00000000000E+00  0.45593999997E+02  0.45594000000E+02  0.51100000000E-03 0. -1.
         11   -1    0    0    0    0 -0.00000000000E+00 -0.00000000000E+00 -0.45593999997E+02  0.45594000000E+02  0.51100000000E-03 0.  1.
    9900012    2    1    2    0    0 -0.35513226997E+02  0.62356121334E+01  0.24156795446E+02  0.47787275160E+02  0.20000018766E+02 0.  0.
        -12    1    1    2    0    0  0.35513226997E+02 -0.62356121334E+01 -0.24156795446E+02  0.43400724840E+02  0.00000000000E+00 0.  1.
         11    1    3    3    0    0  0.25404075671E+00  0.42854870315E+01  0.26169476266E+01  0.50277580436E+01  0.51100000000E-03 0. -1.
        -11    1    3    3    0    0 -0.29184331611E+02  0.13968531714E+01  0.13043225601E+02  0.31996908362E+02  0.51100000000E-03 0.  1.
        -12    1    3    3    0    0 -0.65829361419E+01  0.55327193045E+00  0.84966222190E+01  0.10762608755E+02  0.00000000000E+00 0.  1.
</event>
<event>
 7    1  0.6622189E-010  0.4778727E+02  0.7816164E-02  0.1312668E+00
        -11   -1    0    0    0    0  0.00000000000E+00  0.00000000000E+00  0.45593999997E+02  0.45594000000E+02  0.51100000000E-03 0. -1.
         11   -1    0    0    0    0 -0.00000000000E+00 -0.00000000000E+00 -0.45593999997E+02  0.45594000000E+02  0.51100000000E-03 0.  1.
    9900012    2    1    2    0    0 -0.10511246039E+02 -0.15593267384E+02  0.39115048343E+02  0.47787270884E+02  0.19999999267E+02 0.  0.
        -12    1    1    2    0    0  0.10511246039E+02  0.15593267384E+02 -0.39115048343E+02  0.43400729116E+02  0.00000000000E+00 0.  1.
         11    1    3    3    0    0 -0.42755496400E+00 -0.90532040891E+01  0.11100328002E+02  0.14330407864E+02  0.51100000000E-03 0. -1.
        -11    1    3    3    0    0 -0.62134572857E+00  0.19393658576E+01  0.15463902554E+02  0.15597419431E+02  0.51100000000E-03 0.  1.
        -12    1    3    3    0    0 -0.94623453462E+01 -0.84794291520E+01  0.12550817786E+02  0.17859443589E+02  0.00000000000E+00 0.  1.
</event>
<event>
 7    1  0.6622189E-010  0.4778728E+02  0.7816164E-02  0.1312668E+00
        -11   -1    0    0    0    0  0.00000000000E+00  0.00000000000E+00  0.45593999997E+02  0.45594000000E+02  0.51100000000E-03 0. -1.
         11   -1    0    0    0    0 -0.00000000000E+00 -0.00000000000E+00 -0.45593999997E+02  0.45594000000E+02  0.51100000000E-03 0.  1.
    9900012    2    1    2    0    0 -0.29187736089E+02 -0.23043707454E+02 -0.22376024611E+02  0.47787275713E+02  0.20000021288E+02 0.  0.
         12    1    1    2    0    0  0.29187736089E+02  0.23043707454E+02  0.22376024611E+02  0.43400724287E+02  0.00000000000E+00 0. -1.
         11    1    3    3    0    0 -0.13883343172E+01 -0.46168980347E+01  0.57612490328E+00  0.48554237512E+01  0.51100000000E-03 0. -1.
        -11    1    3    3    0    0 -0.16159144265E+02 -0.61321905017E+01 -0.18722964736E+02  0.25480798898E+02  0.51100000000E-03 0.  1.
        -12    1    3    3    0    0 -0.11640257507E+02 -0.12294618917E+02 -0.42291847779E+01  0.17451053064E+02  0.00000000000E+00 0.  1.
</event>
<event>
 7    1  0.6622189E-010  0.4778727E+02  0.7816164E-02  0.1312668E+00
        -11   -1    0    0    0    0  0.00000000000E+00  0.00000000000E+00  0.45593999997E+02  0.45594000000E+02  0.51100000000E-03 0. -1.
         11   -1    0    0    0    0 -0.00000000000E+00 -0.00000000000E+00 -0.45593999997E+02  0.45594000000E+02  0.51100000000E-03 0.  1.
    9900012    2    1    2    0    0 -0.30398215281E+02  0.12112794632E+02  0.28510556525E+02  0.47787272824E+02  0.20000008114E+02 0.  0.
        -12    1    1    2    0    0  0.30398215281E+02 -0.12112794632E+02 -0.28510556525E+02  0.43400727176E+02  0.00000000000E+00 0.  1.
         11    1    3    3    0    0 -0.32248589790E+02  0.13384456934E+02  0.27742015786E+02  0.44595231483E+02  0.51100000000E-03 0. -1.
        -11    1    3    3    0    0  0.14484871399E+01  0.20124256981E+00  0.79608883669E+00  0.16650439224E+01  0.51100000000E-03 0.  1.
         12    1    3    3    0    0  0.40188736934E+00 -0.14729048721E+01 -0.27548097761E-01  0.15269974190E+01  0.00000000000E+00 0. -1.
</event>
<event>
 7    1  0.6622189E-010  0.4778727E+02  0.7816164E-02  0.1312668E+00
        -11   -1    0    0    0    0  0.00000000000E+00  0.00000000000E+00  0.45593999997E+02  0.45594000000E+02  0.51100000000E-03 0. -1.
         11   -1    0    0    0    0 -0.00000000000E+00 -0.00000000000E+00 -0.45593999997E+02  0.45594000000E+02  0.51100000000E-03 0.  1.
    9900012    2    1    2    0    0 -0.28694297750E+02  0.27247488540E+02  0.17827938192E+02  0.47787265728E+02  0.19999975762E+02 0.  0.
        -12    1    1    2    0    0  0.28694297750E+02 -0.27247488540E+02 -0.17827938192E+02  0.43400734272E+02  0.00000000000E+00 0.  1.
         11    1    3    3    0    0 -0.98018603085E+01  0.13596329001E+02  0.38819437875E+01  0.17204828265E+02  0.51100000000E-03 0. -1.
        -11    1    3    3    0    0 -0.11951088803E+02  0.88922594655E+00  0.97830615332E+01  0.15470214594E+02  0.51100000000E-03 0.  1.
        -12    1    3    3    0    0 -0.69413486384E+01  0.12761933593E+02  0.41629328712E+01  0.15112222869E+02  0.00000000000E+00 0.  1.
</event>
<event>
 7    1  0.6622189E-010  0.4778727E+02  0.7816164E-02  0.1312668E+00
        -11   -1    0    0    0    0  0.00000000000E+00  0.00000000000E+00  0.45593999997E+02  0.45594000000E+02  0.51100000000E-03 0. -1.
         11   -1    0    0    0    0 -0.00000000000E+00 -0.00000000000E+00 -0.45593999997E+02  0.45594000000E+02  0.51100000000E-03 0.  1.
    9900012    2    1    2    0    0 -0.89029526935E+01 -0.29152886012E+02  0.30894499643E+02  0.47787269157E+02  0.19999991396E+02 0.  0.
        -12    1    1    2    0    0  0.89029526935E+01  0.29152886012E+02 -0.30894499643E+02  0.43400730843E+02  0.00000000000E+00 0.  1.
         11    1    3    3    0    0 -0.12388357951E+02 -0.21305357851E+02  0.17636844540E+02  0.30305906544E+02  0.51100000000E-03 0. -1.
        -11    1    3    3    0    0  0.47973531586E+01 -0.21835479716E+01  0.43002175056E+01  0.68025252612E+01  0.51100000000E-03 0.  1.
         12    1    3    3    0    0 -0.13119479012E+01 -0.56639801894E+01  0.89574375973E+01  0.10678837352E+02  0.00000000000E+00 0. -1.
</event>
<event>
 7    1  0.6622189E-010  0.4778727E+02  0.7816164E-02  0.1312668E+00
        -11   -1    0    0    0    0  0.00000000000E+00  0.00000000000E+00  0.45593999997E+02  0.45594000000E+02  0.51100000000E-03 0. -1.
         11   -1    0    0    0    0 -0.00000000000E+00 -0.00000000000E+00 -0.45593999997E+02  0.45594000000E+02  0.51100000000E-03 0.  1.
    9900012    2    1    2    0    0  0.25567074497E+02  0.93308007847E+00 -0.35058197120E+02  0.47787272793E+02  0.20000007974E+02 0.  0.
         12    1    1    2    0    0 -0.25567074497E+02 -0.93308007847E+00  0.35058197120E+02  0.43400727207E+02  0.00000000000E+00 0. -1.
         11    1    3    3    0    0  0.87571444965E+00  0.14770781659E+01 -0.91969323560E+00  0.19479403518E+01  0.51100000000E-03 0. -1.
        -11    1    3    3    0    0  0.22863894831E+02  0.58533475068E+01 -0.29244113770E+02  0.37579749258E+02  0.51100000000E-03 0.  1.
        -12    1    3    3    0    0  0.18274652169E+01 -0.63973455942E+01 -0.48943901145E+01  0.82595831834E+01  0.00000000000E+00 0.  1.
</event>
<event>
 7    1  0.6882433E-010  0.4778726E+02  0.7816164E-02  0.1312668E+00
        -11   -1    0    0    0    0  0.00000000000E+00  0.00000000000E+00  0.45593999997E+02  0.45594000000E+02  0.51100000000E-03 0. -1.
         11   -1    0    0    0    0 -0.00000000000E+00 -0.00000000000E+00 -0.45593999997E+02  0.45594000000E+02  0.51100000000E-03 0.  1.
    9900012    2    1    2    0    0 -0.88462066184E+01 -0.84463915785E+01  0.41641648793E+02  0.47787264794E+02  0.19999971502E+02 0.  0.
        -12    1    1    2    0    0  0.88462066184E+01  0.84463915785E+01 -0.41641648793E+02  0.43400735206E+02  0.00000000000E+00 0.  1.
         11    1    3    3    0    0  0.16966818376E+01 -0.34771088365E+01  0.25017035909E+02  0.25314444514E+02  0.51100000000E-03 0. -1.
        -11    1    3    3    0    0 -0.34161901371E+01 -0.18309624377E+01 -0.25424822671E+00  0.38842529427E+01  0.51100000000E-03 0.  1.
         12    1    3    3    0    0 -0.71266983189E+01 -0.31383203044E+01  0.16878861111E+02  0.18588567337E+02  0.00000000000E+00 0. -1.
</event>
<event>
 7    1  0.6622189E-010  0.4778727E+02  0.7816164E-02  0.1312668E+00
        -11   -1    0    0    0    0  0.00000000000E+00  0.00000000000E+00  0.45593999997E+02  0.45594000000E+02  0.51100000000E-03 0. -1.
         11   -1    0    0    0    0 -0.00000000000E+00 -0.00000000000E+00 -0.45593999997E+02  0.45594000000E+02  0.51100000000E-03 0.  1.
    9900012    2    1    2    0    0 -0.30437538664E+02 -0.39597048198E+01 -0.30683875028E+02  0.47787271793E+02  0.20000003412E+02 0.  0.
         12    1    1    2    0    0  0.30437538664E+02  0.39597048198E+01  0.30683875028E+02  0.43400728207E+02  0.00000000000E+00 0. -1.
         11    1    3    3    0    0 -0.22034619061E+02 -0.54487256142E+01 -0.26821839622E+02  0.35137218572E+02  0.51100000000E-03 0. -1.
        -11    1    3    3    0    0 -0.87654635230E+01  0.36990766580E+01 -0.41730277407E+01  0.10388969135E+02  0.51100000000E-03 0.  1.
         12    1    3    3    0    0  0.36254391950E+00 -0.22100558636E+01  0.31099233516E+00  0.22610840865E+01  0.00000000000E+00 0. -1.
</event>
<event>
 7    1  0.6622189E-010  0.4778728E+02  0.7816164E-02  0.1312668E+00
        -11   -1    0    0    0    0  0.00000000000E+00  0.00000000000E+00  0.45593999997E+02  0.45594000000E+02  0.51100000000E-03 0. -1.
         11   -1    0    0    0    0 -0.00000000000E+00 -0.00000000000E+00 -0.45593999997E+02  0.45594000000E+02  0.51100000000E-03 0.  1.
    9900012    2    1    2    0    0 -0.24628819116E+02  0.17947026778E+02 -0.30902226973E+02  0.47787284187E+02  0.20000059920E+02 0.  0.
         12    1    1    2    0    0  0.24628819116E+02 -0.17947026778E+02  0.30902226973E+02  0.43400715813E+02  0.00000000000E+00 0. -1.
         11    1    3    3    0    0 -0.16229464266E+02  0.17186495792E+02 -0.12736518560E+02  0.26851257946E+02  0.51100000000E-03 0. -1.
        -11    1    3    3    0    0 -0.73519939026E+01 -0.18130689313E+01 -0.12271525080E+02  0.14419755939E+02  0.51100000000E-03 0.  1.
        -12    1    3    3    0    0 -0.10473609481E+01  0.25735999171E+01 -0.58941833328E+01  0.65162703021E+01  0.00000000000E+00 0.  1.
</event>
<event>
 7    1  0.6622189E-010  0.4778733E+02  0.7816164E-02  0.1312667E+00
        -11   -1    0    0    0    0  0.00000000000E+00  0.00000000000E+00  0.45593999997E+02  0.45594000000E+02  0.51100000000E-03 0. -1.
         11   -1    0    0    0    0 -0.00000000000E+00 -0.00000000000E+00 -0.45593999997E+02  0.45594000000E+02  0.51100000000E-03 0.  1.
    9900012    2    1    2    0    0  0.22720198793E+02 -0.11254711167E+01 -0.36961379971E+02  0.47787334938E+02  0.20000291314E+02 0.  0.
         12    1    1    2    0    0 -0.22720198793E+02  0.11254711167E+01  0.36961379971E+02  0.43400665062E+02  0.00000000000E+00 0. -1.
         11    1    3    3    0    0  0.22117829807E+02  0.33555939046E+01 -0.29020152610E+02  0.36641884007E+02  0.51100000000E-03 0. -1.
        -11    1    3    3    0    0  0.68100856086E+00 -0.46084026341E+01 -0.89691074573E+01  0.10106732229E+02  0.51100000000E-03 0.  1.
         12    1    3    3    0    0 -0.78639574718E-01  0.12733761280E+00  0.10278800959E+01  0.10387187020E+01  0.00000000000E+00 0. -1.
</event>
<event>
 7    1  0.6622189E-010  0.4778731E+02  0.7816164E-02  0.1312668E+00
        -11   -1    0    0    0    0  0.00000000000E+00  0.00000000000E+00  0.45593999997E+02  0.45594000000E+02  0.51100000000E-03 0. -1.
         11   -1    0    0    0    0 -0.00000000000E+00 -0.00000000000E+00 -0.45593999997E+02  0.45594000000E+02  0.51100000000E-03 0.  1.
    9900012    2    1    2    0    0 -0.27112684108E+02 -0.84621612446E+01  0.32816374373E+02  0.47787306003E+02  0.20000159387E+02 0.  0.
        -12    1    1    2    0    0  0.27112684108E+02  0.84621612446E+01 -0.32816374373E+02  0.43400693997E+02  0.00000000000E+00 0.  1.
         11    1    3    3    0    0 -0.25272281302E+01 -0.28750693022E+01  0.31755211874E+01  0.49736144390E+01  0.51100000000E-03 0. -1.
        -11    1    3    3    0    0 -0.23298057170E+02  0.17722172319E+01  0.21312086613E+02  0.31625073247E+02  0.51100000000E-03 0.  1.
        -12    1    3    3    0    0 -0.12873988075E+01 -0.73593091743E+01  0.83287665727E+01  0.11188618317E+02  0.00000000000E+00 0.  1.
</event>
<event>
 7    1  0.6622189E-010  0.4778726E+02  0.7816164E-02  0.1312668E+00
        -11   -1    0    0    0    0  0.00000000000E+00  0.00000000000E+00  0.45593999997E+02  0.45594000000E+02  0.51100000000E-03 0. -1.
         11   -1    0    0    0    0 -0.00000000000E+00 -0.00000000000E+00 -0.45593999997E+02  0.45594000000E+02  0.51100000000E-03 0.  1.
    9900012    2    1    2    0    0  0.12207104857E+02  0.24447582087E+02 -0.33718336400E+02  0.47787263964E+02  0.19999967717E+02 0.  0.
         12    1    1    2    0    0 -0.12207104857E+02 -0.24447582087E+02  0.33718336400E+02  0.43400736036E+02  0.00000000000E+00 0. -1.
         11    1    3    3    0    0 -0.19602131143E+00  0.13973142937E+01 -0.23921104530E+01  0.27772476070E+01  0.51100000000E-03 0. -1.
        -11    1    3    3    0    0  0.16008264289E+02  0.15770966829E+02 -0.28745334550E+02  0.36486739768E+02  0.51100000000E-03 0.  1.
        -12    1    3    3    0    0 -0.36051381208E+01  0.72793009645E+01 -0.25808913971E+01  0.85232765886E+01  0.00000000000E+00 0.  1.
</event>
<event>
 7    1  0.6622189E-010  0.4778727E+02  0.7816164E-02  0.1312668E+00
        -11   -1    0    0    0    0  0.00000000000E+00  0.00000000000E+00  0.45593999997E+02  0.45594000000E+02  0.51100000000E-03 0. -1.
         11   -1    0    0    0    0 -0.00000000000E+00 -0.00000000000E+00 -0.45593999997E+02  0.45594000000E+02  0.51100000000E-03 0.  1.
    9900012    2    1    2    0    0  0.26368601231E+02 -0.33033989062E+02  0.98526962778E+01  0.47787272032E+02  0.20000004504E+02 0.  0.
        -12    1    1    2    0    0 -0.26368601231E+02  0.33033989062E+02 -0.98526962778E+01  0.43400727968E+02  0.00000000000E+00 0.  1.
         11    1    3    3    0    0  0.11394589825E+01 -0.12773036629E+02  0.69327655038E+01  0.14577793704E+02  0.51100000000E-03 0. -1.
        -11    1    3    3    0    0  0.17671286779E+02 -0.98977360700E+01  0.17579654318E+01  0.20330518893E+02  0.51100000000E-03 0.  1.
         12    1    3    3    0    0  0.75578554695E+01 -0.10363216363E+02  0.11619653422E+01  0.12878959436E+02  0.00000000000E+00 0. -1.
</event>
<event>
 7    1  0.6622189E-010  0.4778727E+02  0.7816164E-02  0.1312668E+00
        -11   -1    0    0    0    0  0.00000000000E+00  0.00000000000E+00  0.45593999997E+02  0.45594000000E+02  0.51100000000E-03 0. -1.
         11   -1    0    0    0    0 -0.00000000000E+00 -0.00000000000E+00 -0.45593999997E+02  0.45594000000E+02  0.51100000000E-03 0.  1.
    9900012    2    1    2    0    0  0.17769730707E+02  0.36658073738E+02  0.14968143931E+02  0.47787273827E+02  0.20000012686E+02 0.  0.
        -12    1    1    2    0    0 -0.17769730707E+02 -0.36658073738E+02 -0.14968143931E+02  0.43400726173E+02  0.00000000000E+00 0.  1.
         11    1    3    3    0    0  0.71669390704E+00  0.15768005509E+02  0.68655741448E+01  0.17212778871E+02  0.51100000000E-03 0. -1.
        -11    1    3    3    0    0  0.16004235595E+02  0.13101769777E+02  0.23099814990E+01  0.20811726094E+02  0.51100000000E-03 0.  1.
        -12    1    3    3    0    0  0.10488012051E+01  0.77882984532E+01  0.57925882876E+01  0.97627688611E+01  0.00000000000E+00 0.  1.
</event>
<event>
 7    1  0.6622189E-010  0.4778729E+02  0.7816164E-02  0.1312668E+00
        -11   -1    0    0    0    0  0.00000000000E+00  0.00000000000E+00  0.45593999997E+02  0.45594000000E+02  0.51100000000E-03 0. -1.
         11   -1    0    0    0    0 -0.00000000000E+00 -0.00000000000E+00 -0.45593999997E+02  0.45594000000E+02  0.51100000000E-03 0.  1.
    9900012    2    1    2    0    0  0.12045300985E+02 -0.21478560892E+02  0.35737984459E+02  0.47787292782E+02  0.20000099112E+02 0.  0.
        -12    1    1    2    0    0 -0.12045300985E+02  0.21478560892E+02 -0.35737984459E+02  0.43400707218E+02  0.00000000000E+00 0.  1.
         11    1    3    3    0    0  0.58106887207E+01 -0.47452454022E+01  0.11162333108E+02  0.13449131496E+02  0.51100000000E-03 0. -1.
        -11    1    3    3    0    0  0.33048369699E+01  0.27057895893E+01  0.35512180521E+01  0.55546732229E+01  0.51100000000E-03 0.  1.
        -12    1    3    3    0    0  0.29297752950E+01 -0.19439105079E+02  0.21024433299E+02  0.28783488063E+02  0.00000000000E+00 0.  1.
</event>
<event>
 7    1  0.6622189E-010  0.4778728E+02  0.7816164E-02  0.1312668E+00
        -11   -1    0    0    0    0  0.00000000000E+00  0.00000000000E+00  0.45593999997E+02  0.45594000000E+02  0.51100000000E-03 0. -1.
         11   -1    0    0    0    0 -0.00000000000E+00 -0.00000000000E+00 -0.45593999997E+02  0.45594000000E+02  0.51100000000E-03 0.  1.
    9900012    2    1    2    0    0 -0.38184813219E+02  0.12109772657E+02 -0.16700170605E+02  0.47787282810E+02  0.20000053644E+02 0.  0.
         12    1    1    2    0    0  0.38184813219E+02 -0.12109772657E+02  0.16700170605E+02  0.43400717190E+02  0.00000000000E+00 0. -1.
         11    1    3    3    0    0 -0.35343713652E+02  0.66449712018E+01 -0.12456048501E+02  0.38058992124E+02  0.51100000000E-03 0. -1.
        -11    1    3    3    0    0 -0.18475056849E+01  0.68163683295E+01 -0.36413765308E+01  0.79458025245E+01  0.51100000000E-03 0.  1.
        -12    1    3    3    0    0 -0.99359388216E+00 -0.13515668747E+01 -0.60274557355E+00  0.17824881615E+01  0.00000000000E+00 0.  1.
</event>
<event>
 7    1  0.6622189E-010  0.4778727E+02  0.7816164E-02  0.1312668E+00
        -11   -1    0    0    0    0  0.00000000000E+00  0.00000000000E+00  0.45593999997E+02  0.45594000000E+02  0.51100000000E-03 0. -1.
         11   -1    0    0    0    0 -0.00000000000E+00 -0.00000000000E+00 -0.45593999997E+02  0.45594000000E+02  0.51100000000E-03 0.  1.
    9900012    2    1    2    0    0 -0.29373545491E+02 -0.56680061255E+01 -0.31443465236E+02  0.47787274497E+02  0.20000015742E+02 0.  0.
         12    1    1    2    0    0  0.29373545491E+02  0.56680061255E+01  0.31443465236E+02  0.43400725503E+02  0.00000000000E+00 0. -1.
         11    1    3    3    0    0 -0.22069972120E+02 -0.20251007497E+01 -0.22515434187E+02  0.31593187229E+02  0.51100000000E-03 0.  1.
        -11    1    3    3    0    0 -0.99018270112E+01 -0.12862295118E+01 -0.62361822166E+01  0.11772448064E+02  0.51100000000E-03 0. -1.
         12    1    3    3    0    0  0.25982536408E+01 -0.23566758640E+01 -0.26918488327E+01  0.44216392038E+01  0.00000000000E+00 0. -1.
</event>
<event>
 7    1  0.6622189E-010  0.4778728E+02  0.7816164E-02  0.1312668E+00
        -11   -1    0    0    0    0  0.00000000000E+00  0.00000000000E+00  0.45593999997E+02  0.45594000000E+02  0.51100000000E-03 0. -1.
         11   -1    0    0    0    0 -0.00000000000E+00 -0.00000000000E+00 -0.45593999997E+02  0.45594000000E+02  0.51100000000E-03 0.  1.
    9900012    2    1    2    0    0  0.32004272532E+02 -0.22650400710E+01  0.29227024591E+02  0.47787276120E+02  0.20000023144E+02 0.  0.
        -12    1    1    2    0    0 -0.32004272532E+02  0.22650400710E+01 -0.29227024591E+02  0.43400723880E+02  0.00000000000E+00 0.  1.
         11    1    3    3    0    0  0.15186152778E+02 -0.14839552878E+01  0.11429883350E+02  0.19064721166E+02  0.51100000000E-03 0. -1.
        -11    1    3    3    0    0  0.75942880592E+01 -0.66204861839E+01  0.33555250208E+01  0.10619020523E+02  0.51100000000E-03 0.  1.
        -12    1    3    3    0    0  0.92238316946E+01  0.58394014007E+01  0.14441616221E+02  0.18103534431E+02  0.00000000000E+00 0.  1.
</event>
<event>
 7    1  0.6622189E-010  0.4778727E+02  0.7816164E-02  0.1312668E+00
        -11   -1    0    0    0    0  0.00000000000E+00  0.00000000000E+00  0.45593999997E+02  0.45594000000E+02  0.51100000000E-03 0. -1.
         11   -1    0    0    0    0 -0.00000000000E+00 -0.00000000000E+00 -0.45593999997E+02  0.45594000000E+02  0.51100000000E-03 0.  1.
    9900012    2    1    2    0    0 -0.20128447830E+02  0.21511804749E+01 -0.38390643649E+02  0.47787268332E+02  0.19999987635E+02 0.  0.
         12    1    1    2    0    0  0.20128447830E+02 -0.21511804749E+01  0.38390643649E+02  0.43400731668E+02  0.00000000000E+00 0. -1.
         11    1    3    3    0    0 -0.30256730965E+01  0.31485593186E+01 -0.23827627640E+01  0.49745032033E+01  0.51100000000E-03 0. -1.
        -11    1    3    3    0    0 -0.51853842495E+01  0.58608388354E+01 -0.61911316139E+01  0.99783642242E+01  0.51100000000E-03 0.  1.
        -12    1    3    3    0    0 -0.11917390484E+02 -0.68582176791E+01 -0.29816749271E+02  0.32834400905E+02  0.00000000000E+00 0.  1.
</event>
<event>
 7    1  0.6622189E-010  0.4778727E+02  0.7816164E-02  0.1312668E+00
        -11   -1    0    0    0    0  0.00000000000E+00  0.00000000000E+00  0.45593999997E+02  0.45594000000E+02  0.51100000000E-03 0. -1.
         11   -1    0    0    0    0 -0.00000000000E+00 -0.00000000000E+00 -0.45593999997E+02  0.45594000000E+02  0.51100000000E-03 0.  1.
    9900012    2    1    2    0    0 -0.10467754954E+02  0.10851277616E+02 -0.40697657865E+02  0.47787268723E+02  0.19999989416E+02 0.  0.
         12    1    1    2    0    0  0.10467754954E+02 -0.10851277616E+02  0.40697657865E+02  0.43400731277E+02  0.00000000000E+00 0. -1.
         11    1    3    3    0    0 -0.10045713534E+02  0.67521165318E+01 -0.16934986530E+02  0.20815888334E+02  0.51100000000E-03 0. -1.
        -11    1    3    3    0    0  0.15528658991E+01 -0.27057738656E+01 -0.12343733075E+01  0.33550383657E+01  0.51100000000E-03 0.  1.
        -12    1    3    3    0    0 -0.19749073183E+01  0.68049349493E+01 -0.22528298027E+02  0.23616342024E+02  0.00000000000E+00 0.  1.
</event>
<event>
 7    1  0.6622189E-010  0.4778727E+02  0.7816164E-02  0.1312668E+00
        -11   -1    0    0    0    0  0.00000000000E+00  0.00000000000E+00  0.45593999997E+02  0.45594000000E+02  0.51100000000E-03 0. -1.
         11   -1    0    0    0    0 -0.00000000000E+00 -0.00000000000E+00 -0.45593999997E+02  0.45594000000E+02  0.51100000000E-03 0.  1.
    9900012    2    1    2    0    0  0.18692856039E+02 -0.67859482737E+01 -0.38576565580E+02  0.47787269905E+02  0.19999994805E+02 0.  0.
         12    1    1    2    0    0 -0.18692856039E+02  0.67859482737E+01  0.38576565580E+02  0.43400730095E+02  0.00000000000E+00 0. -1.
         11    1    3    3    0    0 -0.53203385627E+00 -0.46785399603E+01 -0.33805365988E+00  0.47208131421E+01  0.51100000000E-03 0. -1.
        -11    1    3    3    0    0  0.14477534711E+02 -0.23964843275E+01 -0.24864133899E+02  0.28871565652E+02  0.51100000000E-03 0.  1.
         12    1    3    3    0    0  0.47473551846E+01  0.28907601411E+00 -0.13374378021E+02  0.14194891111E+02  0.00000000000E+00 0. -1.
</event>
<event>
 7    1  0.6622189E-010  0.4778727E+02  0.7816164E-02  0.1312668E+00
        -11   -1    0    0    0    0  0.00000000000E+00  0.00000000000E+00  0.45593999997E+02  0.45594000000E+02  0.51100000000E-03 0. -1.
         11   -1    0    0    0    0 -0.00000000000E+00 -0.00000000000E+00 -0.45593999997E+02  0.45594000000E+02  0.51100000000E-03 0.  1.
    9900012    2    1    2    0    0  0.26469544377E+02  0.21165948627E+02  0.27110686486E+02  0.47787268641E+02  0.19999989040E+02 0.  0.
        -12    1    1    2    0    0 -0.26469544377E+02 -0.21165948627E+02 -0.27110686486E+02  0.43400731359E+02  0.00000000000E+00 0.  1.
         11    1    3    3    0    0  0.50456258791E+01  0.13746902796E+02  0.85360165653E+01  0.16949904309E+02  0.51100000000E-03 0.  1.
        -11    1    3    3    0    0  0.20888391384E+02  0.83742637570E+01  0.19195042704E+02  0.29578756781E+02  0.51100000000E-03 0. -1.
         12    1    3    3    0    0  0.53552711363E+00 -0.95521792688E+00 -0.62037278263E+00  0.12586075507E+01  0.00000000000E+00 0. -1.
</event>
<event>
 7    1  0.6622189E-010  0.4778727E+02  0.7816164E-02  0.1312668E+00
        -11   -1    0    0    0    0  0.00000000000E+00  0.00000000000E+00  0.45593999997E+02  0.45594000000E+02  0.51100000000E-03 0.  1.
         11   -1    0    0    0    0 -0.00000000000E+00 -0.00000000000E+00 -0.45593999997E+02  0.45594000000E+02  0.51100000000E-03 0. -1.
    9900012    2    1    2    0    0 -0.42782516513E+02  0.59074103719E+01 -0.42874166040E+01  0.47787272384E+02  0.20000006106E+02 0.  0.
         12    1    1    2    0    0  0.42782516513E+02 -0.59074103719E+01  0.42874166040E+01  0.43400727616E+02  0.00000000000E+00 0. -1.
         11    1    3    3    0    0 -0.86251443336E+01  0.75945625334E+01 -0.16624486028E+00  0.11493395167E+02  0.51100000000E-03 0. -1.
        -11    1    3    3    0    0 -0.26601154892E+02  0.35071215567E+01 -0.21678445581E+01  0.26918783284E+02  0.51100000000E-03 0.  1.
         12    1    3    3    0    0 -0.75562172869E+01 -0.51942737182E+01 -0.19533271856E+01  0.93750939323E+01  0.00000000000E+00 0. -1.
</event>
<event>
 7    1  0.6622189E-010  0.4778727E+02  0.7816164E-02  0.1312668E+00
        -11   -1    0    0    0    0  0.00000000000E+00  0.00000000000E+00  0.45593999997E+02  0.45594000000E+02  0.51100000000E-03 0. -1.
         11   -1    0    0    0    0 -0.00000000000E+00 -0.00000000000E+00 -0.45593999997E+02  0.45594000000E+02  0.51100000000E-03 0.  1.
    9900012    2    1    2    0    0 -0.13791608164E+02  0.38894182870E+01  0.40966904711E+02  0.47787270606E+02  0.19999997999E+02 0.  0.
        -12    1    1    2    0    0  0.13791608164E+02 -0.38894182870E+01 -0.40966904711E+02  0.43400729394E+02  0.00000000000E+00 0.  1.
         11    1    3    3    0    0 -0.10602018671E+01 -0.13676202999E+00 -0.17036051149E+01  0.20112191577E+01  0.51100000000E-03 0. -1.
        -11    1    3    3    0    0 -0.50866488812E+01  0.37324648037E-01  0.30134207932E+02  0.30560528103E+02  0.51100000000E-03 0.  1.
         12    1    3    3    0    0 -0.76447574155E+01  0.39888556689E+01  0.12536301894E+02  0.15215523345E+02  0.00000000000E+00 0. -1.
</event>
<event>
 7    1  0.6622189E-010  0.4778728E+02  0.7816164E-02  0.1312668E+00
        -11   -1    0    0    0    0  0.00000000000E+00  0.00000000000E+00  0.45593999997E+02  0.45594000000E+02  0.51100000000E-03 0. -1.
         11   -1    0    0    0    0 -0.00000000000E+00 -0.00000000000E+00 -0.45593999997E+02  0.45594000000E+02  0.51100000000E-03 0.  1.
    9900012    2    1    2    0    0  0.28931040056E+01  0.11309828023E+02  0.41801197718E+02  0.47787281211E+02  0.20000046354E+02 0.  0.
        -12    1    1    2    0    0 -0.28931040056E+01 -0.11309828023E+02 -0.41801197718E+02  0.43400718789E+02  0.00000000000E+00 0.  1.
         11    1    3    3    0    0 -0.14255752117E+01  0.11182630871E+02  0.16342969440E+02  0.19853869856E+02  0.51100000000E-03 0. -1.
        -11    1    3    3    0    0  0.38641212924E+01 -0.49374125685E+01  0.16195069064E+02  0.17366339237E+02  0.51100000000E-03 0.  1.
        -12    1    3    3    0    0  0.45455792483E+00  0.50646097207E+01  0.92631592143E+01  0.10567072119E+02  0.00000000000E+00 0.  1.
</event>
<event>
 7    1  0.6622189E-010  0.4778727E+02  0.7816164E-02  0.1312668E+00
        -11   -1    0    0    0    0  0.00000000000E+00  0.00000000000E+00  0.45593999997E+02  0.45594000000E+02  0.51100000000E-03 0. -1.
         11   -1    0    0    0    0 -0.00000000000E+00 -0.00000000000E+00 -0.45593999997E+02  0.45594000000E+02  0.51100000000E-03 0.  1.
    9900012    2    1    2    0    0 -0.16767498019E+02 -0.10576176990E+01  0.40016942987E+02  0.47787271077E+02  0.20000000148E+02 0.  0.
        -12    1    1    2    0    0  0.16767498019E+02  0.10576176990E+01 -0.40016942987E+02  0.43400728923E+02  0.00000000000E+00 0.  1.
         11    1    3    3    0    0 -0.11215515188E+02  0.22123560694E+01  0.33619285472E+02  0.35509698059E+02  0.51100000000E-03 0.  1.
        -11    1    3    3    0    0 -0.72917297045E+01 -0.21409971655E+01  0.67613414140E+01  0.10171967800E+02  0.51100000000E-03 0. -1.
         12    1    3    3    0    0  0.17397468744E+01 -0.11289766028E+01 -0.36368389845E+00  0.21056052181E+01  0.00000000000E+00 0. -1.
</event>
<event>
 7    1  0.6622189E-010  0.4778727E+02  0.7816164E-02  0.1312668E+00
        -11   -1    0    0    0    0  0.00000000000E+00  0.00000000000E+00  0.45593999997E+02  0.45594000000E+02  0.51100000000E-03 0. -1.
         11   -1    0    0    0    0 -0.00000000000E+00 -0.00000000000E+00 -0.45593999997E+02  0.45594000000E+02  0.51100000000E-03 0.  1.
    9900012    2    1    2    0    0  0.20514865625E+02  0.14011162591E+02 -0.35587228443E+02  0.47787271699E+02  0.20000002986E+02 0.  0.
         12    1    1    2    0    0 -0.20514865625E+02 -0.14011162591E+02  0.35587228443E+02  0.43400728301E+02  0.00000000000E+00 0. -1.
         11    1    3    3    0    0  0.87220659025E+01  0.97419180520E+01 -0.10142405093E+02  0.16548346814E+02  0.51100000000E-03 0. -1.
        -11    1    3    3    0    0 -0.13169318236E+01 -0.25284145587E+01 -0.18322727923E+01  0.33888661017E+01  0.51100000000E-03 0.  1.
        -12    1    3    3    0    0  0.13109731546E+02  0.67976590974E+01 -0.23612550558E+02  0.27850058784E+02  0.00000000000E+00 0.  1.
</event>
<event>
 7    1  0.6622189E-010  0.4778727E+02  0.7816164E-02  0.1312668E+00
        -11   -1    0    0    0    0  0.00000000000E+00  0.00000000000E+00  0.45593999997E+02  0.45594000000E+02  0.51100000000E-03 0. -1.
         11   -1    0    0    0    0 -0.00000000000E+00 -0.00000000000E+00 -0.45593999997E+02  0.45594000000E+02  0.51100000000E-03 0.  1.
    9900012    2    1    2    0    0  0.21026418539E+02 -0.30195901981E+02  0.23015661286E+02  0.47787269160E+02  0.19999991409E+02 0.  0.
        -12    1    1    2    0    0 -0.21026418539E+02  0.30195901981E+02 -0.23015661286E+02  0.43400730840E+02  0.00000000000E+00 0.  1.
         11    1    3    3    0    0  0.20099830157E+02 -0.19469738133E+02  0.16436954310E+02  0.32453772393E+02  0.51100000000E-03 0. -1.
        -11    1    3    3    0    0  0.38108021656E+01 -0.91852341821E+01  0.27891737974E+01  0.10328128139E+02  0.51100000000E-03 0.  1.
         12    1    3    3    0    0 -0.28842137843E+01 -0.15409296666E+01  0.37895331784E+01  0.50053686279E+01  0.00000000000E+00 0. -1.
</event>
<event>
 7    1  0.6622189E-010  0.4778727E+02  0.7816164E-02  0.1312668E+00
        -11   -1    0    0    0    0  0.00000000000E+00  0.00000000000E+00  0.45593999997E+02  0.45594000000E+02  0.51100000000E-03 0. -1.
         11   -1    0    0    0    0 -0.00000000000E+00 -0.00000000000E+00 -0.45593999997E+02  0.45594000000E+02  0.51100000000E-03 0.  1.
    9900012    2    1    2    0    0 -0.10376812084E+02 -0.33717893716E+02  0.25279415125E+02  0.47787269422E+02  0.19999992603E+02 0.  0.
        -12    1    1    2    0    0  0.10376812084E+02  0.33717893716E+02 -0.25279415125E+02  0.43400730578E+02  0.00000000000E+00 0.  1.
         11    1    3    3    0    0 -0.50301968748E+01 -0.80492558419E+01  0.12422818032E+02  0.15633931314E+02  0.51100000000E-03 0. -1.
        -11    1    3    3    0    0 -0.21998456788E+01 -0.25887158474E+02  0.12882201663E+02  0.28998886441E+02  0.51100000000E-03 0.  1.
        -12    1    3    3    0    0 -0.31467695300E+01  0.21852060038E+00 -0.25604569697E-01  0.31544516674E+01  0.00000000000E+00 0.  1.
</event>
<event>
 7    1  0.6622189E-010  0.4778728E+02  0.7816164E-02  0.1312668E+00
        -11   -1    0    0    0    0  0.00000000000E+00  0.00000000000E+00  0.45593999997E+02  0.45594000000E+02  0.51100000000E-03 0. -1.
         11   -1    0    0    0    0 -0.00000000000E+00 -0.00000000000E+00 -0.45593999997E+02  0.45594000000E+02  0.51100000000E-03 0.  1.
    9900012    2    1    2    0    0  0.26908297690E+02  0.54163474896E+01 -0.33618882106E+02  0.47787279513E+02  0.20000038613E+02 0.  0.
         12    1    1    2    0    0 -0.26908297690E+02 -0.54163474896E+01  0.33618882106E+02  0.43400720487E+02  0.00000000000E+00 0. -1.
         11    1    3    3    0    0  0.10838811433E+02  0.92450923953E+01 -0.86272838031E+01  0.16654776875E+02  0.51100000000E-03 0. -1.
        -11    1    3    3    0    0  0.15390350873E+02 -0.14696037993E+01 -0.23855940215E+02  0.28427601361E+02  0.51100000000E-03 0.  1.
        -12    1    3    3    0    0  0.67913538374E+00 -0.23591411063E+01 -0.11356580878E+01  0.27049012776E+01  0.00000000000E+00 0.  1.
</event>
<event>
 7    1  0.6622189E-010  0.4778727E+02  0.7816164E-02  0.1312668E+00
        -11   -1    0    0    0    0  0.00000000000E+00  0.00000000000E+00  0.45593999997E+02  0.45594000000E+02  0.51100000000E-03 0. -1.
         11   -1    0    0    0    0 -0.00000000000E+00 -0.00000000000E+00 -0.45593999997E+02  0.45594000000E+02  0.51100000000E-03 0.  1.
    9900012    2    1    2    0    0 -0.29222908508E+02 -0.29179332368E+02  0.13349601572E+02  0.47787266351E+02  0.19999978602E+02 0.  0.
        -12    1    1    2    0    0  0.29222908508E+02  0.29179332368E+02 -0.13349601572E+02  0.43400733649E+02  0.00000000000E+00 0.  1.
         11    1    3    3    0    0 -0.57819224701E+01  0.15211793541E+00  0.76001421186E+01  0.95507030004E+01  0.51100000000E-03 0.  1.
        -11    1    3    3    0    0 -0.15737605614E+02 -0.16402042457E+02  0.40750512973E+01  0.23093403182E+02  0.51100000000E-03 0. -1.
        -12    1    3    3    0    0 -0.77033804244E+01 -0.12929407846E+02  0.16744081561E+01  0.15143160169E+02  0.00000000000E+00 0.  1.
</event>
<event>
 7    1  0.6622189E-010  0.4778727E+02  0.7816164E-02  0.1312668E+00
        -11   -1    0    0    0    0  0.00000000000E+00  0.00000000000E+00  0.45593999997E+02  0.45594000000E+02  0.51100000000E-03 0. -1.
         11   -1    0    0    0    0 -0.00000000000E+00 -0.00000000000E+00 -0.45593999997E+02  0.45594000000E+02  0.51100000000E-03 0.  1.
    9900012    2    1    2    0    0  0.71413243999E+01  0.41135135372E+02 -0.11854340013E+02  0.47787271280E+02  0.20000001076E+02 0.  0.
         12    1    1    2    0    0 -0.71413243999E+01 -0.41135135372E+02  0.11854340013E+02  0.43400728720E+02  0.00000000000E+00 0. -1.
         11    1    3    3    0    0 -0.73145241518E+00  0.15273571181E+02  0.41753296565E+01  0.15850879384E+02  0.51100000000E-03 0. -1.
        -11    1    3    3    0    0  0.80461247016E+01  0.19927721859E+02 -0.10931136395E+02  0.24111075553E+02  0.51100000000E-03 0.  1.
         12    1    3    3    0    0 -0.17334788647E+00  0.59338423323E+01 -0.50985332743E+01  0.78253163427E+01  0.00000000000E+00 0. -1.
</event>
<event>
 7    1  0.6622189E-010  0.4778727E+02  0.7816164E-02  0.1312668E+00
        -11   -1    0    0    0    0  0.00000000000E+00  0.00000000000E+00  0.45593999997E+02  0.45594000000E+02  0.51100000000E-03 0. -1.
         11   -1    0    0    0    0 -0.00000000000E+00 -0.00000000000E+00 -0.45593999997E+02  0.45594000000E+02  0.51100000000E-03 0.  1.
    9900012    2    1    2    0    0 -0.18425841479E+02  0.16347727595E+02  0.35733228191E+02  0.47787269261E+02  0.19999991869E+02 0.  0.
        -12    1    1    2    0    0  0.18425841479E+02 -0.16347727595E+02 -0.35733228191E+02  0.43400730739E+02  0.00000000000E+00 0.  1.
         11    1    3    3    0    0 -0.13361085454E+02  0.12402070593E+02  0.30420157574E+02  0.35464291147E+02  0.51100000000E-03 0. -1.
        -11    1    3    3    0    0 -0.45569385116E+01 -0.21037614556E+01  0.28483811935E+01  0.57710290716E+01  0.51100000000E-03 0.  1.
         12    1    3    3    0    0 -0.50781751313E+00  0.60494184571E+01  0.24646894240E+01  0.65519490422E+01  0.00000000000E+00 0. -1.
</event>
<event>
 7    1  0.6622189E-010  0.4778726E+02  0.7816164E-02  0.1312668E+00
        -11   -1    0    0    0    0  0.00000000000E+00  0.00000000000E+00  0.45593999997E+02  0.45594000000E+02  0.51100000000E-03 0. -1.
         11   -1    0    0    0    0 -0.00000000000E+00 -0.00000000000E+00 -0.45593999997E+02  0.45594000000E+02  0.51100000000E-03 0.  1.
    9900012    2    1    2    0    0  0.11262646031E+02  0.34113378136E+02 -0.24352704213E+02  0.47787263072E+02  0.19999963648E+02 0.  0.
         12    1    1    2    0    0 -0.11262646031E+02 -0.34113378136E+02  0.24352704213E+02  0.43400736928E+02  0.00000000000E+00 0. -1.
         11    1    3    3    0    0 -0.49193438069E+00  0.52456323201E+01 -0.12528803463E+02  0.13591525829E+02  0.51100000000E-03 0. -1.
        -11    1    3    3    0    0  0.10287609832E+02  0.28638519962E+02 -0.11978434330E+02  0.32702945295E+02  0.51100000000E-03 0.  1.
        -12    1    3    3    0    0  0.14669705794E+01  0.22922585348E+00  0.15453358053E+00  0.14927919481E+01  0.00000000000E+00 0.  1.
</event>
<event>
 7    1  0.6622189E-010  0.4778727E+02  0.7816164E-02  0.1312668E+00
        -11   -1    0    0    0    0  0.00000000000E+00  0.00000000000E+00  0.45593999997E+02  0.45594000000E+02  0.51100000000E-03 0. -1.
         11   -1    0    0    0    0 -0.00000000000E+00 -0.00000000000E+00 -0.45593999997E+02  0.45594000000E+02  0.51100000000E-03 0.  1.
    9900012    2    1    2    0    0 -0.30355557897E+02 -0.12731026249E+02  0.28285765368E+02  0.47787269049E+02  0.19999990903E+02 0.  0.
        -12    1    1    2    0    0  0.30355557897E+02  0.12731026249E+02 -0.28285765368E+02  0.43400730951E+02  0.00000000000E+00 0.  1.
         11    1    3    3    0    0 -0.19980500827E+02 -0.11378985715E+02  0.26395837167E+02  0.35006312991E+02  0.51100000000E-03 0. -1.
        -11    1    3    3    0    0 -0.91266701440E+00 -0.11639371569E+01  0.29075549798E+01  0.32621445409E+01  0.51100000000E-03 0.  1.
         12    1    3    3    0    0 -0.94623900556E+01 -0.18810337766E+00 -0.10176267789E+01  0.95188115176E+01  0.00000000000E+00 0. -1.
</event>
<event>
 7    1  0.6622189E-010  0.4778727E+02  0.7816164E-02  0.1312668E+00
        -11   -1    0    0    0    0  0.00000000000E+00  0.00000000000E+00  0.45593999997E+02  0.45594000000E+02  0.51100000000E-03 0. -1.
         11   -1    0    0    0    0 -0.00000000000E+00 -0.00000000000E+00 -0.45593999997E+02  0.45594000000E+02  0.51100000000E-03 0.  1.
    9900012    2    1    2    0    0  0.21863123977E+02 -0.30685409115E+02  0.21541426280E+02  0.47787267647E+02  0.19999984512E+02 0.  0.
        -12    1    1    2    0    0 -0.21863123977E+02  0.30685409115E+02 -0.21541426280E+02  0.43400732353E+02  0.00000000000E+00 0.  1.
         11    1    3    3    0    0  0.10392048984E+02 -0.18541490901E+02  0.16649849872E+02  0.26999982740E+02  0.51100000000E-03 0. -1.
        -11    1    3    3    0    0 -0.17300260155E+01 -0.20393569149E+01 -0.13921053711E+01  0.30149501266E+01  0.51100000000E-03 0.  1.
        -12    1    3    3    0    0  0.13201101008E+02 -0.10104561298E+02  0.62836817789E+01  0.17772334781E+02  0.00000000000E+00 0.  1.
</event>
<event>
 7    1  0.6622189E-010  0.4778728E+02  0.7816164E-02  0.1312668E+00
        -11   -1    0    0    0    0  0.00000000000E+00  0.00000000000E+00  0.45593999997E+02  0.45594000000E+02  0.51100000000E-03 0. -1.
         11   -1    0    0    0    0 -0.00000000000E+00 -0.00000000000E+00 -0.45593999997E+02  0.45594000000E+02  0.51100000000E-03 0.  1.
    9900012    2    1    2    0    0  0.26833884231E+01  0.20579210504E+02  0.38117161738E+02  0.47787279991E+02  0.20000040790E+02 0.  0.
        -12    1    1    2    0    0 -0.26833884231E+01 -0.20579210504E+02 -0.38117161738E+02  0.43400720009E+02  0.00000000000E+00 0.  1.
         11    1    3    3    0    0 -0.68006977788E+00  0.76851758765E+01  0.22681026843E+02  0.23957324601E+02  0.51100000000E-03 0. -1.
        -11    1    3    3    0    0 -0.11625358052E+01  0.65683825411E+01  0.14243214829E+00  0.66719881506E+01  0.51100000000E-03 0.  1.
        -12    1    3    3    0    0  0.45259940062E+01  0.63256520863E+01  0.15293702747E+02  0.17157967239E+02  0.00000000000E+00 0.  1.
</event>
<event>
 7    1  0.6622189E-010  0.4778727E+02  0.7816164E-02  0.1312668E+00
        -11   -1    0    0    0    0  0.00000000000E+00  0.00000000000E+00  0.45593999997E+02  0.45594000000E+02  0.51100000000E-03 0. -1.
         11   -1    0    0    0    0 -0.00000000000E+00 -0.00000000000E+00 -0.45593999997E+02  0.45594000000E+02  0.51100000000E-03 0.  1.
    9900012    2    1    2    0    0  0.72335719274E+01  0.38518567932E+01  0.42619969976E+02  0.47787271846E+02  0.20000003654E+02 0.  0.
        -12    1    1    2    0    0 -0.72335719274E+01 -0.38518567932E+01 -0.42619969976E+02  0.43400728154E+02  0.00000000000E+00 0.  1.
         11    1    3    3    0    0  0.45431997699E+01 -0.31592547629E+00  0.42106907089E+02  0.42352474520E+02  0.51100000000E-03 0. -1.
        -11    1    3    3    0    0  0.16774749693E+01  0.15267144948E+01 -0.67539940882E+00  0.23666313705E+01  0.51100000000E-03 0.  1.
         12    1    3    3    0    0  0.10128971883E+01  0.26410677747E+01  0.11884622953E+01  0.30681659557E+01  0.00000000000E+00 0. -1.
</event>
<event>
 7    1  0.6622189E-010  0.4778729E+02  0.7816164E-02  0.1312668E+00
        -11   -1    0    0    0    0  0.00000000000E+00  0.00000000000E+00  0.45593999997E+02  0.45594000000E+02  0.51100000000E-03 0. -1.
         11   -1    0    0    0    0 -0.00000000000E+00 -0.00000000000E+00 -0.45593999997E+02  0.45594000000E+02  0.51100000000E-03 0.  1.
    9900012    2    1    2    0    0 -0.16206727994E+02 -0.98046871743E+00  0.40249256808E+02  0.47787285435E+02  0.20000065612E+02 0.  0.
        -12    1    1    2    0    0  0.16206727994E+02  0.98046871743E+00 -0.40249256808E+02  0.43400714565E+02  0.00000000000E+00 0.  1.
         11    1    3    3    0    0 -0.10858013177E+01  0.70101556196E+01  0.53816902073E+01  0.89041471271E+01  0.51100000000E-03 0. -1.
        -11    1    3    3    0    0 -0.11751890140E+02 -0.70055233733E+01  0.28432864949E+02  0.31553321364E+02  0.51100000000E-03 0.  1.
         12    1    3    3    0    0 -0.33690365365E+01 -0.98510096374E+00  0.64347016514E+01  0.73298169442E+01  0.00000000000E+00 0. -1.
</event>
<event>
 7    1  0.6622189E-010  0.4778727E+02  0.7816164E-02  0.1312668E+00
        -11   -1    0    0    0    0  0.00000000000E+00  0.00000000000E+00  0.45593999997E+02  0.45594000000E+02  0.51100000000E-03 0. -1.
         11   -1    0    0    0    0 -0.00000000000E+00 -0.00000000000E+00 -0.45593999997E+02  0.45594000000E+02  0.51100000000E-03 0.  1.
    9900012    2    1    2    0    0 -0.22925321921E+02  0.22917639824E+02  0.28858879317E+02  0.47787268259E+02  0.19999987299E+02 0.  0.
        -12    1    1    2    0    0  0.22925321921E+02 -0.22917639824E+02 -0.28858879317E+02  0.43400731741E+02  0.00000000000E+00 0.  1.
         11    1    3    3    0    0 -0.17032435016E+02  0.14390558179E+02  0.98806390721E+01  0.24388912153E+02  0.51100000000E-03 0. -1.
        -11    1    3    3    0    0 -0.17013851175E+01  0.99013332269E+00 -0.55564812214E+00  0.20454389288E+01  0.51100000000E-03 0.  1.
         12    1    3    3    0    0 -0.41915017876E+01  0.75369483223E+01  0.19533888367E+02  0.21352917177E+02  0.00000000000E+00 0. -1.
</event>
<event>
 7    1  0.6622189E-010  0.4778727E+02  0.7816164E-02  0.1312668E+00
        -11   -1    0    0    0    0  0.00000000000E+00  0.00000000000E+00  0.45593999997E+02  0.45594000000E+02  0.51100000000E-03 0. -1.
         11   -1    0    0    0    0 -0.00000000000E+00 -0.00000000000E+00 -0.45593999997E+02  0.45594000000E+02  0.51100000000E-03 0.  1.
    9900012    2    1    2    0    0 -0.34162781404E+02 -0.18986827524E+02  0.18868702872E+02  0.47787271886E+02  0.20000003838E+02 0.  0.
        -12    1    1    2    0    0  0.34162781404E+02  0.18986827524E+02 -0.18868702872E+02  0.43400728114E+02  0.00000000000E+00 0.  1.
         11    1    3    3    0    0 -0.92337853339E+01 -0.28341586527E+01  0.19268438193E+01  0.98492626235E+01  0.51100000000E-03 0. -1.
        -11    1    3    3    0    0 -0.20748270124E+02 -0.98975387446E+01  0.45394786006E+01  0.23432004877E+02  0.51100000000E-03 0.  1.
        -12    1    3    3    0    0 -0.41807259464E+01 -0.62551301269E+01  0.12402380452E+02  0.14506004385E+02  0.00000000000E+00 0.  1.
</event>
<event>
 7    1  0.6622189E-010  0.4778727E+02  0.7816164E-02  0.1312668E+00
        -11   -1    0    0    0    0  0.00000000000E+00  0.00000000000E+00  0.45593999997E+02  0.45594000000E+02  0.51100000000E-03 0. -1.
         11   -1    0    0    0    0 -0.00000000000E+00 -0.00000000000E+00 -0.45593999997E+02  0.45594000000E+02  0.51100000000E-03 0.  1.
    9900012    2    1    2    0    0  0.21617089286E+02 -0.23618621511E+02 -0.29299925501E+02  0.47787268835E+02  0.19999989927E+02 0.  0.
         12    1    1    2    0    0 -0.21617089286E+02  0.23618621511E+02  0.29299925501E+02  0.43400731165E+02  0.00000000000E+00 0. -1.
         11    1    3    3    0    0  0.66116648914E+01  0.98122703433E+00 -0.28471274145E+01  0.72651946914E+01  0.51100000000E-03 0. -1.
        -11    1    3    3    0    0  0.72753469453E+01 -0.19565985133E+02 -0.21828186706E+02  0.30203115444E+02  0.51100000000E-03 0.  1.
        -12    1    3    3    0    0  0.77300774490E+01 -0.50338634123E+01 -0.46246113805E+01  0.10318958699E+02  0.00000000000E+00 0.  1.
</event>
<event>
 7    1  0.6622189E-010  0.4778727E+02  0.7816164E-02  0.1312668E+00
        -11   -1    0    0    0    0  0.00000000000E+00  0.00000000000E+00  0.45593999997E+02  0.45594000000E+02  0.51100000000E-03 0.  1.
         11   -1    0    0    0    0 -0.00000000000E+00 -0.00000000000E+00 -0.45593999997E+02  0.45594000000E+02  0.51100000000E-03 0. -1.
    9900012    2    1    2    0    0  0.98996010320E+01  0.34893411520E+02 -0.23834237851E+02  0.47787272333E+02  0.20000005875E+02 0.  0.
         12    1    1    2    0    0 -0.98996010320E+01 -0.34893411520E+02  0.23834237851E+02  0.43400727667E+02  0.00000000000E+00 0. -1.
         11    1    3    3    0    0 -0.41758321977E+01  0.63913673815E+01  0.14340169075E+00  0.76359489164E+01  0.51100000000E-03 0. -1.
        -11    1    3    3    0    0  0.13165660785E+02  0.21987824889E+02 -0.19044264893E+02  0.31929345324E+02  0.51100000000E-03 0.  1.
         12    1    3    3    0    0  0.90977244478E+00  0.65142192493E+01 -0.49333746493E+01  0.82219780929E+01  0.00000000000E+00 0. -1.
</event>
<event>
 7    1  0.6622189E-010  0.4778727E+02  0.7816164E-02  0.1312668E+00
        -11   -1    0    0    0    0  0.00000000000E+00  0.00000000000E+00  0.45593999997E+02  0.45594000000E+02  0.51100000000E-03 0. -1.
         11   -1    0    0    0    0 -0.00000000000E+00 -0.00000000000E+00 -0.45593999997E+02  0.45594000000E+02  0.51100000000E-03 0.  1.
    9900012    2    1    2    0    0 -0.37447502799E+02  0.68328207066E+01 -0.20847553237E+02  0.47787269814E+02  0.19999994390E+02 0.  0.
         12    1    1    2    0    0  0.37447502799E+02 -0.68328207066E+01  0.20847553237E+02  0.43400730186E+02  0.00000000000E+00 0. -1.
         11    1    3    3    0    0 -0.38250416962E+01 -0.79599532583E+00  0.19987292876E+01  0.43885614457E+01  0.51100000000E-03 0. -1.
        -11    1    3    3    0    0 -0.22787996164E+02  0.11130011867E+02 -0.13913576609E+02  0.28926761790E+02  0.51100000000E-03 0.  1.
        -12    1    3    3    0    0 -0.10834464939E+02 -0.35011958347E+01 -0.89327059160E+01  0.14471946578E+02  0.00000000000E+00 0.  1.
</event>
<event>
 7    1  0.6622189E-010  0.4778727E+02  0.7816164E-02  0.1312668E+00
        -11   -1    0    0    0    0  0.00000000000E+00  0.00000000000E+00  0.45593999997E+02  0.45594000000E+02  0.51100000000E-03 0.  1.
         11   -1    0    0    0    0 -0.00000000000E+00 -0.00000000000E+00 -0.45593999997E+02  0.45594000000E+02  0.51100000000E-03 0. -1.
    9900012    2    1    2    0    0  0.37324903008E+02  0.10003328769E+02  0.19758745171E+02  0.47787274410E+02  0.20000015344E+02 0.  0.
        -12    1    1    2    0    0 -0.37324903008E+02 -0.10003328769E+02 -0.19758745171E+02  0.43400725590E+02  0.00000000000E+00 0.  1.
         11    1    3    3    0    0  0.16928182417E+02  0.97645472044E+01  0.13990496972E+02  0.24034220350E+02  0.51100000000E-03 0. -1.
        -11    1    3    3    0    0  0.76484967429E+01  0.46206801533E+00 -0.30535872910E+01  0.82484789435E+01  0.51100000000E-03 0.  1.
         12    1    3    3    0    0  0.12748223848E+02 -0.22328645099E+00  0.88218354896E+01  0.15504575116E+02  0.00000000000E+00 0. -1.
</event>
<event>
 7    1  0.6622189E-010  0.4778727E+02  0.7816164E-02  0.1312668E+00
        -11   -1    0    0    0    0  0.00000000000E+00  0.00000000000E+00  0.45593999997E+02  0.45594000000E+02  0.51100000000E-03 0. -1.
         11   -1    0    0    0    0 -0.00000000000E+00 -0.00000000000E+00 -0.45593999997E+02  0.45594000000E+02  0.51100000000E-03 0.  1.
    9900012    2    1    2    0    0  0.16468239582E+02 -0.30717861393E+02  0.25861815163E+02  0.47787269511E+02  0.19999993007E+02 0.  0.
        -12    1    1    2    0    0 -0.16468239582E+02  0.30717861393E+02 -0.25861815163E+02  0.43400730489E+02  0.00000000000E+00 0.  1.
         11    1    3    3    0    0  0.80623821027E+01 -0.16073153845E+02  0.35565929652E+01  0.18330238228E+02  0.51100000000E-03 0. -1.
        -11    1    3    3    0    0  0.89583290628E+01 -0.15163686158E+02  0.18367760758E+02  0.25447272408E+02  0.51100000000E-03 0.  1.
        -12    1    3    3    0    0 -0.55247158377E+00  0.51897860979E+00  0.39374614396E+01  0.40097588752E+01  0.00000000000E+00 0.  1.
</event>
<event>
 7    1  0.6622189E-010  0.4778724E+02  0.7816164E-02  0.1312668E+00
        -11   -1    0    0    0    0  0.00000000000E+00  0.00000000000E+00  0.45593999997E+02  0.45594000000E+02  0.51100000000E-03 0. -1.
         11   -1    0    0    0    0 -0.00000000000E+00 -0.00000000000E+00 -0.45593999997E+02  0.45594000000E+02  0.51100000000E-03 0.  1.
    9900012    2    1    2    0    0  0.20589246070E+02  0.34649490396E+02 -0.16097247065E+02  0.47787244229E+02  0.19999877736E+02 0.  0.
         12    1    1    2    0    0 -0.20589246070E+02 -0.34649490396E+02  0.16097247065E+02  0.43400755771E+02  0.00000000000E+00 0. -1.
         11    1    3    3    0    0  0.78248075907E+01  0.56134272109E+01 -0.90622848585E+01  0.13223584461E+02  0.51100000000E-03 0. -1.
        -11    1    3    3    0    0  0.83427863640E+01  0.27815153633E+02 -0.73834868458E+01  0.29963323150E+02  0.51100000000E-03 0.  1.
        -12    1    3    3    0    0  0.44216521158E+01  0.12209095521E+01  0.34852463966E+00  0.46003366172E+01  0.00000000000E+00 0.  1.
</event>
<event>
 7    1  0.6622189E-010  0.4778727E+02  0.7816164E-02  0.1312668E+00
        -11   -1    0    0    0    0  0.00000000000E+00  0.00000000000E+00  0.45593999997E+02  0.45594000000E+02  0.51100000000E-03 0. -1.
         11   -1    0    0    0    0 -0.00000000000E+00 -0.00000000000E+00 -0.45593999997E+02  0.45594000000E+02  0.51100000000E-03 0.  1.
    9900012    2    1    2    0    0  0.85371152368E+01  0.34297176941E+02 -0.25188178583E+02  0.47787273935E+02  0.20000013177E+02 0.  0.
         12    1    1    2    0    0 -0.85371152368E+01 -0.34297176941E+02  0.25188178583E+02  0.43400726065E+02  0.00000000000E+00 0. -1.
         11    1    3    3    0    0  0.64949573550E+01  0.12552968297E+02 -0.17034395323E+01  0.14235982249E+02  0.51100000000E-03 0. -1.
        -11    1    3    3    0    0  0.30513553865E+01  0.22240927162E+02 -0.23393773347E+02  0.32422804357E+02  0.51100000000E-03 0.  1.
         12    1    3    3    0    0 -0.10091975047E+01 -0.49671851842E+00 -0.90965704093E-01  0.11284873279E+01  0.00000000000E+00 0. -1.
</event>
<event>
 7    1  0.6622189E-010  0.4778728E+02  0.7816164E-02  0.1312668E+00
        -11   -1    0    0    0    0  0.00000000000E+00  0.00000000000E+00  0.45593999997E+02  0.45594000000E+02  0.51100000000E-03 0. -1.
         11   -1    0    0    0    0 -0.00000000000E+00 -0.00000000000E+00 -0.45593999997E+02  0.45594000000E+02  0.51100000000E-03 0.  1.
    9900012    2    1    2    0    0  0.46976271233E+01  0.30398028977E+01 -0.43038523068E+02  0.47787279153E+02  0.20000036968E+02 0.  0.
         12    1    1    2    0    0 -0.46976271233E+01 -0.30398028977E+01  0.43038523068E+02  0.43400720847E+02  0.00000000000E+00 0. -1.
         11    1    3    3    0    0  0.11903195573E+01 -0.29488883841E+01  0.85250600290E+00  0.32923502390E+01  0.51100000000E-03 0. -1.
        -11    1    3    3    0    0  0.15721987604E+01  0.13998013541E+01 -0.18558212997E+02  0.18677219351E+02  0.51100000000E-03 0.  1.
         12    1    3    3    0    0  0.19351088056E+01  0.45888899277E+01 -0.25332816073E+02  0.25817709562E+02  0.00000000000E+00 0. -1.
</event>
<event>
 7    1  0.6622189E-010  0.4778727E+02  0.7816164E-02  0.1312668E+00
        -11   -1    0    0    0    0  0.00000000000E+00  0.00000000000E+00  0.45593999997E+02  0.45594000000E+02  0.51100000000E-03 0. -1.
         11   -1    0    0    0    0 -0.00000000000E+00 -0.00000000000E+00 -0.45593999997E+02  0.45594000000E+02  0.51100000000E-03 0.  1.
    9900012    2    1    2    0    0  0.18407641302E+02 -0.17818790310E+02 -0.35032450776E+02  0.47787272428E+02  0.20000006308E+02 0.  0.
         12    1    1    2    0    0 -0.18407641302E+02  0.17818790310E+02  0.35032450776E+02  0.43400727572E+02  0.00000000000E+00 0. -1.
         11    1    3    3    0    0 -0.22402668647E+00  0.14242475378E+01 -0.64055539282E+01  0.65658046265E+01  0.51100000000E-03 0. -1.
        -11    1    3    3    0    0  0.91731533797E+01 -0.17174619921E+02 -0.15374631927E+02  0.24809143869E+02  0.51100000000E-03 0.  1.
        -12    1    3    3    0    0  0.94585146089E+01 -0.20684179261E+01 -0.13252264921E+02  0.16412323932E+02  0.00000000000E+00 0.  1.
</event>
<event>
 7    1  0.6622189E-010  0.4778727E+02  0.7816164E-02  0.1312668E+00
        -11   -1    0    0    0    0  0.00000000000E+00  0.00000000000E+00  0.45593999997E+02  0.45594000000E+02  0.51100000000E-03 0. -1.
         11   -1    0    0    0    0 -0.00000000000E+00 -0.00000000000E+00 -0.45593999997E+02  0.45594000000E+02  0.51100000000E-03 0.  1.
    9900012    2    1    2    0    0 -0.15299622513E+01  0.35375238073E+02 -0.25097312128E+02  0.47787270406E+02  0.19999997091E+02 0.  0.
         12    1    1    2    0    0  0.15299622513E+01 -0.35375238073E+02  0.25097312128E+02  0.43400729594E+02  0.00000000000E+00 0. -1.
         11    1    3    3    0    0  0.63374219592E+00 -0.18011695510E+01 -0.20403976765E+00  0.19202795136E+01  0.51100000000E-03 0. -1.
        -11    1    3    3    0    0  0.19278981427E+01  0.29595310049E+02 -0.17010571629E+02  0.34190038250E+02  0.51100000000E-03 0.  1.
        -12    1    3    3    0    0 -0.40916025900E+01  0.75810975747E+01 -0.78827007316E+01  0.11676952643E+02  0.00000000000E+00 0.  1.
</event>
<event>
 7    1  0.6622189E-010  0.4778726E+02  0.7816164E-02  0.1312668E+00
        -11   -1    0    0    0    0  0.00000000000E+00  0.00000000000E+00  0.45593999997E+02  0.45594000000E+02  0.51100000000E-03 0.  1.
         11   -1    0    0    0    0 -0.00000000000E+00 -0.00000000000E+00 -0.45593999997E+02  0.45594000000E+02  0.51100000000E-03 0. -1.
    9900012    2    1    2    0    0 -0.32014482980E+02  0.20523314007E+02  0.20916267914E+02  0.47787264963E+02  0.19999972273E+02 0.  0.
        -12    1    1    2    0    0  0.32014482980E+02 -0.20523314007E+02 -0.20916267914E+02  0.43400735037E+02  0.00000000000E+00 0.  1.
         11    1    3    3    0    0 -0.14841193603E+02  0.15909168695E+02  0.52384213384E+01  0.22378644608E+02  0.51100000000E-03 0. -1.
        -11    1    3    3    0    0 -0.16188473935E+02  0.64842190257E+01  0.15421701153E+02  0.23279618800E+02  0.51100000000E-03 0.  1.
         12    1    3    3    0    0 -0.98481544134E+00 -0.18700737130E+01  0.25614542173E+00  0.21290015554E+01  0.00000000000E+00 0. -1.
</event>
<event>
 7    1  0.6622189E-010  0.4778727E+02  0.7816164E-02  0.1312668E+00
        -11   -1    0    0    0    0  0.00000000000E+00  0.00000000000E+00  0.45593999997E+02  0.45594000000E+02  0.51100000000E-03 0. -1.
         11   -1    0    0    0    0 -0.00000000000E+00 -0.00000000000E+00 -0.45593999997E+02  0.45594000000E+02  0.51100000000E-03 0.  1.
    9900012    2    1    2    0    0  0.24293191023E+00  0.30583265087E+02  0.30793312470E+02  0.47787271756E+02  0.20000003243E+02 0.  0.
        -12    1    1    2    0    0 -0.24293191023E+00 -0.30583265087E+02 -0.30793312470E+02  0.43400728244E+02  0.00000000000E+00 0.  1.
         11    1    3    3    0    0 -0.23967023262E+01  0.46891536235E+00  0.97240327407E+01  0.10026010007E+02  0.51100000000E-03 0. -1.
        -11    1    3    3    0    0 -0.22432063385E+01  0.33752744711E+01  0.38164680615E+01  0.55668555898E+01  0.51100000000E-03 0.  1.
         12    1    3    3    0    0  0.48828405749E+01  0.26739075253E+02  0.17252811667E+02  0.32194406159E+02  0.00000000000E+00 0. -1.
</event>
<event>
 7    1  0.6622189E-010  0.4778726E+02  0.7816164E-02  0.1312668E+00
        -11   -1    0    0    0    0  0.00000000000E+00  0.00000000000E+00  0.45593999997E+02  0.45594000000E+02  0.51100000000E-03 0. -1.
         11   -1    0    0    0    0 -0.00000000000E+00 -0.00000000000E+00 -0.45593999997E+02  0.45594000000E+02  0.51100000000E-03 0.  1.
    9900012    2    1    2    0    0 -0.14574410418E+02  0.35496375683E+02 -0.20278503442E+02  0.47787264666E+02  0.19999970919E+02 0.  0.
         12    1    1    2    0    0  0.14574410418E+02 -0.35496375683E+02  0.20278503442E+02  0.43400735334E+02  0.00000000000E+00 0. -1.
         11    1    3    3    0    0  0.40702601888E+01  0.56407220796E+01 -0.15795009113E+01  0.71329928483E+01  0.51100000000E-03 0. -1.
        -11    1    3    3    0    0 -0.16103708249E+02  0.28925858607E+02 -0.18539104195E+02  0.37943815045E+02  0.51100000000E-03 0.  1.
        -12    1    3    3    0    0 -0.25409623577E+01  0.92979499622E+00 -0.15989833501E+00  0.27104567726E+01  0.00000000000E+00 0.  1.
</event>
<event>
 7    1  0.6622189E-010  0.4778727E+02  0.7816164E-02  0.1312668E+00
        -11   -1    0    0    0    0  0.00000000000E+00  0.00000000000E+00  0.45593999997E+02  0.45594000000E+02  0.51100000000E-03 0. -1.
         11   -1    0    0    0    0 -0.00000000000E+00 -0.00000000000E+00 -0.45593999997E+02  0.45594000000E+02  0.51100000000E-03 0.  1.
    9900012    2    1    2    0    0 -0.25502049176E+01  0.27863480603E+02 -0.33177491016E+02  0.47787274124E+02  0.20000014040E+02 0.  0.
         12    1    1    2    0    0  0.25502049176E+01 -0.27863480603E+02  0.33177491016E+02  0.43400725876E+02  0.00000000000E+00 0. -1.
         11    1    3    3    0    0  0.37534105006E-03  0.37373584985E+00  0.19112892741E+01  0.19474869901E+01  0.51100000000E-03 0. -1.
        -11    1    3    3    0    0 -0.54311157269E+01  0.23186625633E+02 -0.31710682953E+02  0.39657080577E+02  0.51100000000E-03 0.  1.
         12    1    3    3    0    0  0.28805354683E+01  0.43031191206E+01 -0.33780973374E+01  0.61827065571E+01  0.00000000000E+00 0. -1.
</event>
<event>
 7    1  0.6622189E-010  0.4778727E+02  0.7816164E-02  0.1312668E+00
        -11   -1    0    0    0    0  0.00000000000E+00  0.00000000000E+00  0.45593999997E+02  0.45594000000E+02  0.51100000000E-03 0. -1.
         11   -1    0    0    0    0 -0.00000000000E+00 -0.00000000000E+00 -0.45593999997E+02  0.45594000000E+02  0.51100000000E-03 0.  1.
    9900012    2    1    2    0    0  0.33146269840E+02 -0.14327730616E+02  0.24076211157E+02  0.47787274055E+02  0.20000013725E+02 0.  0.
        -12    1    1    2    0    0 -0.33146269840E+02  0.14327730616E+02 -0.24076211157E+02  0.43400725945E+02  0.00000000000E+00 0.  1.
         11    1    3    3    0    0  0.30594505666E+02 -0.16503442509E+02  0.16828912565E+02  0.38621233668E+02  0.51100000000E-03 0. -1.
        -11    1    3    3    0    0  0.33740278681E+01  0.27961435974E+01  0.66829124739E+01  0.79914831206E+01  0.51100000000E-03 0.  1.
         12    1    3    3    0    0 -0.82226369447E+00 -0.62043170361E+00  0.56438611811E+00  0.11745572666E+01  0.00000000000E+00 0. -1.
</event>
<event>
 7    1  0.7388233E-010  0.4778727E+02  0.7816164E-02  0.1312668E+00
        -11   -1    0    0    0    0  0.00000000000E+00  0.00000000000E+00  0.45593999997E+02  0.45594000000E+02  0.51100000000E-03 0. -1.
         11   -1    0    0    0    0 -0.00000000000E+00 -0.00000000000E+00 -0.45593999997E+02  0.45594000000E+02  0.51100000000E-03 0.  1.
    9900012    2    1    2    0    0 -0.27359826823E+02 -0.11963113248E+02 -0.31495190297E+02  0.47787271732E+02  0.20000003133E+02 0.  0.
         12    1    1    2    0    0  0.27359826823E+02  0.11963113248E+02  0.31495190297E+02  0.43400728268E+02  0.00000000000E+00 0. -1.
         11    1    3    3    0    0 -0.26053845432E+01  0.14526076885E+01 -0.15044927187E+01  0.33408975315E+01  0.51100000000E-03 0. -1.
        -11    1    3    3    0    0 -0.19624627900E+02 -0.48325892444E+01 -0.11065100158E+02  0.23041622790E+02  0.51100000000E-03 0.  1.
        -12    1    3    3    0    0 -0.51298143800E+01 -0.85831316920E+01 -0.18925597420E+02  0.21404751410E+02  0.00000000000E+00 0.  1.
</event>
<event>
 7    1  0.6622189E-010  0.4778727E+02  0.7816164E-02  0.1312668E+00
        -11   -1    0    0    0    0  0.00000000000E+00  0.00000000000E+00  0.45593999997E+02  0.45594000000E+02  0.51100000000E-03 0. -1.
         11   -1    0    0    0    0 -0.00000000000E+00 -0.00000000000E+00 -0.45593999997E+02  0.45594000000E+02  0.51100000000E-03 0.  1.
    9900012    2    1    2    0    0 -0.25102405139E+00  0.18932386274E+02  0.39052851620E+02  0.47787268638E+02  0.19999989029E+02 0.  0.
        -12    1    1    2    0    0  0.25102405139E+00 -0.18932386274E+02 -0.39052851620E+02  0.43400731362E+02  0.00000000000E+00 0.  1.
         11    1    3    3    0    0 -0.93994682223E+01  0.77728642499E+01  0.16289050281E+02  0.20349461439E+02  0.51100000000E-03 0. -1.
        -11    1    3    3    0    0  0.90087211073E+00  0.35792704493E+01  0.31581742722E+01  0.48576550417E+01  0.51100000000E-03 0.  1.
         12    1    3    3    0    0  0.82475720602E+01  0.75802515751E+01  0.19605627066E+02  0.22580152158E+02  0.00000000000E+00 0. -1.
</event>
<event>
 7    1  0.6622189E-010  0.4778727E+02  0.7816164E-02  0.1312668E+00
        -11   -1    0    0    0    0  0.00000000000E+00  0.00000000000E+00  0.45593999997E+02  0.45594000000E+02  0.51100000000E-03 0. -1.
         11   -1    0    0    0    0 -0.00000000000E+00 -0.00000000000E+00 -0.45593999997E+02  0.45594000000E+02  0.51100000000E-03 0.  1.
    9900012    2    1    2    0    0  0.37741564640E+01 -0.15941862455E+02  0.40189998633E+02  0.47787271600E+02  0.20000002532E+02 0.  0.
        -12    1    1    2    0    0 -0.37741564640E+01  0.15941862455E+02 -0.40189998633E+02  0.43400728400E+02  0.00000000000E+00 0.  1.
         11    1    3    3    0    0 -0.36063254482E+01 -0.41438427791E+01  0.16957211896E+02  0.17824815617E+02  0.51100000000E-03 0. -1.
        -11    1    3    3    0    0  0.10139205766E+02 -0.50837708499E+01  0.11405038349E+02  0.16084872384E+02  0.51100000000E-03 0.  1.
        -12    1    3    3    0    0 -0.27587238540E+01 -0.67142488264E+01  0.11827748388E+02  0.13877583598E+02  0.00000000000E+00 0.  1.
</event>
<event>
 7    1  0.6622189E-010  0.4778727E+02  0.7816164E-02  0.1312668E+00
        -11   -1    0    0    0    0  0.00000000000E+00  0.00000000000E+00  0.45593999997E+02  0.45594000000E+02  0.51100000000E-03 0. -1.
         11   -1    0    0    0    0 -0.00000000000E+00 -0.00000000000E+00 -0.45593999997E+02  0.45594000000E+02  0.51100000000E-03 0.  1.
    9900012    2    1    2    0    0  0.69026727521E+00 -0.97750391859E+01  0.42279965043E+02  0.47787270697E+02  0.19999998414E+02 0.  0.
        -12    1    1    2    0    0 -0.69026727521E+00  0.97750391859E+01 -0.42279965043E+02  0.43400729303E+02  0.00000000000E+00 0.  1.
         11    1    3    3    0    0 -0.22198082813E+01  0.33017876928E+01  0.14483749663E+02  0.15020264822E+02  0.51100000000E-03 0. -1.
        -11    1    3    3    0    0 -0.90845250756E+00 -0.12803348997E+02  0.24728317166E+02  0.27861096562E+02  0.51100000000E-03 0.  1.
        -12    1    3    3    0    0  0.38185280641E+01 -0.27347788159E+00  0.30678982140E+01  0.49059093122E+01  0.00000000000E+00 0.  1.
</event>
<event>
 7    1  0.6622189E-010  0.4778727E+02  0.7816164E-02  0.1312668E+00
        -11   -1    0    0    0    0  0.00000000000E+00  0.00000000000E+00  0.45593999997E+02  0.45594000000E+02  0.51100000000E-03 0. -1.
         11   -1    0    0    0    0 -0.00000000000E+00 -0.00000000000E+00 -0.45593999997E+02  0.45594000000E+02  0.51100000000E-03 0.  1.
    9900012    2    1    2    0    0 -0.17216932748E+02 -0.25480256993E+02  0.30626083995E+02  0.47787270852E+02  0.19999999122E+02 0.  0.
        -12    1    1    2    0    0  0.17216932748E+02  0.25480256993E+02 -0.30626083995E+02  0.43400729148E+02  0.00000000000E+00 0.  1.
         11    1    3    3    0    0  0.15556250745E+01 -0.13214831110E+01  0.12782717023E+01  0.24083740970E+01  0.51100000000E-03 0. -1.
        -11    1    3    3    0    0 -0.86958313688E+01 -0.29052739420E+00  0.71398246357E+01  0.11255175940E+02  0.51100000000E-03 0.  1.
        -12    1    3    3    0    0 -0.10076726454E+02 -0.23868246488E+02  0.22207987657E+02  0.34123720815E+02  0.00000000000E+00 0.  1.
</event>
<event>
 7    1  0.6622189E-010  0.4778727E+02  0.7816164E-02  0.1312668E+00
        -11   -1    0    0    0    0  0.00000000000E+00  0.00000000000E+00  0.45593999997E+02  0.45594000000E+02  0.51100000000E-03 0. -1.
         11   -1    0    0    0    0 -0.00000000000E+00 -0.00000000000E+00 -0.45593999997E+02  0.45594000000E+02  0.51100000000E-03 0.  1.
    9900012    2    1    2    0    0 -0.27280025134E+02  0.22132128077E+02 -0.25487101578E+02  0.47787271765E+02  0.20000003285E+02 0.  0.
         12    1    1    2    0    0  0.27280025134E+02 -0.22132128077E+02  0.25487101578E+02  0.43400728235E+02  0.00000000000E+00 0. -1.
         11    1    3    3    0    0 -0.11268087898E+02  0.17099330758E+02 -0.10747114757E+02  0.23126984090E+02  0.51100000000E-03 0. -1.
        -11    1    3    3    0    0 -0.12664627838E+02  0.17371834407E+01 -0.15291193402E+02  0.19930659811E+02  0.51100000000E-03 0.  1.
        -12    1    3    3    0    0 -0.33473093977E+01  0.32956138775E+01  0.55120658097E+00  0.47296278636E+01  0.00000000000E+00 0.  1.
</event>
<event>
 7    1  0.6622189E-010  0.4778727E+02  0.7816164E-02  0.1312668E+00
        -11   -1    0    0    0    0  0.00000000000E+00  0.00000000000E+00  0.45593999997E+02  0.45594000000E+02  0.51100000000E-03 0. -1.
         11   -1    0    0    0    0 -0.00000000000E+00 -0.00000000000E+00 -0.45593999997E+02  0.45594000000E+02  0.51100000000E-03 0.  1.
    9900012    2    1    2    0    0  0.12285371251E+02 -0.40822493859E+02  0.81373651854E+01  0.47787273465E+02  0.20000011036E+02 0.  0.
        -12    1    1    2    0    0 -0.12285371251E+02  0.40822493859E+02 -0.81373651854E+01  0.43400726535E+02  0.00000000000E+00 0.  1.
         11    1    3    3    0    0 -0.19639748987E+01 -0.14491952075E+02  0.28639141140E+00  0.14627231202E+02  0.51100000000E-03 0. -1.
        -11    1    3    3    0    0  0.71960160381E+01 -0.30429037404E+01  0.96637012119E+00  0.78724698454E+01  0.51100000000E-03 0.  1.
        -12    1    3    3    0    0  0.70533301112E+01 -0.23287638044E+02  0.68846036528E+01  0.25287572418E+02  0.00000000000E+00 0.  1.
</event>
<event>
 7    1  0.6622189E-010  0.4778727E+02  0.7816164E-02  0.1312668E+00
        -11   -1    0    0    0    0  0.00000000000E+00  0.00000000000E+00  0.45593999997E+02  0.45594000000E+02  0.51100000000E-03 0. -1.
         11   -1    0    0    0    0 -0.00000000000E+00 -0.00000000000E+00 -0.45593999997E+02  0.45594000000E+02  0.51100000000E-03 0.  1.
    9900012    2    1    2    0    0  0.28211324647E+02  0.42080931026E+01 -0.32711410014E+02  0.47787271539E+02  0.20000002254E+02 0.  0.
         12    1    1    2    0    0 -0.28211324647E+02 -0.42080931026E+01  0.32711410014E+02  0.43400728461E+02  0.00000000000E+00 0. -1.
         11    1    3    3    0    0  0.12354850790E+02  0.10480856979E+02 -0.98183846894E+01  0.18944428712E+02  0.51100000000E-03 0. -1.
        -11    1    3    3    0    0  0.11838068389E+02 -0.27962547746E+01 -0.14735997321E+02  0.19107813095E+02  0.51100000000E-03 0.  1.
         12    1    3    3    0    0  0.40184054669E+01 -0.34765091016E+01 -0.81570280032E+01  0.97350297316E+01  0.00000000000E+00 0. -1.
</event>
<event>
 7    1  0.6622189E-010  0.4778723E+02  0.7816164E-02  0.1312668E+00
        -11   -1    0    0    0    0  0.00000000000E+00  0.00000000000E+00  0.45593999997E+02  0.45594000000E+02  0.51100000000E-03 0. -1.
         11   -1    0    0    0    0 -0.00000000000E+00 -0.00000000000E+00 -0.45593999997E+02  0.45594000000E+02  0.51100000000E-03 0.  1.
    9900012    2    1    2    0    0 -0.14220775974E+02  0.28965854206E+02 -0.29023701395E+02  0.47787234778E+02  0.19999834646E+02 0.  0.
         12    1    1    2    0    0  0.14220775974E+02 -0.28965854206E+02  0.29023701395E+02  0.43400765222E+02  0.00000000000E+00 0. -1.
         11    1    3    3    0    0 -0.11415632370E+02  0.79466953108E+01 -0.58820370320E+01  0.15101820707E+02  0.51100000000E-03 0. -1.
        -11    1    3    3    0    0 -0.41516472993E+01  0.20782732329E+02 -0.19514885809E+02  0.28809528055E+02  0.51100000000E-03 0.  1.
         12    1    3    3    0    0  0.13465036951E+01  0.23642656585E+00 -0.36267785547E+01  0.38758860157E+01  0.00000000000E+00 0. -1.
</event>
<event>
 7    1  0.6622189E-010  0.4778726E+02  0.7816164E-02  0.1312668E+00
        -11   -1    0    0    0    0  0.00000000000E+00  0.00000000000E+00  0.45593999997E+02  0.45594000000E+02  0.51100000000E-03 0.  1.
         11   -1    0    0    0    0 -0.00000000000E+00 -0.00000000000E+00 -0.45593999997E+02  0.45594000000E+02  0.51100000000E-03 0. -1.
    9900012    2    1    2    0    0 -0.43351913523E+02 -0.17329699910E+01 -0.11101228419E+01  0.47787263096E+02  0.19999963758E+02 0.  0.
         12    1    1    2    0    0  0.43351913523E+02  0.17329699910E+01  0.11101228419E+01  0.43400736904E+02  0.00000000000E+00 0. -1.
         11    1    3    3    0    0 -0.18869666714E+02  0.41675309121E+01 -0.66933112968E+01  0.20450746983E+02  0.51100000000E-03 0. -1.
        -11    1    3    3    0    0 -0.18069524121E+02 -0.77545408278E+01  0.62384277186E+01  0.20629071381E+02  0.51100000000E-03 0.  1.
        -12    1    3    3    0    0 -0.64127226887E+01  0.18540399248E+01 -0.65523926369E+00  0.67074447308E+01  0.00000000000E+00 0.  1.
</event>
<event>
 7    1  0.6622189E-010  0.4778727E+02  0.7816164E-02  0.1312668E+00
        -11   -1    0    0    0    0  0.00000000000E+00  0.00000000000E+00  0.45593999997E+02  0.45594000000E+02  0.51100000000E-03 0.  1.
         11   -1    0    0    0    0 -0.00000000000E+00 -0.00000000000E+00 -0.45593999997E+02  0.45594000000E+02  0.51100000000E-03 0. -1.
    9900012    2    1    2    0    0  0.35394024651E+02  0.24904410876E+02 -0.32644422741E+01  0.47787271372E+02  0.20000001492E+02 0.  0.
         12    1    1    2    0    0 -0.35394024651E+02 -0.24904410876E+02  0.32644422741E+01  0.43400728628E+02  0.00000000000E+00 0. -1.
         11    1    3    3    0    0 -0.94823548518E+00  0.36813127668E+01 -0.10953898030E+01  0.39561462693E+01  0.51100000000E-03 0. -1.
        -11    1    3    3    0    0  0.27654832873E+02  0.17820476749E+02 -0.65157725920E+01  0.33538253764E+02  0.51100000000E-03 0.  1.
         12    1    3    3    0    0  0.86874272634E+01  0.34026213605E+01  0.43467201210E+01  0.10292871338E+02  0.00000000000E+00 0. -1.
</event>
<event>
 7    1  0.6622189E-010  0.4778728E+02  0.7816164E-02  0.1312668E+00
        -11   -1    0    0    0    0  0.00000000000E+00  0.00000000000E+00  0.45593999997E+02  0.45594000000E+02  0.51100000000E-03 0. -1.
         11   -1    0    0    0    0 -0.00000000000E+00 -0.00000000000E+00 -0.45593999997E+02  0.45594000000E+02  0.51100000000E-03 0.  1.
    9900012    2    1    2    0    0 -0.11167172951E+02 -0.28241147607E+02 -0.31005713486E+02  0.47787280666E+02  0.20000043870E+02 0.  0.
         12    1    1    2    0    0  0.11167172951E+02  0.28241147607E+02  0.31005713486E+02  0.43400719334E+02  0.00000000000E+00 0. -1.
         11    1    3    3    0    0 -0.18829531582E+01 -0.30735843926E+01 -0.60644499752E+01  0.70547847152E+01  0.51100000000E-03 0. -1.
        -11    1    3    3    0    0 -0.37947342903E+01 -0.43108050609E+01 -0.16673705762E+02  0.17635064862E+02  0.51100000000E-03 0.  1.
        -12    1    3    3    0    0 -0.54894855027E+01 -0.20856758154E+02 -0.82675577494E+01  0.23097431089E+02  0.00000000000E+00 0.  1.
</event>
<event>
 7    1  0.6622189E-010  0.4778726E+02  0.7816164E-02  0.1312668E+00
        -11   -1    0    0    0    0  0.00000000000E+00  0.00000000000E+00  0.45593999997E+02  0.45594000000E+02  0.51100000000E-03 0.  1.
         11   -1    0    0    0    0 -0.00000000000E+00 -0.00000000000E+00 -0.45593999997E+02  0.45594000000E+02  0.51100000000E-03 0. -1.
    9900012    2    1    2    0    0 -0.11019248473E+02  0.31473836655E+02 -0.27777646773E+02  0.47787263935E+02  0.19999967585E+02 0.  0.
         12    1    1    2    0    0  0.11019248473E+02 -0.31473836655E+02  0.27777646773E+02  0.43400736065E+02  0.00000000000E+00 0. -1.
         11    1    3    3    0    0 -0.61607392504E+01  0.20770398556E+02 -0.73448534295E+01  0.22875992579E+02  0.51100000000E-03 0.  1.
        -11    1    3    3    0    0 -0.20506841415E+01  0.98904665280E+01 -0.19286417825E+02  0.21771369878E+02  0.51100000000E-03 0. -1.
         12    1    3    3    0    0 -0.28078250813E+01  0.81297157123E+00 -0.11463755183E+01  0.31399014780E+01  0.00000000000E+00 0. -1.
</event>
<event>
 7    1  0.6622189E-010  0.4778732E+02  0.7816164E-02  0.1312668E+00
        -11   -1    0    0    0    0  0.00000000000E+00  0.00000000000E+00  0.45593999997E+02  0.45594000000E+02  0.51100000000E-03 0. -1.
         11   -1    0    0    0    0 -0.00000000000E+00 -0.00000000000E+00 -0.45593999997E+02  0.45594000000E+02  0.51100000000E-03 0.  1.
    9900012    2    1    2    0    0 -0.10585659259E+02  0.41282798904E+01 -0.41886997082E+02  0.47787315658E+02  0.20000203411E+02 0.  0.
         12    1    1    2    0    0  0.10585659259E+02 -0.41282798904E+01  0.41886997082E+02  0.43400684342E+02  0.00000000000E+00 0. -1.
         11    1    3    3    0    0 -0.44137815679E+00 -0.90717519897E+00  0.69272926253E+00  0.12237874044E+01  0.51100000000E-03 0. -1.
        -11    1    3    3    0    0 -0.10761704726E+02 -0.22110905497E+01 -0.19709281793E+02  0.22564551826E+02  0.51100000000E-03 0.  1.
        -12    1    3    3    0    0  0.61742362340E+00  0.72465456390E+01 -0.22870444551E+02  0.23998976428E+02  0.00000000000E+00 0.  1.
</event>
<event>
 7    1  0.6622189E-010  0.4778727E+02  0.7816164E-02  0.1312668E+00
        -11   -1    0    0    0    0  0.00000000000E+00  0.00000000000E+00  0.45593999997E+02  0.45594000000E+02  0.51100000000E-03 0.  1.
         11   -1    0    0    0    0 -0.00000000000E+00 -0.00000000000E+00 -0.45593999997E+02  0.45594000000E+02  0.51100000000E-03 0. -1.
    9900012    2    1    2    0    0  0.10482222607E+02 -0.41394381686E+02 -0.77621692648E+01  0.47787273075E+02  0.20000009258E+02 0.  0.
         12    1    1    2    0    0 -0.10482222607E+02  0.41394381686E+02  0.77621692648E+01  0.43400726925E+02  0.00000000000E+00 0. -1.
         11    1    3    3    0    0  0.11229593703E+01 -0.12628908168E+02 -0.80120499075E+01  0.14998109989E+02  0.51100000000E-03 0. -1.
        -11    1    3    3    0    0  0.92909784172E+00 -0.81846490610E+01  0.55416558532E+01  0.99278221633E+01  0.51100000000E-03 0.  1.
        -12    1    3    3    0    0  0.84301653948E+01 -0.20580824457E+02 -0.52917752104E+01  0.22861340923E+02  0.00000000000E+00 0.  1.
</event>
<event>
 7    1  0.6622189E-010  0.4778727E+02  0.7816164E-02  0.1312668E+00
        -11   -1    0    0    0    0  0.00000000000E+00  0.00000000000E+00  0.45593999997E+02  0.45594000000E+02  0.51100000000E-03 0. -1.
         11   -1    0    0    0    0 -0.00000000000E+00 -0.00000000000E+00 -0.45593999997E+02  0.45594000000E+02  0.51100000000E-03 0.  1.
    9900012    2    1    2    0    0  0.45604979159E+01 -0.72551774190E+01 -0.42546295197E+02  0.47787274480E+02  0.20000015665E+02 0.  0.
         12    1    1    2    0    0 -0.45604979159E+01  0.72551774190E+01  0.42546295197E+02  0.43400725520E+02  0.00000000000E+00 0. -1.
         11    1    3    3    0    0 -0.93303043863E+00 -0.36905500822E+01 -0.32982951816E+02  0.33201894772E+02  0.51100000000E-03 0.  1.
        -11    1    3    3    0    0  0.78109393919E+01 -0.30683860415E+01 -0.86320388562E+01  0.12039014169E+02  0.51100000000E-03 0. -1.
         12    1    3    3    0    0 -0.23174110374E+01 -0.49624129522E+00 -0.93130452498E+00  0.25463655389E+01  0.00000000000E+00 0. -1.
</event>
<event>
 7    1  0.6622189E-010  0.4778727E+02  0.7816164E-02  0.1312668E+00
        -11   -1    0    0    0    0  0.00000000000E+00  0.00000000000E+00  0.45593999997E+02  0.45594000000E+02  0.51100000000E-03 0. -1.
         11   -1    0    0    0    0 -0.00000000000E+00 -0.00000000000E+00 -0.45593999997E+02  0.45594000000E+02  0.51100000000E-03 0.  1.
    9900012    2    1    2    0    0  0.19522318561E+02  0.27061932582E+02 -0.27751653525E+02  0.47787269702E+02  0.19999993878E+02 0.  0.
         12    1    1    2    0    0 -0.19522318561E+02 -0.27061932582E+02  0.27751653525E+02  0.43400730298E+02  0.00000000000E+00 0. -1.
         11    1    3    3    0    0 -0.27148400675E+01  0.11377902913E+01 -0.42828893758E+00  0.29746184653E+01  0.51100000000E-03 0. -1.
        -11    1    3    3    0    0  0.12595326146E+02  0.20996418864E+02 -0.16656628241E+02  0.29613090188E+02  0.51100000000E-03 0.  1.
        -12    1    3    3    0    0  0.96418324832E+01  0.49277234261E+01 -0.10666736346E+02  0.15199561049E+02  0.00000000000E+00 0.  1.
</event>
<event>
 7    1  0.6622189E-010  0.4778727E+02  0.7816164E-02  0.1312668E+00
        -11   -1    0    0    0    0  0.00000000000E+00  0.00000000000E+00  0.45593999997E+02  0.45594000000E+02  0.51100000000E-03 0. -1.
         11   -1    0    0    0    0 -0.00000000000E+00 -0.00000000000E+00 -0.45593999997E+02  0.45594000000E+02  0.51100000000E-03 0.  1.
    9900012    2    1    2    0    0 -0.11344557233E+02 -0.30707757705E+02  0.28494875945E+02  0.47787270545E+02  0.19999997723E+02 0.  0.
        -12    1    1    2    0    0  0.11344557233E+02  0.30707757705E+02 -0.28494875945E+02  0.43400729455E+02  0.00000000000E+00 0.  1.
         11    1    3    3    0    0  0.26916406050E+01 -0.51010289071E+01  0.24320498600E+00  0.57727440602E+01  0.51100000000E-03 0. -1.
        -11    1    3    3    0    0  0.11675426460E+01 -0.52748633337E+01  0.73946778361E+01  0.91579801037E+01  0.51100000000E-03 0.  1.
         12    1    3    3    0    0 -0.15203740484E+02 -0.20331865465E+02  0.20856993123E+02  0.32856546381E+02  0.00000000000E+00 0. -1.
</event>
<event>
 7    1  0.6622189E-010  0.4778725E+02  0.7816164E-02  0.1312668E+00
        -11   -1    0    0    0    0  0.00000000000E+00  0.00000000000E+00  0.45593999997E+02  0.45594000000E+02  0.51100000000E-03 0. -1.
         11   -1    0    0    0    0 -0.00000000000E+00 -0.00000000000E+00 -0.45593999997E+02  0.45594000000E+02  0.51100000000E-03 0.  1.
    9900012    2    1    2    0    0  0.34681872560E+02 -0.24403630883E+02 -0.92334134541E+01  0.47787246452E+02  0.19999887874E+02 0.  0.
        -12    1    1    2    0    0 -0.34681872560E+02  0.24403630883E+02  0.92334134541E+01  0.43400753548E+02  0.00000000000E+00 0.  1.
         11    1    3    3    0    0  0.97685145691E+01 -0.57388308510E+01 -0.21035440221E+01  0.11523148621E+02  0.51100000000E-03 0. -1.
        -11    1    3    3    0    0  0.21704953672E+02 -0.21921708055E+02 -0.51244950741E+01  0.31271820350E+02  0.51100000000E-03 0.  1.
        -12    1    3    3    0    0  0.32084043184E+01  0.32569080230E+01 -0.20053743580E+01  0.49922774819E+01  0.00000000000E+00 0.  1.
</event>
<event>
 7    1  0.6622189E-010  0.4778727E+02  0.7816164E-02  0.1312668E+00
        -11   -1    0    0    0    0  0.00000000000E+00  0.00000000000E+00  0.45593999997E+02  0.45594000000E+02  0.51100000000E-03 0. -1.
         11   -1    0    0    0    0 -0.00000000000E+00 -0.00000000000E+00 -0.45593999997E+02  0.45594000000E+02  0.51100000000E-03 0.  1.
    9900012    2    1    2    0    0 -0.26029539460E+02  0.57215826595E+01  0.34254195140E+02  0.47787270544E+02  0.19999997720E+02 0.  0.
        -12    1    1    2    0    0  0.26029539460E+02 -0.57215826595E+01 -0.34254195140E+02  0.43400729456E+02  0.00000000000E+00 0.  1.
         11    1    3    3    0    0 -0.41870640168E+01  0.25773991334E+01  0.19021609130E+02  0.19646783593E+02  0.51100000000E-03 0. -1.
        -11    1    3    3    0    0 -0.21633374946E+01  0.20960414007E+01  0.52417418691E+01  0.60455997844E+01  0.51100000000E-03 0.  1.
         12    1    3    3    0    0 -0.19679137948E+02  0.10481421254E+01  0.99908441402E+01  0.22094887167E+02  0.00000000000E+00 0. -1.
</event>
<event>
 7    1  0.6622189E-010  0.4778727E+02  0.7816164E-02  0.1312668E+00
        -11   -1    0    0    0    0  0.00000000000E+00  0.00000000000E+00  0.45593999997E+02  0.45594000000E+02  0.51100000000E-03 0. -1.
         11   -1    0    0    0    0 -0.00000000000E+00 -0.00000000000E+00 -0.45593999997E+02  0.45594000000E+02  0.51100000000E-03 0.  1.
    9900012    2    1    2    0    0  0.34540573909E+00 -0.36933698906E+02  0.22790472929E+02  0.47787273320E+02  0.20000010375E+02 0.  0.
        -12    1    1    2    0    0 -0.34540573909E+00  0.36933698906E+02 -0.22790472929E+02  0.43400726680E+02  0.00000000000E+00 0.  1.
         11    1    3    3    0    0 -0.46760437675E+01 -0.20304493140E+02  0.53957891227E+01  0.21523298249E+02  0.51100000000E-03 0. -1.
        -11    1    3    3    0    0  0.41933017060E+01 -0.22309261716E+01  0.71091380577E+01  0.85498921026E+01  0.51100000000E-03 0.  1.
         12    1    3    3    0    0  0.82814780063E+00 -0.14398279595E+02  0.10285545749E+02  0.17714082969E+02  0.00000000000E+00 0. -1.
</event>
<event>
 7    1  0.6622189E-010  0.4778727E+02  0.7816164E-02  0.1312668E+00
        -11   -1    0    0    0    0  0.00000000000E+00  0.00000000000E+00  0.45593999997E+02  0.45594000000E+02  0.51100000000E-03 0. -1.
         11   -1    0    0    0    0 -0.00000000000E+00 -0.00000000000E+00 -0.45593999997E+02  0.45594000000E+02  0.51100000000E-03 0.  1.
    9900012    2    1    2    0    0 -0.76994415806E+01  0.15799763250E+02 -0.39682605231E+02  0.47787273309E+02  0.20000010323E+02 0.  0.
         12    1    1    2    0    0  0.76994415806E+01 -0.15799763250E+02  0.39682605231E+02  0.43400726691E+02  0.00000000000E+00 0. -1.
         11    1    3    3    0    0 -0.21491586096E+00 -0.55844382107E+00 -0.64261520434E+01  0.64539506254E+01  0.51100000000E-03 0. -1.
        -11    1    3    3    0    0 -0.42537389910E+01 -0.13624772745E+01 -0.13035139417E+01  0.46529333312E+01  0.51100000000E-03 0.  1.
        -12    1    3    3    0    0 -0.32307867287E+01  0.17720684346E+02 -0.31952939246E+02  0.36680389352E+02  0.00000000000E+00 0.  1.
</event>
<event>
 7    1  0.6622189E-010  0.4778728E+02  0.7816164E-02  0.1312668E+00
        -11   -1    0    0    0    0  0.00000000000E+00  0.00000000000E+00  0.45593999997E+02  0.45594000000E+02  0.51100000000E-03 0. -1.
         11   -1    0    0    0    0 -0.00000000000E+00 -0.00000000000E+00 -0.45593999997E+02  0.45594000000E+02  0.51100000000E-03 0.  1.
    9900012    2    1    2    0    0  0.33359364950E+02 -0.49097275019E+01 -0.27325259924E+02  0.47787280145E+02  0.20000041495E+02 0.  0.
         12    1    1    2    0    0 -0.33359364950E+02  0.49097275019E+01  0.27325259924E+02  0.43400719855E+02  0.00000000000E+00 0. -1.
         11    1    3    3    0    0  0.30545073852E+01 -0.32332851496E+01 -0.11027480152E+02  0.11890730297E+02  0.51100000000E-03 0. -1.
        -11    1    3    3    0    0  0.49515755630E+01  0.30184924701E+01 -0.53301923536E+01  0.78765695665E+01  0.51100000000E-03 0.  1.
         12    1    3    3    0    0  0.25353282002E+02 -0.46949348223E+01 -0.10967587418E+02  0.28019980282E+02  0.00000000000E+00 0. -1.
</event>
<event>
 7    1  0.6622189E-010  0.4778727E+02  0.7816164E-02  0.1312668E+00
        -11   -1    0    0    0    0  0.00000000000E+00  0.00000000000E+00  0.45593999997E+02  0.45594000000E+02  0.51100000000E-03 0. -1.
         11   -1    0    0    0    0 -0.00000000000E+00 -0.00000000000E+00 -0.45593999997E+02  0.45594000000E+02  0.51100000000E-03 0.  1.
    9900012    2    1    2    0    0  0.90714691389E+01 -0.38953905620E+02 -0.16850068784E+02  0.47787272663E+02  0.20000007378E+02 0.  0.
         12    1    1    2    0    0 -0.90714691389E+01  0.38953905620E+02  0.16850068784E+02  0.43400727337E+02  0.00000000000E+00 0. -1.
         11    1    3    3    0    0  0.98384886305E+01 -0.17349804531E+02 -0.34351198208E+01  0.20238864203E+02  0.51100000000E-03 0. -1.
        -11    1    3    3    0    0 -0.42093315621E+01 -0.33860251496E+01 -0.19176244261E+01  0.57324446979E+01  0.51100000000E-03 0.  1.
        -12    1    3    3    0    0  0.34423120704E+01 -0.18218075940E+02 -0.11497324537E+02  0.21815963761E+02  0.00000000000E+00 0.  1.
</event>
<event>
 7    1  0.6622189E-010  0.4778725E+02  0.7816164E-02  0.1312668E+00
        -11   -1    0    0    0    0  0.00000000000E+00  0.00000000000E+00  0.45593999997E+02  0.45594000000E+02  0.51100000000E-03 0. -1.
         11   -1    0    0    0    0 -0.00000000000E+00 -0.00000000000E+00 -0.45593999997E+02  0.45594000000E+02  0.51100000000E-03 0.  1.
    9900012    2    1    2    0    0 -0.24342438417E+02 -0.47152474788E+01 -0.35620742322E+02  0.47787249425E+02  0.19999901428E+02 0.  0.
         12    1    1    2    0    0  0.24342438417E+02  0.47152474788E+01  0.35620742322E+02  0.43400750575E+02  0.00000000000E+00 0. -1.
         11    1    3    3    0    0 -0.69521014749E+01  0.38576958239E+01 -0.18764733602E+02  0.20379616272E+02  0.51100000000E-03 0. -1.
        -11    1    3    3    0    0 -0.93045540728E+01  0.15976069212E+00 -0.10053803253E+02  0.13699606202E+02  0.51100000000E-03 0.  1.
         12    1    3    3    0    0 -0.80857828696E+01 -0.87327039947E+01 -0.68022054674E+01  0.13708026951E+02  0.00000000000E+00 0. -1.
</event>
<event>
 7    1  0.6622189E-010  0.4778727E+02  0.7816164E-02  0.1312668E+00
        -11   -1    0    0    0    0  0.00000000000E+00  0.00000000000E+00  0.45593999997E+02  0.45594000000E+02  0.51100000000E-03 0. -1.
         11   -1    0    0    0    0 -0.00000000000E+00 -0.00000000000E+00 -0.45593999997E+02  0.45594000000E+02  0.51100000000E-03 0.  1.
    9900012    2    1    2    0    0  0.33224503407E+02  0.37410763628E+01  0.27672365921E+02  0.47787272879E+02  0.20000008364E+02 0.  0.
        -12    1    1    2    0    0 -0.33224503407E+02 -0.37410763628E+01 -0.27672365921E+02  0.43400727121E+02  0.00000000000E+00 0.  1.
         11    1    3    3    0    0  0.26086032006E+02 -0.19002863592E+00  0.28678510592E+02  0.38768210517E+02  0.51100000000E-03 0. -1.
        -11    1    3    3    0    0  0.75019766340E+01  0.36674910292E+01 -0.13429466478E+01  0.84577567846E+01  0.51100000000E-03 0.  1.
         12    1    3    3    0    0 -0.36350523283E+00  0.26361396959E+00  0.33680197721E+00  0.56130557730E+00  0.00000000000E+00 0. -1.
</event>
<event>
 7    1  0.6622189E-010  0.4778728E+02  0.7816164E-02  0.1312668E+00
        -11   -1    0    0    0    0  0.00000000000E+00  0.00000000000E+00  0.45593999997E+02  0.45594000000E+02  0.51100000000E-03 0. -1.
         11   -1    0    0    0    0 -0.00000000000E+00 -0.00000000000E+00 -0.45593999997E+02  0.45594000000E+02  0.51100000000E-03 0.  1.
    9900012    2    1    2    0    0 -0.38171802665E+02  0.70439062225E+01 -0.19414421690E+02  0.47787275316E+02  0.20000019475E+02 0.  0.
         12    1    1    2    0    0  0.38171802665E+02 -0.70439062225E+01  0.19414421690E+02  0.43400724684E+02  0.00000000000E+00 0. -1.
         11    1    3    3    0    0 -0.57169466527E+01  0.24279291571E+01 -0.10474783164E+02  0.12177824175E+02  0.51100000000E-03 0.  1.
        -11    1    3    3    0    0 -0.30007708432E+02  0.90221493058E+00 -0.77402610669E+01  0.31003035315E+02  0.51100000000E-03 0. -1.
         12    1    3    3    0    0 -0.24471475804E+01  0.37137621348E+01 -0.11993774587E+01  0.46064158261E+01  0.00000000000E+00 0. -1.
</event>
<event>
 7    1  0.6622189E-010  0.4778727E+02  0.7816164E-02  0.1312668E+00
        -11   -1    0    0    0    0  0.00000000000E+00  0.00000000000E+00  0.45593999997E+02  0.45594000000E+02  0.51100000000E-03 0. -1.
         11   -1    0    0    0    0 -0.00000000000E+00 -0.00000000000E+00 -0.45593999997E+02  0.45594000000E+02  0.51100000000E-03 0.  1.
    9900012    2    1    2    0    0 -0.31230749226E+01  0.19906221654E+02  0.38439720935E+02  0.47787269556E+02  0.19999993212E+02 0.  0.
        -12    1    1    2    0    0  0.31230749226E+01 -0.19906221654E+02 -0.38439720935E+02  0.43400730444E+02  0.00000000000E+00 0.  1.
         11    1    3    3    0    0 -0.37133111574E+01 -0.10481884665E+00  0.10457027715E+02  0.11097256221E+02  0.51100000000E-03 0. -1.
        -11    1    3    3    0    0  0.60590851981E+00  0.20201326740E+01  0.13305563185E+02  0.13471676699E+02  0.51100000000E-03 0.  1.
         12    1    3    3    0    0 -0.15672284977E-01  0.17990907827E+02  0.14677130036E+02  0.23218336636E+02  0.00000000000E+00 0. -1.
</event>
<event>
 7    1  0.6622189E-010  0.4778727E+02  0.7816164E-02  0.1312668E+00
        -11   -1    0    0    0    0  0.00000000000E+00  0.00000000000E+00  0.45593999997E+02  0.45594000000E+02  0.51100000000E-03 0. -1.
         11   -1    0    0    0    0 -0.00000000000E+00 -0.00000000000E+00 -0.45593999997E+02  0.45594000000E+02  0.51100000000E-03 0.  1.
    9900012    2    1    2    0    0 -0.24479036141E+02  0.31848876847E+02  0.16433172746E+02  0.47787270360E+02  0.19999996878E+02 0.  0.
        -12    1    1    2    0    0  0.24479036141E+02 -0.31848876847E+02 -0.16433172746E+02  0.43400729640E+02  0.00000000000E+00 0.  1.
         11    1    3    3    0    0 -0.14538633385E+02  0.19134119590E+02  0.17734798214E+02  0.29866527437E+02  0.51100000000E-03 0. -1.
        -11    1    3    3    0    0 -0.29279327554E+01  0.98883987354E+01 -0.73902101087E+00  0.10339215255E+02  0.51100000000E-03 0.  1.
         12    1    3    3    0    0 -0.70124700009E+01  0.28263585215E+01 -0.56260445723E+00  0.75815276680E+01  0.00000000000E+00 0. -1.
</event>
<event>
 7    1  0.6622189E-010  0.4778727E+02  0.7816164E-02  0.1312668E+00
        -11   -1    0    0    0    0  0.00000000000E+00  0.00000000000E+00  0.45593999997E+02  0.45594000000E+02  0.51100000000E-03 0. -1.
         11   -1    0    0    0    0 -0.00000000000E+00 -0.00000000000E+00 -0.45593999997E+02  0.45594000000E+02  0.51100000000E-03 0.  1.
    9900012    2    1    2    0    0 -0.73939907719E+01  0.28652334414E+00  0.42765294767E+02  0.47787266922E+02  0.19999981205E+02 0.  0.
        -12    1    1    2    0    0  0.73939907719E+01 -0.28652334414E+00 -0.42765294767E+02  0.43400733078E+02  0.00000000000E+00 0.  1.
         11    1    3    3    0    0 -0.10465569095E+02 -0.10607136038E+01  0.42153784205E+02  0.43446458693E+02  0.51100000000E-03 0. -1.
        -11    1    3    3    0    0  0.19207908916E+01  0.18854050969E+01  0.11925043071E+01  0.29438506777E+01  0.51100000000E-03 0.  1.
         12    1    3    3    0    0  0.11507874318E+01 -0.53816814905E+00 -0.58099374527E+00  0.13969575519E+01  0.00000000000E+00 0. -1.
</event>
<event>
 7    1  0.8785427E-010  0.4778728E+02  0.7816164E-02  0.1312668E+00
        -11   -1    0    0    0    0  0.00000000000E+00  0.00000000000E+00  0.45593999997E+02  0.45594000000E+02  0.51100000000E-03 0. -1.
         11   -1    0    0    0    0 -0.00000000000E+00 -0.00000000000E+00 -0.45593999997E+02  0.45594000000E+02  0.51100000000E-03 0.  1.
    9900012    2    1    2    0    0  0.27885579521E+02 -0.99761891770E+01  0.31725272782E+02  0.47787276172E+02  0.20000023377E+02 0.  0.
        -12    1    1    2    0    0 -0.27885579521E+02  0.99761891770E+01 -0.31725272782E+02  0.43400723828E+02  0.00000000000E+00 0.  1.
         11    1    3    3    0    0  0.22142658957E+02 -0.12064233306E+00  0.24954663277E+02  0.33362360825E+02  0.51100000000E-03 0. -1.
        -11    1    3    3    0    0 -0.71649139866E+00 -0.37213218009E+01  0.25492082068E+01  0.45672813153E+01  0.51100000000E-03 0.  1.
         12    1    3    3    0    0  0.64594119625E+01 -0.61342250431E+01  0.42214012982E+01  0.98576340316E+01  0.00000000000E+00 0. -1.
</event>
<event>
 7    1  0.6622189E-010  0.4778727E+02  0.7816164E-02  0.1312668E+00
        -11   -1    0    0    0    0  0.00000000000E+00  0.00000000000E+00  0.45593999997E+02  0.45594000000E+02  0.51100000000E-03 0. -1.
         11   -1    0    0    0    0 -0.00000000000E+00 -0.00000000000E+00 -0.45593999997E+02  0.45594000000E+02  0.51100000000E-03 0.  1.
    9900012    2    1    2    0    0 -0.27013821779E+02  0.49220359171E+01  0.33610270119E+02  0.47787271180E+02  0.20000000617E+02 0.  0.
        -12    1    1    2    0    0  0.27013821779E+02 -0.49220359171E+01 -0.33610270119E+02  0.43400728820E+02  0.00000000000E+00 0.  1.
         11    1    3    3    0    0 -0.40652514286E+01 -0.11591028434E+01  0.61693308767E+01  0.74786651421E+01  0.51100000000E-03 0. -1.
        -11    1    3    3    0    0 -0.12554134033E+02  0.10957496114E+02  0.22012966776E+02  0.27608761453E+02  0.51100000000E-03 0.  1.
        -12    1    3    3    0    0 -0.10394436318E+02 -0.48763573530E+01  0.54279724655E+01  0.12699844585E+02  0.00000000000E+00 0.  1.
</event>
<event>
 7    1  0.6622189E-010  0.4778727E+02  0.7816164E-02  0.1312668E+00
        -11   -1    0    0    0    0  0.00000000000E+00  0.00000000000E+00  0.45593999997E+02  0.45594000000E+02  0.51100000000E-03 0. -1.
         11   -1    0    0    0    0 -0.00000000000E+00 -0.00000000000E+00 -0.45593999997E+02  0.45594000000E+02  0.51100000000E-03 0.  1.
    9900012    2    1    2    0    0  0.12715126787E+02 -0.32451764835E+02  0.25861792082E+02  0.47787265216E+02  0.19999973424E+02 0.  0.
        -12    1    1    2    0    0 -0.12715126787E+02  0.32451764835E+02 -0.25861792082E+02  0.43400734784E+02  0.00000000000E+00 0.  1.
         11    1    3    3    0    0 -0.21364391278E+01  0.15636626711E+01  0.51435349135E+00  0.26970303800E+01  0.51100000000E-03 0.  1.
        -11    1    3    3    0    0  0.11507949141E+02 -0.22153111279E+02  0.16706225574E+02  0.30038162493E+02  0.51100000000E-03 0. -1.
        -12    1    3    3    0    0  0.33436167735E+01 -0.11862316228E+02  0.86412130170E+01  0.15052072343E+02  0.00000000000E+00 0.  1.
</event>
<event>
 7    1  0.6622189E-010  0.4778727E+02  0.7816164E-02  0.1312668E+00
        -11   -1    0    0    0    0  0.00000000000E+00  0.00000000000E+00  0.45593999997E+02  0.45594000000E+02  0.51100000000E-03 0. -1.
         11   -1    0    0    0    0 -0.00000000000E+00 -0.00000000000E+00 -0.45593999997E+02  0.45594000000E+02  0.51100000000E-03 0.  1.
    9900012    2    1    2    0    0 -0.20075203416E+02  0.12505063884E+02  0.36390011711E+02  0.47787269968E+02  0.19999995093E+02 0.  0.
        -12    1    1    2    0    0  0.20075203416E+02 -0.12505063884E+02 -0.36390011711E+02  0.43400730032E+02  0.00000000000E+00 0.  1.
         11    1    3    3    0    0 -0.92680355064E+00 -0.97089862892E+00  0.91396721533E+01  0.92377062250E+01  0.51100000000E-03 0. -1.
        -11    1    3    3    0    0 -0.85260765599E+01  0.13489192688E+02  0.12008379510E+02  0.19971316421E+02  0.51100000000E-03 0.  1.
        -12    1    3    3    0    0 -0.10622323306E+02 -0.13230175639E-01  0.15241960048E+02  0.18578247322E+02  0.00000000000E+00 0.  1.
</event>
<event>
 7    1  0.6622189E-010  0.4778725E+02  0.7816164E-02  0.1312668E+00
        -11   -1    0    0    0    0  0.00000000000E+00  0.00000000000E+00  0.45593999997E+02  0.45594000000E+02  0.51100000000E-03 0. -1.
         11   -1    0    0    0    0 -0.00000000000E+00 -0.00000000000E+00 -0.45593999997E+02  0.45594000000E+02  0.51100000000E-03 0.  1.
    9900012    2    1    2    0    0  0.14964142968E+02  0.27409099933E+02 -0.30140350107E+02  0.47787250715E+02  0.19999907311E+02 0.  0.
         12    1    1    2    0    0 -0.14964142968E+02 -0.27409099933E+02  0.30140350107E+02  0.43400749285E+02  0.00000000000E+00 0. -1.
         11    1    3    3    0    0  0.90693018768E+01  0.22707119968E+01 -0.54388249583E+01  0.10816153970E+02  0.51100000000E-03 0. -1.
        -11    1    3    3    0    0  0.22959884571E+00  0.13254113487E+02 -0.17533783795E+02  0.21980851084E+02  0.51100000000E-03 0.  1.
         12    1    3    3    0    0  0.56652422453E+01  0.11884274449E+02 -0.71677413536E+01  0.14990245661E+02  0.00000000000E+00 0. -1.
</event>
<event>
 7    1  0.6622189E-010  0.4778727E+02  0.7816164E-02  0.1312668E+00
        -11   -1    0    0    0    0  0.00000000000E+00  0.00000000000E+00  0.45593999997E+02  0.45594000000E+02  0.51100000000E-03 0. -1.
         11   -1    0    0    0    0 -0.00000000000E+00 -0.00000000000E+00 -0.45593999997E+02  0.45594000000E+02  0.51100000000E-03 0.  1.
    9900012    2    1    2    0    0  0.63826716793E+01 -0.18528819177E+02 -0.38724258031E+02  0.47787265008E+02  0.19999972475E+02 0.  0.
         12    1    1    2    0    0 -0.63826716793E+01  0.18528819177E+02  0.38724258031E+02  0.43400734992E+02  0.00000000000E+00 0. -1.
         11    1    3    3    0    0  0.38439083039E+01  0.16268876561E+01 -0.10377893833E+01  0.43010930657E+01  0.51100000000E-03 0. -1.
        -11    1    3    3    0    0  0.18887587778E+01 -0.16767436705E+02 -0.35744783919E+02  0.39527255420E+02  0.51100000000E-03 0.  1.
         12    1    3    3    0    0  0.65000459759E+00 -0.33882701287E+01 -0.19416847282E+01  0.39589165217E+01  0.00000000000E+00 0. -1.
</event>
<event>
 7    1  0.6622189E-010  0.4778727E+02  0.7816164E-02  0.1312668E+00
        -11   -1    0    0    0    0  0.00000000000E+00  0.00000000000E+00  0.45593999997E+02  0.45594000000E+02  0.51100000000E-03 0. -1.
         11   -1    0    0    0    0 -0.00000000000E+00 -0.00000000000E+00 -0.45593999997E+02  0.45594000000E+02  0.51100000000E-03 0.  1.
    9900012    2    1    2    0    0  0.29383105881E+02 -0.24316879010E+02  0.20711006261E+02  0.47787270786E+02  0.19999998821E+02 0.  0.
        -12    1    1    2    0    0 -0.29383105881E+02  0.24316879010E+02 -0.20711006261E+02  0.43400729214E+02  0.00000000000E+00 0.  1.
         11    1    3    3    0    0  0.42891300778E+01 -0.37669765793E+00 -0.25861065879E+01  0.50225974849E+01  0.51100000000E-03 0.  1.
        -11    1    3    3    0    0  0.64574900202E+01 -0.19690304146E+01  0.23667715892E+01  0.71538707111E+01  0.51100000000E-03 0. -1.
         12    1    3    3    0    0  0.18636485783E+02 -0.21971150938E+02  0.20930341259E+02  0.35610802590E+02  0.00000000000E+00 0. -1.
</event>
<event>
 7    1  0.6622189E-010  0.4778730E+02  0.7816164E-02  0.1312668E+00
        -11   -1    0    0    0    0  0.00000000000E+00  0.00000000000E+00  0.45593999997E+02  0.45594000000E+02  0.51100000000E-03 0. -1.
         11   -1    0    0    0    0 -0.00000000000E+00 -0.00000000000E+00 -0.45593999997E+02  0.45594000000E+02  0.51100000000E-03 0.  1.
    9900012    2    1    2    0    0  0.85482128046E+01 -0.35238641211E+02  0.23849253721E+02  0.47787300932E+02  0.20000136269E+02 0.  0.
        -12    1    1    2    0    0 -0.85482128046E+01  0.35238641211E+02 -0.23849253721E+02  0.43400699068E+02  0.00000000000E+00 0.  1.
         11    1    3    3    0    0 -0.96099870129E+00 -0.12541341677E+02  0.71815512030E+01  0.14483903048E+02  0.51100000000E-03 0. -1.
        -11    1    3    3    0    0  0.76189185829E+01 -0.15368839595E+02  0.18790780183E+02  0.25442927721E+02  0.51100000000E-03 0.  1.
        -12    1    3    3    0    0  0.18902929230E+01 -0.73284599381E+01 -0.21230776651E+01  0.78604701622E+01  0.00000000000E+00 0.  1.
</event>
<event>
 7    1  0.6622189E-010  0.4778727E+02  0.7816164E-02  0.1312668E+00
        -11   -1    0    0    0    0  0.00000000000E+00  0.00000000000E+00  0.45593999997E+02  0.45594000000E+02  0.51100000000E-03 0.  1.
         11   -1    0    0    0    0 -0.00000000000E+00 -0.00000000000E+00 -0.45593999997E+02  0.45594000000E+02  0.51100000000E-03 0. -1.
    9900012    2    1    2    0    0 -0.13357748672E+02 -0.34367517031E+02 -0.22892525075E+02  0.47787269813E+02  0.19999994387E+02 0.  0.
         12    1    1    2    0    0  0.13357748672E+02  0.34367517031E+02  0.22892525075E+02  0.43400730187E+02  0.00000000000E+00 0. -1.
         11    1    3    3    0    0 -0.11363230314E+02 -0.15748603900E+02 -0.52991556967E+01  0.20130141066E+02  0.51100000000E-03 0. -1.
        -11    1    3    3    0    0 -0.20386990268E+01 -0.18493919016E+02 -0.18795823998E+02  0.26447388043E+02  0.51100000000E-03 0.  1.
        -12    1    3    3    0    0  0.44180668761E-01 -0.12499411485E+00  0.12024546196E+01  0.12097407046E+01  0.00000000000E+00 0.  1.
</event>
<event>
 7    1  0.6622189E-010  0.4778727E+02  0.7816164E-02  0.1312668E+00
        -11   -1    0    0    0    0  0.00000000000E+00  0.00000000000E+00  0.45593999997E+02  0.45594000000E+02  0.51100000000E-03 0. -1.
         11   -1    0    0    0    0 -0.00000000000E+00 -0.00000000000E+00 -0.45593999997E+02  0.45594000000E+02  0.51100000000E-03 0.  1.
    9900012    2    1    2    0    0 -0.16122639089E+02  0.39574265597E+02 -0.75869339318E+01  0.47787267803E+02  0.19999985222E+02 0.  0.
         12    1    1    2    0    0  0.16122639089E+02 -0.39574265597E+02  0.75869339318E+01  0.43400732197E+02  0.00000000000E+00 0. -1.
         11    1    3    3    0    0  0.58889156882E+00 -0.17318607608E+01 -0.44733611421E+00  0.18831475871E+01  0.51100000000E-03 0. -1.
        -11    1    3    3    0    0 -0.79238599049E+01  0.24648342847E+02 -0.37781233298E+00  0.25893456766E+02  0.51100000000E-03 0.  1.
        -12    1    3    3    0    0 -0.87876707534E+01  0.16657783511E+02 -0.67617854846E+01  0.20010663450E+02  0.00000000000E+00 0.  1.
</event>
<event>
 7    1  0.6776859E-010  0.4778727E+02  0.7816164E-02  0.1312668E+00
        -11   -1    0    0    0    0  0.00000000000E+00  0.00000000000E+00  0.45593999997E+02  0.45594000000E+02  0.51100000000E-03 0. -1.
         11   -1    0    0    0    0 -0.00000000000E+00 -0.00000000000E+00 -0.45593999997E+02  0.45594000000E+02  0.51100000000E-03 0.  1.
    9900012    2    1    2    0    0 -0.19171832559E+02 -0.46544239383E+01 -0.38657473766E+02  0.47787273004E+02  0.20000008932E+02 0.  0.
         12    1    1    2    0    0  0.19171832559E+02  0.46544239383E+01  0.38657473766E+02  0.43400726996E+02  0.00000000000E+00 0. -1.
         11    1    3    3    0    0 -0.41143820973E+01  0.59604605512E+01 -0.78399418099E+01  0.10673327404E+02  0.51100000000E-03 0. -1.
        -11    1    3    3    0    0 -0.83089949990E+01 -0.73027556736E+01 -0.97507157598E+01  0.14746053588E+02  0.51100000000E-03 0.  1.
        -12    1    3    3    0    0 -0.67484554630E+01 -0.33121288159E+01 -0.21066816196E+02  0.22367892012E+02  0.00000000000E+00 0.  1.
</event>
<event>
 7    1  0.6622189E-010  0.4778728E+02  0.7816164E-02  0.1312668E+00
        -11   -1    0    0    0    0  0.00000000000E+00  0.00000000000E+00  0.45593999997E+02  0.45594000000E+02  0.51100000000E-03 0.  1.
         11   -1    0    0    0    0 -0.00000000000E+00 -0.00000000000E+00 -0.45593999997E+02  0.45594000000E+02  0.51100000000E-03 0. -1.
    9900012    2    1    2    0    0  0.40997630101E+02  0.78911160552E+01 -0.11855274297E+02  0.47787275177E+02  0.20000018844E+02 0.  0.
        -12    1    1    2    0    0 -0.40997630101E+02 -0.78911160552E+01  0.11855274297E+02  0.43400724823E+02  0.00000000000E+00 0.  1.
         11    1    3    3    0    0  0.10296337017E+02  0.43998613333E+01 -0.38600885309E+01  0.11843716454E+02  0.51100000000E-03 0. -1.
        -11    1    3    3    0    0  0.15692739683E+02 -0.10589562048E+00 -0.12279481280E+02  0.19926338184E+02  0.51100000000E-03 0.  1.
        -12    1    3    3    0    0  0.15008553400E+02  0.35971503425E+01  0.42842955138E+01  0.16017220539E+02  0.00000000000E+00 0.  1.
</event>
<event>
 7    1  0.6622189E-010  0.4778727E+02  0.7816164E-02  0.1312668E+00
        -11   -1    0    0    0    0  0.00000000000E+00  0.00000000000E+00  0.45593999997E+02  0.45594000000E+02  0.51100000000E-03 0. -1.
         11   -1    0    0    0    0 -0.00000000000E+00 -0.00000000000E+00 -0.45593999997E+02  0.45594000000E+02  0.51100000000E-03 0.  1.
    9900012    2    1    2    0    0  0.30348657663E+02 -0.13099351463E+02 -0.28124528171E+02  0.47787272868E+02  0.20000008316E+02 0.  0.
         12    1    1    2    0    0 -0.30348657663E+02  0.13099351463E+02  0.28124528171E+02  0.43400727132E+02  0.00000000000E+00 0. -1.
         11    1    3    3    0    0  0.58759155797E+01  0.35209196939E+01 -0.33617871466E+01  0.76305224245E+01  0.51100000000E-03 0. -1.
        -11    1    3    3    0    0  0.25499266483E+02 -0.14799435026E+02 -0.23598893324E+02  0.37764316949E+02  0.51100000000E-03 0.  1.
        -12    1    3    3    0    0 -0.10265243992E+01 -0.18208361307E+01 -0.11638477002E+01  0.23924334946E+01  0.00000000000E+00 0.  1.
</event>
<event>
 7    1  0.6622189E-010  0.4778729E+02  0.7816164E-02  0.1312668E+00
        -11   -1    0    0    0    0  0.00000000000E+00  0.00000000000E+00  0.45593999997E+02  0.45594000000E+02  0.51100000000E-03 0. -1.
         11   -1    0    0    0    0 -0.00000000000E+00 -0.00000000000E+00 -0.45593999997E+02  0.45594000000E+02  0.51100000000E-03 0.  1.
    9900012    2    1    2    0    0  0.50445222419E+01  0.36481978991E+02  0.22961706767E+02  0.47787286026E+02  0.20000068309E+02 0.  0.
        -12    1    1    2    0    0 -0.50445222419E+01 -0.36481978991E+02 -0.22961706767E+02  0.43400713974E+02  0.00000000000E+00 0.  1.
         11    1    3    3    0    0 -0.26336690770E+01  0.80605292970E+01  0.31560955955E+01  0.90481647324E+01  0.51100000000E-03 0.  1.
        -11    1    3    3    0    0 -0.16269437023E+01  0.19260443997E+02  0.16126153820E+02  0.25172693262E+02  0.51100000000E-03 0. -1.
        -12    1    3    3    0    0  0.93051350212E+01  0.91610056975E+01  0.36794573515E+01  0.13566428032E+02  0.00000000000E+00 0.  1.
</event>
<event>
 7    1  0.6622189E-010  0.4778727E+02  0.7816164E-02  0.1312668E+00
        -11   -1    0    0    0    0  0.00000000000E+00  0.00000000000E+00  0.45593999997E+02  0.45594000000E+02  0.51100000000E-03 0. -1.
         11   -1    0    0    0    0 -0.00000000000E+00 -0.00000000000E+00 -0.45593999997E+02  0.45594000000E+02  0.51100000000E-03 0.  1.
    9900012    2    1    2    0    0 -0.13823734468E+02 -0.26341898182E+02  0.31601138927E+02  0.47787271712E+02  0.20000003043E+02 0.  0.
        -12    1    1    2    0    0  0.13823734468E+02  0.26341898182E+02 -0.31601138927E+02  0.43400728288E+02  0.00000000000E+00 0.  1.
         11    1    3    3    0    0 -0.13483728335E+02 -0.24541467160E+02  0.22899737468E+02  0.36173091056E+02  0.51100000000E-03 0. -1.
        -11    1    3    3    0    0  0.31322644543E+01  0.55909932083E+00  0.21748918984E+01  0.38540663841E+01  0.51100000000E-03 0.  1.
        -12    1    3    3    0    0 -0.34722705872E+01 -0.23595303433E+01  0.65265095606E+01  0.77601142721E+01  0.00000000000E+00 0.  1.
</event>
<event>
 7    1  0.6622189E-010  0.4778727E+02  0.7816164E-02  0.1312668E+00
        -11   -1    0    0    0    0  0.00000000000E+00  0.00000000000E+00  0.45593999997E+02  0.45594000000E+02  0.51100000000E-03 0. -1.
         11   -1    0    0    0    0 -0.00000000000E+00 -0.00000000000E+00 -0.45593999997E+02  0.45594000000E+02  0.51100000000E-03 0.  1.
    9900012    2    1    2    0    0  0.17830415754E+02  0.38166966632E+02 -0.10439451445E+02  0.47787271731E+02  0.20000003129E+02 0.  0.
         12    1    1    2    0    0 -0.17830415754E+02 -0.38166966632E+02  0.10439451445E+02  0.43400728269E+02  0.00000000000E+00 0. -1.
         11    1    3    3    0    0  0.47911447246E+00  0.10126808432E+02 -0.89716066080E+01  0.13537781394E+02  0.51100000000E-03 0. -1.
        -11    1    3    3    0    0  0.75579848227E+01  0.98573913241E+01  0.36991712480E+01  0.12960523388E+02  0.51100000000E-03 0.  1.
         12    1    3    3    0    0  0.97933164587E+01  0.18182766876E+02 -0.51670160847E+01  0.21288966949E+02  0.00000000000E+00 0. -1.
</event>
<event>
 7    1  0.6622189E-010  0.4778727E+02  0.7816164E-02  0.1312668E+00
        -11   -1    0    0    0    0  0.00000000000E+00  0.00000000000E+00  0.45593999997E+02  0.45594000000E+02  0.51100000000E-03 0. -1.
         11   -1    0    0    0    0 -0.00000000000E+00 -0.00000000000E+00 -0.45593999997E+02  0.45594000000E+02  0.51100000000E-03 0.  1.
    9900012    2    1    2    0    0  0.11333702467E+02  0.79570739025E+00 -0.41887198698E+02  0.47787269860E+02  0.19999994602E+02 0.  0.
         12    1    1    2    0    0 -0.11333702467E+02 -0.79570739025E+00  0.41887198698E+02  0.43400730140E+02  0.00000000000E+00 0. -1.
         11    1    3    3    0    0  0.34813818172E+01  0.54417561433E+01 -0.13516278804E+02  0.14980738375E+02  0.51100000000E-03 0. -1.
        -11    1    3    3    0    0 -0.82131834471E+00  0.39413368074E+01 -0.96738609293E+01  0.10478181388E+02  0.51100000000E-03 0.  1.
        -12    1    3    3    0    0  0.86736389948E+01 -0.85873855604E+01 -0.18697058965E+02  0.22328350098E+02  0.00000000000E+00 0.  1.
</event>
<event>
 7    1  0.6622189E-010  0.4778726E+02  0.7816164E-02  0.1312668E+00
        -11   -1    0    0    0    0  0.00000000000E+00  0.00000000000E+00  0.45593999997E+02  0.45594000000E+02  0.51100000000E-03 0. -1.
         11   -1    0    0    0    0 -0.00000000000E+00 -0.00000000000E+00 -0.45593999997E+02  0.45594000000E+02  0.51100000000E-03 0.  1.
    9900012    2    1    2    0    0  0.87071409379E+01  0.83078149350E+01 -0.41698801724E+02  0.47787260864E+02  0.19999953583E+02 0.  0.
         12    1    1    2    0    0 -0.87071409379E+01 -0.83078149350E+01  0.41698801724E+02  0.43400739136E+02  0.00000000000E+00 0. -1.
         11    1    3    3    0    0 -0.14133772683E+01  0.21619811041E+01  0.10674850900E+01  0.27948742862E+01  0.51100000000E-03 0. -1.
        -11    1    3    3    0    0  0.11233630473E+02  0.50951336170E+01 -0.35983238967E+02  0.38038773995E+02  0.51100000000E-03 0.  1.
         12    1    3    3    0    0 -0.11131122670E+01  0.10507002139E+01 -0.67830478473E+01  0.69536125832E+01  0.00000000000E+00 0. -1.
</event>
<event>
 7    1  0.6622189E-010  0.4778726E+02  0.7816164E-02  0.1312668E+00
        -11   -1    0    0    0    0  0.00000000000E+00  0.00000000000E+00  0.45593999997E+02  0.45594000000E+02  0.51100000000E-03 0. -1.
         11   -1    0    0    0    0 -0.00000000000E+00 -0.00000000000E+00 -0.45593999997E+02  0.45594000000E+02  0.51100000000E-03 0.  1.
    9900012    2    1    2    0    0  0.31695983843E+02  0.67028606290E+01  0.28880098666E+02  0.47787264622E+02  0.19999970719E+02 0.  0.
        -12    1    1    2    0    0 -0.31695983843E+02 -0.67028606290E+01 -0.28880098666E+02  0.43400735378E+02  0.00000000000E+00 0.  1.
         11    1    3    3    0    0  0.13003564521E+02 -0.28919528785E+00  0.15278273301E+02  0.20064943546E+02  0.51100000000E-03 0. -1.
        -11    1    3    3    0    0  0.13715403723E+02  0.98817527030E+01  0.54846471651E+01  0.17771963610E+02  0.51100000000E-03 0.  1.
        -12    1    3    3    0    0  0.49770155985E+01 -0.28896967862E+01  0.81171781999E+01  0.99503574666E+01  0.00000000000E+00 0.  1.
</event>
<event>
 7    1  0.6622189E-010  0.4778727E+02  0.7816164E-02  0.1312668E+00
        -11   -1    0    0    0    0  0.00000000000E+00  0.00000000000E+00  0.45593999997E+02  0.45594000000E+02  0.51100000000E-03 0. -1.
         11   -1    0    0    0    0 -0.00000000000E+00 -0.00000000000E+00 -0.45593999997E+02  0.45594000000E+02  0.51100000000E-03 0.  1.
    9900012    2    1    2    0    0  0.15625002014E+01 -0.14831136552E+02  0.40758059748E+02  0.47787268984E+02  0.19999990606E+02 0.  0.
        -12    1    1    2    0    0 -0.15625002014E+01  0.14831136552E+02 -0.40758059748E+02  0.43400731016E+02  0.00000000000E+00 0.  1.
         11    1    3    3    0    0 -0.61709885068E+01 -0.86011285829E+01  0.97919226234E+01  0.14420203222E+02  0.51100000000E-03 0. -1.
        -11    1    3    3    0    0  0.51830943379E+01 -0.55162090121E+01  0.11801407211E+02  0.14020208315E+02  0.51100000000E-03 0.  1.
         12    1    3    3    0    0  0.25503943703E+01 -0.71379895732E+00  0.19164729913E+02  0.19346857446E+02  0.00000000000E+00 0. -1.
</event>
<event>
 7    1  0.6622189E-010  0.4778728E+02  0.7816164E-02  0.1312668E+00
        -11   -1    0    0    0    0  0.00000000000E+00  0.00000000000E+00  0.45593999997E+02  0.45594000000E+02  0.51100000000E-03 0. -1.
         11   -1    0    0    0    0 -0.00000000000E+00 -0.00000000000E+00 -0.45593999997E+02  0.45594000000E+02  0.51100000000E-03 0.  1.
    9900012    2    1    2    0    0  0.26089579530E+02  0.74641406190E+01  0.33870970849E+02  0.47787283168E+02  0.20000055277E+02 0.  0.
        -12    1    1    2    0    0 -0.26089579530E+02 -0.74641406190E+01 -0.33870970849E+02  0.43400716832E+02  0.00000000000E+00 0.  1.
         11    1    3    3    0    0  0.17969177641E+02  0.12104309641E+02  0.24591286276E+02  0.32774029627E+02  0.51100000000E-03 0. -1.
        -11    1    3    3    0    0  0.93152831023E+01 -0.31789310206E+01  0.83581348419E+01  0.12912727055E+02  0.51100000000E-03 0.  1.
        -12    1    3    3    0    0 -0.11948812134E+01 -0.14612380015E+01  0.92154973083E+00  0.21005264858E+01  0.00000000000E+00 0.  1.
</event>
<event>
 7    1  0.6622189E-010  0.4778727E+02  0.7816164E-02  0.1312668E+00
        -11   -1    0    0    0    0  0.00000000000E+00  0.00000000000E+00  0.45593999997E+02  0.45594000000E+02  0.51100000000E-03 0. -1.
         11   -1    0    0    0    0 -0.00000000000E+00 -0.00000000000E+00 -0.45593999997E+02  0.45594000000E+02  0.51100000000E-03 0.  1.
    9900012    2    1    2    0    0 -0.28371239597E+02 -0.26375825448E+02  0.19570692467E+02  0.47787269499E+02  0.19999992955E+02 0.  0.
        -12    1    1    2    0    0  0.28371239597E+02  0.26375825448E+02 -0.19570692467E+02  0.43400730501E+02  0.00000000000E+00 0.  1.
         11    1    3    3    0    0 -0.23436370935E+02 -0.26191341103E+02  0.18608801582E+02  0.39768546968E+02  0.51100000000E-03 0. -1.
        -11    1    3    3    0    0 -0.68872537157E+00  0.19181892241E+01 -0.16373888062E+01  0.26143517171E+01  0.51100000000E-03 0.  1.
        -12    1    3    3    0    0 -0.42461432900E+01 -0.21026735695E+01  0.25992796912E+01  0.54043708137E+01  0.00000000000E+00 0.  1.
</event>
<event>
 7    1  0.6622189E-010  0.4778726E+02  0.7816164E-02  0.1312668E+00
        -11   -1    0    0    0    0  0.00000000000E+00  0.00000000000E+00  0.45593999997E+02  0.45594000000E+02  0.51100000000E-03 0. -1.
         11   -1    0    0    0    0 -0.00000000000E+00 -0.00000000000E+00 -0.45593999997E+02  0.45594000000E+02  0.51100000000E-03 0.  1.
    9900012    2    1    2    0    0 -0.67579176814E+01 -0.80487468214E+01  0.42109053104E+02  0.47787261180E+02  0.19999955025E+02 0.  0.
        -12    1    1    2    0    0  0.67579176814E+01  0.80487468214E+01 -0.42109053104E+02  0.43400738820E+02  0.00000000000E+00 0.  1.
         11    1    3    3    0    0 -0.33924512379E+01 -0.62452726201E+01  0.38852296510E+02  0.39497001150E+02  0.51100000000E-03 0. -1.
        -11    1    3    3    0    0 -0.32079315614E+00 -0.23754251115E-01 -0.19638872753E+01  0.19900567843E+01  0.51100000000E-03 0.  1.
         12    1    3    3    0    0 -0.30446732873E+01 -0.17797199501E+01  0.52206438693E+01  0.63002032457E+01  0.00000000000E+00 0. -1.
</event>
<event>
 7    1  0.6622189E-010  0.4778727E+02  0.7816164E-02  0.1312668E+00
        -11   -1    0    0    0    0  0.00000000000E+00  0.00000000000E+00  0.45593999997E+02  0.45594000000E+02  0.51100000000E-03 0.  1.
         11   -1    0    0    0    0 -0.00000000000E+00 -0.00000000000E+00 -0.45593999997E+02  0.45594000000E+02  0.51100000000E-03 0. -1.
    9900012    2    1    2    0    0 -0.11723395985E+02 -0.15260495471E+02 -0.38901193133E+02  0.47787267718E+02  0.19999984835E+02 0.  0.
         12    1    1    2    0    0  0.11723395985E+02  0.15260495471E+02  0.38901193133E+02  0.43400732282E+02  0.00000000000E+00 0. -1.
         11    1    3    3    0    0 -0.11361192394E+02 -0.18916189421E+01 -0.14323986797E+02  0.18380193494E+02  0.51100000000E-03 0. -1.
        -11    1    3    3    0    0  0.12152232477E+01 -0.13053360517E+02 -0.16022138647E+02  0.20702075147E+02  0.51100000000E-03 0.  1.
        -12    1    3    3    0    0 -0.15774268388E+01 -0.31551601278E+00 -0.85550676882E+01  0.87049990773E+01  0.00000000000E+00 0.  1.
</event>
<event>
 7    1  0.6622189E-010  0.4778727E+02  0.7816164E-02  0.1312668E+00
        -11   -1    0    0    0    0  0.00000000000E+00  0.00000000000E+00  0.45593999997E+02  0.45594000000E+02  0.51100000000E-03 0. -1.
         11   -1    0    0    0    0 -0.00000000000E+00 -0.00000000000E+00 -0.45593999997E+02  0.45594000000E+02  0.51100000000E-03 0.  1.
    9900012    2    1    2    0    0  0.82411796321E+01 -0.22482004522E+02  0.36197594243E+02  0.47787269614E+02  0.19999993478E+02 0.  0.
        -12    1    1    2    0    0 -0.82411796321E+01  0.22482004522E+02 -0.36197594243E+02  0.43400730386E+02  0.00000000000E+00 0.  1.
         11    1    3    3    0    0 -0.29840981895E+01 -0.86448043314E+01  0.16924789003E+02  0.19237618537E+02  0.51100000000E-03 0. -1.
        -11    1    3    3    0    0  0.11835368303E+02 -0.15361151428E+02  0.17339400321E+02  0.26013375786E+02  0.51100000000E-03 0.  1.
         12    1    3    3    0    0 -0.61009048150E+00  0.15239512368E+01  0.19334049195E+01  0.25362752908E+01  0.00000000000E+00 0. -1.
</event>
<event>
 7    1  0.6622189E-010  0.4778726E+02  0.7816164E-02  0.1312668E+00
        -11   -1    0    0    0    0  0.00000000000E+00  0.00000000000E+00  0.45593999997E+02  0.45594000000E+02  0.51100000000E-03 0.  1.
         11   -1    0    0    0    0 -0.00000000000E+00 -0.00000000000E+00 -0.45593999997E+02  0.45594000000E+02  0.51100000000E-03 0. -1.
    9900012    2    1    2    0    0  0.31657921185E+02  0.29644525182E+02 -0.16132134153E+01  0.47787259170E+02  0.19999945861E+02 0.  0.
         12    1    1    2    0    0 -0.31657921185E+02 -0.29644525182E+02  0.16132134153E+01  0.43400740830E+02  0.00000000000E+00 0. -1.
         11    1    3    3    0    0  0.64365438126E+01 -0.75822619323E-01  0.36877295860E+01  0.74185035608E+01  0.51100000000E-03 0. -1.
        -11    1    3    3    0    0  0.65798075791E+01  0.80116957732E+01  0.25909636184E+01  0.10686170019E+02  0.51100000000E-03 0.  1.
         12    1    3    3    0    0  0.18641569794E+02  0.21708652028E+02 -0.78919066198E+01  0.29682585591E+02  0.00000000000E+00 0. -1.
</event>
<event>
 7    1  0.6622189E-010  0.4778728E+02  0.7816164E-02  0.1312668E+00
        -11   -1    0    0    0    0  0.00000000000E+00  0.00000000000E+00  0.45593999997E+02  0.45594000000E+02  0.51100000000E-03 0.  1.
         11   -1    0    0    0    0 -0.00000000000E+00 -0.00000000000E+00 -0.45593999997E+02  0.45594000000E+02  0.51100000000E-03 0. -1.
    9900012    2    1    2    0    0 -0.14863251000E+02  0.40521114496E+02  0.45547669303E+01  0.47787275904E+02  0.20000022155E+02 0.  0.
        -12    1    1    2    0    0  0.14863251000E+02 -0.40521114496E+02 -0.45547669303E+01  0.43400724096E+02  0.00000000000E+00 0.  1.
         11    1    3    3    0    0 -0.16169083955E+02  0.28710153109E+02  0.14715380693E+01  0.32982989435E+02  0.51100000000E-03 0. -1.
        -11    1    3    3    0    0  0.14131428975E+01  0.14949783024E+01 -0.23674356396E+01  0.31363489510E+01  0.51100000000E-03 0.  1.
        -12    1    3    3    0    0 -0.10730994229E+00  0.10315983084E+02  0.54506645007E+01  0.11667937518E+02  0.00000000000E+00 0.  1.
</event>
<event>
 7    1  0.6622189E-010  0.4778727E+02  0.7816164E-02  0.1312668E+00
        -11   -1    0    0    0    0  0.00000000000E+00  0.00000000000E+00  0.45593999997E+02  0.45594000000E+02  0.51100000000E-03 0. -1.
         11   -1    0    0    0    0 -0.00000000000E+00 -0.00000000000E+00 -0.45593999997E+02  0.45594000000E+02  0.51100000000E-03 0.  1.
    9900012    2    1    2    0    0  0.26714833450E+02 -0.18515983367E+02 -0.28759336986E+02  0.47787269244E+02  0.19999991790E+02 0.  0.
         12    1    1    2    0    0 -0.26714833450E+02  0.18515983367E+02  0.28759336986E+02  0.43400730756E+02  0.00000000000E+00 0. -1.
         11    1    3    3    0    0  0.35478348220E+01 -0.90083522638E+01 -0.89690810674E+01  0.13197801252E+02  0.51100000000E-03 0. -1.
        -11    1    3    3    0    0  0.84765112926E+01  0.25595825020E+01 -0.33883646071E+01  0.94807025716E+01  0.51100000000E-03 0.  1.
         12    1    3    3    0    0  0.14690487336E+02 -0.12067213605E+02 -0.16401891311E+02  0.25108765420E+02  0.00000000000E+00 0. -1.
</event>
<event>
 7    1  0.6622189E-010  0.4778727E+02  0.7816164E-02  0.1312668E+00
        -11   -1    0    0    0    0  0.00000000000E+00  0.00000000000E+00  0.45593999997E+02  0.45594000000E+02  0.51100000000E-03 0. -1.
         11   -1    0    0    0    0 -0.00000000000E+00 -0.00000000000E+00 -0.45593999997E+02  0.45594000000E+02  0.51100000000E-03 0.  1.
    9900012    2    1    2    0    0 -0.25983819529E+01  0.13754864007E+02 -0.41081323152E+02  0.47787274378E+02  0.20000015199E+02 0.  0.
         12    1    1    2    0    0  0.25983819529E+01 -0.13754864007E+02  0.41081323152E+02  0.43400725622E+02  0.00000000000E+00 0. -1.
         11    1    3    3    0    0  0.46978698271E+01  0.96966644917E+01 -0.13123189421E+02  0.16979793403E+02  0.51100000000E-03 0. -1.
        -11    1    3    3    0    0 -0.70258076893E+01  0.36562634354E+01 -0.28781930188E+02  0.29851796288E+02  0.51100000000E-03 0.  1.
        -12    1    3    3    0    0 -0.27044409069E+00  0.40193607980E+00  0.82379645708E+00  0.95568468708E+00  0.00000000000E+00 0.  1.
</event>
<event>
 7    1  0.6622189E-010  0.4778727E+02  0.7816164E-02  0.1312668E+00
        -11   -1    0    0    0    0  0.00000000000E+00  0.00000000000E+00  0.45593999997E+02  0.45594000000E+02  0.51100000000E-03 0.  1.
         11   -1    0    0    0    0 -0.00000000000E+00 -0.00000000000E+00 -0.45593999997E+02  0.45594000000E+02  0.51100000000E-03 0. -1.
    9900012    2    1    2    0    0 -0.25934385226E+02  0.34290240853E+02  0.59338498744E+01  0.47787268104E+02  0.19999986591E+02 0.  0.
        -12    1    1    2    0    0  0.25934385226E+02 -0.34290240853E+02 -0.59338498744E+01  0.43400731896E+02  0.00000000000E+00 0.  1.
         11    1    3    3    0    0 -0.16583634804E+02  0.62656946689E+01  0.17457719990E+01  0.17813578897E+02  0.51100000000E-03 0. -1.
        -11    1    3    3    0    0 -0.80790045276E+01  0.21980139863E+02  0.23842206438E+01  0.23538933087E+02  0.51100000000E-03 0.  1.
         12    1    3    3    0    0 -0.12717458944E+01  0.60444063211E+01  0.18038572316E+01  0.64347561186E+01  0.00000000000E+00 0. -1.
</event>
<event>
 7    1  0.6622189E-010  0.4778728E+02  0.7816164E-02  0.1312668E+00
        -11   -1    0    0    0    0  0.00000000000E+00  0.00000000000E+00  0.45593999997E+02  0.45594000000E+02  0.51100000000E-03 0. -1.
         11   -1    0    0    0    0 -0.00000000000E+00 -0.00000000000E+00 -0.45593999997E+02  0.45594000000E+02  0.51100000000E-03 0.  1.
    9900012    2    1    2    0    0  0.23947365182E+02  0.23217244073E+02 -0.27768798843E+02  0.47787275228E+02  0.20000019077E+02 0.  0.
         12    1    1    2    0    0 -0.23947365182E+02 -0.23217244073E+02  0.27768798843E+02  0.43400724772E+02  0.00000000000E+00 0. -1.
         11    1    3    3    0    0  0.22955029790E+01  0.52506589222E+01  0.25001684769E+01  0.62521672817E+01  0.51100000000E-03 0. -1.
        -11    1    3    3    0    0  0.96656171044E+01  0.10176703616E+02 -0.16835001045E+02  0.21918182199E+02  0.51100000000E-03 0.  1.
         12    1    3    3    0    0  0.11986245099E+02  0.77898815352E+01 -0.13433966275E+02  0.19616925748E+02  0.00000000000E+00 0. -1.
</event>
<event>
 7    1  0.6622189E-010  0.4778727E+02  0.7816164E-02  0.1312668E+00
        -11   -1    0    0    0    0  0.00000000000E+00  0.00000000000E+00  0.45593999997E+02  0.45594000000E+02  0.51100000000E-03 0. -1.
         11   -1    0    0    0    0 -0.00000000000E+00 -0.00000000000E+00 -0.45593999997E+02  0.45594000000E+02  0.51100000000E-03 0.  1.
    9900012    2    1    2    0    0  0.29357263899E+02 -0.86921317954E+00  0.31953387354E+02  0.47787269147E+02  0.19999991348E+02 0.  0.
        -12    1    1    2    0    0 -0.29357263899E+02  0.86921317954E+00 -0.31953387354E+02  0.43400730853E+02  0.00000000000E+00 0.  1.
         11    1    3    3    0    0  0.74441122638E+01 -0.71050522331E+01  0.98506590895E+01  0.14245422401E+02  0.51100000000E-03 0. -1.
        -11    1    3    3    0    0  0.64882192799E+01  0.63485762870E+01  0.44835664749E+01  0.10124414990E+02  0.51100000000E-03 0.  1.
         12    1    3    3    0    0  0.15424932355E+02 -0.11273723351E+00  0.17619161790E+02  0.23417431755E+02  0.00000000000E+00 0. -1.
</event>
<event>
 7    1  0.7602469E-010  0.4778728E+02  0.7816164E-02  0.1312668E+00
        -11   -1    0    0    0    0  0.00000000000E+00  0.00000000000E+00  0.45593999997E+02  0.45594000000E+02  0.51100000000E-03 0. -1.
         11   -1    0    0    0    0 -0.00000000000E+00 -0.00000000000E+00 -0.45593999997E+02  0.45594000000E+02  0.51100000000E-03 0.  1.
    9900012    2    1    2    0    0  0.24255471349E+02  0.27037444819E+02 -0.23754400823E+02  0.47787275683E+02  0.20000021150E+02 0.  0.
         12    1    1    2    0    0 -0.24255471349E+02 -0.27037444819E+02  0.23754400823E+02  0.43400724317E+02  0.00000000000E+00 0. -1.
         11    1    3    3    0    0  0.39151464314E+00 -0.83536579196E+00 -0.42887345902E-02  0.92257161052E+00  0.51100000000E-03 0. -1.
        -11    1    3    3    0    0  0.32561851672E+01  0.97504011564E+01 -0.14760004074E+02  0.17986961530E+02  0.51100000000E-03 0.  1.
        -12    1    3    3    0    0  0.20607771539E+02  0.18122409455E+02 -0.89901080147E+01  0.28877742543E+02  0.00000000000E+00 0.  1.
</event>
<event>
 7    1  0.6622189E-010  0.4778727E+02  0.7816164E-02  0.1312668E+00
        -11   -1    0    0    0    0  0.00000000000E+00  0.00000000000E+00  0.45593999997E+02  0.45594000000E+02  0.51100000000E-03 0. -1.
         11   -1    0    0    0    0 -0.00000000000E+00 -0.00000000000E+00 -0.45593999997E+02  0.45594000000E+02  0.51100000000E-03 0.  1.
    9900012    2    1    2    0    0 -0.27637199392E+02 -0.32709105958E+02 -0.70655951601E+01  0.47787273765E+02  0.20000012404E+02 0.  0.
         12    1    1    2    0    0  0.27637199392E+02  0.32709105958E+02  0.70655951601E+01  0.43400726235E+02  0.00000000000E+00 0. -1.
         11    1    3    3    0    0  0.42034451897E+00 -0.37513722545E+01  0.35373183757E+01  0.51732103050E+01  0.51100000000E-03 0. -1.
        -11    1    3    3    0    0 -0.20086047416E+02 -0.18170304649E+02 -0.10903473238E+02  0.29197517031E+02  0.51100000000E-03 0.  1.
        -12    1    3    3    0    0 -0.79714964946E+01 -0.10787429054E+02  0.30055970164E+00  0.13416546429E+02  0.00000000000E+00 0.  1.
</event>
<event>
 7    1  0.6622189E-010  0.4778727E+02  0.7816164E-02  0.1312668E+00
        -11   -1    0    0    0    0  0.00000000000E+00  0.00000000000E+00  0.45593999997E+02  0.45594000000E+02  0.51100000000E-03 0. -1.
         11   -1    0    0    0    0 -0.00000000000E+00 -0.00000000000E+00 -0.45593999997E+02  0.45594000000E+02  0.51100000000E-03 0.  1.
    9900012    2    1    2    0    0 -0.13311508609E+01  0.37684040307E+02  0.21488702606E+02  0.47787271940E+02  0.20000004081E+02 0.  0.
        -12    1    1    2    0    0  0.13311508609E+01 -0.37684040307E+02 -0.21488702606E+02  0.43400728060E+02  0.00000000000E+00 0.  1.
         11    1    3    3    0    0 -0.11943263887E+01  0.71985421689E+01  0.93195299866E+01  0.11836345057E+02  0.51100000000E-03 0. -1.
        -11    1    3    3    0    0 -0.40966686220E+01  0.27052125367E+02  0.62889382540E+01  0.28074025812E+02  0.51100000000E-03 0.  1.
        -12    1    3    3    0    0  0.39598441499E+01  0.34333727712E+01  0.58802343655E+01  0.78769010703E+01  0.00000000000E+00 0.  1.
</event>
<event>
 7    1  0.6622189E-010  0.4778728E+02  0.7816164E-02  0.1312668E+00
        -11   -1    0    0    0    0  0.00000000000E+00  0.00000000000E+00  0.45593999997E+02  0.45594000000E+02  0.51100000000E-03 0. -1.
         11   -1    0    0    0    0 -0.00000000000E+00 -0.00000000000E+00 -0.45593999997E+02  0.45594000000E+02  0.51100000000E-03 0.  1.
    9900012    2    1    2    0    0  0.21637928599E+02  0.96529264715E+01  0.36362663655E+02  0.47787282822E+02  0.20000053698E+02 0.  0.
        -12    1    1    2    0    0 -0.21637928599E+02 -0.96529264715E+01 -0.36362663655E+02  0.43400717178E+02  0.00000000000E+00 0.  1.
         11    1    3    3    0    0  0.25325209496E+02  0.93276205476E+01  0.31668160384E+02  0.41608209808E+02  0.51100000000E-03 0. -1.
        -11    1    3    3    0    0 -0.20324844339E+01 -0.55967363636E-01  0.36706005892E+01  0.41961213360E+01  0.51100000000E-03 0.  1.
         12    1    3    3    0    0 -0.16547964632E+01  0.38127328761E+00  0.10239026821E+01  0.19829516779E+01  0.00000000000E+00 0. -1.
</event>
<event>
 7    1  0.6622189E-010  0.4778727E+02  0.7816164E-02  0.1312668E+00
        -11   -1    0    0    0    0  0.00000000000E+00  0.00000000000E+00  0.45593999997E+02  0.45594000000E+02  0.51100000000E-03 0. -1.
         11   -1    0    0    0    0 -0.00000000000E+00 -0.00000000000E+00 -0.45593999997E+02  0.45594000000E+02  0.51100000000E-03 0.  1.
    9900012    2    1    2    0    0  0.11720705650E+01  0.22324627303E+02  0.37200271633E+02  0.47787274854E+02  0.20000017371E+02 0.  0.
        -12    1    1    2    0    0 -0.11720705650E+01 -0.22324627303E+02 -0.37200271633E+02  0.43400725146E+02  0.00000000000E+00 0.  1.
         11    1    3    3    0    0  0.56830269970E+01  0.95989964739E+01  0.69724586060E+01  0.13154949959E+02  0.51100000000E-03 0. -1.
        -11    1    3    3    0    0 -0.73405614230E+01  0.62356140134E+01  0.19931900939E+02  0.22137014239E+02  0.51100000000E-03 0.  1.
        -12    1    3    3    0    0  0.28296049910E+01  0.64900168153E+01  0.10295912088E+02  0.12495310656E+02  0.00000000000E+00 0.  1.
</event>
<event>
 7    1  0.6622189E-010  0.4778726E+02  0.7816164E-02  0.1312668E+00
        -11   -1    0    0    0    0  0.00000000000E+00  0.00000000000E+00  0.45593999997E+02  0.45594000000E+02  0.51100000000E-03 0. -1.
         11   -1    0    0    0    0 -0.00000000000E+00 -0.00000000000E+00 -0.45593999997E+02  0.45594000000E+02  0.51100000000E-03 0.  1.
    9900012    2    1    2    0    0 -0.48506064292E+01  0.22282311537E+02 -0.36926875298E+02  0.47787263722E+02  0.19999966616E+02 0.  0.
         12    1    1    2    0    0  0.48506064292E+01 -0.22282311537E+02  0.36926875298E+02  0.43400736278E+02  0.00000000000E+00 0. -1.
         11    1    3    3    0    0 -0.10727357977E+02  0.10828174268E+02 -0.15879837149E+02  0.22011242474E+02  0.51100000000E-03 0. -1.
        -11    1    3    3    0    0  0.26033396335E+01  0.10979492474E+02 -0.13921704096E+02  0.17920392781E+02  0.51100000000E-03 0.  1.
         12    1    3    3    0    0  0.32734119138E+01  0.47464479508E+00 -0.71253340534E+01  0.78556284670E+01  0.00000000000E+00 0. -1.
</event>
<event>
 7    1  0.6622189E-010  0.4778727E+02  0.7816164E-02  0.1312668E+00
        -11   -1    0    0    0    0  0.00000000000E+00  0.00000000000E+00  0.45593999997E+02  0.45594000000E+02  0.51100000000E-03 0. -1.
         11   -1    0    0    0    0 -0.00000000000E+00 -0.00000000000E+00 -0.45593999997E+02  0.45594000000E+02  0.51100000000E-03 0.  1.
    9900012    2    1    2    0    0  0.30885302534E+02  0.15801695080E+02  0.26077347072E+02  0.47787268320E+02  0.19999987580E+02 0.  0.
        -12    1    1    2    0    0 -0.30885302534E+02 -0.15801695080E+02 -0.26077347072E+02  0.43400731680E+02  0.00000000000E+00 0.  1.
         11    1    3    3    0    0  0.24467359676E+02  0.19146745057E+02  0.19859976391E+02  0.36873678937E+02  0.51100000000E-03 0. -1.
        -11    1    3    3    0    0  0.46994052679E+01 -0.28357084357E+01  0.12451354244E+01  0.56281448712E+01  0.51100000000E-03 0.  1.
         12    1    3    3    0    0  0.17185375900E+01 -0.50934154128E+00  0.49722352559E+01  0.52854445125E+01  0.00000000000E+00 0. -1.
</event>
<event>
 7    1  0.6622189E-010  0.4778727E+02  0.7816164E-02  0.1312668E+00
        -11   -1    0    0    0    0  0.00000000000E+00  0.00000000000E+00  0.45593999997E+02  0.45594000000E+02  0.51100000000E-03 0. -1.
         11   -1    0    0    0    0 -0.00000000000E+00 -0.00000000000E+00 -0.45593999997E+02  0.45594000000E+02  0.51100000000E-03 0.  1.
    9900012    2    1    2    0    0  0.35113017054E+02  0.65289640892E+01  0.24659109356E+02  0.47787274051E+02  0.20000013707E+02 0.  0.
        -12    1    1    2    0    0 -0.35113017054E+02 -0.65289640892E+01 -0.24659109356E+02  0.43400725949E+02  0.00000000000E+00 0.  1.
         11    1    3    3    0    0  0.11814046824E+02 -0.34125559016E+01  0.16735975125E+02  0.20768006736E+02  0.51100000000E-03 0. -1.
        -11    1    3    3    0    0  0.19993310180E+02  0.68471020081E+01  0.76773662811E+01  0.22484599422E+02  0.51100000000E-03 0.  1.
         12    1    3    3    0    0  0.33056600494E+01  0.30944179828E+01  0.24576794978E+00  0.45346678930E+01  0.00000000000E+00 0. -1.
</event>
<event>
 7    1  0.6622189E-010  0.4778727E+02  0.7816164E-02  0.1312668E+00
        -11   -1    0    0    0    0  0.00000000000E+00  0.00000000000E+00  0.45593999997E+02  0.45594000000E+02  0.51100000000E-03 0.  1.
         11   -1    0    0    0    0 -0.00000000000E+00 -0.00000000000E+00 -0.45593999997E+02  0.45594000000E+02  0.51100000000E-03 0. -1.
    9900012    2    1    2    0    0  0.40725531897E+02 -0.43893778729E+01  0.14345303448E+02  0.47787270543E+02  0.19999997714E+02 0.  0.
         12    1    1    2    0    0 -0.40725531897E+02  0.43893778729E+01 -0.14345303448E+02  0.43400729457E+02  0.00000000000E+00 0. -1.
         11    1    3    3    0    0  0.30846029011E+02 -0.20628518480E+01  0.40130767427E+01  0.31174310717E+02  0.51100000000E-03 0. -1.
        -11    1    3    3    0    0  0.41535266563E+01 -0.26146315476E+01  0.96666609497E+01  0.10841236829E+02  0.51100000000E-03 0.  1.
        -12    1    3    3    0    0  0.57259762297E+01  0.28810552266E+00  0.66556575511E+00  0.57717229966E+01  0.00000000000E+00 0.  1.
</event>
<event>
 7    1  0.6622189E-010  0.4778727E+02  0.7816164E-02  0.1312668E+00
        -11   -1    0    0    0    0  0.00000000000E+00  0.00000000000E+00  0.45593999997E+02  0.45594000000E+02  0.51100000000E-03 0. -1.
         11   -1    0    0    0    0 -0.00000000000E+00 -0.00000000000E+00 -0.45593999997E+02  0.45594000000E+02  0.51100000000E-03 0.  1.
    9900012    2    1    2    0    0 -0.23399644196E+01  0.31150731986E+02  0.30129383962E+02  0.47787270574E+02  0.19999997857E+02 0.  0.
        -12    1    1    2    0    0  0.23399644196E+01 -0.31150731986E+02 -0.30129383962E+02  0.43400729426E+02  0.00000000000E+00 0.  1.
         11    1    3    3    0    0 -0.31345526520E+01  0.14844816355E+02  0.77614568954E+01  0.17042130334E+02  0.51100000000E-03 0.  1.
        -11    1    3    3    0    0 -0.32639430125E+01  0.32561075564E+01  0.13955066541E+02  0.14696919501E+02  0.51100000000E-03 0. -1.
        -12    1    3    3    0    0  0.40585312448E+01  0.13049808075E+02  0.84128605261E+01  0.16048220739E+02  0.00000000000E+00 0.  1.
</event>
<event>
 7    1  0.6622189E-010  0.4778727E+02  0.7816164E-02  0.1312668E+00
        -11   -1    0    0    0    0  0.00000000000E+00  0.00000000000E+00  0.45593999997E+02  0.45594000000E+02  0.51100000000E-03 0. -1.
         11   -1    0    0    0    0 -0.00000000000E+00 -0.00000000000E+00 -0.45593999997E+02  0.45594000000E+02  0.51100000000E-03 0.  1.
    9900012    2    1    2    0    0  0.34557686503E+02 -0.12344122127E+02 -0.23173532923E+02  0.47787266415E+02  0.19999978894E+02 0.  0.
         12    1    1    2    0    0 -0.34557686503E+02  0.12344122127E+02  0.23173532923E+02  0.43400733585E+02  0.00000000000E+00 0. -1.
         11    1    3    3    0    0  0.35577550351E+01  0.22817370342E+01  0.94694426640E+00  0.43313564258E+01  0.51100000000E-03 0. -1.
        -11    1    3    3    0    0  0.23676207064E+02 -0.15247205144E+02 -0.15563039024E+02  0.32175273574E+02  0.51100000000E-03 0.  1.
        -12    1    3    3    0    0  0.73237244048E+01  0.62134598306E+00 -0.85574381652E+01  0.11280636416E+02  0.00000000000E+00 0.  1.
</event>
<event>
 7    1  0.6780192E-010  0.4778727E+02  0.7816164E-02  0.1312668E+00
        -11   -1    0    0    0    0  0.00000000000E+00  0.00000000000E+00  0.45593999997E+02  0.45594000000E+02  0.51100000000E-03 0. -1.
         11   -1    0    0    0    0 -0.00000000000E+00 -0.00000000000E+00 -0.45593999997E+02  0.45594000000E+02  0.51100000000E-03 0.  1.
    9900012    2    1    2    0    0  0.67994709374E+01  0.29865443979E+02 -0.30748101300E+02  0.47787270943E+02  0.19999999538E+02 0.  0.
         12    1    1    2    0    0 -0.67994709374E+01 -0.29865443979E+02  0.30748101300E+02  0.43400729057E+02  0.00000000000E+00 0. -1.
         11    1    3    3    0    0  0.15437950132E+00  0.12492530836E+01  0.20208489592E+01  0.23808185724E+01  0.51100000000E-03 0. -1.
        -11    1    3    3    0    0 -0.33721447227E+00  0.20462501352E+02 -0.24034627812E+02  0.31567245833E+02  0.51100000000E-03 0.  1.
        -12    1    3    3    0    0  0.69823059084E+01  0.81536895438E+01 -0.87343224480E+01  0.13839206538E+02  0.00000000000E+00 0.  1.
</event>
<event>
 7    1  0.6622189E-010  0.4778727E+02  0.7816164E-02  0.1312668E+00
        -11   -1    0    0    0    0  0.00000000000E+00  0.00000000000E+00  0.45593999997E+02  0.45594000000E+02  0.51100000000E-03 0. -1.
         11   -1    0    0    0    0 -0.00000000000E+00 -0.00000000000E+00 -0.45593999997E+02  0.45594000000E+02  0.51100000000E-03 0.  1.
    9900012    2    1    2    0    0 -0.26988363776E+02 -0.21161702395E+02 -0.26597636738E+02  0.47787266048E+02  0.19999977218E+02 0.  0.
         12    1    1    2    0    0  0.26988363776E+02  0.21161702395E+02  0.26597636738E+02  0.43400733952E+02  0.00000000000E+00 0. -1.
         11    1    3    3    0    0 -0.17198211819E+02 -0.18308786552E+02 -0.11279977488E+02  0.27535941008E+02  0.51100000000E-03 0. -1.
        -11    1    3    3    0    0 -0.61402684738E+01 -0.46499341457E+01 -0.50581652865E+01  0.92146525066E+01  0.51100000000E-03 0.  1.
         12    1    3    3    0    0 -0.36498834833E+01  0.17970183032E+01 -0.10259493963E+02  0.11036672533E+02  0.00000000000E+00 0. -1.
</event>
<event>
 7    1  0.6622189E-010  0.4778727E+02  0.7816164E-02  0.1312668E+00
        -11   -1    0    0    0    0  0.00000000000E+00  0.00000000000E+00  0.45593999997E+02  0.45594000000E+02  0.51100000000E-03 0. -1.
         11   -1    0    0    0    0 -0.00000000000E+00 -0.00000000000E+00 -0.45593999997E+02  0.45594000000E+02  0.51100000000E-03 0.  1.
    9900012    2    1    2    0    0 -0.13304371824E+01  0.23334271905E+02  0.36570000439E+02  0.47787271428E+02  0.20000001750E+02 0.  0.
        -12    1    1    2    0    0  0.13304371824E+01 -0.23334271905E+02 -0.36570000439E+02  0.43400728572E+02  0.00000000000E+00 0.  1.
         11    1    3    3    0    0 -0.59167190103E+01  0.52044990599E+01  0.12289143984E+02  0.14598542203E+02  0.51100000000E-03 0. -1.
        -11    1    3    3    0    0  0.57311525076E+01  0.11869375633E+02  0.73281368925E+01  0.15080775098E+02  0.51100000000E-03 0.  1.
        -12    1    3    3    0    0 -0.11448706797E+01  0.62603972120E+01  0.16952719562E+02  0.18107954127E+02  0.00000000000E+00 0.  1.
</event>
<event>
 7    1  0.6622189E-010  0.4778728E+02  0.7816164E-02  0.1312668E+00
        -11   -1    0    0    0    0  0.00000000000E+00  0.00000000000E+00  0.45593999997E+02  0.45594000000E+02  0.51100000000E-03 0. -1.
         11   -1    0    0    0    0 -0.00000000000E+00 -0.00000000000E+00 -0.45593999997E+02  0.45594000000E+02  0.51100000000E-03 0.  1.
    9900012    2    1    2    0    0  0.16896734297E+02  0.31368399764E+02  0.24781979070E+02  0.47787278574E+02  0.20000034330E+02 0.  0.
        -12    1    1    2    0    0 -0.16896734297E+02 -0.31368399764E+02 -0.24781979070E+02  0.43400721426E+02  0.00000000000E+00 0.  1.
         11    1    3    3    0    0  0.27322077793E+01  0.17081772578E+02  0.13023167514E+02  0.21653055352E+02  0.51100000000E-03 0. -1.
        -11    1    3    3    0    0  0.88013181211E+01  0.14617675064E+01  0.73234914834E+01  0.11542681347E+02  0.51100000000E-03 0.  1.
        -12    1    3    3    0    0  0.53632083968E+01  0.12824859680E+02  0.44353200731E+01  0.14591541874E+02  0.00000000000E+00 0.  1.
</event>
<event>
 7    1  0.6622189E-010  0.4778727E+02  0.7816164E-02  0.1312668E+00
        -11   -1    0    0    0    0  0.00000000000E+00  0.00000000000E+00  0.45593999997E+02  0.45594000000E+02  0.51100000000E-03 0. -1.
         11   -1    0    0    0    0 -0.00000000000E+00 -0.00000000000E+00 -0.45593999997E+02  0.45594000000E+02  0.51100000000E-03 0.  1.
    9900012    2    1    2    0    0 -0.28323715735E+01  0.11197789455E+02 -0.41835517048E+02  0.47787270697E+02  0.19999998415E+02 0.  0.
         12    1    1    2    0    0  0.28323715735E+01 -0.11197789455E+02  0.41835517048E+02  0.43400729303E+02  0.00000000000E+00 0. -1.
         11    1    3    3    0    0  0.30452177076E+01  0.11811180479E+02 -0.18454062237E+02  0.22120799003E+02  0.51100000000E-03 0.  1.
        -11    1    3    3    0    0 -0.35921512618E+01 -0.27236293416E+01 -0.39685487784E+01  0.60059210073E+01  0.51100000000E-03 0. -1.
         12    1    3    3    0    0 -0.22854380193E+01  0.21102383166E+01 -0.19412906032E+02  0.19660550687E+02  0.00000000000E+00 0. -1.
</event>
<event>
 7    1  0.6622189E-010  0.4778727E+02  0.7816164E-02  0.1312668E+00
        -11   -1    0    0    0    0  0.00000000000E+00  0.00000000000E+00  0.45593999997E+02  0.45594000000E+02  0.51100000000E-03 0. -1.
         11   -1    0    0    0    0 -0.00000000000E+00 -0.00000000000E+00 -0.45593999997E+02  0.45594000000E+02  0.51100000000E-03 0.  1.
    9900012    2    1    2    0    0  0.56225612765E+00  0.38680309044E+02 -0.19675896343E+02  0.47787270322E+02  0.19999996704E+02 0.  0.
         12    1    1    2    0    0 -0.56225612765E+00 -0.38680309044E+02  0.19675896343E+02  0.43400729678E+02  0.00000000000E+00 0. -1.
         11    1    3    3    0    0 -0.15482696126E+01  0.52341236791E+01  0.57942923026E+00  0.54889824171E+01  0.51100000000E-03 0. -1.
        -11    1    3    3    0    0  0.23089652678E+01 -0.10990152368E+01 -0.18429064744E+01  0.31520564133E+01  0.51100000000E-03 0.  1.
        -12    1    3    3    0    0 -0.19843952748E+00  0.34545200602E+02 -0.18412419099E+02  0.39146231491E+02  0.00000000000E+00 0.  1.
</event>
<event>
 7    1  0.6622189E-010  0.4778727E+02  0.7816164E-02  0.1312668E+00
        -11   -1    0    0    0    0  0.00000000000E+00  0.00000000000E+00  0.45593999997E+02  0.45594000000E+02  0.51100000000E-03 0. -1.
         11   -1    0    0    0    0 -0.00000000000E+00 -0.00000000000E+00 -0.45593999997E+02  0.45594000000E+02  0.51100000000E-03 0.  1.
    9900012    2    1    2    0    0  0.72727683463E+01 -0.23304464417E+02  0.35883595422E+02  0.47787266808E+02  0.19999980684E+02 0.  0.
        -12    1    1    2    0    0 -0.72727683463E+01  0.23304464417E+02 -0.35883595422E+02  0.43400733192E+02  0.00000000000E+00 0.  1.
         11    1    3    3    0    0  0.22591171909E+01 -0.10656843942E+02  0.18951519669E+02  0.21859369418E+02  0.51100000000E-03 0. -1.
        -11    1    3    3    0    0  0.86624083282E+01 -0.10252894475E+02  0.71310523230E+01  0.15199048347E+02  0.51100000000E-03 0.  1.
        -12    1    3    3    0    0 -0.36487571728E+01 -0.23947259997E+01  0.98010234298E+01  0.10728849043E+02  0.00000000000E+00 0.  1.
</event>
<event>
 7    1  0.6622189E-010  0.4778727E+02  0.7816164E-02  0.1312668E+00
        -11   -1    0    0    0    0  0.00000000000E+00  0.00000000000E+00  0.45593999997E+02  0.45594000000E+02  0.51100000000E-03 0. -1.
         11   -1    0    0    0    0 -0.00000000000E+00 -0.00000000000E+00 -0.45593999997E+02  0.45594000000E+02  0.51100000000E-03 0.  1.
    9900012    2    1    2    0    0  0.66115016448E+01 -0.14602944411E+02  0.40331939502E+02  0.47787270934E+02  0.19999999498E+02 0.  0.
        -12    1    1    2    0    0 -0.66115016448E+01  0.14602944411E+02 -0.40331939502E+02  0.43400729066E+02  0.00000000000E+00 0.  1.
         11    1    3    3    0    0  0.50583326680E+01 -0.17256526054E+01  0.20987442038E+02  0.21657269677E+02  0.51100000000E-03 0. -1.
        -11    1    3    3    0    0 -0.31472084635E+01 -0.79244631785E+00  0.54276605644E+00  0.32905147823E+01  0.51100000000E-03 0.  1.
        -12    1    3    3    0    0  0.47003774403E+01 -0.12084845487E+02  0.18801731407E+02  0.22839486475E+02  0.00000000000E+00 0.  1.
</event>
<event>
 7    1  0.6622189E-010  0.4778728E+02  0.7816164E-02  0.1312668E+00
        -11   -1    0    0    0    0  0.00000000000E+00  0.00000000000E+00  0.45593999997E+02  0.45594000000E+02  0.51100000000E-03 0. -1.
         11   -1    0    0    0    0 -0.00000000000E+00 -0.00000000000E+00 -0.45593999997E+02  0.45594000000E+02  0.51100000000E-03 0.  1.
    9900012    2    1    2    0    0  0.39650002514E+01  0.29006017564E+02  0.32039851026E+02  0.47787281853E+02  0.20000049282E+02 0.  0.
        -12    1    1    2    0    0 -0.39650002514E+01 -0.29006017564E+02 -0.32039851026E+02  0.43400718147E+02  0.00000000000E+00 0.  1.
         11    1    3    3    0    0  0.29336822075E+01  0.16024425996E+02  0.15926149643E+02  0.22782251041E+02  0.51100000000E-03 0. -1.
        -11    1    3    3    0    0 -0.40267582095E+01 -0.76506421633E+00  0.57517467614E+01  0.70627682959E+01  0.51100000000E-03 0.  1.
        -12    1    3    3    0    0  0.50580762535E+01  0.13746655784E+02  0.10361954621E+02  0.17942262516E+02  0.00000000000E+00 0.  1.
</event>
<event>
 7    1  0.6622189E-010  0.4778727E+02  0.7816164E-02  0.1312668E+00
        -11   -1    0    0    0    0  0.00000000000E+00  0.00000000000E+00  0.45593999997E+02  0.45594000000E+02  0.51100000000E-03 0.  1.
         11   -1    0    0    0    0 -0.00000000000E+00 -0.00000000000E+00 -0.45593999997E+02  0.45594000000E+02  0.51100000000E-03 0. -1.
    9900012    2    1    2    0    0  0.97194492549E+01 -0.37441243513E+02 -0.19680174382E+02  0.47787266442E+02  0.19999979017E+02 0.  0.
        -12    1    1    2    0    0 -0.97194492549E+01  0.37441243513E+02  0.19680174382E+02  0.43400733558E+02  0.00000000000E+00 0.  1.
         11    1    3    3    0    0  0.18312291500E+01 -0.36481310936E+01 -0.10073956568E+02  0.10869538255E+02  0.51100000000E-03 0. -1.
        -11    1    3    3    0    0  0.95219929809E+01 -0.30174933486E+02 -0.90393552541E+01  0.32907520491E+02  0.51100000000E-03 0.  1.
        -12    1    3    3    0    0 -0.16337728759E+01 -0.36181789339E+01 -0.56686255980E+00  0.40102076966E+01  0.00000000000E+00 0.  1.
</event>
<event>
 7    1  0.6622189E-010  0.4778727E+02  0.7816164E-02  0.1312668E+00
        -11   -1    0    0    0    0  0.00000000000E+00  0.00000000000E+00  0.45593999997E+02  0.45594000000E+02  0.51100000000E-03 0. -1.
         11   -1    0    0    0    0 -0.00000000000E+00 -0.00000000000E+00 -0.45593999997E+02  0.45594000000E+02  0.51100000000E-03 0.  1.
    9900012    2    1    2    0    0  0.70110781786E+01  0.38304321226E+02 -0.19163699728E+02  0.47787266952E+02  0.19999981342E+02 0.  0.
         12    1    1    2    0    0 -0.70110781786E+01 -0.38304321226E+02  0.19163699728E+02  0.43400733048E+02  0.00000000000E+00 0. -1.
         11    1    3    3    0    0  0.62270024803E+01  0.15097635660E+02 -0.17929604145E+02  0.24252522910E+02  0.51100000000E-03 0. -1.
        -11    1    3    3    0    0 -0.94821098100E+00  0.11237303464E+02 -0.18358709763E+01  0.11425695415E+02  0.51100000000E-03 0.  1.
         12    1    3    3    0    0  0.17322866794E+01  0.11969382102E+02  0.60177539400E+00  0.12109048627E+02  0.00000000000E+00 0. -1.
</event>
<event>
 7    1  0.6622189E-010  0.4778727E+02  0.7816164E-02  0.1312668E+00
        -11   -1    0    0    0    0  0.00000000000E+00  0.00000000000E+00  0.45593999997E+02  0.45594000000E+02  0.51100000000E-03 0. -1.
         11   -1    0    0    0    0 -0.00000000000E+00 -0.00000000000E+00 -0.45593999997E+02  0.45594000000E+02  0.51100000000E-03 0.  1.
    9900012    2    1    2    0    0  0.28807220715E+02  0.28251390787E+02 -0.15988320248E+02  0.47787269233E+02  0.19999991742E+02 0.  0.
         12    1    1    2    0    0 -0.28807220715E+02 -0.28251390787E+02  0.15988320248E+02  0.43400730767E+02  0.00000000000E+00 0. -1.
         11    1    3    3    0    0 -0.80393757846E+00  0.56356360015E+01 -0.63759388680E+01  0.85474736315E+01  0.51100000000E-03 0. -1.
        -11    1    3    3    0    0  0.18990391656E+02  0.17610179341E+02 -0.39285680416E+01  0.26195172051E+02  0.51100000000E-03 0.  1.
         12    1    3    3    0    0  0.10620766638E+02  0.50055754441E+01 -0.56838133389E+01  0.13044623551E+02  0.00000000000E+00 0. -1.
</event>
<event>
 7    1  0.6622189E-010  0.4778727E+02  0.7816164E-02  0.1312668E+00
        -11   -1    0    0    0    0  0.00000000000E+00  0.00000000000E+00  0.45593999997E+02  0.45594000000E+02  0.51100000000E-03 0. -1.
         11   -1    0    0    0    0 -0.00000000000E+00 -0.00000000000E+00 -0.45593999997E+02  0.45594000000E+02  0.51100000000E-03 0.  1.
    9900012    2    1    2    0    0 -0.25926715778E+02 -0.53244373711E+01 -0.34395916411E+02  0.47787270858E+02  0.19999999150E+02 0.  0.
         12    1    1    2    0    0  0.25926715778E+02  0.53244373711E+01  0.34395916411E+02  0.43400729142E+02  0.00000000000E+00 0. -1.
         11    1    3    3    0    0 -0.24063248700E+02 -0.48441131008E+01 -0.32994009223E+02  0.41123108036E+02  0.51100000000E-03 0. -1.
        -11    1    3    3    0    0 -0.13622642173E+01 -0.32882605195E+01 -0.18786833945E+00  0.35642272397E+01  0.51100000000E-03 0.  1.
         12    1    3    3    0    0 -0.50120286070E+00  0.28079362492E+01 -0.12140388486E+01  0.30999355820E+01  0.00000000000E+00 0. -1.
</event>
<event>
 7    1  0.6622189E-010  0.4778727E+02  0.7816164E-02  0.1312668E+00
        -11   -1    0    0    0    0  0.00000000000E+00  0.00000000000E+00  0.45593999997E+02  0.45594000000E+02  0.51100000000E-03 0.  1.
         11   -1    0    0    0    0 -0.00000000000E+00 -0.00000000000E+00 -0.45593999997E+02  0.45594000000E+02  0.51100000000E-03 0. -1.
    9900012    2    1    2    0    0 -0.42819319934E+02  0.67562514156E+01 -0.21170937521E+01  0.47787272141E+02  0.20000004997E+02 0.  0.
         12    1    1    2    0    0  0.42819319934E+02 -0.67562514156E+01  0.21170937521E+01  0.43400727859E+02  0.00000000000E+00 0. -1.
         11    1    3    3    0    0 -0.14987060960E+02  0.21515399862E+01 -0.75562475765E+01  0.16921524702E+02  0.51100000000E-03 0.  1.
        -11    1    3    3    0    0 -0.15399613438E+02  0.21918036481E+00  0.81227521316E+01  0.17411927995E+02  0.51100000000E-03 0. -1.
         12    1    3    3    0    0 -0.12432645536E+02  0.43855310645E+01 -0.26835983072E+01  0.13453819443E+02  0.00000000000E+00 0. -1.
</event>
<event>
 7    1  0.6622189E-010  0.4778728E+02  0.7816164E-02  0.1312668E+00
        -11   -1    0    0    0    0  0.00000000000E+00  0.00000000000E+00  0.45593999997E+02  0.45594000000E+02  0.51100000000E-03 0.  1.
         11   -1    0    0    0    0 -0.00000000000E+00 -0.00000000000E+00 -0.45593999997E+02  0.45594000000E+02  0.51100000000E-03 0. -1.
    9900012    2    1    2    0    0  0.79761212134E+01  0.41230830701E+02 -0.10955489651E+02  0.47787278077E+02  0.20000032064E+02 0.  0.
         12    1    1    2    0    0 -0.79761212134E+01 -0.41230830701E+02  0.10955489651E+02  0.43400721923E+02  0.00000000000E+00 0. -1.
         11    1    3    3    0    0  0.19442892199E+01 -0.66628315705E+00  0.70757872725E+00  0.21736747071E+01  0.51100000000E-03 0. -1.
        -11    1    3    3    0    0 -0.33597144851E+01  0.50571077638E+01 -0.13144933237E+01  0.62120780190E+01  0.51100000000E-03 0.  1.
        -12    1    3    3    0    0  0.93915464786E+01  0.36840006095E+02 -0.10348575055E+02  0.39401525351E+02  0.00000000000E+00 0.  1.
</event>
<event>
 7    1  0.6622189E-010  0.4778728E+02  0.7816164E-02  0.1312668E+00
        -11   -1    0    0    0    0  0.00000000000E+00  0.00000000000E+00  0.45593999997E+02  0.45594000000E+02  0.51100000000E-03 0. -1.
         11   -1    0    0    0    0 -0.00000000000E+00 -0.00000000000E+00 -0.45593999997E+02  0.45594000000E+02  0.51100000000E-03 0.  1.
    9900012    2    1    2    0    0  0.22341694288E+02 -0.30185491733E+02 -0.21755624586E+02  0.47787280928E+02  0.20000045065E+02 0.  0.
         12    1    1    2    0    0 -0.22341694288E+02  0.30185491733E+02  0.21755624586E+02  0.43400719072E+02  0.00000000000E+00 0. -1.
         11    1    3    3    0    0  0.68077994864E+01 -0.59549486836E+01  0.20857159516E+01  0.92821203915E+01  0.51100000000E-03 0. -1.
        -11    1    3    3    0    0  0.63206321500E+01 -0.14060783811E+02 -0.17696576137E+02  0.23469657846E+02  0.51100000000E-03 0.  1.
        -12    1    3    3    0    0  0.92132626516E+01 -0.10169759238E+02 -0.61447644008E+01  0.15035502691E+02  0.00000000000E+00 0.  1.
</event>
<event>
 7    1  0.6622189E-010  0.4778727E+02  0.7816164E-02  0.1312668E+00
        -11   -1    0    0    0    0  0.00000000000E+00  0.00000000000E+00  0.45593999997E+02  0.45594000000E+02  0.51100000000E-03 0.  1.
         11   -1    0    0    0    0 -0.00000000000E+00 -0.00000000000E+00 -0.45593999997E+02  0.45594000000E+02  0.51100000000E-03 0. -1.
    9900012    2    1    2    0    0 -0.17738274382E+02 -0.32730201520E+02  0.22309428638E+02  0.47787273327E+02  0.20000010406E+02 0.  0.
        -12    1    1    2    0    0  0.17738274382E+02  0.32730201520E+02 -0.22309428638E+02  0.43400726673E+02  0.00000000000E+00 0.  1.
         11    1    3    3    0    0 -0.73460409468E+01 -0.58647781982E+01  0.38461445055E+01  0.10156415151E+02  0.51100000000E-03 0. -1.
        -11    1    3    3    0    0 -0.50852650098E+01 -0.79544012493E-01  0.51998245434E+01  0.72735426728E+01  0.51100000000E-03 0.  1.
        -12    1    3    3    0    0 -0.53069684250E+01 -0.26785879310E+02  0.13263459589E+02  0.30357315503E+02  0.00000000000E+00 0.  1.
</event>
<event>
 7    1  0.6622189E-010  0.4778728E+02  0.7816164E-02  0.1312668E+00
        -11   -1    0    0    0    0  0.00000000000E+00  0.00000000000E+00  0.45593999997E+02  0.45594000000E+02  0.51100000000E-03 0. -1.
         11   -1    0    0    0    0 -0.00000000000E+00 -0.00000000000E+00 -0.45593999997E+02  0.45594000000E+02  0.51100000000E-03 0.  1.
    9900012    2    1    2    0    0  0.19793736313E+02 -0.16701146150E+02 -0.34826750129E+02  0.47787276452E+02  0.20000024656E+02 0.  0.
         12    1    1    2    0    0 -0.19793736313E+02  0.16701146150E+02  0.34826750129E+02  0.43400723548E+02  0.00000000000E+00 0. -1.
         11    1    3    3    0    0  0.56936764620E+00  0.30795155575E+01 -0.57776589926E+01  0.65718292188E+01  0.51100000000E-03 0. -1.
        -11    1    3    3    0    0  0.15417333708E+02 -0.91639336315E+01 -0.17012936953E+02  0.24720677221E+02  0.51100000000E-03 0.  1.
        -12    1    3    3    0    0  0.38070349588E+01 -0.10616728076E+02 -0.12036154184E+02  0.16494770012E+02  0.00000000000E+00 0.  1.
</event>
<event>
 7    1  0.6622189E-010  0.4778727E+02  0.7816164E-02  0.1312668E+00
        -11   -1    0    0    0    0  0.00000000000E+00  0.00000000000E+00  0.45593999997E+02  0.45594000000E+02  0.51100000000E-03 0. -1.
         11   -1    0    0    0    0 -0.00000000000E+00 -0.00000000000E+00 -0.45593999997E+02  0.45594000000E+02  0.51100000000E-03 0.  1.
    9900012    2    1    2    0    0  0.17998832552E+02 -0.20852246966E+02  0.33538772244E+02  0.47787269356E+02  0.19999992303E+02 0.  0.
        -12    1    1    2    0    0 -0.17998832552E+02  0.20852246966E+02 -0.33538772244E+02  0.43400730644E+02  0.00000000000E+00 0.  1.
         11    1    3    3    0    0  0.13000607893E+02 -0.84585419392E+01  0.12595597183E+02  0.19980285433E+02  0.51100000000E-03 0. -1.
        -11    1    3    3    0    0 -0.26485786621E+01 -0.82817054039E+01  0.61357774456E+01  0.10641869124E+02  0.51100000000E-03 0.  1.
        -12    1    3    3    0    0  0.76468033210E+01 -0.41119996229E+01  0.14807397616E+02  0.17165114800E+02  0.00000000000E+00 0.  1.
</event>
<event>
 7    1  0.6622189E-010  0.4778727E+02  0.7816164E-02  0.1312668E+00
        -11   -1    0    0    0    0  0.00000000000E+00  0.00000000000E+00  0.45593999997E+02  0.45594000000E+02  0.51100000000E-03 0. -1.
         11   -1    0    0    0    0 -0.00000000000E+00 -0.00000000000E+00 -0.45593999997E+02  0.45594000000E+02  0.51100000000E-03 0.  1.
    9900012    2    1    2    0    0  0.23338664759E+02  0.10950298111E+02  0.34914480616E+02  0.47787271226E+02  0.20000000827E+02 0.  0.
        -12    1    1    2    0    0 -0.23338664759E+02 -0.10950298111E+02 -0.34914480616E+02  0.43400728774E+02  0.00000000000E+00 0.  1.
         11    1    3    3    0    0  0.18105738509E+02  0.60340989256E+01  0.11931204102E+02  0.22507370978E+02  0.51100000000E-03 0. -1.
        -11    1    3    3    0    0  0.11670580444E+01  0.60163653016E+01  0.11210524395E+02  0.12776327070E+02  0.51100000000E-03 0.  1.
         12    1    3    3    0    0  0.40658682065E+01 -0.11001661157E+01  0.11772752119E+02  0.12503573178E+02  0.00000000000E+00 0. -1.
</event>
<event>
 7    1  0.6622189E-010  0.4778727E+02  0.7816164E-02  0.1312668E+00
        -11   -1    0    0    0    0  0.00000000000E+00  0.00000000000E+00  0.45593999997E+02  0.45594000000E+02  0.51100000000E-03 0. -1.
         11   -1    0    0    0    0 -0.00000000000E+00 -0.00000000000E+00 -0.45593999997E+02  0.45594000000E+02  0.51100000000E-03 0.  1.
    9900012    2    1    2    0    0  0.86922994338E+01  0.92212348199E+01 -0.41509467857E+02  0.47787272324E+02  0.20000005835E+02 0.  0.
         12    1    1    2    0    0 -0.86922994338E+01 -0.92212348199E+01  0.41509467857E+02  0.43400727676E+02  0.00000000000E+00 0. -1.
         11    1    3    3    0    0  0.12075459407E+01 -0.22922333957E+01 -0.15697012831E+00  0.25956003201E+01  0.51100000000E-03 0. -1.
        -11    1    3    3    0    0  0.79331945275E+01  0.13496447013E+02 -0.32044900649E+02  0.35664622740E+02  0.51100000000E-03 0.  1.
        -12    1    3    3    0    0 -0.44844103451E+00 -0.19829787973E+01 -0.93075970798E+01  0.95270492636E+01  0.00000000000E+00 0.  1.
</event>
<event>
 7    1  0.6622189E-010  0.4778727E+02  0.7816164E-02  0.1312668E+00
        -11   -1    0    0    0    0  0.00000000000E+00  0.00000000000E+00  0.45593999997E+02  0.45594000000E+02  0.51100000000E-03 0. -1.
         11   -1    0    0    0    0 -0.00000000000E+00 -0.00000000000E+00 -0.45593999997E+02  0.45594000000E+02  0.51100000000E-03 0.  1.
    9900012    2    1    2    0    0 -0.59396639531E+01  0.25725550481E+02 -0.34446184098E+02  0.47787272422E+02  0.20000006279E+02 0.  0.
         12    1    1    2    0    0  0.59396639531E+01 -0.25725550481E+02  0.34446184098E+02  0.43400727578E+02  0.00000000000E+00 0. -1.
         11    1    3    3    0    0  0.16756940603E+01  0.83987596322E+01 -0.73451266841E+00  0.85957328405E+01  0.51100000000E-03 0. -1.
        -11    1    3    3    0    0 -0.18959067709E+01  0.12073781072E+02 -0.20659745614E+02  0.24004077591E+02  0.51100000000E-03 0.  1.
         12    1    3    3    0    0 -0.57194512425E+01  0.52530097766E+01 -0.13051925815E+02  0.15187461991E+02  0.00000000000E+00 0. -1.
</event>
<event>
 7    1  0.6622189E-010  0.4778728E+02  0.7816164E-02  0.1312668E+00
        -11   -1    0    0    0    0  0.00000000000E+00  0.00000000000E+00  0.45593999997E+02  0.45594000000E+02  0.51100000000E-03 0. -1.
         11   -1    0    0    0    0 -0.00000000000E+00 -0.00000000000E+00 -0.45593999997E+02  0.45594000000E+02  0.51100000000E-03 0.  1.
    9900012    2    1    2    0    0 -0.30829330388E+02  0.44662952304E+01 -0.30219653164E+02  0.47787276012E+02  0.20000022651E+02 0.  0.
         12    1    1    2    0    0  0.30829330388E+02 -0.44662952304E+01  0.30219653164E+02  0.43400723988E+02  0.00000000000E+00 0. -1.
         11    1    3    3    0    0 -0.24145073980E+01 -0.58138813880E+01 -0.49589046797E+01  0.80138504261E+01  0.51100000000E-03 0. -1.
        -11    1    3    3    0    0 -0.23227400854E+02  0.79480734183E+01 -0.23039490110E+02  0.33667523317E+02  0.51100000000E-03 0.  1.
         12    1    3    3    0    0 -0.51874221362E+01  0.23321032001E+01 -0.22212583745E+01  0.61059022692E+01  0.00000000000E+00 0. -1.
</event>
<event>
 7    1  0.6622189E-010  0.4778727E+02  0.7816164E-02  0.1312668E+00
        -11   -1    0    0    0    0  0.00000000000E+00  0.00000000000E+00  0.45593999997E+02  0.45594000000E+02  0.51100000000E-03 0.  1.
         11   -1    0    0    0    0 -0.00000000000E+00 -0.00000000000E+00 -0.45593999997E+02  0.45594000000E+02  0.51100000000E-03 0. -1.
    9900012    2    1    2    0    0 -0.39324013592E+01 -0.43217064527E+02  0.66678266800E+00  0.47787273670E+02  0.20000011972E+02 0.  0.
        -12    1    1    2    0    0  0.39324013592E+01  0.43217064527E+02 -0.66678266800E+00  0.43400726330E+02  0.00000000000E+00 0.  1.
         11    1    3    3    0    0 -0.47482966474E+01 -0.24382681988E+02 -0.66381291247E+01  0.25712375630E+02  0.51100000000E-03 0. -1.
        -11    1    3    3    0    0  0.28038431561E+01 -0.18488293790E+02  0.72510589201E+01  0.20056330658E+02  0.51100000000E-03 0.  1.
        -12    1    3    3    0    0 -0.19879478678E+01 -0.34608874882E+00  0.53852872581E-01  0.20185673828E+01  0.00000000000E+00 0.  1.
</event>
<event>
 7    1  0.6622189E-010  0.4778727E+02  0.7816164E-02  0.1312668E+00
        -11   -1    0    0    0    0  0.00000000000E+00  0.00000000000E+00  0.45593999997E+02  0.45594000000E+02  0.51100000000E-03 0. -1.
         11   -1    0    0    0    0 -0.00000000000E+00 -0.00000000000E+00 -0.45593999997E+02  0.45594000000E+02  0.51100000000E-03 0.  1.
    9900012    2    1    2    0    0  0.16799924633E+01  0.11370500801E+02 -0.41851077840E+02  0.47787269827E+02  0.19999994449E+02 0.  0.
         12    1    1    2    0    0 -0.16799924633E+01 -0.11370500801E+02  0.41851077840E+02  0.43400730173E+02  0.00000000000E+00 0. -1.
         11    1    3    3    0    0  0.38290365599E+01  0.44404611215E+01 -0.12480488060E+01  0.59947345256E+01  0.51100000000E-03 0. -1.
        -11    1    3    3    0    0 -0.40292503937E+01  0.65823512421E+01 -0.27953823618E+02  0.28999628648E+02  0.51100000000E-03 0.  1.
        -12    1    3    3    0    0  0.18802062970E+01  0.34768843738E+00 -0.12649205417E+02  0.12792906654E+02  0.00000000000E+00 0.  1.
</event>
<event>
 7    1  0.6622189E-010  0.4778727E+02  0.7816164E-02  0.1312668E+00
        -11   -1    0    0    0    0  0.00000000000E+00  0.00000000000E+00  0.45593999997E+02  0.45594000000E+02  0.51100000000E-03 0. -1.
         11   -1    0    0    0    0 -0.00000000000E+00 -0.00000000000E+00 -0.45593999997E+02  0.45594000000E+02  0.51100000000E-03 0.  1.
    9900012    2    1    2    0    0  0.93946906477E+01 -0.39686804820E+02 -0.14843207696E+02  0.47787268395E+02  0.19999987918E+02 0.  0.
         12    1    1    2    0    0 -0.93946906477E+01  0.39686804820E+02  0.14843207696E+02  0.43400731605E+02  0.00000000000E+00 0. -1.
         11    1    3    3    0    0  0.91668284239E+01 -0.15043699781E+02 -0.50499560834E+01  0.18326093505E+02  0.51100000000E-03 0. -1.
        -11    1    3    3    0    0 -0.26762060333E+01 -0.15314291417E+01 -0.46940104249E+01  0.56161453042E+01  0.51100000000E-03 0.  1.
        -12    1    3    3    0    0  0.29040682571E+01 -0.23111675898E+02 -0.50992411879E+01  0.23845029586E+02  0.00000000000E+00 0.  1.
</event>
<event>
 7    1  0.6622189E-010  0.4778727E+02  0.7816164E-02  0.1312668E+00
        -11   -1    0    0    0    0  0.00000000000E+00  0.00000000000E+00  0.45593999997E+02  0.45594000000E+02  0.51100000000E-03 0. -1.
         11   -1    0    0    0    0 -0.00000000000E+00 -0.00000000000E+00 -0.45593999997E+02  0.45594000000E+02  0.51100000000E-03 0.  1.
    9900012    2    1    2    0    0  0.73534821248E+00 -0.42238507539E+02 -0.99494349235E+01  0.47787268308E+02  0.19999987524E+02 0.  0.
         12    1    1    2    0    0 -0.73534821248E+00  0.42238507539E+02  0.99494349235E+01  0.43400731692E+02  0.00000000000E+00 0. -1.
         11    1    3    3    0    0  0.68654679534E+01 -0.10327855862E+02 -0.61590564455E+01  0.13846777007E+02  0.51100000000E-03 0. -1.
        -11    1    3    3    0    0 -0.50848989047E+01 -0.78098682623E+01 -0.30498015127E+01  0.98056885874E+01  0.51100000000E-03 0.  1.
         12    1    3    3    0    0 -0.10452208362E+01 -0.24100783414E+02 -0.74057696530E+00  0.24134802714E+02  0.00000000000E+00 0. -1.
</event>
<event>
 7    1  0.6622189E-010  0.4778729E+02  0.7816164E-02  0.1312668E+00
        -11   -1    0    0    0    0  0.00000000000E+00  0.00000000000E+00  0.45593999997E+02  0.45594000000E+02  0.51100000000E-03 0. -1.
         11   -1    0    0    0    0 -0.00000000000E+00 -0.00000000000E+00 -0.45593999997E+02  0.45594000000E+02  0.51100000000E-03 0.  1.
    9900012    2    1    2    0    0 -0.47858345014E+00  0.30189762831E+02 -0.31176439645E+02  0.47787294811E+02  0.20000108362E+02 0.  0.
         12    1    1    2    0    0  0.47858345014E+00 -0.30189762831E+02  0.31176439645E+02  0.43400705189E+02  0.00000000000E+00 0. -1.
         11    1    3    3    0    0  0.11781874449E+01  0.17855382587E+01  0.23376153063E+01  0.31687092183E+01  0.51100000000E-03 0. -1.
        -11    1    3    3    0    0 -0.46044832303E+01  0.19451356767E+02 -0.23855622377E+02  0.31123098579E+02  0.51100000000E-03 0.  1.
         12    1    3    3    0    0  0.29477123353E+01  0.89528678058E+01 -0.96584325745E+01  0.13495487014E+02  0.00000000000E+00 0. -1.
</event>
<event>
 7    1  0.6622189E-010  0.4778727E+02  0.7816164E-02  0.1312668E+00
        -11   -1    0    0    0    0  0.00000000000E+00  0.00000000000E+00  0.45593999997E+02  0.45594000000E+02  0.51100000000E-03 0. -1.
         11   -1    0    0    0    0 -0.00000000000E+00 -0.00000000000E+00 -0.45593999997E+02  0.45594000000E+02  0.51100000000E-03 0.  1.
    9900012    2    1    2    0    0 -0.14063634497E+02  0.23084814678E+02  0.33954802678E+02  0.47787272945E+02  0.20000008667E+02 0.  0.
        -12    1    1    2    0    0  0.14063634497E+02 -0.23084814678E+02 -0.33954802678E+02  0.43400727055E+02  0.00000000000E+00 0.  1.
         11    1    3    3    0    0 -0.80843301254E+01  0.93049496145E+01  0.10389240395E+02  0.16120632653E+02  0.51100000000E-03 0. -1.
        -11    1    3    3    0    0 -0.17928544577E+01  0.47306926389E+00  0.15382463045E+02  0.15493814612E+02  0.51100000000E-03 0.  1.
        -12    1    3    3    0    0 -0.41864499137E+01  0.13306795800E+02  0.81830992384E+01  0.16172825680E+02  0.00000000000E+00 0.  1.
</event>
<event>
 7    1  0.6622189E-010  0.4778727E+02  0.7816164E-02  0.1312668E+00
        -11   -1    0    0    0    0  0.00000000000E+00  0.00000000000E+00  0.45593999997E+02  0.45594000000E+02  0.51100000000E-03 0. -1.
         11   -1    0    0    0    0 -0.00000000000E+00 -0.00000000000E+00 -0.45593999997E+02  0.45594000000E+02  0.51100000000E-03 0.  1.
    9900012    2    1    2    0    0 -0.24611343564E+02 -0.24333749586E+02 -0.26187284752E+02  0.47787268628E+02  0.19999988984E+02 0.  0.
         12    1    1    2    0    0  0.24611343564E+02  0.24333749586E+02  0.26187284752E+02  0.43400731372E+02  0.00000000000E+00 0. -1.
         11    1    3    3    0    0 -0.52871054750E+01 -0.74395097192E+01  0.22956966412E+01  0.94111642476E+01  0.51100000000E-03 0. -1.
        -11    1    3    3    0    0 -0.16223352109E+02 -0.13461969684E+02 -0.23794059558E+02  0.31789606036E+02  0.51100000000E-03 0.  1.
         12    1    3    3    0    0 -0.31008859795E+01 -0.34322701825E+01 -0.46889218357E+01  0.65864983448E+01  0.00000000000E+00 0. -1.
</event>
<event>
 7    1  0.6622189E-010  0.4778727E+02  0.7816164E-02  0.1312668E+00
        -11   -1    0    0    0    0  0.00000000000E+00  0.00000000000E+00  0.45593999997E+02  0.45594000000E+02  0.51100000000E-03 0. -1.
         11   -1    0    0    0    0 -0.00000000000E+00 -0.00000000000E+00 -0.45593999997E+02  0.45594000000E+02  0.51100000000E-03 0.  1.
    9900012    2    1    2    0    0  0.30219155510E+02  0.77662350521E+01 -0.30168058623E+02  0.47787268120E+02  0.19999986665E+02 0.  0.
         12    1    1    2    0    0 -0.30219155510E+02 -0.77662350521E+01  0.30168058623E+02  0.43400731880E+02  0.00000000000E+00 0. -1.
         11    1    3    3    0    0  0.10452503748E+01  0.60359534738E+01 -0.41899443496E+01  0.74216518780E+01  0.51100000000E-03 0. -1.
        -11    1    3    3    0    0  0.19674446223E+02 -0.32856269618E+01 -0.19054228085E+02  0.27585191442E+02  0.51100000000E-03 0.  1.
         12    1    3    3    0    0  0.94994589120E+01  0.50159085401E+01 -0.69238861889E+01  0.12780424800E+02  0.00000000000E+00 0. -1.
</event>
<event>
 7    1  0.6622189E-010  0.4778724E+02  0.7816164E-02  0.1312668E+00
        -11   -1    0    0    0    0  0.00000000000E+00  0.00000000000E+00  0.45593999997E+02  0.45594000000E+02  0.51100000000E-03 0. -1.
         11   -1    0    0    0    0 -0.00000000000E+00 -0.00000000000E+00 -0.45593999997E+02  0.45594000000E+02  0.51100000000E-03 0.  1.
    9900012    2    1    2    0    0 -0.17370237240E+02 -0.51061566661E+01 -0.39443990695E+02  0.47787235264E+02  0.19999836863E+02 0.  0.
         12    1    1    2    0    0  0.17370237240E+02  0.51061566661E+01  0.39443990695E+02  0.43400764736E+02  0.00000000000E+00 0. -1.
         11    1    3    3    0    0 -0.60270446582E+01 -0.94709566223E+01 -0.23601454854E+02  0.26135281864E+02  0.51100000000E-03 0.  1.
        -11    1    3    3    0    0 -0.11030106365E+02  0.72043645464E+00 -0.12627983967E+02  0.16782379284E+02  0.51100000000E-03 0. -1.
         12    1    3    3    0    0 -0.31308621662E+00  0.36443635015E+01 -0.32145518749E+01  0.48695741155E+01  0.00000000000E+00 0. -1.
</event>
<event>
 7    1  0.6622189E-010  0.4778727E+02  0.7816164E-02  0.1312668E+00
        -11   -1    0    0    0    0  0.00000000000E+00  0.00000000000E+00  0.45593999997E+02  0.45594000000E+02  0.51100000000E-03 0. -1.
         11   -1    0    0    0    0 -0.00000000000E+00 -0.00000000000E+00 -0.45593999997E+02  0.45594000000E+02  0.51100000000E-03 0.  1.
    9900012    2    1    2    0    0 -0.12241926001E+02 -0.33757747966E+02 -0.24375665751E+02  0.47787269814E+02  0.19999994388E+02 0.  0.
         12    1    1    2    0    0  0.12241926001E+02  0.33757747966E+02  0.24375665751E+02  0.43400730186E+02  0.00000000000E+00 0. -1.
         11    1    3    3    0    0  0.15865023615E+01 -0.97355175350E+01 -0.49165540941E+01  0.11021333669E+02  0.51100000000E-03 0.  1.
        -11    1    3    3    0    0 -0.10771648157E+01 -0.40835442986E+01  0.21309456359E+01  0.47303855702E+01  0.51100000000E-03 0. -1.
        -12    1    3    3    0    0 -0.12751263547E+02 -0.19938686132E+02 -0.21590057293E+02  0.32035550574E+02  0.00000000000E+00 0.  1.
</event>
<event>
 7    1  0.6622189E-010  0.4778728E+02  0.7816164E-02  0.1312668E+00
        -11   -1    0    0    0    0  0.00000000000E+00  0.00000000000E+00  0.45593999997E+02  0.45594000000E+02  0.51100000000E-03 0. -1.
         11   -1    0    0    0    0 -0.00000000000E+00 -0.00000000000E+00 -0.45593999997E+02  0.45594000000E+02  0.51100000000E-03 0.  1.
    9900012    2    1    2    0    0 -0.13509840464E+02  0.22483091935E+02 -0.34577704216E+02  0.47787276029E+02  0.20000022728E+02 0.  0.
         12    1    1    2    0    0  0.13509840464E+02 -0.22483091935E+02  0.34577704216E+02  0.43400723971E+02  0.00000000000E+00 0. -1.
         11    1    3    3    0    0  0.34352743005E+01  0.10500449389E+02 -0.12591544867E+02  0.16751344701E+02  0.51100000000E-03 0. -1.
        -11    1    3    3    0    0 -0.14527838808E+02  0.11454049515E+02 -0.21744825146E+02  0.28549794599E+02  0.51100000000E-03 0.  1.
         12    1    3    3    0    0 -0.24172759563E+01  0.52859303132E+00 -0.24133420244E+00  0.24861367297E+01  0.00000000000E+00 0. -1.
</event>
<event>
 7    1  0.6622189E-010  0.4778728E+02  0.7816164E-02  0.1312668E+00
        -11   -1    0    0    0    0  0.00000000000E+00  0.00000000000E+00  0.45593999997E+02  0.45594000000E+02  0.51100000000E-03 0. -1.
         11   -1    0    0    0    0 -0.00000000000E+00 -0.00000000000E+00 -0.45593999997E+02  0.45594000000E+02  0.51100000000E-03 0.  1.
    9900012    2    1    2    0    0  0.99073773890E+01  0.18029458679E+02 -0.38215245878E+02  0.47787279678E+02  0.20000039364E+02 0.  0.
         12    1    1    2    0    0 -0.99073773890E+01 -0.18029458679E+02  0.38215245878E+02  0.43400720322E+02  0.00000000000E+00 0. -1.
         11    1    3    3    0    0  0.85257559810E+01  0.16119516152E+02 -0.14196230119E+02  0.23109743959E+02  0.51100000000E-03 0. -1.
        -11    1    3    3    0    0  0.33155233550E+01  0.74562951560E+00 -0.13818864092E+02  0.14230589010E+02  0.51100000000E-03 0.  1.
         12    1    3    3    0    0 -0.19339019470E+01  0.11643130113E+01 -0.10200151667E+02  0.10446946710E+02  0.00000000000E+00 0. -1.
</event>
<event>
 7    1  0.6622189E-010  0.4778727E+02  0.7816164E-02  0.1312668E+00
        -11   -1    0    0    0    0  0.00000000000E+00  0.00000000000E+00  0.45593999997E+02  0.45594000000E+02  0.51100000000E-03 0. -1.
         11   -1    0    0    0    0 -0.00000000000E+00 -0.00000000000E+00 -0.45593999997E+02  0.45594000000E+02  0.51100000000E-03 0.  1.
    9900012    2    1    2    0    0  0.39938854715E+00 -0.21817535215E+02 -0.37516113951E+02  0.47787272356E+02  0.20000005979E+02 0.  0.
         12    1    1    2    0    0 -0.39938854715E+00  0.21817535215E+02  0.37516113951E+02  0.43400727644E+02  0.00000000000E+00 0. -1.
         11    1    3    3    0    0  0.75165795794E+01 -0.19391677938E+02 -0.31998523837E+02  0.38163355066E+02  0.51100000000E-03 0.  1.
        -11    1    3    3    0    0 -0.64559943633E+01 -0.16674600160E+01 -0.54565223053E+01  0.86159109822E+01  0.51100000000E-03 0. -1.
         12    1    3    3    0    0 -0.66119666897E+00 -0.75839726009E+00 -0.61067808607E-01  0.10080063077E+01  0.00000000000E+00 0. -1.
</event>
<event>
 7    1  0.6622189E-010  0.4778727E+02  0.7816164E-02  0.1312668E+00
        -11   -1    0    0    0    0  0.00000000000E+00  0.00000000000E+00  0.45593999997E+02  0.45594000000E+02  0.51100000000E-03 0. -1.
         11   -1    0    0    0    0 -0.00000000000E+00 -0.00000000000E+00 -0.45593999997E+02  0.45594000000E+02  0.51100000000E-03 0.  1.
    9900012    2    1    2    0    0  0.26546168334E+02  0.24083207764E+02  0.24472911462E+02  0.47787270227E+02  0.19999996271E+02 0.  0.
        -12    1    1    2    0    0 -0.26546168334E+02 -0.24083207764E+02 -0.24472911462E+02  0.43400729773E+02  0.00000000000E+00 0.  1.
         11    1    3    3    0    0  0.34322538171E+01  0.12117122139E+02  0.15122259714E+02  0.19679627901E+02  0.51100000000E-03 0.  1.
        -11    1    3    3    0    0  0.83922898834E+01  0.57531360557E+01  0.14353163234E+01  0.10275662371E+02  0.51100000000E-03 0. -1.
        -12    1    3    3    0    0  0.14721624634E+02  0.62129495691E+01  0.79153354250E+01  0.17831979955E+02  0.00000000000E+00 0.  1.
</event>
<event>
 7    1  0.6622189E-010  0.4778727E+02  0.7816164E-02  0.1312668E+00
        -11   -1    0    0    0    0  0.00000000000E+00  0.00000000000E+00  0.45593999997E+02  0.45594000000E+02  0.51100000000E-03 0. -1.
         11   -1    0    0    0    0 -0.00000000000E+00 -0.00000000000E+00 -0.45593999997E+02  0.45594000000E+02  0.51100000000E-03 0.  1.
    9900012    2    1    2    0    0 -0.23021274378E+01 -0.27228803854E+02 -0.33718183492E+02  0.47787269038E+02  0.19999990850E+02 0.  0.
         12    1    1    2    0    0  0.23021274378E+01  0.27228803854E+02  0.33718183492E+02  0.43400730962E+02  0.00000000000E+00 0. -1.
         11    1    3    3    0    0 -0.15826796944E+01 -0.87116038137E+01 -0.54485933133E+01  0.10396349618E+02  0.51100000000E-03 0. -1.
        -11    1    3    3    0    0  0.52864974838E+01 -0.17388531553E+02 -0.23057074384E+02  0.29358759589E+02  0.51100000000E-03 0.  1.
        -12    1    3    3    0    0 -0.60059452272E+01 -0.11286684875E+01 -0.52125157947E+01  0.80321598302E+01  0.00000000000E+00 0.  1.
</event>
<event>
 7    1  0.6622189E-010  0.4778727E+02  0.7816164E-02  0.1312668E+00
        -11   -1    0    0    0    0  0.00000000000E+00  0.00000000000E+00  0.45593999997E+02  0.45594000000E+02  0.51100000000E-03 0. -1.
         11   -1    0    0    0    0 -0.00000000000E+00 -0.00000000000E+00 -0.45593999997E+02  0.45594000000E+02  0.51100000000E-03 0.  1.
    9900012    2    1    2    0    0 -0.13187908523E+02  0.23089247043E+02  0.34301443029E+02  0.47787271272E+02  0.20000001039E+02 0.  0.
        -12    1    1    2    0    0  0.13187908523E+02 -0.23089247043E+02 -0.34301443029E+02  0.43400728728E+02  0.00000000000E+00 0.  1.
         11    1    3    3    0    0 -0.23132467421E+01  0.76633835744E+01  0.15158436137E+02  0.17142250281E+02  0.51100000000E-03 0. -1.
        -11    1    3    3    0    0 -0.13825834274E+02  0.11546054469E+02  0.10858137135E+02  0.21032456098E+02  0.51100000000E-03 0.  1.
        -12    1    3    3    0    0  0.29511724937E+01  0.38798089995E+01  0.82848697563E+01  0.96125648939E+01  0.00000000000E+00 0.  1.
</event>
<event>
 7    1  0.6622189E-010  0.4778729E+02  0.7816164E-02  0.1312668E+00
        -11   -1    0    0    0    0  0.00000000000E+00  0.00000000000E+00  0.45593999997E+02  0.45594000000E+02  0.51100000000E-03 0.  1.
         11   -1    0    0    0    0 -0.00000000000E+00 -0.00000000000E+00 -0.45593999997E+02  0.45594000000E+02  0.51100000000E-03 0. -1.
    9900012    2    1    2    0    0  0.41436926571E+02 -0.31121079615E+01  0.12526668778E+02  0.47787291132E+02  0.20000091586E+02 0.  0.
        -12    1    1    2    0    0 -0.41436926571E+02  0.31121079615E+01 -0.12526668778E+02  0.43400708868E+02  0.00000000000E+00 0.  1.
         11    1    3    3    0    0  0.41645345735E+02 -0.31960958970E+00  0.13862347397E+02  0.43893070607E+02  0.51100000000E-03 0. -1.
        -11    1    3    3    0    0  0.31504913667E-01 -0.17167642702E+01 -0.19773976370E+01  0.26188497084E+01  0.51100000000E-03 0.  1.
         12    1    3    3    0    0 -0.23992407818E+00 -0.10757341017E+01  0.64171901810E+00  0.12753708163E+01  0.00000000000E+00 0. -1.
</event>
<event>
 7    1  0.6622189E-010  0.4778727E+02  0.7816164E-02  0.1312668E+00
        -11   -1    0    0    0    0  0.00000000000E+00  0.00000000000E+00  0.45593999997E+02  0.45594000000E+02  0.51100000000E-03 0. -1.
         11   -1    0    0    0    0 -0.00000000000E+00 -0.00000000000E+00 -0.45593999997E+02  0.45594000000E+02  0.51100000000E-03 0.  1.
    9900012    2    1    2    0    0  0.28808249288E+02 -0.26092019321E+02  0.19310991218E+02  0.47787273265E+02  0.20000010124E+02 0.  0.
        -12    1    1    2    0    0 -0.28808249288E+02  0.26092019321E+02 -0.19310991218E+02  0.43400726735E+02  0.00000000000E+00 0.  1.
         11    1    3    3    0    0  0.10459659042E+02 -0.15432442283E+02  0.47255514668E+01  0.19232669576E+02  0.51100000000E-03 0.  1.
        -11    1    3    3    0    0  0.26727876875E+01 -0.82690641471E+01  0.50283165640E+01  0.10040178466E+02  0.51100000000E-03 0. -1.
         12    1    3    3    0    0  0.15675802558E+02 -0.23905128913E+01  0.95571231876E+01  0.18514425223E+02  0.00000000000E+00 0. -1.
</event>
<event>
 7    1  0.6622189E-010  0.4778727E+02  0.7816164E-02  0.1312668E+00
        -11   -1    0    0    0    0  0.00000000000E+00  0.00000000000E+00  0.45593999997E+02  0.45594000000E+02  0.51100000000E-03 0. -1.
         11   -1    0    0    0    0 -0.00000000000E+00 -0.00000000000E+00 -0.45593999997E+02  0.45594000000E+02  0.51100000000E-03 0.  1.
    9900012    2    1    2    0    0  0.29606087046E+02  0.62348145474E+01 -0.31116391347E+02  0.47787272897E+02  0.20000008448E+02 0.  0.
         12    1    1    2    0    0 -0.29606087046E+02 -0.62348145474E+01  0.31116391347E+02  0.43400727103E+02  0.00000000000E+00 0. -1.
         11    1    3    3    0    0  0.19790593169E+02 -0.47915835481E+01 -0.13535920242E+02  0.24450930206E+02  0.51100000000E-03 0. -1.
        -11    1    3    3    0    0  0.97231832162E+01  0.11321983565E+02 -0.16669054920E+02  0.22373756857E+02  0.51100000000E-03 0.  1.
        -12    1    3    3    0    0  0.92310660761E-01 -0.29558546913E+00 -0.91141618472E+00  0.96258583484E+00  0.00000000000E+00 0.  1.
</event>
<event>
 7    1  0.6622189E-010  0.4778727E+02  0.7816164E-02  0.1312668E+00
        -11   -1    0    0    0    0  0.00000000000E+00  0.00000000000E+00  0.45593999997E+02  0.45594000000E+02  0.51100000000E-03 0. -1.
         11   -1    0    0    0    0 -0.00000000000E+00 -0.00000000000E+00 -0.45593999997E+02  0.45594000000E+02  0.51100000000E-03 0.  1.
    9900012    2    1    2    0    0  0.18245031216E+02 -0.18402496965E+02 -0.34815089605E+02  0.47787268176E+02  0.19999986923E+02 0.  0.
         12    1    1    2    0    0 -0.18245031216E+02  0.18402496965E+02  0.34815089605E+02  0.43400731824E+02  0.00000000000E+00 0. -1.
         11    1    3    3    0    0  0.39095407280E+01 -0.44231647795E+01 -0.66400105294E+01  0.88847417217E+01  0.51100000000E-03 0. -1.
        -11    1    3    3    0    0  0.79505476207E+01 -0.14325553734E+02 -0.28076705801E+02  0.32507446933E+02  0.51100000000E-03 0.  1.
        -12    1    3    3    0    0  0.63849428675E+01  0.34622154835E+00 -0.98373274950E-01  0.63950795212E+01  0.00000000000E+00 0.  1.
</event>
<event>
 7    1  0.6622189E-010  0.4778726E+02  0.7816164E-02  0.1312668E+00
        -11   -1    0    0    0    0  0.00000000000E+00  0.00000000000E+00  0.45593999997E+02  0.45594000000E+02  0.51100000000E-03 0. -1.
         11   -1    0    0    0    0 -0.00000000000E+00 -0.00000000000E+00 -0.45593999997E+02  0.45594000000E+02  0.51100000000E-03 0.  1.
    9900012    2    1    2    0    0 -0.23921020416E+02 -0.77764574715E+01 -0.35368568580E+02  0.47787260929E+02  0.19999953878E+02 0.  0.
         12    1    1    2    0    0  0.23921020416E+02  0.77764574715E+01  0.35368568580E+02  0.43400739071E+02  0.00000000000E+00 0. -1.
         11    1    3    3    0    0 -0.16734912265E+01  0.26776006501E+00 -0.63439519084E+01  0.65664293504E+01  0.51100000000E-03 0. -1.
        -11    1    3    3    0    0 -0.54688273092E+01 -0.63659790274E+01 -0.20861662668E+02  0.22486501076E+02  0.51100000000E-03 0.  1.
        -12    1    3    3    0    0 -0.16778701881E+02 -0.16782385091E+01 -0.81629540035E+01  0.18734330502E+02  0.00000000000E+00 0.  1.
</event>
<event>
 7    1  0.6622189E-010  0.4778727E+02  0.7816164E-02  0.1312668E+00
        -11   -1    0    0    0    0  0.00000000000E+00  0.00000000000E+00  0.45593999997E+02  0.45594000000E+02  0.51100000000E-03 0. -1.
         11   -1    0    0    0    0 -0.00000000000E+00 -0.00000000000E+00 -0.45593999997E+02  0.45594000000E+02  0.51100000000E-03 0.  1.
    9900012    2    1    2    0    0 -0.68579027549E+01  0.32736821961E+02 -0.27656702211E+02  0.47787268215E+02  0.19999987097E+02 0.  0.
         12    1    1    2    0    0  0.68579027549E+01 -0.32736821961E+02  0.27656702211E+02  0.43400731785E+02  0.00000000000E+00 0. -1.
         11    1    3    3    0    0 -0.39840763125E+01  0.81387087534E+01 -0.19042544126E+02  0.21088620896E+02  0.51100000000E-03 0. -1.
        -11    1    3    3    0    0 -0.14206938858E+00  0.15977460310E+02 -0.36776559052E+01  0.16395870665E+02  0.51100000000E-03 0.  1.
         12    1    3    3    0    0 -0.27317570538E+01  0.86206528983E+01 -0.49365021795E+01  0.10302776653E+02  0.00000000000E+00 0. -1.
</event>
<event>
 7    1  0.6622189E-010  0.4778728E+02  0.7816164E-02  0.1312668E+00
        -11   -1    0    0    0    0  0.00000000000E+00  0.00000000000E+00  0.45593999997E+02  0.45594000000E+02  0.51100000000E-03 0. -1.
         11   -1    0    0    0    0 -0.00000000000E+00 -0.00000000000E+00 -0.45593999997E+02  0.45594000000E+02  0.51100000000E-03 0.  1.
    9900012    2    1    2    0    0 -0.28254464005E+02 -0.21708609887E+02 -0.24779912199E+02  0.47787279637E+02  0.20000039178E+02 0.  0.
         12    1    1    2    0    0  0.28254464005E+02  0.21708609887E+02  0.24779912199E+02  0.43400720363E+02  0.00000000000E+00 0. -1.
         11    1    3    3    0    0 -0.12066493608E+01  0.27356242726E+01 -0.71915253249E-01  0.29907883418E+01  0.51100000000E-03 0. -1.
        -11    1    3    3    0    0 -0.15785419536E+02 -0.19338009936E+02 -0.17461364190E+02  0.30463705255E+02  0.51100000000E-03 0.  1.
         12    1    3    3    0    0 -0.11262395108E+02 -0.51062242231E+01 -0.72466327552E+01  0.14332786040E+02  0.00000000000E+00 0. -1.
</event>
<event>
 7    1  0.6622189E-010  0.4778728E+02  0.7816164E-02  0.1312668E+00
        -11   -1    0    0    0    0  0.00000000000E+00  0.00000000000E+00  0.45593999997E+02  0.45594000000E+02  0.51100000000E-03 0. -1.
         11   -1    0    0    0    0 -0.00000000000E+00 -0.00000000000E+00 -0.45593999997E+02  0.45594000000E+02  0.51100000000E-03 0.  1.
    9900012    2    1    2    0    0 -0.13705261395E+02  0.37245326673E+02  0.17566284586E+02  0.47787275316E+02  0.20000019478E+02 0.  0.
        -12    1    1    2    0    0  0.13705261395E+02 -0.37245326673E+02 -0.17566284586E+02  0.43400724684E+02  0.00000000000E+00 0.  1.
         11    1    3    3    0    0  0.11512702032E+01  0.43682467081E+01  0.19488405445E+01  0.49198559037E+01  0.51100000000E-03 0. -1.
        -11    1    3    3    0    0 -0.68894658008E+01  0.30505119911E+02  0.99947188191E+01  0.32831714612E+02  0.51100000000E-03 0.  1.
         12    1    3    3    0    0 -0.79670657976E+01  0.23719600535E+01  0.56227252229E+01  0.10035704801E+02  0.00000000000E+00 0. -1.
</event>
<event>
 7    1  0.6622189E-010  0.4778727E+02  0.7816164E-02  0.1312668E+00
        -11   -1    0    0    0    0  0.00000000000E+00  0.00000000000E+00  0.45593999997E+02  0.45594000000E+02  0.51100000000E-03 0. -1.
         11   -1    0    0    0    0 -0.00000000000E+00 -0.00000000000E+00 -0.45593999997E+02  0.45594000000E+02  0.51100000000E-03 0.  1.
    9900012    2    1    2    0    0  0.13314340201E+02 -0.26965294082E+02 -0.31292563672E+02  0.47787270961E+02  0.19999999621E+02 0.  0.
         12    1    1    2    0    0 -0.13314340201E+02  0.26965294082E+02  0.31292563672E+02  0.43400729039E+02  0.00000000000E+00 0. -1.
         11    1    3    3    0    0  0.98971499722E+01 -0.79836025965E+01 -0.36924433248E+01  0.13241058340E+02  0.51100000000E-03 0. -1.
        -11    1    3    3    0    0  0.31482340417E+01 -0.54125780793E+01 -0.43482035111E+01  0.76232704977E+01  0.51100000000E-03 0.  1.
         12    1    3    3    0    0  0.26895618751E+00 -0.13569113406E+02 -0.23251916836E+02  0.26922942124E+02  0.00000000000E+00 0. -1.
</event>
<event>
 7    1  0.6622189E-010  0.4778729E+02  0.7816164E-02  0.1312668E+00
        -11   -1    0    0    0    0  0.00000000000E+00  0.00000000000E+00  0.45593999997E+02  0.45594000000E+02  0.51100000000E-03 0. -1.
         11   -1    0    0    0    0 -0.00000000000E+00 -0.00000000000E+00 -0.45593999997E+02  0.45594000000E+02  0.51100000000E-03 0.  1.
    9900012    2    1    2    0    0 -0.66222193517E+01 -0.12309464864E+02  0.41088257163E+02  0.47787290431E+02  0.20000088392E+02 0.  0.
        -12    1    1    2    0    0  0.66222193517E+01  0.12309464864E+02 -0.41088257163E+02  0.43400709569E+02  0.00000000000E+00 0.  1.
         11    1    3    3    0    0 -0.81398286190E+01 -0.94217995180E-01  0.26927742622E+02  0.28131281698E+02  0.51100000000E-03 0. -1.
        -11    1    3    3    0    0 -0.17258957153E+01 -0.76960367476E+01  0.98501564446E+01  0.12618766972E+02  0.51100000000E-03 0.  1.
         12    1    3    3    0    0  0.32435049826E+01 -0.45192101217E+01  0.43103580962E+01  0.70372417618E+01  0.00000000000E+00 0. -1.
</event>
<event>
 7    1  0.6622189E-010  0.4778727E+02  0.7816164E-02  0.1312668E+00
        -11   -1    0    0    0    0  0.00000000000E+00  0.00000000000E+00  0.45593999997E+02  0.45594000000E+02  0.51100000000E-03 0.  1.
         11   -1    0    0    0    0 -0.00000000000E+00 -0.00000000000E+00 -0.45593999997E+02  0.45594000000E+02  0.51100000000E-03 0. -1.
    9900012    2    1    2    0    0 -0.50895807250E+01  0.35001527544E+02  0.25151790640E+02  0.47787270342E+02  0.19999996799E+02 0.  0.
        -12    1    1    2    0    0  0.50895807250E+01 -0.35001527544E+02 -0.25151790640E+02  0.43400729658E+02  0.00000000000E+00 0.  1.
         11    1    3    3    0    0  0.40237107282E+01  0.16279002781E+02  0.10386422614E+02  0.19724957656E+02  0.51100000000E-03 0. -1.
        -11    1    3    3    0    0 -0.40018137851E+01  0.95120619105E+00  0.67577467180E+01  0.79111596972E+01  0.51100000000E-03 0.  1.
         12    1    3    3    0    0 -0.51114776682E+01  0.17771318573E+02  0.80076213085E+01  0.20151152989E+02  0.00000000000E+00 0. -1.
</event>
<event>
 7    1  0.6622189E-010  0.4778727E+02  0.7816164E-02  0.1312668E+00
        -11   -1    0    0    0    0  0.00000000000E+00  0.00000000000E+00  0.45593999997E+02  0.45594000000E+02  0.51100000000E-03 0.  1.
         11   -1    0    0    0    0 -0.00000000000E+00 -0.00000000000E+00 -0.45593999997E+02  0.45594000000E+02  0.51100000000E-03 0. -1.
    9900012    2    1    2    0    0 -0.29227169358E+01 -0.41166975881E+02  0.13429858393E+02  0.47787271043E+02  0.19999999996E+02 0.  0.
        -12    1    1    2    0    0  0.29227169358E+01  0.41166975881E+02 -0.13429858393E+02  0.43400728957E+02  0.00000000000E+00 0.  1.
         11    1    3    3    0    0 -0.47857262354E+01 -0.85735709163E+01 -0.15304272077E+01  0.99373790084E+01  0.51100000000E-03 0. -1.
        -11    1    3    3    0    0  0.62381177886E+01 -0.15858110300E+02  0.10389895968E+02  0.19958549905E+02  0.51100000000E-03 0.  1.
         12    1    3    3    0    0 -0.43751084889E+01 -0.16735294665E+02  0.45703896326E+01  0.17891342130E+02  0.00000000000E+00 0. -1.
</event>
<event>
 7    1  0.6622189E-010  0.4778728E+02  0.7816164E-02  0.1312668E+00
        -11   -1    0    0    0    0  0.00000000000E+00  0.00000000000E+00  0.45593999997E+02  0.45594000000E+02  0.51100000000E-03 0. -1.
         11   -1    0    0    0    0 -0.00000000000E+00 -0.00000000000E+00 -0.45593999997E+02  0.45594000000E+02  0.51100000000E-03 0.  1.
    9900012    2    1    2    0    0  0.40525444472E+01  0.35489878170E+02 -0.24650929842E+02  0.47787275224E+02  0.20000019058E+02 0.  0.
         12    1    1    2    0    0 -0.40525444472E+01 -0.35489878170E+02  0.24650929842E+02  0.43400724776E+02  0.00000000000E+00 0. -1.
         11    1    3    3    0    0 -0.26919785166E+01  0.25729212944E+02 -0.17427871375E+02  0.31192464603E+02  0.51100000000E-03 0. -1.
        -11    1    3    3    0    0  0.75701562960E+01  0.10378955488E+02 -0.43834664041E+01  0.13573678991E+02  0.51100000000E-03 0.  1.
         12    1    3    3    0    0 -0.82563333218E+00 -0.61829026281E+00 -0.28395920623E+01  0.30211316305E+01  0.00000000000E+00 0. -1.
</event>
<event>
 7    1  0.6622189E-010  0.4778727E+02  0.7816164E-02  0.1312668E+00
        -11   -1    0    0    0    0  0.00000000000E+00  0.00000000000E+00  0.45593999997E+02  0.45594000000E+02  0.51100000000E-03 0. -1.
         11   -1    0    0    0    0 -0.00000000000E+00 -0.00000000000E+00 -0.45593999997E+02  0.45594000000E+02  0.51100000000E-03 0.  1.
    9900012    2    1    2    0    0 -0.28035844132E+02 -0.17865949058E+02 -0.27900227377E+02  0.47787269826E+02  0.19999994444E+02 0.  0.
         12    1    1    2    0    0  0.28035844132E+02  0.17865949058E+02  0.27900227377E+02  0.43400730174E+02  0.00000000000E+00 0. -1.
         11    1    3    3    0    0 -0.46020278354E+01 -0.43543490565E+01 -0.93784043304E+00  0.64045734317E+01  0.51100000000E-03 0. -1.
        -11    1    3    3    0    0 -0.78503330192E+01 -0.12585952969E+02 -0.18205192073E+02  0.23483248483E+02  0.51100000000E-03 0.  1.
        -12    1    3    3    0    0 -0.15583483278E+02 -0.92564703208E+00 -0.87571948715E+01  0.17899447911E+02  0.00000000000E+00 0.  1.
</event>
<event>
 7    1  0.6622189E-010  0.4778727E+02  0.7816164E-02  0.1312668E+00
        -11   -1    0    0    0    0  0.00000000000E+00  0.00000000000E+00  0.45593999997E+02  0.45594000000E+02  0.51100000000E-03 0. -1.
         11   -1    0    0    0    0 -0.00000000000E+00 -0.00000000000E+00 -0.45593999997E+02  0.45594000000E+02  0.51100000000E-03 0.  1.
    9900012    2    1    2    0    0  0.19025637202E+02 -0.72161603158E+01  0.38335043227E+02  0.47787269823E+02  0.19999994433E+02 0.  0.
        -12    1    1    2    0    0 -0.19025637202E+02  0.72161603158E+01 -0.38335043227E+02  0.43400730177E+02  0.00000000000E+00 0.  1.
         11    1    3    3    0    0  0.51894279964E+01 -0.31889233055E+01  0.11879133579E+02  0.13349652041E+02  0.51100000000E-03 0. -1.
        -11    1    3    3    0    0  0.17738825936E+02 -0.37701337648E+01  0.21730370738E+02  0.28303513331E+02  0.51100000000E-03 0.  1.
        -12    1    3    3    0    0 -0.39026167309E+01 -0.25710324554E+00  0.47255389100E+01  0.61341044511E+01  0.00000000000E+00 0.  1.
</event>
<event>
 7    1  0.8887422E-010  0.4778727E+02  0.7816164E-02  0.1312668E+00
        -11   -1    0    0    0    0  0.00000000000E+00  0.00000000000E+00  0.45593999997E+02  0.45594000000E+02  0.51100000000E-03 0. -1.
         11   -1    0    0    0    0 -0.00000000000E+00 -0.00000000000E+00 -0.45593999997E+02  0.45594000000E+02  0.51100000000E-03 0.  1.
    9900012    2    1    2    0    0  0.34099690113E+02  0.10400844601E+02  0.24751904118E+02  0.47787271992E+02  0.20000004319E+02 0.  0.
        -12    1    1    2    0    0 -0.34099690113E+02 -0.10400844601E+02 -0.24751904118E+02  0.43400728008E+02  0.00000000000E+00 0.  1.
         11    1    3    3    0    0  0.28631159487E+02  0.63061102898E+01  0.21500371108E+02  0.36356241261E+02  0.51100000000E-03 0. -1.
        -11    1    3    3    0    0  0.27689764865E+01 -0.19337194044E+01 -0.10639325819E+01  0.35409679916E+01  0.51100000000E-03 0.  1.
         12    1    3    3    0    0  0.26995541387E+01  0.60284537160E+01  0.43154655919E+01  0.78900627392E+01  0.00000000000E+00 0. -1.
</event>
<event>
 7    1  0.6622189E-010  0.4778727E+02  0.7816164E-02  0.1312668E+00
        -11   -1    0    0    0    0  0.00000000000E+00  0.00000000000E+00  0.45593999997E+02  0.45594000000E+02  0.51100000000E-03 0. -1.
         11   -1    0    0    0    0 -0.00000000000E+00 -0.00000000000E+00 -0.45593999997E+02  0.45594000000E+02  0.51100000000E-03 0.  1.
    9900012    2    1    2    0    0  0.65977002381E+01 -0.30903043295E+02 -0.29750557316E+02  0.47787269661E+02  0.19999993693E+02 0.  0.
         12    1    1    2    0    0 -0.65977002381E+01  0.30903043295E+02  0.29750557316E+02  0.43400730339E+02  0.00000000000E+00 0. -1.
         11    1    3    3    0    0  0.47644011427E+01 -0.55976998029E+01 -0.73547554753E+01  0.10398374378E+02  0.51100000000E-03 0. -1.
        -11    1    3    3    0    0 -0.34309655148E+01 -0.31587191643E+01  0.97461462683E+00  0.47643367907E+01  0.51100000000E-03 0.  1.
        -12    1    3    3    0    0  0.52642646102E+01 -0.22146624328E+02 -0.23370416467E+02  0.32624558493E+02  0.00000000000E+00 0.  1.
</event>
<event>
 7    1  0.6622189E-010  0.4778727E+02  0.7816164E-02  0.1312668E+00
        -11   -1    0    0    0    0  0.00000000000E+00  0.00000000000E+00  0.45593999997E+02  0.45594000000E+02  0.51100000000E-03 0. -1.
         11   -1    0    0    0    0 -0.00000000000E+00 -0.00000000000E+00 -0.45593999997E+02  0.45594000000E+02  0.51100000000E-03 0.  1.
    9900012    2    1    2    0    0  0.17141722637E+02  0.15254776048E+02  0.36838517322E+02  0.47787271830E+02  0.20000003582E+02 0.  0.
        -12    1    1    2    0    0 -0.17141722637E+02 -0.15254776048E+02 -0.36838517322E+02  0.43400728170E+02  0.00000000000E+00 0.  1.
         11    1    3    3    0    0  0.11605714874E+01 -0.40346444230E+01  0.30390263729E+01  0.51827563471E+01  0.51100000000E-03 0. -1.
        -11    1    3    3    0    0  0.25633113659E+00  0.38125591387E+00 -0.30983653967E+00  0.55413054949E+00  0.51100000000E-03 0.  1.
         12    1    3    3    0    0  0.15724820013E+02  0.18908164557E+02  0.34109327488E+02  0.42050384933E+02  0.00000000000E+00 0. -1.
</event>
<event>
 7    1  0.6622189E-010  0.4778727E+02  0.7816164E-02  0.1312668E+00
        -11   -1    0    0    0    0  0.00000000000E+00  0.00000000000E+00  0.45593999997E+02  0.45594000000E+02  0.51100000000E-03 0.  1.
         11   -1    0    0    0    0 -0.00000000000E+00 -0.00000000000E+00 -0.45593999997E+02  0.45594000000E+02  0.51100000000E-03 0. -1.
    9900012    2    1    2    0    0  0.91602678938E+01  0.41203082787E+02 -0.10100426998E+02  0.47787272303E+02  0.20000005740E+02 0.  0.
         12    1    1    2    0    0 -0.91602678938E+01 -0.41203082787E+02  0.10100426998E+02  0.43400727697E+02  0.00000000000E+00 0. -1.
         11    1    3    3    0    0 -0.18229259082E+01  0.22952058410E+01 -0.10282175313E+01  0.31061648817E+01  0.51100000000E-03 0. -1.
        -11    1    3    3    0    0  0.21392000044E+01 -0.98193569907E+00 -0.22515263923E+01  0.32572604643E+01  0.51100000000E-03 0.  1.
        -12    1    3    3    0    0  0.88439937976E+01  0.39889812645E+02 -0.68206830748E+01  0.41423846957E+02  0.00000000000E+00 0.  1.
</event>
<event>
 7    1  0.6622189E-010  0.4778726E+02  0.7816164E-02  0.1312668E+00
        -11   -1    0    0    0    0  0.00000000000E+00  0.00000000000E+00  0.45593999997E+02  0.45594000000E+02  0.51100000000E-03 0. -1.
         11   -1    0    0    0    0 -0.00000000000E+00 -0.00000000000E+00 -0.45593999997E+02  0.45594000000E+02  0.51100000000E-03 0.  1.
    9900012    2    1    2    0    0 -0.34583304783E+02  0.10343017808E+02 -0.24096498060E+02  0.47787260308E+02  0.19999951047E+02 0.  0.
         12    1    1    2    0    0  0.34583304783E+02 -0.10343017808E+02  0.24096498060E+02  0.43400739692E+02  0.00000000000E+00 0. -1.
         11    1    3    3    0    0 -0.10311870649E+02 -0.50412925073E+01 -0.91983903961E+01  0.14709170356E+02  0.51100000000E-03 0. -1.
        -11    1    3    3    0    0 -0.23413645394E+02  0.15277889366E+02 -0.15554219843E+02  0.31992912486E+02  0.51100000000E-03 0.  1.
        -12    1    3    3    0    0 -0.85778874040E+00  0.10642094866E+00  0.65611217922E+00  0.10851774662E+01  0.00000000000E+00 0.  1.
</event>
<event>
 7    1  0.6622189E-010  0.4778727E+02  0.7816164E-02  0.1312668E+00
        -11   -1    0    0    0    0  0.00000000000E+00  0.00000000000E+00  0.45593999997E+02  0.45594000000E+02  0.51100000000E-03 0. -1.
         11   -1    0    0    0    0 -0.00000000000E+00 -0.00000000000E+00 -0.45593999997E+02  0.45594000000E+02  0.51100000000E-03 0.  1.
    9900012    2    1    2    0    0  0.11204803251E+01 -0.43385381622E+02  0.27658561925E+00  0.47787270579E+02  0.19999997877E+02 0.  0.
        -12    1    1    2    0    0 -0.11204803251E+01  0.43385381622E+02 -0.27658561925E+00  0.43400729421E+02  0.00000000000E+00 0.  1.
         11    1    3    3    0    0  0.34556917014E+01 -0.24499451933E+02 -0.80154157821E+01  0.26007918805E+02  0.51100000000E-03 0. -1.
        -11    1    3    3    0    0 -0.18807562187E+01 -0.55852077824E+01  0.57432299203E+01  0.82290023761E+01  0.51100000000E-03 0.  1.
         12    1    3    3    0    0 -0.45445515756E+00 -0.13300721907E+02  0.25487714811E+01  0.13550349398E+02  0.00000000000E+00 0. -1.
</event>
<event>
 7    1  0.6622189E-010  0.4778727E+02  0.7816164E-02  0.1312668E+00
        -11   -1    0    0    0    0  0.00000000000E+00  0.00000000000E+00  0.45593999997E+02  0.45594000000E+02  0.51100000000E-03 0. -1.
         11   -1    0    0    0    0 -0.00000000000E+00 -0.00000000000E+00 -0.45593999997E+02  0.45594000000E+02  0.51100000000E-03 0.  1.
    9900012    2    1    2    0    0 -0.39876554391E+02  0.67170532879E+01  0.15759598548E+02  0.47787270267E+02  0.19999996455E+02 0.  0.
        -12    1    1    2    0    0  0.39876554391E+02 -0.67170532879E+01 -0.15759598548E+02  0.43400729733E+02  0.00000000000E+00 0.  1.
         11    1    3    3    0    0 -0.25290569745E+02  0.34422133453E+00  0.12050980467E+02  0.28017093654E+02  0.51100000000E-03 0. -1.
        -11    1    3    3    0    0 -0.37899578680E+01  0.74811913742E+01  0.29530026749E+01  0.88911321032E+01  0.51100000000E-03 0.  1.
         12    1    3    3    0    0 -0.10796026778E+02 -0.11083594208E+01  0.75561540618E+00  0.10879044509E+02  0.00000000000E+00 0. -1.
</event>
<event>
 7    1  0.6622189E-010  0.4778727E+02  0.7816164E-02  0.1312668E+00
        -11   -1    0    0    0    0  0.00000000000E+00  0.00000000000E+00  0.45593999997E+02  0.45594000000E+02  0.51100000000E-03 0. -1.
         11   -1    0    0    0    0 -0.00000000000E+00 -0.00000000000E+00 -0.45593999997E+02  0.45594000000E+02  0.51100000000E-03 0.  1.
    9900012    2    1    2    0    0 -0.44304478437E+01 -0.28681224245E+02  0.32270445267E+02  0.47787272702E+02  0.20000007556E+02 0.  0.
        -12    1    1    2    0    0  0.44304478437E+01  0.28681224245E+02 -0.32270445267E+02  0.43400727298E+02  0.00000000000E+00 0.  1.
         11    1    3    3    0    0 -0.24051942454E+01 -0.48532159936E+01  0.39350964094E+01  0.66950465906E+01  0.51100000000E-03 0. -1.
        -11    1    3    3    0    0 -0.94357879596E+01 -0.17532232185E+02  0.20773758245E+02  0.28774333906E+02  0.51100000000E-03 0.  1.
        -12    1    3    3    0    0  0.74105343613E+01 -0.62957760661E+01  0.75615906123E+01  0.12317892205E+02  0.00000000000E+00 0.  1.
</event>
<event>
 7    1  0.6622189E-010  0.4778727E+02  0.7816164E-02  0.1312668E+00
        -11   -1    0    0    0    0  0.00000000000E+00  0.00000000000E+00  0.45593999997E+02  0.45594000000E+02  0.51100000000E-03 0. -1.
         11   -1    0    0    0    0 -0.00000000000E+00 -0.00000000000E+00 -0.45593999997E+02  0.45594000000E+02  0.51100000000E-03 0.  1.
    9900012    2    1    2    0    0 -0.37932536722E+02 -0.21080154309E+02  0.61073192372E+00  0.47787271419E+02  0.20000001710E+02 0.  0.
        -12    1    1    2    0    0  0.37932536722E+02  0.21080154309E+02 -0.61073192372E+00  0.43400728581E+02  0.00000000000E+00 0.  1.
         11    1    3    3    0    0 -0.94715907954E+01 -0.11394792792E+02 -0.48978429382E+01  0.15605806633E+02  0.51100000000E-03 0. -1.
        -11    1    3    3    0    0 -0.36293915831E+01 -0.62302798486E+00 -0.26279327286E+01  0.45240112534E+01  0.51100000000E-03 0.  1.
         12    1    3    3    0    0 -0.24831554343E+02 -0.90623335323E+01  0.81365075906E+01  0.27657453533E+02  0.00000000000E+00 0. -1.
</event>
<event>
 7    1  0.6622189E-010  0.4778727E+02  0.7816164E-02  0.1312668E+00
        -11   -1    0    0    0    0  0.00000000000E+00  0.00000000000E+00  0.45593999997E+02  0.45594000000E+02  0.51100000000E-03 0.  1.
         11   -1    0    0    0    0 -0.00000000000E+00 -0.00000000000E+00 -0.45593999997E+02  0.45594000000E+02  0.51100000000E-03 0. -1.
    9900012    2    1    2    0    0 -0.14125242824E+02  0.36543887856E+02  0.18672050877E+02  0.47787266038E+02  0.19999977173E+02 0.  0.
        -12    1    1    2    0    0  0.14125242824E+02 -0.36543887856E+02 -0.18672050877E+02  0.43400733962E+02  0.00000000000E+00 0.  1.
         11    1    3    3    0    0 -0.64598380968E+01  0.70088059542E+01  0.31363774562E+01  0.10034427385E+02  0.51100000000E-03 0. -1.
        -11    1    3    3    0    0 -0.91331985964E+01  0.30877948762E+02  0.13528566844E+02  0.34926854389E+02  0.51100000000E-03 0.  1.
        -12    1    3    3    0    0  0.14677938693E+01 -0.13428668605E+01  0.20071065772E+01  0.28259842639E+01  0.00000000000E+00 0.  1.
</event>
<event>
 7    1  0.6622189E-010  0.4778727E+02  0.7816164E-02  0.1312668E+00
        -11   -1    0    0    0    0  0.00000000000E+00  0.00000000000E+00  0.45593999997E+02  0.45594000000E+02  0.51100000000E-03 0. -1.
         11   -1    0    0    0    0 -0.00000000000E+00 -0.00000000000E+00 -0.45593999997E+02  0.45594000000E+02  0.51100000000E-03 0.  1.
    9900012    2    1    2    0    0 -0.19597774053E+02 -0.34480356081E+02 -0.17625429875E+02  0.47787268651E+02  0.19999989089E+02 0.  0.
         12    1    1    2    0    0  0.19597774053E+02  0.34480356081E+02  0.17625429875E+02  0.43400731349E+02  0.00000000000E+00 0. -1.
         11    1    3    3    0    0 -0.20133011162E+02 -0.29868970902E+02 -0.10224860924E+02  0.37443842516E+02  0.51100000000E-03 0. -1.
        -11    1    3    3    0    0 -0.54855196877E+00 -0.42217786286E+01 -0.17940545714E+01  0.46198437330E+01  0.51100000000E-03 0.  1.
         12    1    3    3    0    0  0.10837890780E+01 -0.38960655105E+00 -0.56065143796E+01  0.57235824026E+01  0.00000000000E+00 0. -1.
</event>
<event>
 7    1  0.6622189E-010  0.4778727E+02  0.7816164E-02  0.1312668E+00
        -11   -1    0    0    0    0  0.00000000000E+00  0.00000000000E+00  0.45593999997E+02  0.45594000000E+02  0.51100000000E-03 0. -1.
         11   -1    0    0    0    0 -0.00000000000E+00 -0.00000000000E+00 -0.45593999997E+02  0.45594000000E+02  0.51100000000E-03 0.  1.
    9900012    2    1    2    0    0  0.40224922205E+01 -0.19330902062E+02 -0.38649180887E+02  0.47787269575E+02  0.19999993300E+02 0.  0.
         12    1    1    2    0    0 -0.40224922205E+01  0.19330902062E+02  0.38649180887E+02  0.43400730425E+02  0.00000000000E+00 0. -1.
         11    1    3    3    0    0 -0.97822727311E+00 -0.25320335131E+00 -0.33565522360E+01  0.35053507256E+01  0.51100000000E-03 0. -1.
        -11    1    3    3    0    0  0.94666621040E+01 -0.57231371672E+01 -0.23272383378E+02  0.25767728242E+02  0.51100000000E-03 0.  1.
        -12    1    3    3    0    0 -0.44659426104E+01 -0.13354561543E+02 -0.12020245273E+02  0.18514190607E+02  0.00000000000E+00 0.  1.
</event>
<event>
 7    1  0.6622189E-010  0.4778727E+02  0.7816164E-02  0.1312668E+00
        -11   -1    0    0    0    0  0.00000000000E+00  0.00000000000E+00  0.45593999997E+02  0.45594000000E+02  0.51100000000E-03 0. -1.
         11   -1    0    0    0    0 -0.00000000000E+00 -0.00000000000E+00 -0.45593999997E+02  0.45594000000E+02  0.51100000000E-03 0.  1.
    9900012    2    1    2    0    0 -0.24196358923E+02  0.21605736239E+02  0.28833170900E+02  0.47787269963E+02  0.19999995070E+02 0.  0.
        -12    1    1    2    0    0  0.24196358923E+02 -0.21605736239E+02 -0.28833170900E+02  0.43400730037E+02  0.00000000000E+00 0.  1.
         11    1    3    3    0    0 -0.40625885709E+01  0.59635380376E+01  0.78230767210E+01  0.10642788237E+02  0.51100000000E-03 0. -1.
        -11    1    3    3    0    0 -0.20969973108E+02  0.98065381382E+01  0.20990557063E+02  0.31249183165E+02  0.51100000000E-03 0.  1.
        -12    1    3    3    0    0  0.83620275516E+00  0.58356600633E+01  0.19537115843E-01  0.58952985608E+01  0.00000000000E+00 0.  1.
</event>
<event>
 7    1  0.6622189E-010  0.4778727E+02  0.7816164E-02  0.1312668E+00
        -11   -1    0    0    0    0  0.00000000000E+00  0.00000000000E+00  0.45593999997E+02  0.45594000000E+02  0.51100000000E-03 0. -1.
         11   -1    0    0    0    0 -0.00000000000E+00 -0.00000000000E+00 -0.45593999997E+02  0.45594000000E+02  0.51100000000E-03 0.  1.
    9900012    2    1    2    0    0  0.19092810990E+02 -0.11116264544E+02  0.37356613336E+02  0.47787270411E+02  0.19999997113E+02 0.  0.
        -12    1    1    2    0    0 -0.19092810990E+02  0.11116264544E+02 -0.37356613336E+02  0.43400729589E+02  0.00000000000E+00 0.  1.
         11    1    3    3    0    0 -0.12700882695E+01 -0.52101820133E+01  0.15365324496E+02  0.16274283946E+02  0.51100000000E-03 0. -1.
        -11    1    3    3    0    0  0.20406361345E+02 -0.68776914686E+01  0.21473870183E+02  0.30411335455E+02  0.51100000000E-03 0.  1.
         12    1    3    3    0    0 -0.43462085198E-01  0.97160893816E+00  0.51741865701E+00  0.11016510102E+01  0.00000000000E+00 0. -1.
</event>
<event>
 7    1  0.6622189E-010  0.4778728E+02  0.7816164E-02  0.1312668E+00
        -11   -1    0    0    0    0  0.00000000000E+00  0.00000000000E+00  0.45593999997E+02  0.45594000000E+02  0.51100000000E-03 0. -1.
         11   -1    0    0    0    0 -0.00000000000E+00 -0.00000000000E+00 -0.45593999997E+02  0.45594000000E+02  0.51100000000E-03 0.  1.
    9900012    2    1    2    0    0 -0.13604692802E+02 -0.24492878542E+02 -0.33145648781E+02  0.47787276520E+02  0.20000024964E+02 0.  0.
         12    1    1    2    0    0  0.13604692802E+02  0.24492878542E+02  0.33145648781E+02  0.43400723480E+02  0.00000000000E+00 0. -1.
         11    1    3    3    0    0 -0.13182288052E+02 -0.81084867751E+01 -0.17695201661E+02  0.23508305727E+02  0.51100000000E-03 0. -1.
        -11    1    3    3    0    0 -0.37504875152E+01 -0.97585099677E+01 -0.53349314422E+01  0.11736957321E+02  0.51100000000E-03 0.  1.
         12    1    3    3    0    0  0.33280827655E+01 -0.66258817992E+01 -0.10115515677E+02  0.12542013472E+02  0.00000000000E+00 0. -1.
</event>
<event>
 7    1  0.6622189E-010  0.4778729E+02  0.7816164E-02  0.1312668E+00
        -11   -1    0    0    0    0  0.00000000000E+00  0.00000000000E+00  0.45593999997E+02  0.45594000000E+02  0.51100000000E-03 0. -1.
         11   -1    0    0    0    0 -0.00000000000E+00 -0.00000000000E+00 -0.45593999997E+02  0.45594000000E+02  0.51100000000E-03 0.  1.
    9900012    2    1    2    0    0  0.31060698733E+02 -0.23269977532E+00  0.30311722353E+02  0.47787289557E+02  0.20000084405E+02 0.  0.
        -12    1    1    2    0    0 -0.31060698733E+02  0.23269977532E+00 -0.30311722353E+02  0.43400710443E+02  0.00000000000E+00 0.  1.
         11    1    3    3    0    0  0.58520732954E+01  0.50457957330E+01  0.15526129581E+02  0.17342650214E+02  0.51100000000E-03 0. -1.
        -11    1    3    3    0    0  0.16628018934E+02 -0.65963736478E+01  0.10761130420E+02  0.20875945180E+02  0.51100000000E-03 0.  1.
         12    1    3    3    0    0  0.85806065034E+01  0.13178781395E+01  0.40244623523E+01  0.95686941628E+01  0.00000000000E+00 0. -1.
</event>
<event>
 7    1  0.6622189E-010  0.4778727E+02  0.7816164E-02  0.1312668E+00
        -11   -1    0    0    0    0  0.00000000000E+00  0.00000000000E+00  0.45593999997E+02  0.45594000000E+02  0.51100000000E-03 0.  1.
         11   -1    0    0    0    0 -0.00000000000E+00 -0.00000000000E+00 -0.45593999997E+02  0.45594000000E+02  0.51100000000E-03 0. -1.
    9900012    2    1    2    0    0 -0.20002633407E+02  0.38345717195E+02 -0.36227621978E+01  0.47787265256E+02  0.19999973607E+02 0.  0.
         12    1    1    2    0    0  0.20002633407E+02 -0.38345717195E+02  0.36227621978E+01  0.43400734744E+02  0.00000000000E+00 0. -1.
         11    1    3    3    0    0 -0.85860493422E+01  0.82947031172E+01 -0.74769576866E+01  0.14086420398E+02  0.51100000000E-03 0. -1.
        -11    1    3    3    0    0 -0.12519285094E+02  0.29668844118E+02  0.42209635474E+01  0.32477520597E+02  0.51100000000E-03 0.  1.
         12    1    3    3    0    0  0.11027010300E+01  0.38216995933E+00 -0.36676805855E+00  0.12233242613E+01  0.00000000000E+00 0. -1.
</event>
<event>
 7    1  0.6622189E-010  0.4778728E+02  0.7816164E-02  0.1312668E+00
        -11   -1    0    0    0    0  0.00000000000E+00  0.00000000000E+00  0.45593999997E+02  0.45594000000E+02  0.51100000000E-03 0.  1.
         11   -1    0    0    0    0 -0.00000000000E+00 -0.00000000000E+00 -0.45593999997E+02  0.45594000000E+02  0.51100000000E-03 0. -1.
    9900012    2    1    2    0    0 -0.20971944067E+01  0.43064153816E+02  0.49701940632E+01  0.47787281144E+02  0.20000046046E+02 0.  0.
        -12    1    1    2    0    0  0.20971944067E+01 -0.43064153816E+02 -0.49701940632E+01  0.43400718856E+02  0.00000000000E+00 0.  1.
         11    1    3    3    0    0  0.23928927565E-02  0.27537373368E+02  0.66370746032E+01  0.28325919178E+02  0.51100000000E-03 0. -1.
        -11    1    3    3    0    0 -0.21913899056E+00 -0.11660607918E+01 -0.23676811850E+01  0.26483266646E+01  0.51100000000E-03 0.  1.
        -12    1    3    3    0    0 -0.18804483089E+01  0.16692841240E+02  0.70080064510E+00  0.16813035301E+02  0.00000000000E+00 0.  1.
</event>
<event>
 7    1  0.6622189E-010  0.4778727E+02  0.7816164E-02  0.1312668E+00
        -11   -1    0    0    0    0  0.00000000000E+00  0.00000000000E+00  0.45593999997E+02  0.45594000000E+02  0.51100000000E-03 0. -1.
         11   -1    0    0    0    0 -0.00000000000E+00 -0.00000000000E+00 -0.45593999997E+02  0.45594000000E+02  0.51100000000E-03 0.  1.
    9900012    2    1    2    0    0  0.23598094388E+02  0.22623778383E+02  0.28546761572E+02  0.47787274162E+02  0.20000014213E+02 0.  0.
        -12    1    1    2    0    0 -0.23598094388E+02 -0.22623778383E+02 -0.28546761572E+02  0.43400725838E+02  0.00000000000E+00 0.  1.
         11    1    3    3    0    0  0.89819298952E+01  0.12640907912E+02  0.40581121827E+01  0.16029219951E+02  0.51100000000E-03 0. -1.
        -11    1    3    3    0    0  0.10887643549E+02  0.17029680962E+01  0.15131709702E+02  0.18719228648E+02  0.51100000000E-03 0.  1.
         12    1    3    3    0    0  0.37285209435E+01  0.82799023743E+01  0.93569396864E+01  0.13038825563E+02  0.00000000000E+00 0. -1.
</event>
<event>
 7    1  0.6622189E-010  0.4778728E+02  0.7816164E-02  0.1312668E+00
        -11   -1    0    0    0    0  0.00000000000E+00  0.00000000000E+00  0.45593999997E+02  0.45594000000E+02  0.51100000000E-03 0. -1.
         11   -1    0    0    0    0 -0.00000000000E+00 -0.00000000000E+00 -0.45593999997E+02  0.45594000000E+02  0.51100000000E-03 0.  1.
    9900012    2    1    2    0    0  0.28313465549E+02 -0.54879470466E+01  0.32432283483E+02  0.47787275281E+02  0.20000019318E+02 0.  0.
        -12    1    1    2    0    0 -0.28313465549E+02  0.54879470466E+01 -0.32432283483E+02  0.43400724719E+02  0.00000000000E+00 0.  1.
         11    1    3    3    0    0  0.19175970907E+02 -0.99538642594E+01  0.12780599264E+02  0.25102609261E+02  0.51100000000E-03 0. -1.
        -11    1    3    3    0    0  0.64402462578E+01  0.50266487497E+01  0.16998789032E+02  0.18860084791E+02  0.51100000000E-03 0.  1.
         12    1    3    3    0    0  0.26972483836E+01 -0.56073153696E+00  0.26528951880E+01  0.38245812291E+01  0.00000000000E+00 0. -1.
</event>
<event>
 7    1  0.6622189E-010  0.4778726E+02  0.7816164E-02  0.1312668E+00
        -11   -1    0    0    0    0  0.00000000000E+00  0.00000000000E+00  0.45593999997E+02  0.45594000000E+02  0.51100000000E-03 0. -1.
         11   -1    0    0    0    0 -0.00000000000E+00 -0.00000000000E+00 -0.45593999997E+02  0.45594000000E+02  0.51100000000E-03 0.  1.
    9900012    2    1    2    0    0  0.64800595498E+01 -0.78135264161E+00 -0.42907143234E+02  0.47787255488E+02  0.19999929073E+02 0.  0.
         12    1    1    2    0    0 -0.64800595498E+01  0.78135264161E+00  0.42907143234E+02  0.43400744512E+02  0.00000000000E+00 0. -1.
         11    1    3    3    0    0  0.64745042646E+01  0.46779970612E+01 -0.52602868276E+01  0.95641768985E+01  0.51100000000E-03 0. -1.
        -11    1    3    3    0    0 -0.11011743341E+01 -0.22244974229E+01 -0.24977031898E+02  0.25100061681E+02  0.51100000000E-03 0.  1.
         12    1    3    3    0    0  0.11067296193E+01 -0.32348522799E+01 -0.12669824508E+02  0.13123016909E+02  0.00000000000E+00 0. -1.
</event>
<event>
 7    1  0.6622189E-010  0.4778727E+02  0.7816164E-02  0.1312668E+00
        -11   -1    0    0    0    0  0.00000000000E+00  0.00000000000E+00  0.45593999997E+02  0.45594000000E+02  0.51100000000E-03 0. -1.
         11   -1    0    0    0    0 -0.00000000000E+00 -0.00000000000E+00 -0.45593999997E+02  0.45594000000E+02  0.51100000000E-03 0.  1.
    9900012    2    1    2    0    0  0.41965474900E+01  0.46689952921E+01  0.42944296062E+02  0.47787273138E+02  0.20000009546E+02 0.  0.
        -12    1    1    2    0    0 -0.41965474900E+01 -0.46689952921E+01 -0.42944296062E+02  0.43400726862E+02  0.00000000000E+00 0.  1.
         11    1    3    3    0    0  0.91966177535E+01 -0.19354072997E+01  0.32755133199E+02  0.34076712439E+02  0.51100000000E-03 0. -1.
        -11    1    3    3    0    0 -0.25176966111E+01  0.99867503934E+00  0.15612980989E+01  0.31263077383E+01  0.51100000000E-03 0.  1.
        -12    1    3    3    0    0 -0.24823736524E+01  0.56057275524E+01  0.86278647640E+01  0.10584252960E+02  0.00000000000E+00 0.  1.
</event>
<event>
 7    1  0.6622189E-010  0.4778727E+02  0.7816164E-02  0.1312668E+00
        -11   -1    0    0    0    0  0.00000000000E+00  0.00000000000E+00  0.45593999997E+02  0.45594000000E+02  0.51100000000E-03 0.  1.
         11   -1    0    0    0    0 -0.00000000000E+00 -0.00000000000E+00 -0.45593999997E+02  0.45594000000E+02  0.51100000000E-03 0. -1.
    9900012    2    1    2    0    0  0.42047678224E+02 -0.62786395974E+01 -0.87289437572E+01  0.47787273989E+02  0.20000013423E+02 0.  0.
         12    1    1    2    0    0 -0.42047678224E+02  0.62786395974E+01  0.87289437572E+01  0.43400726011E+02  0.00000000000E+00 0. -1.
         11    1    3    3    0    0  0.37428907939E+01  0.38435858271E+01  0.10734634856E+01  0.54712619771E+01  0.51100000000E-03 0. -1.
        -11    1    3    3    0    0  0.32360954695E+02 -0.48786703023E+01 -0.10472944313E+02  0.34361539190E+02  0.51100000000E-03 0.  1.
        -12    1    3    3    0    0  0.59438327347E+01 -0.52435551223E+01  0.67053706988E+00  0.79544728210E+01  0.00000000000E+00 0.  1.
</event>
<event>
 7    1  0.6622189E-010  0.4778729E+02  0.7816164E-02  0.1312668E+00
        -11   -1    0    0    0    0  0.00000000000E+00  0.00000000000E+00  0.45593999997E+02  0.45594000000E+02  0.51100000000E-03 0. -1.
         11   -1    0    0    0    0 -0.00000000000E+00 -0.00000000000E+00 -0.45593999997E+02  0.45594000000E+02  0.51100000000E-03 0.  1.
    9900012    2    1    2    0    0 -0.10998081386E+02 -0.20131344176E+02 -0.36842812986E+02  0.47787289392E+02  0.20000083654E+02 0.  0.
         12    1    1    2    0    0  0.10998081386E+02  0.20131344176E+02  0.36842812986E+02  0.43400710608E+02  0.00000000000E+00 0. -1.
         11    1    3    3    0    0 -0.46156988258E+01 -0.18224995077E+02 -0.18133088510E+02  0.26120184157E+02  0.51100000000E-03 0. -1.
        -11    1    3    3    0    0 -0.10423370195E-01 -0.41232783164E-01 -0.12735571432E+02  0.12735642455E+02  0.51100000000E-03 0.  1.
         12    1    3    3    0    0 -0.63719591903E+01 -0.18651163163E+01 -0.59741530449E+01  0.89314627805E+01  0.00000000000E+00 0. -1.
</event>
<event>
 7    1  0.6622189E-010  0.4778727E+02  0.7816164E-02  0.1312668E+00
        -11   -1    0    0    0    0  0.00000000000E+00  0.00000000000E+00  0.45593999997E+02  0.45594000000E+02  0.51100000000E-03 0. -1.
         11   -1    0    0    0    0 -0.00000000000E+00 -0.00000000000E+00 -0.45593999997E+02  0.45594000000E+02  0.51100000000E-03 0.  1.
    9900012    2    1    2    0    0 -0.11527611954E+02  0.30949095691E+02  0.28158317792E+02  0.47787271638E+02  0.20000002707E+02 0.  0.
        -12    1    1    2    0    0  0.11527611954E+02 -0.30949095691E+02 -0.28158317792E+02  0.43400728362E+02  0.00000000000E+00 0.  1.
         11    1    3    3    0    0 -0.10469778375E+01  0.40078664830E+01  0.30049074093E+01  0.51174823046E+01  0.51100000000E-03 0. -1.
        -11    1    3    3    0    0 -0.71998364523E+01  0.22266429928E+02  0.27831076872E+02  0.36362073466E+02  0.51100000000E-03 0.  1.
        -12    1    3    3    0    0 -0.32807976642E+01  0.46747992808E+01 -0.26776664896E+01  0.63077158670E+01  0.00000000000E+00 0.  1.
</event>
<event>
 7    1  0.6622189E-010  0.4778727E+02  0.7816164E-02  0.1312668E+00
        -11   -1    0    0    0    0  0.00000000000E+00  0.00000000000E+00  0.45593999997E+02  0.45594000000E+02  0.51100000000E-03 0.  1.
         11   -1    0    0    0    0 -0.00000000000E+00 -0.00000000000E+00 -0.45593999997E+02  0.45594000000E+02  0.51100000000E-03 0. -1.
    9900012    2    1    2    0    0  0.55940701377E+01 -0.40487965863E+02 -0.14596373409E+02  0.47787272850E+02  0.20000008233E+02 0.  0.
         12    1    1    2    0    0 -0.55940701377E+01  0.40487965863E+02  0.14596373409E+02  0.43400727150E+02  0.00000000000E+00 0. -1.
         11    1    3    3    0    0  0.71733789203E+01 -0.24334729722E+02 -0.18838798946E+01  0.25439839613E+02  0.51100000000E-03 0.  1.
        -11    1    3    3    0    0 -0.48669977127E+01 -0.12199076251E+02 -0.80417519004E+01  0.15400483824E+02  0.51100000000E-03 0. -1.
         12    1    3    3    0    0  0.32876889302E+01 -0.39541598896E+01 -0.46707416136E+01  0.69469494136E+01  0.00000000000E+00 0. -1.
</event>
<event>
 7    1  0.6622189E-010  0.4778727E+02  0.7816164E-02  0.1312668E+00
        -11   -1    0    0    0    0  0.00000000000E+00  0.00000000000E+00  0.45593999997E+02  0.45594000000E+02  0.51100000000E-03 0. -1.
         11   -1    0    0    0    0 -0.00000000000E+00 -0.00000000000E+00 -0.45593999997E+02  0.45594000000E+02  0.51100000000E-03 0.  1.
    9900012    2    1    2    0    0  0.40696319144E+02  0.99988719707E+01  0.11289619364E+02  0.47787270306E+02  0.19999996635E+02 0.  0.
        -12    1    1    2    0    0 -0.40696319144E+02 -0.99988719707E+01 -0.11289619364E+02  0.43400729694E+02  0.00000000000E+00 0.  1.
         11    1    3    3    0    0  0.20923385782E+02  0.62534849597E+01  0.13754523168E+02  0.25808546153E+02  0.51100000000E-03 0. -1.
        -11    1    3    3    0    0  0.10375440392E+02  0.41780989114E+01 -0.49758339577E+01  0.12241944195E+02  0.51100000000E-03 0.  1.
        -12    1    3    3    0    0  0.93974929700E+01 -0.43271190043E+00  0.25109301543E+01  0.97367799579E+01  0.00000000000E+00 0.  1.
</event>
<event>
 7    1  0.6622189E-010  0.4778727E+02  0.7816164E-02  0.1312668E+00
        -11   -1    0    0    0    0  0.00000000000E+00  0.00000000000E+00  0.45593999997E+02  0.45594000000E+02  0.51100000000E-03 0. -1.
         11   -1    0    0    0    0 -0.00000000000E+00 -0.00000000000E+00 -0.45593999997E+02  0.45594000000E+02  0.51100000000E-03 0.  1.
    9900012    2    1    2    0    0 -0.18206323382E+02 -0.79825038897E+01  0.38580210816E+02  0.47787271365E+02  0.20000001463E+02 0.  0.
        -12    1    1    2    0    0  0.18206323382E+02  0.79825038897E+01 -0.38580210816E+02  0.43400728635E+02  0.00000000000E+00 0.  1.
         11    1    3    3    0    0 -0.13124362132E+02 -0.57396649752E+00  0.14810051957E+02  0.19796867382E+02  0.51100000000E-03 0. -1.
        -11    1    3    3    0    0 -0.28114436530E+01  0.27910888281E+01  0.40063460212E+01  0.56342879731E+01  0.51100000000E-03 0.  1.
         12    1    3    3    0    0 -0.22705175970E+01 -0.10199626220E+02  0.19763812837E+02  0.22356116010E+02  0.00000000000E+00 0. -1.
</event>
<event>
 7    1  0.6622189E-010  0.4778727E+02  0.7816164E-02  0.1312668E+00
        -11   -1    0    0    0    0  0.00000000000E+00  0.00000000000E+00  0.45593999997E+02  0.45594000000E+02  0.51100000000E-03 0. -1.
         11   -1    0    0    0    0 -0.00000000000E+00 -0.00000000000E+00 -0.45593999997E+02  0.45594000000E+02  0.51100000000E-03 0.  1.
    9900012    2    1    2    0    0  0.22093520485E+02 -0.11878370875E+02 -0.35417565336E+02  0.47787271016E+02  0.19999999870E+02 0.  0.
         12    1    1    2    0    0 -0.22093520485E+02  0.11878370875E+02  0.35417565336E+02  0.43400728984E+02  0.00000000000E+00 0. -1.
         11    1    3    3    0    0  0.16268199203E+02 -0.29427526664E+01 -0.27313364906E+02  0.31927010529E+02  0.51100000000E-03 0. -1.
        -11    1    3    3    0    0 -0.14198489621E+01 -0.50585294110E+01 -0.43718173060E+01  0.68350184854E+01  0.51100000000E-03 0.  1.
        -12    1    3    3    0    0  0.72451702434E+01 -0.38770887978E+01 -0.37323831232E+01  0.90252420012E+01  0.00000000000E+00 0.  1.
</event>
<event>
 7    1  0.6622189E-010  0.4778726E+02  0.7816164E-02  0.1312668E+00
        -11   -1    0    0    0    0  0.00000000000E+00  0.00000000000E+00  0.45593999997E+02  0.45594000000E+02  0.51100000000E-03 0. -1.
         11   -1    0    0    0    0 -0.00000000000E+00 -0.00000000000E+00 -0.45593999997E+02  0.45594000000E+02  0.51100000000E-03 0.  1.
    9900012    2    1    2    0    0  0.20044384018E+01 -0.14257565668E+02 -0.40942985845E+02  0.47787262196E+02  0.19999959655E+02 0.  0.
         12    1    1    2    0    0 -0.20044384018E+01  0.14257565668E+02  0.40942985845E+02  0.43400737804E+02  0.00000000000E+00 0. -1.
         11    1    3    3    0    0 -0.65774892429E+00  0.27050074889E+01 -0.57068272729E+01  0.63496123461E+01  0.51100000000E-03 0. -1.
        -11    1    3    3    0    0  0.33107810920E+01  0.10978650728E+01 -0.82730214084E+01  0.89782772647E+01  0.51100000000E-03 0.  1.
        -12    1    3    3    0    0 -0.64859376589E+00 -0.18060438230E+02 -0.26963137163E+02  0.32459372585E+02  0.00000000000E+00 0.  1.
</event>
<event>
 7    1  0.6622189E-010  0.4778727E+02  0.7816164E-02  0.1312668E+00
        -11   -1    0    0    0    0  0.00000000000E+00  0.00000000000E+00  0.45593999997E+02  0.45594000000E+02  0.51100000000E-03 0. -1.
         11   -1    0    0    0    0 -0.00000000000E+00 -0.00000000000E+00 -0.45593999997E+02  0.45594000000E+02  0.51100000000E-03 0.  1.
    9900012    2    1    2    0    0 -0.27294584480E+02  0.49975888027E+01 -0.33371444845E+02  0.47787267669E+02  0.19999984611E+02 0.  0.
         12    1    1    2    0    0  0.27294584480E+02 -0.49975888027E+01  0.33371444845E+02  0.43400732331E+02  0.00000000000E+00 0. -1.
         11    1    3    3    0    0 -0.44812285721E+00  0.68544304250E+01 -0.65564705006E+01  0.94958588991E+01  0.51100000000E-03 0. -1.
        -11    1    3    3    0    0 -0.16598036298E+02 -0.33354717566E+01 -0.15499195189E+02  0.22953109431E+02  0.51100000000E-03 0.  1.
        -12    1    3    3    0    0 -0.10248425325E+02  0.14786301343E+01 -0.11315779156E+02  0.15338299339E+02  0.00000000000E+00 0.  1.
</event>
<event>
 7    1  0.6622189E-010  0.4778727E+02  0.7816164E-02  0.1312668E+00
        -11   -1    0    0    0    0  0.00000000000E+00  0.00000000000E+00  0.45593999997E+02  0.45594000000E+02  0.51100000000E-03 0. -1.
         11   -1    0    0    0    0 -0.00000000000E+00 -0.00000000000E+00 -0.45593999997E+02  0.45594000000E+02  0.51100000000E-03 0.  1.
    9900012    2    1    2    0    0 -0.19683711981E+02  0.66004354135E+01  0.38113107358E+02  0.47787271694E+02  0.20000002963E+02 0.  0.
        -12    1    1    2    0    0  0.19683711981E+02 -0.66004354135E+01 -0.38113107358E+02  0.43400728306E+02  0.00000000000E+00 0.  1.
         11    1    3    3    0    0 -0.19628569084E+02  0.44337138199E+01  0.37264525937E+02  0.42350719428E+02  0.51100000000E-03 0. -1.
        -11    1    3    3    0    0  0.16266485114E+01  0.18013375470E+01  0.21786292771E+01  0.32614763722E+01  0.51100000000E-03 0.  1.
         12    1    3    3    0    0 -0.16817914090E+01  0.36538404656E+00 -0.13300478564E+01  0.21750758941E+01  0.00000000000E+00 0. -1.
</event>
<event>
 7    1  0.6622189E-010  0.4778727E+02  0.7816164E-02  0.1312668E+00
        -11   -1    0    0    0    0  0.00000000000E+00  0.00000000000E+00  0.45593999997E+02  0.45594000000E+02  0.51100000000E-03 0. -1.
         11   -1    0    0    0    0 -0.00000000000E+00 -0.00000000000E+00 -0.45593999997E+02  0.45594000000E+02  0.51100000000E-03 0.  1.
    9900012    2    1    2    0    0 -0.13952989850E+02 -0.27969690598E+01 -0.41001395343E+02  0.47787269802E+02  0.19999994335E+02 0.  0.
         12    1    1    2    0    0  0.13952989850E+02  0.27969690598E+01  0.41001395343E+02  0.43400730198E+02  0.00000000000E+00 0. -1.
         11    1    3    3    0    0 -0.95234712441E+01 -0.48677102315E+01 -0.38250595316E+02  0.39717743512E+02  0.51100000000E-03 0. -1.
        -11    1    3    3    0    0 -0.54706220338E+01  0.26894567724E+01 -0.30581537303E+01  0.68200577466E+01  0.51100000000E-03 0.  1.
         12    1    3    3    0    0  0.10411034276E+01 -0.61871560069E+00  0.30735370338E+00  0.12494685432E+01  0.00000000000E+00 0. -1.
</event>
<event>
 7    1  0.1174913E-009  0.4778727E+02  0.7816164E-02  0.1312668E+00
        -11   -1    0    0    0    0  0.00000000000E+00  0.00000000000E+00  0.45593999997E+02  0.45594000000E+02  0.51100000000E-03 0. -1.
         11   -1    0    0    0    0 -0.00000000000E+00 -0.00000000000E+00 -0.45593999997E+02  0.45594000000E+02  0.51100000000E-03 0.  1.
    9900012    2    1    2    0    0 -0.10722211229E+02 -0.54907819620E+01  0.41695431724E+02  0.47787268130E+02  0.19999986712E+02 0.  0.
        -12    1    1    2    0    0  0.10722211229E+02  0.54907819620E+01 -0.41695431724E+02  0.43400731870E+02  0.00000000000E+00 0.  1.
         11    1    3    3    0    0 -0.18640078642E+01 -0.57857251181E+01  0.25298560958E+02  0.26018576581E+02  0.51100000000E-03 0. -1.
        -11    1    3    3    0    0  0.89746429330E+00  0.20797582362E+01 -0.36325917771E+00  0.22940780218E+01  0.51100000000E-03 0.  1.
         12    1    3    3    0    0 -0.97556676586E+01 -0.17848150801E+01  0.16760129943E+02  0.19474613528E+02  0.00000000000E+00 0. -1.
</event>
<event>
 7    1  0.6622189E-010  0.4778727E+02  0.7816164E-02  0.1312668E+00
        -11   -1    0    0    0    0  0.00000000000E+00  0.00000000000E+00  0.45593999997E+02  0.45594000000E+02  0.51100000000E-03 0. -1.
         11   -1    0    0    0    0 -0.00000000000E+00 -0.00000000000E+00 -0.45593999997E+02  0.45594000000E+02  0.51100000000E-03 0.  1.
    9900012    2    1    2    0    0  0.30063451563E+02 -0.35591779084E+01  0.31098944712E+02  0.47787271557E+02  0.20000002336E+02 0.  0.
        -12    1    1    2    0    0 -0.30063451563E+02  0.35591779084E+01 -0.31098944712E+02  0.43400728443E+02  0.00000000000E+00 0.  1.
         11    1    3    3    0    0  0.15567049422E+02 -0.67160806127E+01  0.83905339367E+01  0.18916654739E+02  0.51100000000E-03 0.  1.
        -11    1    3    3    0    0  0.15177188440E+02  0.25384245253E+01  0.23191041563E+02  0.27831907176E+02  0.51100000000E-03 0. -1.
        -12    1    3    3    0    0 -0.68078629929E+00  0.61847817899E+00 -0.48263078790E+00  0.10387096421E+01  0.00000000000E+00 0.  1.
</event>
<event>
 7    1  0.6622189E-010  0.4778725E+02  0.7816164E-02  0.1312668E+00
        -11   -1    0    0    0    0  0.00000000000E+00  0.00000000000E+00  0.45593999997E+02  0.45594000000E+02  0.51100000000E-03 0. -1.
         11   -1    0    0    0    0 -0.00000000000E+00 -0.00000000000E+00 -0.45593999997E+02  0.45594000000E+02  0.51100000000E-03 0.  1.
    9900012    2    1    2    0    0  0.27721476182E+01 -0.24504165481E+02  0.35713953444E+02  0.47787246562E+02  0.19999888376E+02 0.  0.
        -12    1    1    2    0    0 -0.27721476182E+01  0.24504165481E+02 -0.35713953444E+02  0.43400753438E+02  0.00000000000E+00 0.  1.
         11    1    3    3    0    0  0.67319206433E+00 -0.12195216585E+02  0.27570491068E+02  0.30154742133E+02  0.51100000000E-03 0. -1.
        -11    1    3    3    0    0 -0.21760244347E+00 -0.11270893119E+02  0.26491127066E+01  0.11580076896E+02  0.51100000000E-03 0.  1.
        -12    1    3    3    0    0  0.23165579974E+01 -0.10380557765E+01  0.54943496694E+01  0.60524275328E+01  0.00000000000E+00 0.  1.
</event>
<event>
 7    1  0.6622189E-010  0.4778727E+02  0.7816164E-02  0.1312668E+00
        -11   -1    0    0    0    0  0.00000000000E+00  0.00000000000E+00  0.45593999997E+02  0.45594000000E+02  0.51100000000E-03 0. -1.
         11   -1    0    0    0    0 -0.00000000000E+00 -0.00000000000E+00 -0.45593999997E+02  0.45594000000E+02  0.51100000000E-03 0.  1.
    9900012    2    1    2    0    0  0.15894111333E+02 -0.24326179076E+01 -0.40312319511E+02  0.47787268332E+02  0.19999987635E+02 0.  0.
         12    1    1    2    0    0 -0.15894111333E+02  0.24326179076E+01  0.40312319511E+02  0.43400731668E+02  0.00000000000E+00 0. -1.
         11    1    3    3    0    0 -0.30136099468E+01 -0.82470430023E-01 -0.12619081237E+01  0.32681888956E+01  0.51100000000E-03 0. -1.
        -11    1    3    3    0    0  0.13006501097E+02 -0.61188694423E+01 -0.25973039829E+02  0.29685155082E+02  0.51100000000E-03 0.  1.
         12    1    3    3    0    0  0.59012201821E+01  0.37687219647E+01 -0.13077371558E+02  0.14833924355E+02  0.00000000000E+00 0. -1.
</event>
<event>
 7    1  0.6622189E-010  0.4778727E+02  0.7816164E-02  0.1312668E+00
        -11   -1    0    0    0    0  0.00000000000E+00  0.00000000000E+00  0.45593999997E+02  0.45594000000E+02  0.51100000000E-03 0. -1.
         11   -1    0    0    0    0 -0.00000000000E+00 -0.00000000000E+00 -0.45593999997E+02  0.45594000000E+02  0.51100000000E-03 0.  1.
    9900012    2    1    2    0    0  0.13297494457E+02  0.15845873025E+02  0.38153743288E+02  0.47787272153E+02  0.20000005053E+02 0.  0.
        -12    1    1    2    0    0 -0.13297494457E+02 -0.15845873025E+02 -0.38153743288E+02  0.43400727847E+02  0.00000000000E+00 0.  1.
         11    1    3    3    0    0  0.11930672202E+01  0.19933745966E+01  0.15751051546E+02  0.15921450209E+02  0.51100000000E-03 0. -1.
        -11    1    3    3    0    0  0.82901651427E+01  0.20356869638E+01  0.34489985516E+01  0.92068697600E+01  0.51100000000E-03 0.  1.
        -12    1    3    3    0    0  0.38142620943E+01  0.11816811465E+02  0.18953693190E+02  0.22658952184E+02  0.00000000000E+00 0.  1.
</event>
<event>
 7    1  0.6622189E-010  0.4778728E+02  0.7816164E-02  0.1312668E+00
        -11   -1    0    0    0    0  0.00000000000E+00  0.00000000000E+00  0.45593999997E+02  0.45594000000E+02  0.51100000000E-03 0.  1.
         11   -1    0    0    0    0 -0.00000000000E+00 -0.00000000000E+00 -0.45593999997E+02  0.45594000000E+02  0.51100000000E-03 0. -1.
    9900012    2    1    2    0    0  0.42456566734E+02  0.81805796848E+01 -0.37603836576E+01  0.47787280788E+02  0.20000044425E+02 0.  0.
         12    1    1    2    0    0 -0.42456566734E+02 -0.81805796848E+01  0.37603836576E+01  0.43400719212E+02  0.00000000000E+00 0. -1.
         11    1    3    3    0    0  0.66596724168E+01 -0.52104660161E+01  0.22748310951E+01  0.87564290425E+01  0.51100000000E-03 0. -1.
        -11    1    3    3    0    0  0.32323080527E+02  0.12559844496E+02 -0.68963869908E+01  0.35356631376E+02  0.51100000000E-03 0.  1.
         12    1    3    3    0    0  0.34738137910E+01  0.83120120485E+00  0.86117223816E+00  0.36742203691E+01  0.00000000000E+00 0. -1.
</event>
<event>
 7    1  0.6622189E-010  0.4778728E+02  0.7816164E-02  0.1312668E+00
        -11   -1    0    0    0    0  0.00000000000E+00  0.00000000000E+00  0.45593999997E+02  0.45594000000E+02  0.51100000000E-03 0. -1.
         11   -1    0    0    0    0 -0.00000000000E+00 -0.00000000000E+00 -0.45593999997E+02  0.45594000000E+02  0.51100000000E-03 0.  1.
    9900012    2    1    2    0    0 -0.31457742719E+01 -0.29300953092E+02 -0.31861905509E+02  0.47787276844E+02  0.20000026441E+02 0.  0.
         12    1    1    2    0    0  0.31457742719E+01  0.29300953092E+02  0.31861905509E+02  0.43400723156E+02  0.00000000000E+00 0. -1.
         11    1    3    3    0    0 -0.76138637452E+01 -0.54383833094E+01 -0.14418288561E+02  0.17188193024E+02  0.51100000000E-03 0. -1.
        -11    1    3    3    0    0  0.21377876660E+01 -0.11750762516E+02 -0.12563706269E+02  0.17334857118E+02  0.51100000000E-03 0.  1.
         12    1    3    3    0    0  0.23303018073E+01 -0.12111807266E+02 -0.48799106790E+01  0.13264226702E+02  0.00000000000E+00 0. -1.
</event>
<event>
 7    1  0.6622189E-010  0.4778727E+02  0.7816164E-02  0.1312668E+00
        -11   -1    0    0    0    0  0.00000000000E+00  0.00000000000E+00  0.45593999997E+02  0.45594000000E+02  0.51100000000E-03 0. -1.
         11   -1    0    0    0    0 -0.00000000000E+00 -0.00000000000E+00 -0.45593999997E+02  0.45594000000E+02  0.51100000000E-03 0.  1.
    9900012    2    1    2    0    0 -0.19019208653E+02  0.19884074598E+02 -0.33563618933E+02  0.47787271478E+02  0.20000001977E+02 0.  0.
         12    1    1    2    0    0  0.19019208653E+02 -0.19884074598E+02  0.33563618933E+02  0.43400728522E+02  0.00000000000E+00 0. -1.
         11    1    3    3    0    0 -0.11525563208E+02  0.54322920307E+01 -0.48702309001E+01  0.13640658095E+02  0.51100000000E-03 0. -1.
        -11    1    3    3    0    0  0.18280088081E+01  0.45622836704E+01 -0.72263006765E+01  0.87393060491E+01  0.51100000000E-03 0.  1.
         12    1    3    3    0    0 -0.93216542528E+01  0.98894988965E+01 -0.21467087356E+02  0.25407307334E+02  0.00000000000E+00 0. -1.
</event>
<event>
 7    1  0.6622189E-010  0.4778727E+02  0.7816164E-02  0.1312668E+00
        -11   -1    0    0    0    0  0.00000000000E+00  0.00000000000E+00  0.45593999997E+02  0.45594000000E+02  0.51100000000E-03 0. -1.
         11   -1    0    0    0    0 -0.00000000000E+00 -0.00000000000E+00 -0.45593999997E+02  0.45594000000E+02  0.51100000000E-03 0.  1.
    9900012    2    1    2    0    0  0.20821997404E+02 -0.19154056354E+02 -0.32911849226E+02  0.47787271087E+02  0.20000000192E+02 0.  0.
         12    1    1    2    0    0 -0.20821997404E+02  0.19154056354E+02  0.32911849226E+02  0.43400728913E+02  0.00000000000E+00 0. -1.
         11    1    3    3    0    0  0.94182184702E+01 -0.13393484932E+00 -0.37085758541E+01  0.10122959687E+02  0.51100000000E-03 0. -1.
        -11    1    3    3    0    0  0.62073562459E+01 -0.31808872247E+01 -0.68148288968E+01  0.97514721070E+01  0.51100000000E-03 0.  1.
         12    1    3    3    0    0  0.51964226879E+01 -0.15839234280E+02 -0.22388444475E+02  0.27912839293E+02  0.00000000000E+00 0. -1.
</event>
<event>
 7    1  0.6622189E-010  0.4778727E+02  0.7816164E-02  0.1312668E+00
        -11   -1    0    0    0    0  0.00000000000E+00  0.00000000000E+00  0.45593999997E+02  0.45594000000E+02  0.51100000000E-03 0. -1.
         11   -1    0    0    0    0 -0.00000000000E+00 -0.00000000000E+00 -0.45593999997E+02  0.45594000000E+02  0.51100000000E-03 0.  1.
    9900012    2    1    2    0    0  0.59078918030E+01 -0.25555268625E+00 -0.42995985355E+02  0.47787271326E+02  0.20000001285E+02 0.  0.
         12    1    1    2    0    0 -0.59078918030E+01  0.25555268625E+00  0.42995985355E+02  0.43400728674E+02  0.00000000000E+00 0. -1.
         11    1    3    3    0    0  0.79452253191E+01 -0.24923880788E+01 -0.71749334168E+01  0.10991736601E+02  0.51100000000E-03 0. -1.
        -11    1    3    3    0    0 -0.23981720586E+01 -0.49677965956E+00 -0.31945250595E+02  0.32038992729E+02  0.51100000000E-03 0.  1.
         12    1    3    3    0    0  0.36083854248E+00  0.27336150521E+01 -0.38758013432E+01  0.47565419959E+01  0.00000000000E+00 0. -1.
</event>
<event>
 7    1  0.6622189E-010  0.4778727E+02  0.7816164E-02  0.1312668E+00
        -11   -1    0    0    0    0  0.00000000000E+00  0.00000000000E+00  0.45593999997E+02  0.45594000000E+02  0.51100000000E-03 0.  1.
         11   -1    0    0    0    0 -0.00000000000E+00 -0.00000000000E+00 -0.45593999997E+02  0.45594000000E+02  0.51100000000E-03 0. -1.
    9900012    2    1    2    0    0 -0.29663070777E+02  0.20086645833E+02  0.24500046304E+02  0.47787269849E+02  0.19999994551E+02 0.  0.
        -12    1    1    2    0    0  0.29663070777E+02 -0.20086645833E+02 -0.24500046304E+02  0.43400730151E+02  0.00000000000E+00 0.  1.
         11    1    3    3    0    0 -0.29534236520E+01  0.42129221526E+00  0.60007249363E+00  0.30430717470E+01  0.51100000000E-03 0. -1.
        -11    1    3    3    0    0 -0.84443243176E+01  0.12945297740E+02  0.22276727886E+01  0.15615693166E+02  0.51100000000E-03 0.  1.
        -12    1    3    3    0    0 -0.18265322807E+02  0.67200558784E+01  0.21672301021E+02  0.29128504936E+02  0.00000000000E+00 0.  1.
</event>
<event>
 7    1  0.6622189E-010  0.4778727E+02  0.7816164E-02  0.1312668E+00
        -11   -1    0    0    0    0  0.00000000000E+00  0.00000000000E+00  0.45593999997E+02  0.45594000000E+02  0.51100000000E-03 0. -1.
         11   -1    0    0    0    0 -0.00000000000E+00 -0.00000000000E+00 -0.45593999997E+02  0.45594000000E+02  0.51100000000E-03 0.  1.
    9900012    2    1    2    0    0  0.16421808412E+02  0.27953964139E+01  0.40076594345E+02  0.47787269051E+02  0.19999990912E+02 0.  0.
        -12    1    1    2    0    0 -0.16421808412E+02 -0.27953964139E+01 -0.40076594345E+02  0.43400730949E+02  0.00000000000E+00 0.  1.
         11    1    3    3    0    0  0.10562115027E+02  0.34990556232E+01  0.16229956084E+02  0.19677732055E+02  0.51100000000E-03 0. -1.
        -11    1    3    3    0    0  0.25778586971E+01 -0.38960910421E+01  0.22979677060E+02  0.23449742832E+02  0.51100000000E-03 0.  1.
        -12    1    3    3    0    0  0.32818346880E+01  0.31924318328E+01  0.86696120127E+00  0.46597941640E+01  0.00000000000E+00 0.  1.
</event>
<event>
 7    1  0.6622189E-010  0.4778728E+02  0.7816164E-02  0.1312668E+00
        -11   -1    0    0    0    0  0.00000000000E+00  0.00000000000E+00  0.45593999997E+02  0.45594000000E+02  0.51100000000E-03 0. -1.
         11   -1    0    0    0    0 -0.00000000000E+00 -0.00000000000E+00 -0.45593999997E+02  0.45594000000E+02  0.51100000000E-03 0.  1.
    9900012    2    1    2    0    0  0.34029058912E+02  0.58819336570E+01  0.26287806613E+02  0.47787276843E+02  0.20000026439E+02 0.  0.
        -12    1    1    2    0    0 -0.34029058912E+02 -0.58819336570E+01 -0.26287806613E+02  0.43400723157E+02  0.00000000000E+00 0.  1.
         11    1    3    3    0    0  0.23838486470E+01  0.12454170579E+01  0.12041060172E+00  0.26922661447E+01  0.51100000000E-03 0. -1.
        -11    1    3    3    0    0  0.15329463379E+02 -0.48435504300E+01  0.52225148531E+01  0.16903463844E+02  0.51100000000E-03 0.  1.
        -12    1    3    3    0    0  0.16315746886E+02  0.94800670291E+01  0.20944881159E+02  0.28191546855E+02  0.00000000000E+00 0.  1.
</event>
<event>
 7    1  0.6622189E-010  0.4778727E+02  0.7816164E-02  0.1312668E+00
        -11   -1    0    0    0    0  0.00000000000E+00  0.00000000000E+00  0.45593999997E+02  0.45594000000E+02  0.51100000000E-03 0. -1.
         11   -1    0    0    0    0 -0.00000000000E+00 -0.00000000000E+00 -0.45593999997E+02  0.45594000000E+02  0.51100000000E-03 0.  1.
    9900012    2    1    2    0    0  0.15261561994E+02 -0.24762824500E+02 -0.32210412203E+02  0.47787269522E+02  0.19999993059E+02 0.  0.
         12    1    1    2    0    0 -0.15261561994E+02  0.24762824500E+02  0.32210412203E+02  0.43400730478E+02  0.00000000000E+00 0. -1.
         11    1    3    3    0    0  0.92859574093E+00 -0.21312354067E+01 -0.14159098022E+02  0.14348676297E+02  0.51100000000E-03 0. -1.
        -11    1    3    3    0    0  0.91462376142E+01 -0.12290633602E+02 -0.52755519780E+01  0.16203233806E+02  0.51100000000E-03 0.  1.
         12    1    3    3    0    0  0.51867286388E+01 -0.10340955492E+02 -0.12775762203E+02  0.17235359420E+02  0.00000000000E+00 0. -1.
</event>
<event>
 7    1  0.6622189E-010  0.4778728E+02  0.7816164E-02  0.1312668E+00
        -11   -1    0    0    0    0  0.00000000000E+00  0.00000000000E+00  0.45593999997E+02  0.45594000000E+02  0.51100000000E-03 0. -1.
         11   -1    0    0    0    0 -0.00000000000E+00 -0.00000000000E+00 -0.45593999997E+02  0.45594000000E+02  0.51100000000E-03 0.  1.
    9900012    2    1    2    0    0  0.37581628483E+02 -0.14418703911E+02 -0.16227906781E+02  0.47787276730E+02  0.20000025922E+02 0.  0.
         12    1    1    2    0    0 -0.37581628483E+02  0.14418703911E+02  0.16227906781E+02  0.43400723270E+02  0.00000000000E+00 0. -1.
         11    1    3    3    0    0 -0.22798301572E+00 -0.20011290115E+01 -0.42019516170E+01  0.46597093503E+01  0.51100000000E-03 0. -1.
        -11    1    3    3    0    0  0.31467971422E+02 -0.14199295675E+02 -0.81054394745E+01  0.35461970791E+02  0.51100000000E-03 0.  1.
         12    1    3    3    0    0  0.63416400766E+01  0.17817207757E+01 -0.39205156898E+01  0.76655965885E+01  0.00000000000E+00 0. -1.
</event>
<event>
 7    1  0.6622189E-010  0.4778729E+02  0.7816164E-02  0.1312668E+00
        -11   -1    0    0    0    0  0.00000000000E+00  0.00000000000E+00  0.45593999997E+02  0.45594000000E+02  0.51100000000E-03 0. -1.
         11   -1    0    0    0    0 -0.00000000000E+00 -0.00000000000E+00 -0.45593999997E+02  0.45594000000E+02  0.51100000000E-03 0.  1.
    9900012    2    1    2    0    0 -0.14794932630E+02 -0.10184067861E+02 -0.39509701771E+02  0.47787287981E+02  0.20000077220E+02 0.  0.
         12    1    1    2    0    0  0.14794932630E+02  0.10184067861E+02  0.39509701771E+02  0.43400712019E+02  0.00000000000E+00 0. -1.
         11    1    3    3    0    0 -0.76743420429E+01 -0.14848979299E+02 -0.20090276513E+02  0.26134401135E+02  0.51100000000E-03 0. -1.
        -11    1    3    3    0    0 -0.76722344392E+00  0.24467483718E+01 -0.79691669507E+01  0.83715489342E+01  0.51100000000E-03 0.  1.
         12    1    3    3    0    0 -0.63533671428E+01  0.22181630660E+01 -0.11450258307E+02  0.13281337912E+02  0.00000000000E+00 0. -1.
</event>
<event>
 7    1  0.6622189E-010  0.4778728E+02  0.7816164E-02  0.1312668E+00
        -11   -1    0    0    0    0  0.00000000000E+00  0.00000000000E+00  0.45593999997E+02  0.45594000000E+02  0.51100000000E-03 0. -1.
         11   -1    0    0    0    0 -0.00000000000E+00 -0.00000000000E+00 -0.45593999997E+02  0.45594000000E+02  0.51100000000E-03 0.  1.
    9900012    2    1    2    0    0 -0.11543934463E+02  0.35568580505E+02  0.22028079541E+02  0.47787278458E+02  0.20000033804E+02 0.  0.
        -12    1    1    2    0    0  0.11543934463E+02 -0.35568580505E+02 -0.22028079541E+02  0.43400721542E+02  0.00000000000E+00 0.  1.
         11    1    3    3    0    0 -0.20655338101E+01  0.19849785636E+02  0.10565420021E+02  0.22581154094E+02  0.51100000000E-03 0. -1.
        -11    1    3    3    0    0 -0.37982084511E+01 -0.11073092897E+01  0.48428114059E+01  0.62534265707E+01  0.51100000000E-03 0.  1.
        -12    1    3    3    0    0 -0.56801922019E+01  0.16826104159E+02  0.66198481144E+01  0.18952697794E+02  0.00000000000E+00 0.  1.
</event>
<event>
 7    1  0.6622189E-010  0.4778727E+02  0.7816164E-02  0.1312668E+00
        -11   -1    0    0    0    0  0.00000000000E+00  0.00000000000E+00  0.45593999997E+02  0.45594000000E+02  0.51100000000E-03 0. -1.
         11   -1    0    0    0    0 -0.00000000000E+00 -0.00000000000E+00 -0.45593999997E+02  0.45594000000E+02  0.51100000000E-03 0.  1.
    9900012    2    1    2    0    0 -0.14540232478E+01 -0.29904824178E+02 -0.31419908536E+02  0.47787270223E+02  0.19999996256E+02 0.  0.
         12    1    1    2    0    0  0.14540232478E+01  0.29904824178E+02  0.31419908536E+02  0.43400729777E+02  0.00000000000E+00 0. -1.
         11    1    3    3    0    0 -0.49307273941E+01 -0.16024106152E+01 -0.12286342970E+01  0.53281643097E+01  0.51100000000E-03 0. -1.
        -11    1    3    3    0    0  0.28873085599E+01 -0.18408000082E+02 -0.25258334045E+02  0.31387488857E+02  0.51100000000E-03 0.  1.
        -12    1    3    3    0    0  0.58939558643E+00 -0.98944134813E+01 -0.49329401938E+01  0.11071617057E+02  0.00000000000E+00 0.  1.
</event>
<event>
 7    1  0.6622189E-010  0.4778728E+02  0.7816164E-02  0.1312668E+00
        -11   -1    0    0    0    0  0.00000000000E+00  0.00000000000E+00  0.45593999997E+02  0.45594000000E+02  0.51100000000E-03 0. -1.
         11   -1    0    0    0    0 -0.00000000000E+00 -0.00000000000E+00 -0.45593999997E+02  0.45594000000E+02  0.51100000000E-03 0.  1.
    9900012    2    1    2    0    0 -0.12700063247E+01  0.22226281980E+02 -0.37255902665E+02  0.47787276387E+02  0.20000024359E+02 0.  0.
         12    1    1    2    0    0  0.12700063247E+01 -0.22226281980E+02  0.37255902665E+02  0.43400723613E+02  0.00000000000E+00 0. -1.
         11    1    3    3    0    0  0.60495344229E+01  0.64417860967E+01 -0.50857311392E+01  0.10195986285E+02  0.51100000000E-03 0. -1.
        -11    1    3    3    0    0 -0.93394345384E+01  0.12983038126E+02 -0.26441373923E+02  0.30901950937E+02  0.51100000000E-03 0.  1.
        -12    1    3    3    0    0  0.20198937908E+01  0.28014577577E+01 -0.57287976027E+01  0.66893391652E+01  0.00000000000E+00 0.  1.
</event>
<event>
 7    1  0.6622189E-010  0.4778727E+02  0.7816164E-02  0.1312668E+00
        -11   -1    0    0    0    0  0.00000000000E+00  0.00000000000E+00  0.45593999997E+02  0.45594000000E+02  0.51100000000E-03 0.  1.
         11   -1    0    0    0    0 -0.00000000000E+00 -0.00000000000E+00 -0.45593999997E+02  0.45594000000E+02  0.51100000000E-03 0. -1.
    9900012    2    1    2    0    0 -0.86505791178E+01  0.41782324257E+02  0.79390395645E+01  0.47787268571E+02  0.19999988722E+02 0.  0.
        -12    1    1    2    0    0  0.86505791178E+01 -0.41782324257E+02 -0.79390395645E+01  0.43400731429E+02  0.00000000000E+00 0.  1.
         11    1    3    3    0    0 -0.46502603667E+01  0.84749941195E+01 -0.55752525445E+01  0.11159475256E+02  0.51100000000E-03 0. -1.
        -11    1    3    3    0    0 -0.17812616674E+01  0.27761612959E+02  0.12765589442E+02  0.30607847380E+02  0.51100000000E-03 0.  1.
         12    1    3    3    0    0 -0.22190570837E+01  0.55457171785E+01  0.74870266712E+00  0.60199459340E+01  0.00000000000E+00 0. -1.
</event>
<event>
 7    1  0.7091869E-010  0.4778727E+02  0.7816164E-02  0.1312668E+00
        -11   -1    0    0    0    0  0.00000000000E+00  0.00000000000E+00  0.45593999997E+02  0.45594000000E+02  0.51100000000E-03 0. -1.
         11   -1    0    0    0    0 -0.00000000000E+00 -0.00000000000E+00 -0.45593999997E+02  0.45594000000E+02  0.51100000000E-03 0.  1.
    9900012    2    1    2    0    0  0.25549771149E+01 -0.11494449699E+02 -0.41772879298E+02  0.47787265827E+02  0.19999976210E+02 0.  0.
         12    1    1    2    0    0 -0.25549771149E+01  0.11494449699E+02  0.41772879298E+02  0.43400734173E+02  0.00000000000E+00 0. -1.
         11    1    3    3    0    0  0.97378873657E+00  0.40619473387E+01 -0.13214285298E+02  0.13858752357E+02  0.51100000000E-03 0. -1.
        -11    1    3    3    0    0  0.56134456596E+01 -0.96701292665E+01 -0.17202527107E+02  0.20517044410E+02  0.51100000000E-03 0.  1.
        -12    1    3    3    0    0 -0.40322572812E+01 -0.58862677713E+01 -0.11356066893E+02  0.13411469060E+02  0.00000000000E+00 0.  1.
</event>
<event>
 7    1  0.6622189E-010  0.4778726E+02  0.7816164E-02  0.1312668E+00
        -11   -1    0    0    0    0  0.00000000000E+00  0.00000000000E+00  0.45593999997E+02  0.45594000000E+02  0.51100000000E-03 0. -1.
         11   -1    0    0    0    0 -0.00000000000E+00 -0.00000000000E+00 -0.45593999997E+02  0.45594000000E+02  0.51100000000E-03 0.  1.
    9900012    2    1    2    0    0  0.33865953210E+02  0.14055854736E+02  0.23219702952E+02  0.47787257560E+02  0.19999938519E+02 0.  0.
        -12    1    1    2    0    0 -0.33865953210E+02 -0.14055854736E+02 -0.23219702952E+02  0.43400742440E+02  0.00000000000E+00 0.  1.
         11    1    3    3    0    0  0.19788014195E+02  0.97806849758E+01  0.10879815721E+02  0.24608894627E+02  0.51100000000E-03 0. -1.
        -11    1    3    3    0    0  0.13199897540E+01 -0.12366072409E+01  0.85974150627E+01  0.87856198666E+01  0.51100000000E-03 0.  1.
        -12    1    3    3    0    0  0.12757949261E+02  0.55117770014E+01  0.37424721680E+01  0.14392743067E+02  0.00000000000E+00 0.  1.
</event>
<event>
 7    1  0.6622189E-010  0.4778726E+02  0.7816164E-02  0.1312668E+00
        -11   -1    0    0    0    0  0.00000000000E+00  0.00000000000E+00  0.45593999997E+02  0.45594000000E+02  0.51100000000E-03 0.  1.
         11   -1    0    0    0    0 -0.00000000000E+00 -0.00000000000E+00 -0.45593999997E+02  0.45594000000E+02  0.51100000000E-03 0. -1.
    9900012    2    1    2    0    0  0.30678067615E+02  0.85985078107E+01 -0.29471101064E+02  0.47787263058E+02  0.19999963588E+02 0.  0.
         12    1    1    2    0    0 -0.30678067615E+02 -0.85985078107E+01  0.29471101064E+02  0.43400736942E+02  0.00000000000E+00 0. -1.
         11    1    3    3    0    0 -0.29302934149E+01  0.23419376830E+00 -0.28192939620E+01  0.40730682445E+01  0.51100000000E-03 0. -1.
        -11    1    3    3    0    0  0.21481057096E+02  0.53383825369E+01 -0.16386242786E+02  0.27539845587E+02  0.51100000000E-03 0.  1.
         12    1    3    3    0    0  0.12127303934E+02  0.30259315055E+01 -0.10265564316E+02  0.16174349227E+02  0.00000000000E+00 0. -1.
</event>
<event>
 7    1  0.6622189E-010  0.4778727E+02  0.7816164E-02  0.1312668E+00
        -11   -1    0    0    0    0  0.00000000000E+00  0.00000000000E+00  0.45593999997E+02  0.45594000000E+02  0.51100000000E-03 0. -1.
         11   -1    0    0    0    0 -0.00000000000E+00 -0.00000000000E+00 -0.45593999997E+02  0.45594000000E+02  0.51100000000E-03 0.  1.
    9900012    2    1    2    0    0 -0.34821740127E+01 -0.32566841485E+01 -0.43138058815E+02  0.47787266760E+02  0.19999980464E+02 0.  0.
         12    1    1    2    0    0  0.34821740127E+01  0.32566841485E+01  0.43138058815E+02  0.43400733240E+02  0.00000000000E+00 0. -1.
         11    1    3    3    0    0  0.12008974980E+01  0.58717591529E+01 -0.19338772194E+02  0.20246180395E+02  0.51100000000E-03 0. -1.
        -11    1    3    3    0    0 -0.30237544555E+00 -0.35218137092E+01 -0.10237546693E+01  0.36800375808E+01  0.51100000000E-03 0.  1.
         12    1    3    3    0    0 -0.43806960652E+01 -0.56066295921E+01 -0.22775531952E+02  0.23861048784E+02  0.00000000000E+00 0. -1.
</event>
<event>
 7    1  0.6622189E-010  0.4778726E+02  0.7816164E-02  0.1312668E+00
        -11   -1    0    0    0    0  0.00000000000E+00  0.00000000000E+00  0.45593999997E+02  0.45594000000E+02  0.51100000000E-03 0. -1.
         11   -1    0    0    0    0 -0.00000000000E+00 -0.00000000000E+00 -0.45593999997E+02  0.45594000000E+02  0.51100000000E-03 0.  1.
    9900012    2    1    2    0    0  0.24103797179E+02  0.13976149493E+02 -0.33276092977E+02  0.47787260872E+02  0.19999953619E+02 0.  0.
         12    1    1    2    0    0 -0.24103797179E+02 -0.13976149493E+02  0.33276092977E+02  0.43400739128E+02  0.00000000000E+00 0. -1.
         11    1    3    3    0    0 -0.21094195684E+01  0.15174271958E+01 -0.21680180079E+01  0.33841599480E+01  0.51100000000E-03 0. -1.
        -11    1    3    3    0    0  0.19640246175E+02  0.58649029155E+01 -0.13676877497E+02  0.24641293277E+02  0.51100000000E-03 0.  1.
        -12    1    3    3    0    0  0.65729705722E+01  0.65938193812E+01 -0.17431197472E+02  0.19761807647E+02  0.00000000000E+00 0.  1.
</event>
<event>
 7    1  0.6622189E-010  0.4778727E+02  0.7816164E-02  0.1312668E+00
        -11   -1    0    0    0    0  0.00000000000E+00  0.00000000000E+00  0.45593999997E+02  0.45594000000E+02  0.51100000000E-03 0. -1.
         11   -1    0    0    0    0 -0.00000000000E+00 -0.00000000000E+00 -0.45593999997E+02  0.45594000000E+02  0.51100000000E-03 0.  1.
    9900012    2    1    2    0    0 -0.22870968336E+02 -0.26496896504E+02  0.25660404272E+02  0.47787273458E+02  0.20000011004E+02 0.  0.
        -12    1    1    2    0    0  0.22870968336E+02  0.26496896504E+02 -0.25660404272E+02  0.43400726542E+02  0.00000000000E+00 0.  1.
         11    1    3    3    0    0 -0.69738742390E+00 -0.11074502336E+02  0.27002501903E+01  0.11420258428E+02  0.51100000000E-03 0. -1.
        -11    1    3    3    0    0 -0.30121966177E+01 -0.10690049327E+00  0.54519884422E+01  0.62296817265E+01  0.51100000000E-03 0.  1.
         12    1    3    3    0    0 -0.19161384294E+02 -0.15315493674E+02  0.17508165640E+02  0.30137333303E+02  0.00000000000E+00 0. -1.
</event>
<event>
 7    1  0.6622189E-010  0.4778727E+02  0.7816164E-02  0.1312668E+00
        -11   -1    0    0    0    0  0.00000000000E+00  0.00000000000E+00  0.45593999997E+02  0.45594000000E+02  0.51100000000E-03 0. -1.
         11   -1    0    0    0    0 -0.00000000000E+00 -0.00000000000E+00 -0.45593999997E+02  0.45594000000E+02  0.51100000000E-03 0.  1.
    9900012    2    1    2    0    0  0.16077119505E+02  0.29310453016E+02  0.27677552028E+02  0.47787270584E+02  0.19999997901E+02 0.  0.
        -12    1    1    2    0    0 -0.16077119505E+02 -0.29310453016E+02 -0.27677552028E+02  0.43400729416E+02  0.00000000000E+00 0.  1.
         11    1    3    3    0    0  0.12616708813E+02  0.16078453605E+02  0.26550881398E+02  0.33505929548E+02  0.51100000000E-03 0. -1.
        -11    1    3    3    0    0 -0.13011701725E+00  0.70495767690E+01  0.10713294287E+01  0.71317045695E+01  0.51100000000E-03 0.  1.
         12    1    3    3    0    0  0.35905277099E+01  0.61824226415E+01  0.55341200995E-01  0.71496364664E+01  0.00000000000E+00 0. -1.
</event>
<event>
 7    1  0.6622189E-010  0.4778727E+02  0.7816164E-02  0.1312668E+00
        -11   -1    0    0    0    0  0.00000000000E+00  0.00000000000E+00  0.45593999997E+02  0.45594000000E+02  0.51100000000E-03 0. -1.
         11   -1    0    0    0    0 -0.00000000000E+00 -0.00000000000E+00 -0.45593999997E+02  0.45594000000E+02  0.51100000000E-03 0.  1.
    9900012    2    1    2    0    0 -0.37886502891E+02  0.62320602535E+01  0.20233575899E+02  0.47787271089E+02  0.20000000204E+02 0.  0.
        -12    1    1    2    0    0  0.37886502891E+02 -0.62320602535E+01 -0.20233575899E+02  0.43400728911E+02  0.00000000000E+00 0.  1.
         11    1    3    3    0    0 -0.31327598133E+02  0.34708756648E+01  0.19302557216E+02  0.36960169074E+02  0.51100000000E-03 0. -1.
        -11    1    3    3    0    0  0.13687374085E+01 -0.12099997696E+01 -0.37436449782E+00  0.18648567168E+01  0.51100000000E-03 0.  1.
         12    1    3    3    0    0 -0.79276421670E+01  0.39711843582E+01  0.13053831805E+01  0.89622452981E+01  0.00000000000E+00 0. -1.
</event>
<event>
 7    1  0.6622189E-010  0.4778727E+02  0.7816164E-02  0.1312668E+00
        -11   -1    0    0    0    0  0.00000000000E+00  0.00000000000E+00  0.45593999997E+02  0.45594000000E+02  0.51100000000E-03 0. -1.
         11   -1    0    0    0    0 -0.00000000000E+00 -0.00000000000E+00 -0.45593999997E+02  0.45594000000E+02  0.51100000000E-03 0.  1.
    9900012    2    1    2    0    0 -0.27817003166E+02 -0.94318452783E+01 -0.31951187541E+02  0.47787265493E+02  0.19999974688E+02 0.  0.
         12    1    1    2    0    0  0.27817003166E+02  0.94318452783E+01  0.31951187541E+02  0.43400734507E+02  0.00000000000E+00 0. -1.
         11    1    3    3    0    0 -0.10185722253E+02 -0.10299754930E+02 -0.20697170164E+02  0.25262754056E+02  0.51100000000E-03 0. -1.
        -11    1    3    3    0    0 -0.87717299644E+01 -0.25976814825E+01 -0.88137121649E+01  0.12703256198E+02  0.51100000000E-03 0.  1.
         12    1    3    3    0    0 -0.88595509491E+01  0.34655911343E+01 -0.24403052113E+01  0.98212552382E+01  0.00000000000E+00 0. -1.
</event>
<event>
 7    1  0.6622189E-010  0.4778727E+02  0.7816164E-02  0.1312668E+00
        -11   -1    0    0    0    0  0.00000000000E+00  0.00000000000E+00  0.45593999997E+02  0.45594000000E+02  0.51100000000E-03 0. -1.
         11   -1    0    0    0    0 -0.00000000000E+00 -0.00000000000E+00 -0.45593999997E+02  0.45594000000E+02  0.51100000000E-03 0.  1.
    9900012    2    1    2    0    0 -0.27496663569E+02 -0.82971339977E+01 -0.32537889872E+02  0.47787271696E+02  0.20000002972E+02 0.  0.
         12    1    1    2    0    0  0.27496663569E+02  0.82971339977E+01  0.32537889872E+02  0.43400728304E+02  0.00000000000E+00 0. -1.
         11    1    3    3    0    0  0.16129830566E+01 -0.34324471302E+01 -0.78597754663E+01  0.87269398007E+01  0.51100000000E-03 0. -1.
        -11    1    3    3    0    0  0.36771269792E+00 -0.21709952463E+00 -0.24496397072E+00  0.49229304268E+00  0.51100000000E-03 0.  1.
         12    1    3    3    0    0 -0.29477359324E+02 -0.46475873428E+01 -0.24433150435E+02  0.38568038853E+02  0.00000000000E+00 0. -1.
</event>
<event>
 7    1  0.6622189E-010  0.4778727E+02  0.7816164E-02  0.1312668E+00
        -11   -1    0    0    0    0  0.00000000000E+00  0.00000000000E+00  0.45593999997E+02  0.45594000000E+02  0.51100000000E-03 0. -1.
         11   -1    0    0    0    0 -0.00000000000E+00 -0.00000000000E+00 -0.45593999997E+02  0.45594000000E+02  0.51100000000E-03 0.  1.
    9900012    2    1    2    0    0  0.23916652329E+01 -0.28778065124E+02  0.32399475680E+02  0.47787272826E+02  0.20000008123E+02 0.  0.
        -12    1    1    2    0    0 -0.23916652329E+01  0.28778065124E+02 -0.32399475680E+02  0.43400727174E+02  0.00000000000E+00 0.  1.
         11    1    3    3    0    0 -0.18062771825E+00 -0.10568151844E+02  0.15142963237E+02  0.18466937906E+02  0.51100000000E-03 0. -1.
        -11    1    3    3    0    0  0.69960631270E+01 -0.42329987001E+01  0.25757498835E+01  0.85730779184E+01  0.51100000000E-03 0.  1.
        -12    1    3    3    0    0 -0.44237701759E+01 -0.13976914580E+02  0.14680762560E+02  0.20747257001E+02  0.00000000000E+00 0.  1.
</event>
<event>
 7    1  0.6622189E-010  0.4778728E+02  0.7816164E-02  0.1312668E+00
        -11   -1    0    0    0    0  0.00000000000E+00  0.00000000000E+00  0.45593999997E+02  0.45594000000E+02  0.51100000000E-03 0.  1.
         11   -1    0    0    0    0 -0.00000000000E+00 -0.00000000000E+00 -0.45593999997E+02  0.45594000000E+02  0.51100000000E-03 0. -1.
    9900012    2    1    2    0    0 -0.40561800985E+02  0.13676071563E+02  0.71643621234E+01  0.47787277458E+02  0.20000029243E+02 0.  0.
        -12    1    1    2    0    0  0.40561800985E+02 -0.13676071563E+02 -0.71643621234E+01  0.43400722542E+02  0.00000000000E+00 0.  1.
         11    1    3    3    0    0 -0.10612779045E+02  0.23306469601E+01  0.37176067862E+00  0.10872037554E+02  0.51100000000E-03 0. -1.
        -11    1    3    3    0    0 -0.18784209797E+02  0.15085296964E+02  0.19062330748E+01  0.24167052923E+02  0.51100000000E-03 0.  1.
        -12    1    3    3    0    0 -0.11164812142E+02 -0.37398723614E+01  0.48863683700E+01  0.12748186981E+02  0.00000000000E+00 0.  1.
</event>
<event>
 7    1  0.6622189E-010  0.4778727E+02  0.7816164E-02  0.1312668E+00
        -11   -1    0    0    0    0  0.00000000000E+00  0.00000000000E+00  0.45593999997E+02  0.45594000000E+02  0.51100000000E-03 0. -1.
         11   -1    0    0    0    0 -0.00000000000E+00 -0.00000000000E+00 -0.45593999997E+02  0.45594000000E+02  0.51100000000E-03 0.  1.
    9900012    2    1    2    0    0  0.44789266340E+01  0.24243540957E+02  0.35718531555E+02  0.47787267767E+02  0.19999985056E+02 0.  0.
        -12    1    1    2    0    0 -0.44789266340E+01 -0.24243540957E+02 -0.35718531555E+02  0.43400732233E+02  0.00000000000E+00 0.  1.
         11    1    3    3    0    0 -0.37156196545E+00  0.11126452230E+01  0.52042830148E+01  0.53348476684E+01  0.51100000000E-03 0. -1.
        -11    1    3    3    0    0  0.85886864128E+00  0.10358466575E+02  0.15009288480E+01  0.10501822356E+02  0.51100000000E-03 0.  1.
        -12    1    3    3    0    0  0.39916199582E+01  0.12772429159E+02  0.29013319692E+02  0.31950597742E+02  0.00000000000E+00 0.  1.
</event>
<event>
 7    1  0.6622189E-010  0.4778727E+02  0.7816164E-02  0.1312668E+00
        -11   -1    0    0    0    0  0.00000000000E+00  0.00000000000E+00  0.45593999997E+02  0.45594000000E+02  0.51100000000E-03 0. -1.
         11   -1    0    0    0    0 -0.00000000000E+00 -0.00000000000E+00 -0.45593999997E+02  0.45594000000E+02  0.51100000000E-03 0.  1.
    9900012    2    1    2    0    0  0.38061316068E+02 -0.59453558680E+01 -0.19990301801E+02  0.47787271858E+02  0.20000003709E+02 0.  0.
         12    1    1    2    0    0 -0.38061316068E+02  0.59453558680E+01  0.19990301801E+02  0.43400728142E+02  0.00000000000E+00 0. -1.
         11    1    3    3    0    0  0.12238518104E+02 -0.63290157673E+01 -0.90095064223E+01  0.16462350142E+02  0.51100000000E-03 0. -1.
        -11    1    3    3    0    0  0.11228055371E+02  0.68672665544E+01 -0.31263643038E+01  0.13527850212E+02  0.51100000000E-03 0.  1.
        -12    1    3    3    0    0  0.14594742593E+02 -0.64836066551E+01 -0.78544310745E+01  0.17797071504E+02  0.00000000000E+00 0.  1.
</event>
<event>
 7    1  0.6622189E-010  0.4778727E+02  0.7816164E-02  0.1312668E+00
        -11   -1    0    0    0    0  0.00000000000E+00  0.00000000000E+00  0.45593999997E+02  0.45594000000E+02  0.51100000000E-03 0. -1.
         11   -1    0    0    0    0 -0.00000000000E+00 -0.00000000000E+00 -0.45593999997E+02  0.45594000000E+02  0.51100000000E-03 0.  1.
    9900012    2    1    2    0    0 -0.15746648841E+02  0.13730408147E+02 -0.38041322179E+02  0.47787271311E+02  0.20000001214E+02 0.  0.
         12    1    1    2    0    0  0.15746648841E+02 -0.13730408147E+02  0.38041322179E+02  0.43400728689E+02  0.00000000000E+00 0. -1.
         11    1    3    3    0    0 -0.14408117457E+02  0.18352654853E+02 -0.29209098981E+02  0.37384291519E+02  0.51100000000E-03 0. -1.
        -11    1    3    3    0    0  0.60112550845E+00 -0.15956908212E+00 -0.11986834490E+01  0.13504282436E+01  0.51100000000E-03 0.  1.
         12    1    3    3    0    0 -0.19396568927E+01 -0.44626776239E+01 -0.76335397486E+01  0.90525515480E+01  0.00000000000E+00 0. -1.
</event>
<event>
 7    1  0.1065844E-009  0.4778725E+02  0.7816164E-02  0.1312668E+00
        -11   -1    0    0    0    0  0.00000000000E+00  0.00000000000E+00  0.45593999997E+02  0.45594000000E+02  0.51100000000E-03 0. -1.
         11   -1    0    0    0    0 -0.00000000000E+00 -0.00000000000E+00 -0.45593999997E+02  0.45594000000E+02  0.51100000000E-03 0.  1.
    9900012    2    1    2    0    0 -0.51797799661E+01  0.13258517519E+02 -0.41000077978E+02  0.47787253445E+02  0.19999919759E+02 0.  0.
         12    1    1    2    0    0  0.51797799661E+01 -0.13258517519E+02  0.41000077978E+02  0.43400746555E+02  0.00000000000E+00 0. -1.
         11    1    3    3    0    0 -0.17093392076E+01 -0.37723364419E+01 -0.61451203256E+01  0.74104565875E+01  0.51100000000E-03 0. -1.
        -11    1    3    3    0    0 -0.64961268609E+01  0.11332532536E+02 -0.17326720088E+02  0.21698875251E+02  0.51100000000E-03 0.  1.
        -12    1    3    3    0    0  0.30256861024E+01  0.56983214247E+01 -0.17528237565E+02  0.18677921607E+02  0.00000000000E+00 0.  1.
</event>
<event>
 7    1  0.6622189E-010  0.4778728E+02  0.7816164E-02  0.1312668E+00
        -11   -1    0    0    0    0  0.00000000000E+00  0.00000000000E+00  0.45593999997E+02  0.45594000000E+02  0.51100000000E-03 0. -1.
         11   -1    0    0    0    0 -0.00000000000E+00 -0.00000000000E+00 -0.45593999997E+02  0.45594000000E+02  0.51100000000E-03 0.  1.
    9900012    2    1    2    0    0  0.28133402594E+02  0.32988684475E+02 -0.19699425508E+01  0.47787282050E+02  0.20000050179E+02 0.  0.
         12    1    1    2    0    0 -0.28133402594E+02 -0.32988684475E+02  0.19699425508E+01  0.43400717950E+02  0.00000000000E+00 0. -1.
         11    1    3    3    0    0  0.64425630775E+01  0.10156615519E+02  0.69666026321E+01  0.13899532737E+02  0.51100000000E-03 0.  1.
        -11    1    3    3    0    0  0.21495565586E+02  0.18652550041E+02 -0.71935316646E+01  0.29355133469E+02  0.51100000000E-03 0. -1.
         12    1    3    3    0    0  0.19527393076E+00  0.41795189145E+01 -0.17430135183E+01  0.45326158441E+01  0.00000000000E+00 0. -1.
</event>
<event>
 7    1  0.6622189E-010  0.4778727E+02  0.7816164E-02  0.1312668E+00
        -11   -1    0    0    0    0  0.00000000000E+00  0.00000000000E+00  0.45593999997E+02  0.45594000000E+02  0.51100000000E-03 0.  1.
         11   -1    0    0    0    0 -0.00000000000E+00 -0.00000000000E+00 -0.45593999997E+02  0.45594000000E+02  0.51100000000E-03 0. -1.
    9900012    2    1    2    0    0 -0.34294427517E+02  0.11397783505E+02  0.24033436474E+02  0.47787270786E+02  0.19999998824E+02 0.  0.
         12    1    1    2    0    0  0.34294427517E+02 -0.11397783505E+02 -0.24033436474E+02  0.43400729214E+02  0.00000000000E+00 0. -1.
         11    1    3    3    0    0 -0.19996817165E+00  0.46044593375E+01  0.24041451382E+01  0.51981676740E+01  0.51100000000E-03 0. -1.
        -11    1    3    3    0    0 -0.23549713215E+02  0.96961085737E+01  0.12639791314E+02  0.28431810331E+02  0.51100000000E-03 0.  1.
        -12    1    3    3    0    0 -0.10544746131E+02 -0.29027844062E+01  0.89895000219E+01  0.14157292782E+02  0.00000000000E+00 0.  1.
</event>
<event>
 7    1  0.6622189E-010  0.4778727E+02  0.7816164E-02  0.1312668E+00
        -11   -1    0    0    0    0  0.00000000000E+00  0.00000000000E+00  0.45593999997E+02  0.45594000000E+02  0.51100000000E-03 0. -1.
         11   -1    0    0    0    0 -0.00000000000E+00 -0.00000000000E+00 -0.45593999997E+02  0.45594000000E+02  0.51100000000E-03 0.  1.
    9900012    2    1    2    0    0 -0.26778406329E+02  0.61345577831E+01 -0.33599224222E+02  0.47787265985E+02  0.19999976932E+02 0.  0.
         12    1    1    2    0    0  0.26778406329E+02 -0.61345577831E+01  0.33599224222E+02  0.43400734015E+02  0.00000000000E+00 0. -1.
         11    1    3    3    0    0 -0.41067739747E+01 -0.33457231393E+01 -0.10796442890E+01  0.54060232941E+01  0.51100000000E-03 0. -1.
        -11    1    3    3    0    0 -0.19500755922E+02  0.11747144643E+02 -0.30287953850E+02  0.37889774840E+02  0.51100000000E-03 0.  1.
        -12    1    3    3    0    0 -0.31708764320E+01 -0.22668637207E+01 -0.22316260836E+01  0.44914678505E+01  0.00000000000E+00 0.  1.
</event>
<event>
 7    1  0.6622189E-010  0.4778727E+02  0.7816164E-02  0.1312668E+00
        -11   -1    0    0    0    0  0.00000000000E+00  0.00000000000E+00  0.45593999997E+02  0.45594000000E+02  0.51100000000E-03 0. -1.
         11   -1    0    0    0    0 -0.00000000000E+00 -0.00000000000E+00 -0.45593999997E+02  0.45594000000E+02  0.51100000000E-03 0.  1.
    9900012    2    1    2    0    0  0.18480651833E+02 -0.21920999509E+01 -0.39208204902E+02  0.47787272748E+02  0.20000007766E+02 0.  0.
         12    1    1    2    0    0 -0.18480651833E+02  0.21920999509E+01  0.39208204902E+02  0.43400727252E+02  0.00000000000E+00 0. -1.
         11    1    3    3    0    0 -0.99057073324E+00  0.30370071044E+01 -0.84048546306E+01  0.89914528388E+01  0.51100000000E-03 0. -1.
        -11    1    3    3    0    0  0.18817597391E+02 -0.80344126847E+01 -0.28618180321E+02  0.35180307046E+02  0.51100000000E-03 0.  1.
        -12    1    3    3    0    0  0.65362517540E+00  0.28053056293E+01 -0.21851699510E+01  0.36155128625E+01  0.00000000000E+00 0.  1.
</event>
<event>
 7    1  0.6622189E-010  0.4778727E+02  0.7816164E-02  0.1312668E+00
        -11   -1    0    0    0    0  0.00000000000E+00  0.00000000000E+00  0.45593999997E+02  0.45594000000E+02  0.51100000000E-03 0. -1.
         11   -1    0    0    0    0 -0.00000000000E+00 -0.00000000000E+00 -0.45593999997E+02  0.45594000000E+02  0.51100000000E-03 0.  1.
    9900012    2    1    2    0    0  0.53985489112E+01 -0.15246788290E+02  0.40274238533E+02  0.47787272208E+02  0.20000005303E+02 0.  0.
        -12    1    1    2    0    0 -0.53985489112E+01  0.15246788290E+02 -0.40274238533E+02  0.43400727792E+02  0.00000000000E+00 0.  1.
         11    1    3    3    0    0 -0.79496843006E+00  0.88693808162E+00  0.14124256533E+02  0.14174387353E+02  0.51100000000E-03 0. -1.
        -11    1    3    3    0    0  0.84051878968E+01 -0.15158423263E+02  0.25924791293E+02  0.31185249450E+02  0.51100000000E-03 0.  1.
         12    1    3    3    0    0 -0.22116705555E+01 -0.97530310895E+00  0.22519070617E+00  0.24276354040E+01  0.00000000000E+00 0. -1.
</event>
<event>
 7    1  0.6622189E-010  0.4778727E+02  0.7816164E-02  0.1312668E+00
        -11   -1    0    0    0    0  0.00000000000E+00  0.00000000000E+00  0.45593999997E+02  0.45594000000E+02  0.51100000000E-03 0. -1.
         11   -1    0    0    0    0 -0.00000000000E+00 -0.00000000000E+00 -0.45593999997E+02  0.45594000000E+02  0.51100000000E-03 0.  1.
    9900012    2    1    2    0    0  0.31487955659E+01  0.22461925911E+02  0.37002302138E+02  0.47787269676E+02  0.19999993760E+02 0.  0.
        -12    1    1    2    0    0 -0.31487955659E+01 -0.22461925911E+02 -0.37002302138E+02  0.43400730324E+02  0.00000000000E+00 0.  1.
         11    1    3    3    0    0 -0.71547317018E+01  0.16136409518E+02  0.21725078206E+02  0.27992015311E+02  0.51100000000E-03 0. -1.
        -11    1    3    3    0    0  0.65956554740E+01  0.20181110164E+01  0.87044459727E+01  0.11105981414E+02  0.51100000000E-03 0.  1.
         12    1    3    3    0    0  0.37078717937E+01  0.43074053769E+01  0.65727779596E+01  0.86892729515E+01  0.00000000000E+00 0. -1.
</event>
<event>
 7    1  0.6622189E-010  0.4778730E+02  0.7816164E-02  0.1312668E+00
        -11   -1    0    0    0    0  0.00000000000E+00  0.00000000000E+00  0.45593999997E+02  0.45594000000E+02  0.51100000000E-03 0. -1.
         11   -1    0    0    0    0 -0.00000000000E+00 -0.00000000000E+00 -0.45593999997E+02  0.45594000000E+02  0.51100000000E-03 0.  1.
    9900012    2    1    2    0    0 -0.65834338389E+00 -0.58261214335E+01 -0.43002837204E+02  0.47787295921E+02  0.20000113420E+02 0.  0.
         12    1    1    2    0    0  0.65834338389E+00  0.58261214335E+01  0.43002837204E+02  0.43400704079E+02  0.00000000000E+00 0. -1.
         11    1    3    3    0    0 -0.47323046506E+01  0.25005036826E+01 -0.19738207695E+01  0.57046642902E+01  0.51100000000E-03 0. -1.
        -11    1    3    3    0    0  0.28207990234E+01 -0.43203515537E+01 -0.22434315347E+02  0.23020009775E+02  0.51100000000E-03 0.  1.
         12    1    3    3    0    0  0.12531622434E+01 -0.40062735624E+01 -0.18594701088E+02  0.19062621856E+02  0.00000000000E+00 0. -1.
</event>
<event>
 7    1  0.6622189E-010  0.4778727E+02  0.7816164E-02  0.1312668E+00
        -11   -1    0    0    0    0  0.00000000000E+00  0.00000000000E+00  0.45593999997E+02  0.45594000000E+02  0.51100000000E-03 0.  1.
         11   -1    0    0    0    0 -0.00000000000E+00 -0.00000000000E+00 -0.45593999997E+02  0.45594000000E+02  0.51100000000E-03 0. -1.
    9900012    2    1    2    0    0 -0.24688296151E+02  0.34176213505E+02  0.10300377440E+02  0.47787270608E+02  0.19999998009E+02 0.  0.
        -12    1    1    2    0    0  0.24688296151E+02 -0.34176213505E+02 -0.10300377440E+02  0.43400729392E+02  0.00000000000E+00 0.  1.
         11    1    3    3    0    0 -0.10800557046E+02  0.25189579952E+02  0.96627344553E+01  0.29060891385E+02  0.51100000000E-03 0. -1.
        -11    1    3    3    0    0  0.78144812387E+00  0.31106214214E+00  0.14369808180E+01  0.16650330204E+01  0.51100000000E-03 0.  1.
         12    1    3    3    0    0 -0.14669187230E+02  0.86755714104E+01 -0.79933783308E+00  0.17061346203E+02  0.00000000000E+00 0. -1.
</event>
<event>
 7    1  0.6622189E-010  0.4778727E+02  0.7816164E-02  0.1312668E+00
        -11   -1    0    0    0    0  0.00000000000E+00  0.00000000000E+00  0.45593999997E+02  0.45594000000E+02  0.51100000000E-03 0. -1.
         11   -1    0    0    0    0 -0.00000000000E+00 -0.00000000000E+00 -0.45593999997E+02  0.45594000000E+02  0.51100000000E-03 0.  1.
    9900012    2    1    2    0    0 -0.10234474052E+02 -0.28544905108E+02  0.31049431071E+02  0.47787271475E+02  0.20000001961E+02 0.  0.
        -12    1    1    2    0    0  0.10234474052E+02  0.28544905108E+02 -0.31049431071E+02  0.43400728525E+02  0.00000000000E+00 0.  1.
         11    1    3    3    0    0 -0.10448005648E+01 -0.13137273928E+02  0.26810082718E+01  0.13448694364E+02  0.51100000000E-03 0. -1.
        -11    1    3    3    0    0 -0.19758940928E+01 -0.73630278693E+00  0.73875140139E+00  0.22342903021E+01  0.51100000000E-03 0.  1.
         12    1    3    3    0    0 -0.72137793941E+01 -0.14671328393E+02  0.27629671397E+02  0.32104286809E+02  0.00000000000E+00 0. -1.
</event>
<event>
 7    1  0.6622189E-010  0.4778727E+02  0.7816164E-02  0.1312668E+00
        -11   -1    0    0    0    0  0.00000000000E+00  0.00000000000E+00  0.45593999997E+02  0.45594000000E+02  0.51100000000E-03 0. -1.
         11   -1    0    0    0    0 -0.00000000000E+00 -0.00000000000E+00 -0.45593999997E+02  0.45594000000E+02  0.51100000000E-03 0.  1.
    9900012    2    1    2    0    0  0.21522477844E+02  0.36051515723E+02 -0.10986095449E+02  0.47787272682E+02  0.20000007469E+02 0.  0.
         12    1    1    2    0    0 -0.21522477844E+02 -0.36051515723E+02  0.10986095449E+02  0.43400727318E+02  0.00000000000E+00 0. -1.
         11    1    3    3    0    0 -0.16981756701E+01  0.36930534224E+01  0.10656355510E+01  0.42021451160E+01  0.51100000000E-03 0. -1.
        -11    1    3    3    0    0 -0.56563748000E+00  0.19165565028E+01 -0.34797609891E+01  0.40127137188E+01  0.51100000000E-03 0.  1.
        -12    1    3    3    0    0  0.23786290994E+02  0.30441905798E+02 -0.85719700113E+01  0.39572413848E+02  0.00000000000E+00 0.  1.
</event>
<event>
 7    1  0.6622189E-010  0.4778728E+02  0.7816164E-02  0.1312668E+00
        -11   -1    0    0    0    0  0.00000000000E+00  0.00000000000E+00  0.45593999997E+02  0.45594000000E+02  0.51100000000E-03 0. -1.
         11   -1    0    0    0    0 -0.00000000000E+00 -0.00000000000E+00 -0.45593999997E+02  0.45594000000E+02  0.51100000000E-03 0.  1.
    9900012    2    1    2    0    0  0.22191019485E+02 -0.34123251284E+02 -0.15059382227E+02  0.47787278612E+02  0.20000034502E+02 0.  0.
         12    1    1    2    0    0 -0.22191019485E+02  0.34123251284E+02  0.15059382227E+02  0.43400721388E+02  0.00000000000E+00 0. -1.
         11    1    3    3    0    0  0.41264306565E+01 -0.61352093616E+01  0.22654531693E+01  0.77330784424E+01  0.51100000000E-03 0. -1.
        -11    1    3    3    0    0  0.10533600729E+01 -0.13111715823E+02 -0.91468190498E+01  0.16021577895E+02  0.51100000000E-03 0.  1.
        -12    1    3    3    0    0  0.17011228756E+02 -0.14876326099E+02 -0.81780163469E+01  0.24032622274E+02  0.00000000000E+00 0.  1.
</event>
<event>
 7    1  0.6622189E-010  0.4778727E+02  0.7816164E-02  0.1312668E+00
        -11   -1    0    0    0    0  0.00000000000E+00  0.00000000000E+00  0.45593999997E+02  0.45594000000E+02  0.51100000000E-03 0. -1.
         11   -1    0    0    0    0 -0.00000000000E+00 -0.00000000000E+00 -0.45593999997E+02  0.45594000000E+02  0.51100000000E-03 0.  1.
    9900012    2    1    2    0    0 -0.34634476577E+02 -0.18466639369E+02 -0.18521874279E+02  0.47787267700E+02  0.19999984750E+02 0.  0.
         12    1    1    2    0    0  0.34634476577E+02  0.18466639369E+02  0.18521874279E+02  0.43400732300E+02  0.00000000000E+00 0. -1.
         11    1    3    3    0    0 -0.46444063719E+01 -0.36642167993E+01 -0.11252310620E+02  0.12712650780E+02  0.51100000000E-03 0. -1.
        -11    1    3    3    0    0 -0.24266710915E+02 -0.95338276446E+01 -0.79718397114E+01  0.27263847066E+02  0.51100000000E-03 0.  1.
         12    1    3    3    0    0 -0.57233592901E+01 -0.52685949255E+01  0.70227605204E+00  0.78107698536E+01  0.00000000000E+00 0. -1.
</event>
<event>
 7    1  0.6622189E-010  0.4778727E+02  0.7816164E-02  0.1312668E+00
        -11   -1    0    0    0    0  0.00000000000E+00  0.00000000000E+00  0.45593999997E+02  0.45594000000E+02  0.51100000000E-03 0. -1.
         11   -1    0    0    0    0 -0.00000000000E+00 -0.00000000000E+00 -0.45593999997E+02  0.45594000000E+02  0.51100000000E-03 0.  1.
    9900012    2    1    2    0    0  0.22169749282E+02 -0.15464579865E+02 -0.33955449426E+02  0.47787267756E+02  0.19999985006E+02 0.  0.
         12    1    1    2    0    0 -0.22169749282E+02  0.15464579865E+02  0.33955449426E+02  0.43400732244E+02  0.00000000000E+00 0. -1.
         11    1    3    3    0    0 -0.21627778709E+00  0.35536903839E+01 -0.50597184940E+01  0.61867796894E+01  0.51100000000E-03 0. -1.
        -11    1    3    3    0    0  0.16473210921E+02 -0.16724599804E+02 -0.21227647540E+02  0.31649517169E+02  0.51100000000E-03 0.  1.
        -12    1    3    3    0    0  0.59128161477E+01 -0.22936704447E+01 -0.76680833920E+01  0.99509708979E+01  0.00000000000E+00 0.  1.
</event>
<event>
 7    1  0.6622189E-010  0.4778727E+02  0.7816164E-02  0.1312668E+00
        -11   -1    0    0    0    0  0.00000000000E+00  0.00000000000E+00  0.45593999997E+02  0.45594000000E+02  0.51100000000E-03 0. -1.
         11   -1    0    0    0    0 -0.00000000000E+00 -0.00000000000E+00 -0.45593999997E+02  0.45594000000E+02  0.51100000000E-03 0.  1.
    9900012    2    1    2    0    0 -0.35291980768E+02 -0.39303920112E+00  0.25257576170E+02  0.47787267974E+02  0.19999986003E+02 0.  0.
        -12    1    1    2    0    0  0.35291980768E+02  0.39303920112E+00 -0.25257576170E+02  0.43400732026E+02  0.00000000000E+00 0.  1.
         11    1    3    3    0    0 -0.53118733508E+00 -0.11356835889E+01  0.82265838664E+01  0.83215755462E+01  0.51100000000E-03 0. -1.
        -11    1    3    3    0    0 -0.25127458226E+02  0.39753618514E+01  0.12074448077E+02  0.28159988554E+02  0.51100000000E-03 0.  1.
        -12    1    3    3    0    0 -0.96333352072E+01 -0.32327174636E+01  0.49565442268E+01  0.11305703874E+02  0.00000000000E+00 0.  1.
</event>
<event>
 7    1  0.6622189E-010  0.4778726E+02  0.7816164E-02  0.1312668E+00
        -11   -1    0    0    0    0  0.00000000000E+00  0.00000000000E+00  0.45593999997E+02  0.45594000000E+02  0.51100000000E-03 0. -1.
         11   -1    0    0    0    0 -0.00000000000E+00 -0.00000000000E+00 -0.45593999997E+02  0.45594000000E+02  0.51100000000E-03 0.  1.
    9900012    2    1    2    0    0 -0.14242475102E+02 -0.16672119552E+02  0.37454193770E+02  0.47787259242E+02  0.19999946186E+02 0.  0.
        -12    1    1    2    0    0  0.14242475102E+02  0.16672119552E+02 -0.37454193770E+02  0.43400740758E+02  0.00000000000E+00 0.  1.
         11    1    3    3    0    0 -0.28264504561E+01 -0.31840374059E+01  0.10413333705E+02  0.11250086022E+02  0.51100000000E-03 0. -1.
        -11    1    3    3    0    0 -0.12357317745E+02 -0.16931255939E+01  0.16550046069E+02  0.20723754517E+02  0.51100000000E-03 0.  1.
        -12    1    3    3    0    0  0.94129309909E+00 -0.11794956552E+02  0.10490813996E+02  0.15813418703E+02  0.00000000000E+00 0.  1.
</event>
<event>
 7    1  0.6622189E-010  0.4778727E+02  0.7816164E-02  0.1312668E+00
        -11   -1    0    0    0    0  0.00000000000E+00  0.00000000000E+00  0.45593999997E+02  0.45594000000E+02  0.51100000000E-03 0. -1.
         11   -1    0    0    0    0 -0.00000000000E+00 -0.00000000000E+00 -0.45593999997E+02  0.45594000000E+02  0.51100000000E-03 0.  1.
    9900012    2    1    2    0    0 -0.22159835679E+02  0.98473658170E+01 -0.35994364916E+02  0.47787271475E+02  0.20000001963E+02 0.  0.
         12    1    1    2    0    0  0.22159835679E+02 -0.98473658170E+01  0.35994364916E+02  0.43400728525E+02  0.00000000000E+00 0. -1.
         11    1    3    3    0    0 -0.50029008813E+01 -0.33801622990E+01 -0.41319299646E+00  0.60518793039E+01  0.51100000000E-03 0. -1.
        -11    1    3    3    0    0 -0.94064729922E+01  0.56431766300E+01 -0.17912951862E+02  0.21004785676E+02  0.51100000000E-03 0.  1.
         12    1    3    3    0    0 -0.77504618052E+01  0.75843514860E+01 -0.17668220057E+02  0.20730606495E+02  0.00000000000E+00 0. -1.
</event>
<event>
 7    1  0.6622189E-010  0.4778730E+02  0.7816164E-02  0.1312668E+00
        -11   -1    0    0    0    0  0.00000000000E+00  0.00000000000E+00  0.45593999997E+02  0.45594000000E+02  0.51100000000E-03 0. -1.
         11   -1    0    0    0    0 -0.00000000000E+00 -0.00000000000E+00 -0.45593999997E+02  0.45594000000E+02  0.51100000000E-03 0.  1.
    9900012    2    1    2    0    0 -0.26983744065E+01  0.20220896131E+02  0.38307374017E+02  0.47787299903E+02  0.20000131579E+02 0.  0.
        -12    1    1    2    0    0  0.26983744065E+01 -0.20220896131E+02 -0.38307374017E+02  0.43400700097E+02  0.00000000000E+00 0.  1.
         11    1    3    3    0    0  0.44050973825E+00  0.11188403213E+02  0.24810583142E+02  0.27220203001E+02  0.51100000000E-03 0. -1.
        -11    1    3    3    0    0  0.22961104234E+01 -0.57116762041E+00 -0.80836416611E+00  0.25003616565E+01  0.51100000000E-03 0.  1.
        -12    1    3    3    0    0 -0.54349945682E+01  0.96036605383E+01  0.14305155041E+02  0.18066735246E+02  0.00000000000E+00 0.  1.
</event>
<event>
 7    1  0.6622189E-010  0.4778727E+02  0.7816164E-02  0.1312668E+00
        -11   -1    0    0    0    0  0.00000000000E+00  0.00000000000E+00  0.45593999997E+02  0.45594000000E+02  0.51100000000E-03 0. -1.
         11   -1    0    0    0    0 -0.00000000000E+00 -0.00000000000E+00 -0.45593999997E+02  0.45594000000E+02  0.51100000000E-03 0.  1.
    9900012    2    1    2    0    0  0.22341829585E+02 -0.53949371579E+01 -0.36815220626E+02  0.47787272289E+02  0.20000005674E+02 0.  0.
         12    1    1    2    0    0 -0.22341829585E+02  0.53949371579E+01  0.36815220626E+02  0.43400727711E+02  0.00000000000E+00 0. -1.
         11    1    3    3    0    0  0.10729523275E+02  0.20945797661E+01 -0.73102261907E+01  0.13151020543E+02  0.51100000000E-03 0. -1.
        -11    1    3    3    0    0  0.68622849336E+01 -0.26083192203E+01 -0.25919719747E+02  0.26939305034E+02  0.51100000000E-03 0.  1.
        -12    1    3    3    0    0  0.47500213768E+01 -0.48811977037E+01 -0.35852746876E+01  0.76969467120E+01  0.00000000000E+00 0.  1.
</event>
<event>
 7    1  0.6622189E-010  0.4778727E+02  0.7816164E-02  0.1312668E+00
        -11   -1    0    0    0    0  0.00000000000E+00  0.00000000000E+00  0.45593999997E+02  0.45594000000E+02  0.51100000000E-03 0. -1.
         11   -1    0    0    0    0 -0.00000000000E+00 -0.00000000000E+00 -0.45593999997E+02  0.45594000000E+02  0.51100000000E-03 0.  1.
    9900012    2    1    2    0    0 -0.25585499120E+02 -0.56075583370E+01  0.34605798405E+02  0.47787265456E+02  0.19999974520E+02 0.  0.
        -12    1    1    2    0    0  0.25585499120E+02  0.56075583370E+01 -0.34605798405E+02  0.43400734544E+02  0.00000000000E+00 0.  1.
         11    1    3    3    0    0 -0.19457570742E+02 -0.43930175422E+01  0.29405058812E+02  0.35532423873E+02  0.51100000000E-03 0. -1.
        -11    1    3    3    0    0 -0.77753699148E+01  0.34740273021E+00  0.15197755868E+01  0.79301187925E+01  0.51100000000E-03 0.  1.
         12    1    3    3    0    0  0.16474415374E+01 -0.15619435251E+01  0.36809640068E+01  0.43247227904E+01  0.00000000000E+00 0. -1.
</event>
<event>
 7    1  0.6622189E-010  0.4778727E+02  0.7816164E-02  0.1312668E+00
        -11   -1    0    0    0    0  0.00000000000E+00  0.00000000000E+00  0.45593999997E+02  0.45594000000E+02  0.51100000000E-03 0.  1.
         11   -1    0    0    0    0 -0.00000000000E+00 -0.00000000000E+00 -0.45593999997E+02  0.45594000000E+02  0.51100000000E-03 0. -1.
    9900012    2    1    2    0    0 -0.28126242598E+02  0.30491149383E+02 -0.12760380356E+02  0.47787273967E+02  0.20000013323E+02 0.  0.
        -12    1    1    2    0    0  0.28126242598E+02 -0.30491149383E+02  0.12760380356E+02  0.43400726033E+02  0.00000000000E+00 0.  1.
         11    1    3    3    0    0 -0.15240967328E+02  0.67913466457E+01 -0.75356482072E+01  0.18308344232E+02  0.51100000000E-03 0. -1.
        -11    1    3    3    0    0 -0.14727887817E+02  0.22126903071E+02 -0.45801002190E+01  0.26971982451E+02  0.51100000000E-03 0.  1.
        -12    1    3    3    0    0  0.18426125467E+01  0.15728996664E+01 -0.64463192929E+00  0.25069472834E+01  0.00000000000E+00 0.  1.
</event>
<event>
 7    1  0.6622189E-010  0.4778727E+02  0.7816164E-02  0.1312668E+00
        -11   -1    0    0    0    0  0.00000000000E+00  0.00000000000E+00  0.45593999997E+02  0.45594000000E+02  0.51100000000E-03 0. -1.
         11   -1    0    0    0    0 -0.00000000000E+00 -0.00000000000E+00 -0.45593999997E+02  0.45594000000E+02  0.51100000000E-03 0.  1.
    9900012    2    1    2    0    0 -0.12929820197E+02 -0.38247081534E+01  0.41253060167E+02  0.47787267104E+02  0.19999982035E+02 0.  0.
        -12    1    1    2    0    0  0.12929820197E+02  0.38247081534E+01 -0.41253060167E+02  0.43400732896E+02  0.00000000000E+00 0.  1.
         11    1    3    3    0    0  0.27144998591E+01 -0.23016734239E+01  0.17127905192E+02  0.17493751644E+02  0.51100000000E-03 0. -1.
        -11    1    3    3    0    0 -0.46590190963E+01  0.36787278637E-01  0.11797075176E+01  0.48061962436E+01  0.51100000000E-03 0.  1.
         12    1    3    3    0    0 -0.10985300959E+02 -0.15598220081E+01  0.22945447457E+02  0.25487319217E+02  0.00000000000E+00 0. -1.
</event>
<event>
 7    1  0.6622189E-010  0.4778727E+02  0.7816164E-02  0.1312668E+00
        -11   -1    0    0    0    0  0.00000000000E+00  0.00000000000E+00  0.45593999997E+02  0.45594000000E+02  0.51100000000E-03 0. -1.
         11   -1    0    0    0    0 -0.00000000000E+00 -0.00000000000E+00 -0.45593999997E+02  0.45594000000E+02  0.51100000000E-03 0.  1.
    9900012    2    1    2    0    0  0.18300319200E+02 -0.28715310753E+02 -0.26910091266E+02  0.47787265370E+02  0.19999974128E+02 0.  0.
         12    1    1    2    0    0 -0.18300319200E+02  0.28715310753E+02  0.26910091266E+02  0.43400734630E+02  0.00000000000E+00 0. -1.
         11    1    3    3    0    0 -0.17062153863E+01 -0.77146545589E+01 -0.10911883187E+01  0.79760741042E+01  0.51100000000E-03 0. -1.
        -11    1    3    3    0    0  0.13142350638E+02 -0.13227116999E+02 -0.10763472693E+02  0.21529754970E+02  0.51100000000E-03 0.  1.
         12    1    3    3    0    0  0.68641839477E+01 -0.77735391953E+01 -0.15055430254E+02  0.18281436295E+02  0.00000000000E+00 0. -1.
</event>
<event>
 7    1  0.6622189E-010  0.4778727E+02  0.7816164E-02  0.1312668E+00
        -11   -1    0    0    0    0  0.00000000000E+00  0.00000000000E+00  0.45593999997E+02  0.45594000000E+02  0.51100000000E-03 0. -1.
         11   -1    0    0    0    0 -0.00000000000E+00 -0.00000000000E+00 -0.45593999997E+02  0.45594000000E+02  0.51100000000E-03 0.  1.
    9900012    2    1    2    0    0  0.29313608831E+02  0.25561114278E+02 -0.19260454158E+02  0.47787270511E+02  0.19999997566E+02 0.  0.
         12    1    1    2    0    0 -0.29313608831E+02 -0.25561114278E+02  0.19260454158E+02  0.43400729489E+02  0.00000000000E+00 0. -1.
         11    1    3    3    0    0  0.61569313247E+01 -0.20037741954E+01 -0.13765952151E+01  0.66195112365E+01  0.51100000000E-03 0. -1.
        -11    1    3    3    0    0  0.12833512665E+02  0.17451447272E+02 -0.60555969253E+01  0.22492716901E+02  0.51100000000E-03 0.  1.
        -12    1    3    3    0    0  0.10323164842E+02  0.10113441201E+02 -0.11828262017E+02  0.18675042373E+02  0.00000000000E+00 0.  1.
</event>
<event>
 7    1  0.6622189E-010  0.4778727E+02  0.7816164E-02  0.1312668E+00
        -11   -1    0    0    0    0  0.00000000000E+00  0.00000000000E+00  0.45593999997E+02  0.45594000000E+02  0.51100000000E-03 0. -1.
         11   -1    0    0    0    0 -0.00000000000E+00 -0.00000000000E+00 -0.45593999997E+02  0.45594000000E+02  0.51100000000E-03 0.  1.
    9900012    2    1    2    0    0  0.40685003891E+02 -0.10770932910E+02 -0.10599090156E+02  0.47787271325E+02  0.20000001279E+02 0.  0.
         12    1    1    2    0    0 -0.40685003891E+02  0.10770932910E+02  0.10599090156E+02  0.43400728675E+02  0.00000000000E+00 0. -1.
         11    1    3    3    0    0  0.34565476450E+02 -0.12901787832E+01 -0.42860719075E+01  0.34854083493E+02  0.51100000000E-03 0. -1.
        -11    1    3    3    0    0  0.50699923964E+01 -0.79075505836E+01 -0.51373968008E+01  0.10706401136E+02  0.51100000000E-03 0.  1.
         12    1    3    3    0    0  0.10495350453E+01 -0.15732035435E+01 -0.11756214480E+01  0.22267866960E+01  0.00000000000E+00 0. -1.
</event>
<event>
 7    1  0.6622189E-010  0.4778727E+02  0.7816164E-02  0.1312668E+00
        -11   -1    0    0    0    0  0.00000000000E+00  0.00000000000E+00  0.45593999997E+02  0.45594000000E+02  0.51100000000E-03 0.  1.
         11   -1    0    0    0    0 -0.00000000000E+00 -0.00000000000E+00 -0.45593999997E+02  0.45594000000E+02  0.51100000000E-03 0. -1.
    9900012    2    1    2    0    0  0.41513858603E+02 -0.10785671703E+02 -0.66251180254E+01  0.47787270063E+02  0.19999995524E+02 0.  0.
         12    1    1    2    0    0 -0.41513858603E+02  0.10785671703E+02  0.66251180254E+01  0.43400729937E+02  0.00000000000E+00 0. -1.
         11    1    3    3    0    0  0.20421784435E+02  0.26627390460E+01 -0.36958190156E+01  0.20923635851E+02  0.51100000000E-03 0. -1.
        -11    1    3    3    0    0  0.14117608266E+02 -0.81534214103E+01  0.25976551555E+01  0.16508572210E+02  0.51100000000E-03 0.  1.
         12    1    3    3    0    0  0.69744659016E+01 -0.52949893389E+01 -0.55269541654E+01  0.10355062002E+02  0.00000000000E+00 0. -1.
</event>
<event>
 7    1  0.6622189E-010  0.4778727E+02  0.7816164E-02  0.1312668E+00
        -11   -1    0    0    0    0  0.00000000000E+00  0.00000000000E+00  0.45593999997E+02  0.45594000000E+02  0.51100000000E-03 0. -1.
         11   -1    0    0    0    0 -0.00000000000E+00 -0.00000000000E+00 -0.45593999997E+02  0.45594000000E+02  0.51100000000E-03 0.  1.
    9900012    2    1    2    0    0  0.79262629671E+01 -0.34742120948E+02 -0.24774641794E+02  0.47787268570E+02  0.19999988719E+02 0.  0.
         12    1    1    2    0    0 -0.79262629671E+01  0.34742120948E+02  0.24774641794E+02  0.43400731430E+02  0.00000000000E+00 0. -1.
         11    1    3    3    0    0 -0.76190647155E+00 -0.70598108314E+01 -0.74456769224E+00  0.71397347119E+01  0.51100000000E-03 0. -1.
        -11    1    3    3    0    0  0.13754532565E+01 -0.51817908999E+01  0.17662488190E+01  0.56446845566E+01  0.51100000000E-03 0.  1.
        -12    1    3    3    0    0  0.73127161821E+01 -0.22500519217E+02 -0.25796322921E+02  0.35002849302E+02  0.00000000000E+00 0.  1.
</event>
<event>
 7    1  0.6622189E-010  0.4778727E+02  0.7816164E-02  0.1312668E+00
        -11   -1    0    0    0    0  0.00000000000E+00  0.00000000000E+00  0.45593999997E+02  0.45594000000E+02  0.51100000000E-03 0.  1.
         11   -1    0    0    0    0 -0.00000000000E+00 -0.00000000000E+00 -0.45593999997E+02  0.45594000000E+02  0.51100000000E-03 0. -1.
    9900012    2    1    2    0    0  0.25252377335E+02 -0.25046633462E+02  0.24871813382E+02  0.47787268327E+02  0.19999987609E+02 0.  0.
        -12    1    1    2    0    0 -0.25252377335E+02  0.25046633462E+02 -0.24871813382E+02  0.43400731673E+02  0.00000000000E+00 0.  1.
         11    1    3    3    0    0  0.21640558676E+02 -0.11391465844E+02  0.11896741209E+02  0.27195803454E+02  0.51100000000E-03 0. -1.
        -11    1    3    3    0    0 -0.32915289708E+00 -0.10357304757E+02  0.61568323173E+01  0.12053575731E+02  0.51100000000E-03 0.  1.
        -12    1    3    3    0    0  0.39409715563E+01 -0.32978628616E+01  0.68182398554E+01  0.85378891412E+01  0.00000000000E+00 0.  1.
</event>
<event>
 7    1  0.6622189E-010  0.4778727E+02  0.7816164E-02  0.1312668E+00
        -11   -1    0    0    0    0  0.00000000000E+00  0.00000000000E+00  0.45593999997E+02  0.45594000000E+02  0.51100000000E-03 0. -1.
         11   -1    0    0    0    0 -0.00000000000E+00 -0.00000000000E+00 -0.45593999997E+02  0.45594000000E+02  0.51100000000E-03 0.  1.
    9900012    2    1    2    0    0  0.22684691454E+02  0.18918507810E+02  0.31798081046E+02  0.47787272790E+02  0.20000007960E+02 0.  0.
        -12    1    1    2    0    0 -0.22684691454E+02 -0.18918507810E+02 -0.31798081046E+02  0.43400727210E+02  0.00000000000E+00 0.  1.
         11    1    3    3    0    0  0.10783070477E+02  0.12022871137E+02  0.27023855977E+02  0.31481944530E+02  0.51100000000E-03 0. -1.
        -11    1    3    3    0    0  0.90836570647E+01  0.11957727817E+01  0.35750888455E+01  0.98348339452E+01  0.51100000000E-03 0.  1.
        -12    1    3    3    0    0  0.28179639126E+01  0.56998638915E+01  0.11991362230E+01  0.64704943146E+01  0.00000000000E+00 0.  1.
</event>
<event>
 7    1  0.6622189E-010  0.4778727E+02  0.7816164E-02  0.1312668E+00
        -11   -1    0    0    0    0  0.00000000000E+00  0.00000000000E+00  0.45593999997E+02  0.45594000000E+02  0.51100000000E-03 0. -1.
         11   -1    0    0    0    0 -0.00000000000E+00 -0.00000000000E+00 -0.45593999997E+02  0.45594000000E+02  0.51100000000E-03 0.  1.
    9900012    2    1    2    0    0  0.19228176538E+02 -0.80955401246E+01  0.38057367097E+02  0.47787265752E+02  0.19999975870E+02 0.  0.
        -12    1    1    2    0    0 -0.19228176538E+02  0.80955401246E+01 -0.38057367097E+02  0.43400734248E+02  0.00000000000E+00 0.  1.
         11    1    3    3    0    0 -0.10986264500E+01  0.37869313172E+01  0.90243323941E+01  0.98481675604E+01  0.51100000000E-03 0. -1.
        -11    1    3    3    0    0  0.12959857386E+02 -0.77091447501E+01  0.13458547989E+02  0.20211910610E+02  0.51100000000E-03 0.  1.
         12    1    3    3    0    0  0.73669456015E+01 -0.41733266916E+01  0.15574486714E+02  0.17727187582E+02  0.00000000000E+00 0. -1.
</event>
<event>
 7    1  0.6622189E-010  0.4778727E+02  0.7816164E-02  0.1312668E+00
        -11   -1    0    0    0    0  0.00000000000E+00  0.00000000000E+00  0.45593999997E+02  0.45594000000E+02  0.51100000000E-03 0. -1.
         11   -1    0    0    0    0 -0.00000000000E+00 -0.00000000000E+00 -0.45593999997E+02  0.45594000000E+02  0.51100000000E-03 0.  1.
    9900012    2    1    2    0    0  0.37022231072E+02 -0.15603552502E+02 -0.16416661443E+02  0.47787271698E+02  0.20000002979E+02 0.  0.
         12    1    1    2    0    0 -0.37022231072E+02  0.15603552502E+02  0.16416661443E+02  0.43400728302E+02  0.00000000000E+00 0. -1.
         11    1    3    3    0    0  0.41242230483E+01 -0.91456020266E+00 -0.90949196647E+01  0.10028120466E+02  0.51100000000E-03 0. -1.
        -11    1    3    3    0    0  0.46856158998E+01  0.24306097684E+00 -0.29465178815E+01  0.55404009680E+01  0.51100000000E-03 0.  1.
         12    1    3    3    0    0  0.28212392124E+02 -0.14932053276E+02 -0.43752238967E+01  0.32218750264E+02  0.00000000000E+00 0. -1.
</event>
<event>
 7    1  0.6622189E-010  0.4778727E+02  0.7816164E-02  0.1312668E+00
        -11   -1    0    0    0    0  0.00000000000E+00  0.00000000000E+00  0.45593999997E+02  0.45594000000E+02  0.51100000000E-03 0. -1.
         11   -1    0    0    0    0 -0.00000000000E+00 -0.00000000000E+00 -0.45593999997E+02  0.45594000000E+02  0.51100000000E-03 0.  1.
    9900012    2    1    2    0    0  0.17770804959E+02 -0.11628024218E+02  0.37849851325E+02  0.47787266118E+02  0.19999977539E+02 0.  0.
        -12    1    1    2    0    0 -0.17770804959E+02  0.11628024218E+02 -0.37849851325E+02  0.43400733882E+02  0.00000000000E+00 0.  1.
         11    1    3    3    0    0  0.41988526044E+01  0.28088051259E+01  0.22556104915E+01  0.55324071054E+01  0.51100000000E-03 0. -1.
        -11    1    3    3    0    0  0.80963192755E+01 -0.11343838620E+02  0.32249106473E+02  0.35131722545E+02  0.51100000000E-03 0.  1.
        -12    1    3    3    0    0  0.54756330795E+01 -0.30929907244E+01  0.33451343612E+01  0.71231364677E+01  0.00000000000E+00 0.  1.
</event>
<event>
 7    1  0.6622189E-010  0.4778731E+02  0.7816164E-02  0.1312668E+00
        -11   -1    0    0    0    0  0.00000000000E+00  0.00000000000E+00  0.45593999997E+02  0.45594000000E+02  0.51100000000E-03 0. -1.
         11   -1    0    0    0    0 -0.00000000000E+00 -0.00000000000E+00 -0.45593999997E+02  0.45594000000E+02  0.51100000000E-03 0.  1.
    9900012    2    1    2    0    0 -0.19468511929E+02 -0.68872627413E-01 -0.38789076181E+02  0.47787307251E+02  0.20000165079E+02 0.  0.
         12    1    1    2    0    0  0.19468511929E+02  0.68872627413E-01  0.38789076181E+02  0.43400692749E+02  0.00000000000E+00 0. -1.
         11    1    3    3    0    0  0.15377022190E+01 -0.12989468021E+01  0.96964143413E+00  0.22342774405E+01  0.51100000000E-03 0. -1.
        -11    1    3    3    0    0 -0.18851515555E+02  0.27174824330E+01 -0.37641559579E+02  0.42185914205E+02  0.51100000000E-03 0.  1.
        -12    1    3    3    0    0 -0.21546985928E+01 -0.14874082583E+01 -0.21171580361E+01  0.33671156057E+01  0.00000000000E+00 0.  1.
</event>
<event>
 7    1  0.6622189E-010  0.4778727E+02  0.7816164E-02  0.1312668E+00
        -11   -1    0    0    0    0  0.00000000000E+00  0.00000000000E+00  0.45593999997E+02  0.45594000000E+02  0.51100000000E-03 0. -1.
         11   -1    0    0    0    0 -0.00000000000E+00 -0.00000000000E+00 -0.45593999997E+02  0.45594000000E+02  0.51100000000E-03 0.  1.
    9900012    2    1    2    0    0 -0.23017701116E+02  0.32847821666E+02  0.16577980257E+02  0.47787269796E+02  0.19999994306E+02 0.  0.
        -12    1    1    2    0    0  0.23017701116E+02 -0.32847821666E+02 -0.16577980257E+02  0.43400730204E+02  0.00000000000E+00 0.  1.
         11    1    3    3    0    0  0.16063742609E+01  0.69684438111E+01  0.65902985217E+01  0.97247972874E+01  0.51100000000E-03 0. -1.
        -11    1    3    3    0    0 -0.19683436802E+02  0.22214177163E+02  0.49049784125E+01  0.30082655549E+02  0.51100000000E-03 0.  1.
         12    1    3    3    0    0 -0.49406385754E+01  0.36652006918E+01  0.50827033225E+01  0.79798169596E+01  0.00000000000E+00 0. -1.
</event>
<event>
 7    1  0.6622189E-010  0.4778727E+02  0.7816164E-02  0.1312668E+00
        -11   -1    0    0    0    0  0.00000000000E+00  0.00000000000E+00  0.45593999997E+02  0.45594000000E+02  0.51100000000E-03 0.  1.
         11   -1    0    0    0    0 -0.00000000000E+00 -0.00000000000E+00 -0.45593999997E+02  0.45594000000E+02  0.51100000000E-03 0. -1.
    9900012    2    1    2    0    0 -0.41774658522E+02 -0.91373896171E+00  0.11733128856E+02  0.47787270441E+02  0.19999997247E+02 0.  0.
        -12    1    1    2    0    0  0.41774658522E+02  0.91373896171E+00 -0.11733128856E+02  0.43400729559E+02  0.00000000000E+00 0.  1.
         11    1    3    3    0    0 -0.34160974898E+02 -0.21155204173E+01  0.82539750221E+01  0.35207609072E+02  0.51100000000E-03 0. -1.
        -11    1    3    3    0    0  0.54539328388E-01  0.37660999181E+01 -0.26959565465E-01  0.37665913251E+01  0.51100000000E-03 0.  1.
         12    1    3    3    0    0 -0.76682229525E+01 -0.25643184625E+01  0.35061133993E+01  0.88130700437E+01  0.00000000000E+00 0. -1.
</event>
<event>
 7    1  0.6622189E-010  0.4778727E+02  0.7816164E-02  0.1312668E+00
        -11   -1    0    0    0    0  0.00000000000E+00  0.00000000000E+00  0.45593999997E+02  0.45594000000E+02  0.51100000000E-03 0. -1.
         11   -1    0    0    0    0 -0.00000000000E+00 -0.00000000000E+00 -0.45593999997E+02  0.45594000000E+02  0.51100000000E-03 0.  1.
    9900012    2    1    2    0    0 -0.10015760984E+02 -0.76852634649E+01  0.41524020446E+02  0.47787274008E+02  0.20000013513E+02 0.  0.
        -12    1    1    2    0    0  0.10015760984E+02  0.76852634649E+01 -0.41524020446E+02  0.43400725992E+02  0.00000000000E+00 0.  1.
         11    1    3    3    0    0 -0.57927661879E+01  0.13473176960E+01  0.88474169216E+01  0.10660590581E+02  0.51100000000E-03 0. -1.
        -11    1    3    3    0    0  0.45748827404E+01 -0.73647855453E+01  0.16137181280E+02  0.18318794670E+02  0.51100000000E-03 0.  1.
        -12    1    3    3    0    0 -0.87978775369E+01 -0.16677956156E+01  0.16539422244E+02  0.18807888758E+02  0.00000000000E+00 0.  1.
</event>
<event>
 7    1  0.6622189E-010  0.4778728E+02  0.7816164E-02  0.1312668E+00
        -11   -1    0    0    0    0  0.00000000000E+00  0.00000000000E+00  0.45593999997E+02  0.45594000000E+02  0.51100000000E-03 0. -1.
         11   -1    0    0    0    0 -0.00000000000E+00 -0.00000000000E+00 -0.45593999997E+02  0.45594000000E+02  0.51100000000E-03 0.  1.
    9900012    2    1    2    0    0 -0.39183455460E+02  0.15115867977E+02  0.10944868657E+02  0.47787276545E+02  0.20000025081E+02 0.  0.
        -12    1    1    2    0    0  0.39183455460E+02 -0.15115867977E+02 -0.10944868657E+02  0.43400723455E+02  0.00000000000E+00 0.  1.
         11    1    3    3    0    0 -0.14240152943E+02  0.71929701595E+01 -0.40510218778E+01  0.16459998605E+02  0.51100000000E-03 0.  1.
        -11    1    3    3    0    0 -0.10829330588E+02  0.23575018293E+01  0.18168812314E+01  0.11230907066E+02  0.51100000000E-03 0. -1.
         12    1    3    3    0    0 -0.14113971929E+02  0.55653959879E+01  0.13179009303E+02  0.20096370874E+02  0.00000000000E+00 0. -1.
</event>
<event>
 7    1  0.6622189E-010  0.4778727E+02  0.7816164E-02  0.1312668E+00
        -11   -1    0    0    0    0  0.00000000000E+00  0.00000000000E+00  0.45593999997E+02  0.45594000000E+02  0.51100000000E-03 0. -1.
         11   -1    0    0    0    0 -0.00000000000E+00 -0.00000000000E+00 -0.45593999997E+02  0.45594000000E+02  0.51100000000E-03 0.  1.
    9900012    2    1    2    0    0 -0.25478446244E+02  0.20709074166E+02  0.28383204631E+02  0.47787270963E+02  0.19999999629E+02 0.  0.
        -12    1    1    2    0    0  0.25478446244E+02 -0.20709074166E+02 -0.28383204631E+02  0.43400729037E+02  0.00000000000E+00 0.  1.
         11    1    3    3    0    0 -0.70792887887E+01  0.75364969407E+01  0.19460068178E+02  0.22036546227E+02  0.51100000000E-03 0. -1.
        -11    1    3    3    0    0 -0.14896159794E+02  0.58200697802E+01  0.63821928725E+01  0.17219209476E+02  0.51100000000E-03 0.  1.
        -12    1    3    3    0    0 -0.35029976611E+01  0.73525074455E+01  0.25409435810E+01  0.85315152600E+01  0.00000000000E+00 0.  1.
</event>
<event>
 7    1  0.7476847E-010  0.4778727E+02  0.7816164E-02  0.1312668E+00
        -11   -1    0    0    0    0  0.00000000000E+00  0.00000000000E+00  0.45593999997E+02  0.45594000000E+02  0.51100000000E-03 0. -1.
         11   -1    0    0    0    0 -0.00000000000E+00 -0.00000000000E+00 -0.45593999997E+02  0.45594000000E+02  0.51100000000E-03 0.  1.
    9900012    2    1    2    0    0 -0.74466227983E+00 -0.12129243507E+02  0.41664737505E+02  0.47787269346E+02  0.19999992255E+02 0.  0.
        -12    1    1    2    0    0  0.74466227983E+00  0.12129243507E+02 -0.41664737505E+02  0.43400730654E+02  0.00000000000E+00 0.  1.
         11    1    3    3    0    0 -0.22670728354E+01 -0.78137171776E+01  0.38866070579E+02  0.39708503345E+02  0.51100000000E-03 0. -1.
        -11    1    3    3    0    0 -0.18838266976E+01 -0.16542896491E+00 -0.24532524382E+00  0.19069227843E+01  0.51100000000E-03 0.  1.
         12    1    3    3    0    0  0.34062372531E+01 -0.41500973645E+01  0.30439921697E+01  0.61718432165E+01  0.00000000000E+00 0. -1.
</event>
<event>
 7    1  0.6622189E-010  0.4778728E+02  0.7816164E-02  0.1312668E+00
        -11   -1    0    0    0    0  0.00000000000E+00  0.00000000000E+00  0.45593999997E+02  0.45594000000E+02  0.51100000000E-03 0. -1.
         11   -1    0    0    0    0 -0.00000000000E+00 -0.00000000000E+00 -0.45593999997E+02  0.45594000000E+02  0.51100000000E-03 0.  1.
    9900012    2    1    2    0    0 -0.20717674775E+02  0.32790530922E+02  0.19472594086E+02  0.47787275506E+02  0.20000020342E+02 0.  0.
        -12    1    1    2    0    0  0.20717674775E+02 -0.32790530922E+02 -0.19472594086E+02  0.43400724494E+02  0.00000000000E+00 0.  1.
         11    1    3    3    0    0 -0.13010298521E+02  0.20847365711E+02  0.59579366800E+01  0.25285915733E+02  0.51100000000E-03 0. -1.
        -11    1    3    3    0    0  0.28602268721E+00 -0.15128741932E+01  0.37503698427E+01  0.40541178474E+01  0.51100000000E-03 0.  1.
        -12    1    3    3    0    0 -0.79933989407E+01  0.13456039404E+02  0.97642875630E+01  0.18447241926E+02  0.00000000000E+00 0.  1.
</event>
<event>
 7    1  0.6622189E-010  0.4778727E+02  0.7816164E-02  0.1312668E+00
        -11   -1    0    0    0    0  0.00000000000E+00  0.00000000000E+00  0.45593999997E+02  0.45594000000E+02  0.51100000000E-03 0. -1.
         11   -1    0    0    0    0 -0.00000000000E+00 -0.00000000000E+00 -0.45593999997E+02  0.45594000000E+02  0.51100000000E-03 0.  1.
    9900012    2    1    2    0    0 -0.82273443207E+01  0.21563026431E+02  0.36755539948E+02  0.47787273965E+02  0.20000013318E+02 0.  0.
        -12    1    1    2    0    0  0.82273443207E+01 -0.21563026431E+02 -0.36755539948E+02  0.43400726035E+02  0.00000000000E+00 0.  1.
         11    1    3    3    0    0 -0.68897480027E+01  0.79431106090E+01  0.57453568786E+01  0.11982101636E+02  0.51100000000E-03 0. -1.
        -11    1    3    3    0    0  0.12463023034E+01  0.14903144237E+02  0.24854219400E+02  0.29006709566E+02  0.51100000000E-03 0.  1.
         12    1    3    3    0    0 -0.25838986213E+01 -0.12832284151E+01  0.61559636695E+01  0.67984627638E+01  0.00000000000E+00 0. -1.
</event>
<event>
 7    1  0.6622189E-010  0.4778727E+02  0.7816164E-02  0.1312668E+00
        -11   -1    0    0    0    0  0.00000000000E+00  0.00000000000E+00  0.45593999997E+02  0.45594000000E+02  0.51100000000E-03 0.  1.
         11   -1    0    0    0    0 -0.00000000000E+00 -0.00000000000E+00 -0.45593999997E+02  0.45594000000E+02  0.51100000000E-03 0. -1.
    9900012    2    1    2    0    0  0.41760876451E+02  0.87569624771E+01  0.79352460719E+01  0.47787270467E+02  0.19999997369E+02 0.  0.
        -12    1    1    2    0    0 -0.41760876451E+02 -0.87569624771E+01 -0.79352460719E+01  0.43400729533E+02  0.00000000000E+00 0.  1.
         11    1    3    3    0    0  0.17854672999E+02  0.21598476706E+01 -0.39559160083E+01  0.18414764772E+02  0.51100000000E-03 0.  1.
        -11    1    3    3    0    0  0.15845819969E+02  0.26669916381E+00  0.10544234887E+02  0.19035283779E+02  0.51100000000E-03 0. -1.
        -12    1    3    3    0    0  0.80603834824E+01  0.63304156427E+01  0.13469271936E+01  0.10337221917E+02  0.00000000000E+00 0.  1.
</event>
<event>
 7    1  0.6622189E-010  0.4778727E+02  0.7816164E-02  0.1312668E+00
        -11   -1    0    0    0    0  0.00000000000E+00  0.00000000000E+00  0.45593999997E+02  0.45594000000E+02  0.51100000000E-03 0.  1.
         11   -1    0    0    0    0 -0.00000000000E+00 -0.00000000000E+00 -0.45593999997E+02  0.45594000000E+02  0.51100000000E-03 0. -1.
    9900012    2    1    2    0    0  0.27207801263E+02  0.13078656536E+02 -0.31181846232E+02  0.47787271425E+02  0.20000001737E+02 0.  0.
         12    1    1    2    0    0 -0.27207801263E+02 -0.13078656536E+02  0.31181846232E+02  0.43400728575E+02  0.00000000000E+00 0. -1.
         11    1    3    3    0    0 -0.20352040211E+01  0.17696391801E+01 -0.28102316333E+01  0.38950071025E+01  0.51100000000E-03 0. -1.
        -11    1    3    3    0    0  0.16363341612E+02  0.11071431573E+02 -0.12211990539E+02  0.23226456014E+02  0.51100000000E-03 0.  1.
        -12    1    3    3    0    0  0.12879663672E+02  0.23758578316E+00 -0.16159624060E+02  0.20665808309E+02  0.00000000000E+00 0.  1.
</event>
<event>
 7    1  0.6622189E-010  0.4778727E+02  0.7816164E-02  0.1312668E+00
        -11   -1    0    0    0    0  0.00000000000E+00  0.00000000000E+00  0.45593999997E+02  0.45594000000E+02  0.51100000000E-03 0. -1.
         11   -1    0    0    0    0 -0.00000000000E+00 -0.00000000000E+00 -0.45593999997E+02  0.45594000000E+02  0.51100000000E-03 0.  1.
    9900012    2    1    2    0    0  0.90308883733E+01  0.31053706852E+01 -0.42337018166E+02  0.47787269832E+02  0.19999994474E+02 0.  0.
         12    1    1    2    0    0 -0.90308883733E+01 -0.31053706852E+01  0.42337018166E+02  0.43400730168E+02  0.00000000000E+00 0. -1.
         11    1    3    3    0    0 -0.48430320073E+01 -0.13776986839E+01 -0.55371863478E+01  0.74842130915E+01  0.51100000000E-03 0.  1.
        -11    1    3    3    0    0  0.13902155292E+02  0.55092225517E+01 -0.31062754831E+02  0.34474863203E+02  0.51100000000E-03 0. -1.
        -12    1    3    3    0    0 -0.28234911631E-01 -0.10261531827E+01 -0.57370769868E+01  0.58281935381E+01  0.00000000000E+00 0.  1.
</event>
<event>
 7    1  0.6622189E-010  0.4778727E+02  0.7816164E-02  0.1312668E+00
        -11   -1    0    0    0    0  0.00000000000E+00  0.00000000000E+00  0.45593999997E+02  0.45594000000E+02  0.51100000000E-03 0. -1.
         11   -1    0    0    0    0 -0.00000000000E+00 -0.00000000000E+00 -0.45593999997E+02  0.45594000000E+02  0.51100000000E-03 0.  1.
    9900012    2    1    2    0    0 -0.12229751973E+02  0.59689919185E+01  0.41211981717E+02  0.47787272645E+02  0.20000007299E+02 0.  0.
        -12    1    1    2    0    0  0.12229751973E+02 -0.59689919185E+01 -0.41211981717E+02  0.43400727355E+02  0.00000000000E+00 0.  1.
         11    1    3    3    0    0 -0.83420778981E+00  0.48936603556E+01  0.23660853113E+02  0.24176016724E+02  0.51100000000E-03 0. -1.
        -11    1    3    3    0    0 -0.99563595358E+01 -0.38384241565E+01  0.11638504032E+02  0.15789786939E+02  0.51100000000E-03 0.  1.
        -12    1    3    3    0    0 -0.14391846470E+01  0.49137557194E+01  0.59126245722E+01  0.78214689829E+01  0.00000000000E+00 0.  1.
</event>
<event>
 7    1  0.6622189E-010  0.4778732E+02  0.7816164E-02  0.1312668E+00
        -11   -1    0    0    0    0  0.00000000000E+00  0.00000000000E+00  0.45593999997E+02  0.45594000000E+02  0.51100000000E-03 0. -1.
         11   -1    0    0    0    0 -0.00000000000E+00 -0.00000000000E+00 -0.45593999997E+02  0.45594000000E+02  0.51100000000E-03 0.  1.
    9900012    2    1    2    0    0 -0.31398890886E+02  0.21340540260E+01  0.29886021715E+02  0.47787322247E+02  0.20000233451E+02 0.  0.
        -12    1    1    2    0    0  0.31398890886E+02 -0.21340540260E+01 -0.29886021715E+02  0.43400677753E+02  0.00000000000E+00 0.  1.
         11    1    3    3    0    0 -0.19684769372E+02  0.80395665270E+01  0.14402172527E+02  0.25681653937E+02  0.51100000000E-03 0. -1.
        -11    1    3    3    0    0 -0.41584275096E+01 -0.43100566478E+01  0.12437205534E+02  0.13804100456E+02  0.51100000000E-03 0.  1.
        -12    1    3    3    0    0 -0.75556940050E+01 -0.15954558531E+01  0.30466436540E+01  0.83015678538E+01  0.00000000000E+00 0.  1.
</event>
<event>
 7    1  0.6622189E-010  0.4778727E+02  0.7816164E-02  0.1312668E+00
        -11   -1    0    0    0    0  0.00000000000E+00  0.00000000000E+00  0.45593999997E+02  0.45594000000E+02  0.51100000000E-03 0. -1.
         11   -1    0    0    0    0 -0.00000000000E+00 -0.00000000000E+00 -0.45593999997E+02  0.45594000000E+02  0.51100000000E-03 0.  1.
    9900012    2    1    2    0    0  0.42497002205E+02 -0.21833872705E+01  0.85358541405E+01  0.47787272099E+02  0.20000004808E+02 0.  0.
        -12    1    1    2    0    0 -0.42497002205E+02  0.21833872705E+01 -0.85358541405E+01  0.43400727901E+02  0.00000000000E+00 0.  1.
         11    1    3    3    0    0  0.20114333306E+00 -0.47318338376E-01  0.16476815535E+01  0.16605879767E+01  0.51100000000E-03 0. -1.
        -11    1    3    3    0    0  0.30088367601E+02 -0.28270840409E+01  0.12461527655E+02  0.32689324570E+02  0.51100000000E-03 0.  1.
        -12    1    3    3    0    0  0.12207491271E+02  0.69101510869E+00 -0.55733550685E+01  0.13437359552E+02  0.00000000000E+00 0.  1.
</event>
<event>
 7    1  0.6622189E-010  0.4778727E+02  0.7816164E-02  0.1312668E+00
        -11   -1    0    0    0    0  0.00000000000E+00  0.00000000000E+00  0.45593999997E+02  0.45594000000E+02  0.51100000000E-03 0.  1.
         11   -1    0    0    0    0 -0.00000000000E+00 -0.00000000000E+00 -0.45593999997E+02  0.45594000000E+02  0.51100000000E-03 0. -1.
    9900012    2    1    2    0    0  0.14865956377E+02  0.40014687450E+02 -0.78391099627E+01  0.47787268259E+02  0.19999987299E+02 0.  0.
         12    1    1    2    0    0 -0.14865956377E+02 -0.40014687450E+02  0.78391099627E+01  0.43400731741E+02  0.00000000000E+00 0. -1.
         11    1    3    3    0    0 -0.28679588733E+01  0.60461019538E+01  0.21279843577E+01  0.70220263900E+01  0.51100000000E-03 0. -1.
        -11    1    3    3    0    0  0.14564956261E+02  0.21947945027E+02 -0.10416344171E+02  0.28325791568E+02  0.51100000000E-03 0.  1.
        -12    1    3    3    0    0  0.31689589885E+01  0.12020640469E+02  0.44924985094E+00  0.12439450300E+02  0.00000000000E+00 0.  1.
</event>
<event>
 7    1  0.7508799E-010  0.4778725E+02  0.7816164E-02  0.1312668E+00
        -11   -1    0    0    0    0  0.00000000000E+00  0.00000000000E+00  0.45593999997E+02  0.45594000000E+02  0.51100000000E-03 0. -1.
         11   -1    0    0    0    0 -0.00000000000E+00 -0.00000000000E+00 -0.45593999997E+02  0.45594000000E+02  0.51100000000E-03 0.  1.
    9900012    2    1    2    0    0  0.24760919858E+02  0.11701549553E+02 -0.33668916956E+02  0.47787246744E+02  0.19999889205E+02 0.  0.
         12    1    1    2    0    0 -0.24760919858E+02 -0.11701549553E+02  0.33668916956E+02  0.43400753256E+02  0.00000000000E+00 0. -1.
         11    1    3    3    0    0  0.20497941244E+01 -0.11997258549E+01 -0.23547128331E+00  0.23867226621E+01  0.51100000000E-03 0. -1.
        -11    1    3    3    0    0  0.22151117738E+02  0.99842984601E+01 -0.19501646910E+02  0.31155616913E+02  0.51100000000E-03 0.  1.
        -12    1    3    3    0    0  0.56000799550E+00  0.29169769481E+01 -0.13931798763E+02  0.14244907169E+02  0.00000000000E+00 0.  1.
</event>
<event>
 7    1  0.6622189E-010  0.4778727E+02  0.7816164E-02  0.1312668E+00
        -11   -1    0    0    0    0  0.00000000000E+00  0.00000000000E+00  0.45593999997E+02  0.45594000000E+02  0.51100000000E-03 0. -1.
         11   -1    0    0    0    0 -0.00000000000E+00 -0.00000000000E+00 -0.45593999997E+02  0.45594000000E+02  0.51100000000E-03 0.  1.
    9900012    2    1    2    0    0  0.39993517360E+02 -0.15106769077E+02  0.74784455779E+01  0.47787273612E+02  0.20000011705E+02 0.  0.
         12    1    1    2    0    0 -0.39993517360E+02  0.15106769077E+02 -0.74784455779E+01  0.43400726388E+02  0.00000000000E+00 0. -1.
         11    1    3    3    0    0  0.32844380049E+01  0.98286715935E+00  0.36056022136E+01  0.49753319934E+01  0.51100000000E-03 0. -1.
        -11    1    3    3    0    0  0.12927834177E+02  0.12958840796E+01 -0.64691986000E+00  0.13008716986E+02  0.51100000000E-03 0.  1.
        -12    1    3    3    0    0  0.23781245178E+02 -0.17385520316E+02  0.45197632243E+01  0.29803224632E+02  0.00000000000E+00 0.  1.
</event>
<event>
 7    1  0.6622189E-010  0.4778727E+02  0.7816164E-02  0.1312668E+00
        -11   -1    0    0    0    0  0.00000000000E+00  0.00000000000E+00  0.45593999997E+02  0.45594000000E+02  0.51100000000E-03 0. -1.
         11   -1    0    0    0    0 -0.00000000000E+00 -0.00000000000E+00 -0.45593999997E+02  0.45594000000E+02  0.51100000000E-03 0.  1.
    9900012    2    1    2    0    0  0.39728266194E+02  0.11443791601E+02 -0.13203321391E+02  0.47787271933E+02  0.20000004051E+02 0.  0.
         12    1    1    2    0    0 -0.39728266194E+02 -0.11443791601E+02  0.13203321391E+02  0.43400728067E+02  0.00000000000E+00 0. -1.
         11    1    3    3    0    0  0.18507904404E+02 -0.26590298409E+00 -0.29614629415E+00  0.18512183358E+02  0.51100000000E-03 0. -1.
        -11    1    3    3    0    0  0.15911194113E+01 -0.14653828416E+01 -0.28647549392E+01  0.35896836875E+01  0.51100000000E-03 0.  1.
         12    1    3    3    0    0  0.19629242379E+02  0.13175077427E+02 -0.10042420158E+02  0.25685404887E+02  0.00000000000E+00 0. -1.
</event>
<event>
 7    1  0.6622189E-010  0.4778729E+02  0.7816164E-02  0.1312668E+00
        -11   -1    0    0    0    0  0.00000000000E+00  0.00000000000E+00  0.45593999997E+02  0.45594000000E+02  0.51100000000E-03 0. -1.
         11   -1    0    0    0    0 -0.00000000000E+00 -0.00000000000E+00 -0.45593999997E+02  0.45594000000E+02  0.51100000000E-03 0.  1.
    9900012    2    1    2    0    0  0.17960583997E+02 -0.36531995726E+01 -0.39340736672E+02  0.47787285645E+02  0.20000066571E+02 0.  0.
         12    1    1    2    0    0 -0.17960583997E+02  0.36531995726E+01  0.39340736672E+02  0.43400714355E+02  0.00000000000E+00 0. -1.
         11    1    3    3    0    0  0.18799116964E+01  0.41526353935E+01 -0.75765044081E+01  0.88420511198E+01  0.51100000000E-03 0. -1.
        -11    1    3    3    0    0  0.16874876852E+02 -0.82188821054E+01 -0.32665959588E+02  0.37674612246E+02  0.51100000000E-03 0.  1.
        -12    1    3    3    0    0 -0.79420455179E+00  0.41304713931E+00  0.90172732437E+00  0.12706222794E+01  0.00000000000E+00 0.  1.
</event>
<event>
 7    1  0.6622189E-010  0.4778727E+02  0.7816164E-02  0.1312668E+00
        -11   -1    0    0    0    0  0.00000000000E+00  0.00000000000E+00  0.45593999997E+02  0.45594000000E+02  0.51100000000E-03 0. -1.
         11   -1    0    0    0    0 -0.00000000000E+00 -0.00000000000E+00 -0.45593999997E+02  0.45594000000E+02  0.51100000000E-03 0.  1.
    9900012    2    1    2    0    0 -0.52109702049E+01  0.12157049380E+02 -0.41336122454E+02  0.47787273282E+02  0.20000010201E+02 0.  0.
         12    1    1    2    0    0  0.52109702049E+01 -0.12157049380E+02  0.41336122454E+02  0.43400726718E+02  0.00000000000E+00 0. -1.
         11    1    3    3    0    0 -0.17054050656E+01  0.68296424979E+01 -0.27987355764E+01  0.75753114903E+01  0.51100000000E-03 0. -1.
        -11    1    3    3    0    0 -0.10440304608E+01  0.39194710240E+01 -0.45062549055E+01  0.60628859667E+01  0.51100000000E-03 0.  1.
         12    1    3    3    0    0 -0.24615346785E+01  0.14079358582E+01 -0.34031131972E+02  0.34149075825E+02  0.00000000000E+00 0. -1.
</event>
<event>
 7    1  0.6622189E-010  0.4778727E+02  0.7816164E-02  0.1312668E+00
        -11   -1    0    0    0    0  0.00000000000E+00  0.00000000000E+00  0.45593999997E+02  0.45594000000E+02  0.51100000000E-03 0. -1.
         11   -1    0    0    0    0 -0.00000000000E+00 -0.00000000000E+00 -0.45593999997E+02  0.45594000000E+02  0.51100000000E-03 0.  1.
    9900012    2    1    2    0    0  0.26896187761E+02 -0.14419649465E+02  0.30859230733E+02  0.47787270418E+02  0.19999997145E+02 0.  0.
        -12    1    1    2    0    0 -0.26896187761E+02  0.14419649465E+02 -0.30859230733E+02  0.43400729582E+02  0.00000000000E+00 0.  1.
         11    1    3    3    0    0  0.40084337815E+01 -0.11508343593E+02  0.12608597617E+02  0.17535285790E+02  0.51100000000E-03 0. -1.
        -11    1    3    3    0    0  0.11217370166E+02  0.16875485823E+01  0.65535096820E+01  0.13100599340E+02  0.51100000000E-03 0.  1.
         12    1    3    3    0    0  0.11670383814E+02 -0.45988544545E+01  0.11697123434E+02  0.17151385288E+02  0.00000000000E+00 0. -1.
</event>
<event>
 7    1  0.6622189E-010  0.4778727E+02  0.7816164E-02  0.1312668E+00
        -11   -1    0    0    0    0  0.00000000000E+00  0.00000000000E+00  0.45593999997E+02  0.45594000000E+02  0.51100000000E-03 0.  1.
         11   -1    0    0    0    0 -0.00000000000E+00 -0.00000000000E+00 -0.45593999997E+02  0.45594000000E+02  0.51100000000E-03 0. -1.
    9900012    2    1    2    0    0  0.39594022807E+02 -0.17589282861E+02 -0.25601146367E+01  0.47787266129E+02  0.19999977587E+02 0.  0.
         12    1    1    2    0    0 -0.39594022807E+02  0.17589282861E+02  0.25601146367E+01  0.43400733871E+02  0.00000000000E+00 0. -1.
         11    1    3    3    0    0  0.27333365513E+02 -0.14118173372E+02 -0.75995524792E+01  0.31688939518E+02  0.51100000000E-03 0. -1.
        -11    1    3    3    0    0  0.86741552680E+01  0.48589838289E+00 -0.97446537491E-01  0.86883003482E+01  0.51100000000E-03 0.  1.
         12    1    3    3    0    0  0.35865020263E+01 -0.39570078716E+01  0.51368843799E+01  0.74100262627E+01  0.00000000000E+00 0. -1.
</event>
<event>
 7    1  0.6622189E-010  0.4778727E+02  0.7816164E-02  0.1312668E+00
        -11   -1    0    0    0    0  0.00000000000E+00  0.00000000000E+00  0.45593999997E+02  0.45594000000E+02  0.51100000000E-03 0. -1.
         11   -1    0    0    0    0 -0.00000000000E+00 -0.00000000000E+00 -0.45593999997E+02  0.45594000000E+02  0.51100000000E-03 0.  1.
    9900012    2    1    2    0    0  0.28964326197E+02 -0.65212370581E+01  0.31656981791E+02  0.47787271654E+02  0.20000002778E+02 0.  0.
        -12    1    1    2    0    0 -0.28964326197E+02  0.65212370581E+01 -0.31656981791E+02  0.43400728346E+02  0.00000000000E+00 0.  1.
         11    1    3    3    0    0  0.21543901407E+02 -0.93237245111E+01  0.20484411893E+02  0.31155780482E+02  0.51100000000E-03 0. -1.
        -11    1    3    3    0    0  0.37927454564E+01  0.60506604358E+01  0.84108110891E+01  0.11033456088E+02  0.51100000000E-03 0.  1.
        -12    1    3    3    0    0  0.36276793340E+01 -0.32481729827E+01  0.27617588094E+01  0.55980350836E+01  0.00000000000E+00 0.  1.
</event>
<event>
 7    1  0.6622189E-010  0.4778726E+02  0.7816164E-02  0.1312668E+00
        -11   -1    0    0    0    0  0.00000000000E+00  0.00000000000E+00  0.45593999997E+02  0.45594000000E+02  0.51100000000E-03 0. -1.
         11   -1    0    0    0    0 -0.00000000000E+00 -0.00000000000E+00 -0.45593999997E+02  0.45594000000E+02  0.51100000000E-03 0.  1.
    9900012    2    1    2    0    0  0.33294106640E+02  0.88828982938E+01  0.26385990945E+02  0.47787263403E+02  0.19999965159E+02 0.  0.
        -12    1    1    2    0    0 -0.33294106640E+02 -0.88828982938E+01 -0.26385990945E+02  0.43400736597E+02  0.00000000000E+00 0.  1.
         11    1    3    3    0    0  0.30329242219E+01  0.16301819844E+01  0.35555725851E+01  0.49495675879E+01  0.51100000000E-03 0.  1.
        -11    1    3    3    0    0  0.21580949227E+02  0.12165674518E+02  0.10318674113E+02  0.26836841128E+02  0.51100000000E-03 0. -1.
        -12    1    3    3    0    0  0.86802331905E+01 -0.49129582090E+01  0.12511744247E+02  0.16000854687E+02  0.00000000000E+00 0.  1.
</event>
<event>
 7    1  0.6622189E-010  0.4778727E+02  0.7816164E-02  0.1312668E+00
        -11   -1    0    0    0    0  0.00000000000E+00  0.00000000000E+00  0.45593999997E+02  0.45594000000E+02  0.51100000000E-03 0. -1.
         11   -1    0    0    0    0 -0.00000000000E+00 -0.00000000000E+00 -0.45593999997E+02  0.45594000000E+02  0.51100000000E-03 0.  1.
    9900012    2    1    2    0    0 -0.18701090739E+02 -0.23576856635E+01 -0.39093915477E+02  0.47787266091E+02  0.19999977415E+02 0.  0.
         12    1    1    2    0    0  0.18701090739E+02  0.23576856635E+01  0.39093915477E+02  0.43400733909E+02  0.00000000000E+00 0. -1.
         11    1    3    3    0    0 -0.46500539258E+01  0.23191896521E+01 -0.50684316354E+01  0.72588319762E+01  0.51100000000E-03 0. -1.
        -11    1    3    3    0    0 -0.12621196541E+02  0.33861501838E+01 -0.25806242247E+02  0.28926160381E+02  0.51100000000E-03 0.  1.
        -12    1    3    3    0    0 -0.14298402722E+01 -0.80630254994E+01 -0.82192415947E+01  0.11602273734E+02  0.00000000000E+00 0.  1.
</event>
<event>
 7    1  0.6622189E-010  0.4778727E+02  0.7816164E-02  0.1312668E+00
        -11   -1    0    0    0    0  0.00000000000E+00  0.00000000000E+00  0.45593999997E+02  0.45594000000E+02  0.51100000000E-03 0. -1.
         11   -1    0    0    0    0 -0.00000000000E+00 -0.00000000000E+00 -0.45593999997E+02  0.45594000000E+02  0.51100000000E-03 0.  1.
    9900012    2    1    2    0    0 -0.26494435409E+02  0.12944557050E+02 -0.31845038027E+02  0.47787272912E+02  0.20000008513E+02 0.  0.
         12    1    1    2    0    0  0.26494435409E+02 -0.12944557050E+02  0.31845038027E+02  0.43400727088E+02  0.00000000000E+00 0. -1.
         11    1    3    3    0    0 -0.13930532570E+02  0.12779286531E+02 -0.10854312036E+02  0.21798761248E+02  0.51100000000E-03 0. -1.
        -11    1    3    3    0    0 -0.39266089620E+01  0.35157691185E+01 -0.39293074756E+01  0.65740663165E+01  0.51100000000E-03 0.  1.
         12    1    3    3    0    0 -0.86372938770E+01 -0.33504985991E+01 -0.17061418515E+02  0.19414445347E+02  0.00000000000E+00 0. -1.
</event>
<event>
 7    1  0.6622189E-010  0.4778730E+02  0.7816164E-02  0.1312668E+00
        -11   -1    0    0    0    0  0.00000000000E+00  0.00000000000E+00  0.45593999997E+02  0.45594000000E+02  0.51100000000E-03 0. -1.
         11   -1    0    0    0    0 -0.00000000000E+00 -0.00000000000E+00 -0.45593999997E+02  0.45594000000E+02  0.51100000000E-03 0.  1.
    9900012    2    1    2    0    0  0.10984035373E+02 -0.28193162146E+01 -0.41892999604E+02  0.47787297323E+02  0.20000119815E+02 0.  0.
         12    1    1    2    0    0 -0.10984035373E+02  0.28193162146E+01  0.41892999604E+02  0.43400702677E+02  0.00000000000E+00 0. -1.
         11    1    3    3    0    0 -0.29944017419E+01 -0.36044131274E+01 -0.18765207081E+02  0.19341438230E+02  0.51100000000E-03 0. -1.
        -11    1    3    3    0    0  0.49739933972E+01  0.45418983729E+01 -0.81902206488E+01  0.10604205094E+02  0.51100000000E-03 0.  1.
         12    1    3    3    0    0  0.90044437182E+01 -0.37568014601E+01 -0.14937571875E+02  0.17841653998E+02  0.00000000000E+00 0. -1.
</event>
<event>
 7    1  0.6622189E-010  0.4778727E+02  0.7816164E-02  0.1312668E+00
        -11   -1    0    0    0    0  0.00000000000E+00  0.00000000000E+00  0.45593999997E+02  0.45594000000E+02  0.51100000000E-03 0. -1.
         11   -1    0    0    0    0 -0.00000000000E+00 -0.00000000000E+00 -0.45593999997E+02  0.45594000000E+02  0.51100000000E-03 0.  1.
    9900012    2    1    2    0    0  0.22767754154E+02 -0.29632068606E+02 -0.22072452591E+02  0.47787270946E+02  0.19999999550E+02 0.  0.
         12    1    1    2    0    0 -0.22767754154E+02  0.29632068606E+02  0.22072452591E+02  0.43400729054E+02  0.00000000000E+00 0. -1.
         11    1    3    3    0    0  0.22255335874E+01  0.24091718511E+01 -0.45947666371E+01  0.56452625685E+01  0.51100000000E-03 0.  1.
        -11    1    3    3    0    0  0.12570281756E+02 -0.22858904229E+02 -0.10490550308E+02  0.28117488010E+02  0.51100000000E-03 0. -1.
        -12    1    3    3    0    0  0.79719388099E+01 -0.91823362278E+01 -0.69871356464E+01  0.14024520367E+02  0.00000000000E+00 0.  1.
</event>
<event>
 7    1  0.6622189E-010  0.4778729E+02  0.7816164E-02  0.1312668E+00
        -11   -1    0    0    0    0  0.00000000000E+00  0.00000000000E+00  0.45593999997E+02  0.45594000000E+02  0.51100000000E-03 0. -1.
         11   -1    0    0    0    0 -0.00000000000E+00 -0.00000000000E+00 -0.45593999997E+02  0.45594000000E+02  0.51100000000E-03 0.  1.
    9900012    2    1    2    0    0 -0.62795696234E+01  0.27129115317E+01 -0.42858235836E+02  0.47787294216E+02  0.20000105647E+02 0.  0.
         12    1    1    2    0    0  0.62795696234E+01 -0.27129115317E+01  0.42858235836E+02  0.43400705784E+02  0.00000000000E+00 0. -1.
         11    1    3    3    0    0  0.34833052408E+00 -0.44992236158E+01 -0.21686072245E+02  0.22150622496E+02  0.51100000000E-03 0. -1.
        -11    1    3    3    0    0 -0.86333549584E+01  0.52108261068E+01 -0.10351871492E+02  0.14451600956E+02  0.51100000000E-03 0.  1.
        -12    1    3    3    0    0  0.20054548110E+01  0.20013090407E+01 -0.10820292099E+02  0.11185070763E+02  0.00000000000E+00 0.  1.
</event>
<event>
 7    1  0.6622189E-010  0.4778727E+02  0.7816164E-02  0.1312668E+00
        -11   -1    0    0    0    0  0.00000000000E+00  0.00000000000E+00  0.45593999997E+02  0.45594000000E+02  0.51100000000E-03 0. -1.
         11   -1    0    0    0    0 -0.00000000000E+00 -0.00000000000E+00 -0.45593999997E+02  0.45594000000E+02  0.51100000000E-03 0.  1.
    9900012    2    1    2    0    0 -0.13174074661E+02 -0.26675047289E+02  0.31599195119E+02  0.47787268172E+02  0.19999986902E+02 0.  0.
        -12    1    1    2    0    0  0.13174074661E+02  0.26675047289E+02 -0.31599195119E+02  0.43400731828E+02  0.00000000000E+00 0.  1.
         11    1    3    3    0    0 -0.91278990158E+01 -0.51756650834E+01  0.80888498101E+01  0.13248982641E+02  0.51100000000E-03 0. -1.
        -11    1    3    3    0    0 -0.59514879085E+01 -0.21722704139E+02  0.23593359922E+02  0.32618134774E+02  0.51100000000E-03 0.  1.
        -12    1    3    3    0    0  0.19053122630E+01  0.22332193366E+00 -0.83014612772E-01  0.19201507575E+01  0.00000000000E+00 0.  1.
</event>
<event>
 7    1  0.6622189E-010  0.4778727E+02  0.7816164E-02  0.1312668E+00
        -11   -1    0    0    0    0  0.00000000000E+00  0.00000000000E+00  0.45593999997E+02  0.45594000000E+02  0.51100000000E-03 0. -1.
         11   -1    0    0    0    0 -0.00000000000E+00 -0.00000000000E+00 -0.45593999997E+02  0.45594000000E+02  0.51100000000E-03 0.  1.
    9900012    2    1    2    0    0 -0.15358624756E+02  0.26975224614E+02  0.30332705710E+02  0.47787272667E+02  0.20000007396E+02 0.  0.
        -12    1    1    2    0    0  0.15358624756E+02 -0.26975224614E+02 -0.30332705710E+02  0.43400727333E+02  0.00000000000E+00 0.  1.
         11    1    3    3    0    0 -0.51844221589E+01  0.20508212754E+02  0.20434546247E+02  0.29411489321E+02  0.51100000000E-03 0. -1.
        -11    1    3    3    0    0  0.13423104726E+01  0.20637355155E+01  0.40264380167E+01  0.47194284660E+01  0.51100000000E-03 0.  1.
         12    1    3    3    0    0 -0.11516513070E+02  0.44032763447E+01  0.58717214460E+01  0.13656354880E+02  0.00000000000E+00 0. -1.
</event>
<event>
 7    1  0.6622189E-010  0.4778727E+02  0.7816164E-02  0.1312668E+00
        -11   -1    0    0    0    0  0.00000000000E+00  0.00000000000E+00  0.45593999997E+02  0.45594000000E+02  0.51100000000E-03 0. -1.
         11   -1    0    0    0    0 -0.00000000000E+00 -0.00000000000E+00 -0.45593999997E+02  0.45594000000E+02  0.51100000000E-03 0.  1.
    9900012    2    1    2    0    0  0.89181309351E+01  0.35594442629E+02  0.23175974587E+02  0.47787271855E+02  0.20000003698E+02 0.  0.
        -12    1    1    2    0    0 -0.89181309351E+01 -0.35594442629E+02 -0.23175974587E+02  0.43400728145E+02  0.00000000000E+00 0.  1.
         11    1    3    3    0    0 -0.17009373455E+01  0.78300108247E+01  0.11846993367E+02  0.14302220439E+02  0.51100000000E-03 0. -1.
        -11    1    3    3    0    0  0.97346042317E+01  0.26367164252E+02  0.71663474353E+01  0.29005971903E+02  0.51100000000E-03 0.  1.
        -12    1    3    3    0    0  0.88446404885E+00  0.13972675522E+01  0.41626337843E+01  0.44790795135E+01  0.00000000000E+00 0.  1.
</event>
<event>
 7    1  0.6622189E-010  0.4778727E+02  0.7816164E-02  0.1312668E+00
        -11   -1    0    0    0    0  0.00000000000E+00  0.00000000000E+00  0.45593999997E+02  0.45594000000E+02  0.51100000000E-03 0.  1.
         11   -1    0    0    0    0 -0.00000000000E+00 -0.00000000000E+00 -0.45593999997E+02  0.45594000000E+02  0.51100000000E-03 0. -1.
    9900012    2    1    2    0    0 -0.16064414727E+02  0.22052385580E+02 -0.33752781749E+02  0.47787269521E+02  0.19999993055E+02 0.  0.
         12    1    1    2    0    0  0.16064414727E+02 -0.22052385580E+02  0.33752781749E+02  0.43400730479E+02  0.00000000000E+00 0. -1.
         11    1    3    3    0    0 -0.19346959446E+01 -0.21341487256E+01 -0.94629163854E+01  0.98916341400E+01  0.51100000000E-03 0. -1.
        -11    1    3    3    0    0 -0.14134891668E+02  0.20906522143E+02 -0.18681978325E+02  0.31398951336E+02  0.51100000000E-03 0.  1.
        -12    1    3    3    0    0  0.51728861820E-02  0.32800121630E+01 -0.56078870386E+01  0.64966840454E+01  0.00000000000E+00 0.  1.
</event>
<event>
 7    1  0.6622189E-010  0.4778727E+02  0.7816164E-02  0.1312668E+00
        -11   -1    0    0    0    0  0.00000000000E+00  0.00000000000E+00  0.45593999997E+02  0.45594000000E+02  0.51100000000E-03 0. -1.
         11   -1    0    0    0    0 -0.00000000000E+00 -0.00000000000E+00 -0.45593999997E+02  0.45594000000E+02  0.51100000000E-03 0.  1.
    9900012    2    1    2    0    0 -0.31021603565E+02 -0.27008625614E+02 -0.13849811479E+02  0.47787273931E+02  0.20000013163E+02 0.  0.
         12    1    1    2    0    0  0.31021603565E+02  0.27008625614E+02  0.13849811479E+02  0.43400726069E+02  0.00000000000E+00 0. -1.
         11    1    3    3    0    0 -0.25885195301E+02 -0.21225461427E+02 -0.13130593487E+02  0.35957975946E+02  0.51100000000E-03 0. -1.
        -11    1    3    3    0    0 -0.11086227405E+01 -0.46197733274E+00 -0.41536048915E+01  0.43237600874E+01  0.51100000000E-03 0.  1.
         12    1    3    3    0    0 -0.40277855236E+01 -0.53211868540E+01  0.34343869001E+01  0.75055378980E+01  0.00000000000E+00 0. -1.
</event>
<event>
 7    1  0.6622189E-010  0.4778731E+02  0.7816164E-02  0.1312668E+00
        -11   -1    0    0    0    0  0.00000000000E+00  0.00000000000E+00  0.45593999997E+02  0.45594000000E+02  0.51100000000E-03 0. -1.
         11   -1    0    0    0    0 -0.00000000000E+00 -0.00000000000E+00 -0.45593999997E+02  0.45594000000E+02  0.51100000000E-03 0.  1.
    9900012    2    1    2    0    0  0.23191514647E+01 -0.28239904404E+02 -0.32874750717E+02  0.47787309925E+02  0.20000177272E+02 0.  0.
         12    1    1    2    0    0 -0.23191514647E+01  0.28239904404E+02  0.32874750717E+02  0.43400690075E+02  0.00000000000E+00 0. -1.
         11    1    3    3    0    0  0.35445712310E-01  0.11036021991E+01 -0.36999229381E+01  0.38611687637E+01  0.51100000000E-03 0. -1.
        -11    1    3    3    0    0  0.21686081521E+01 -0.26658370463E+02 -0.17539528574E+02  0.31984474983E+02  0.51100000000E-03 0.  1.
        -12    1    3    3    0    0  0.11509760031E+00 -0.26851361405E+01 -0.11635299205E+02  0.11941666179E+02  0.00000000000E+00 0.  1.
</event>
<event>
 7    1  0.6622189E-010  0.4778727E+02  0.7816164E-02  0.1312668E+00
        -11   -1    0    0    0    0  0.00000000000E+00  0.00000000000E+00  0.45593999997E+02  0.45594000000E+02  0.51100000000E-03 0. -1.
         11   -1    0    0    0    0 -0.00000000000E+00 -0.00000000000E+00 -0.45593999997E+02  0.45594000000E+02  0.51100000000E-03 0.  1.
    9900012    2    1    2    0    0 -0.27195196496E+02  0.28286630253E+02 -0.18544840233E+02  0.47787271172E+02  0.20000000582E+02 0.  0.
         12    1    1    2    0    0  0.27195196496E+02 -0.28286630253E+02  0.18544840233E+02  0.43400728828E+02  0.00000000000E+00 0. -1.
         11    1    3    3    0    0  0.21908685377E+01  0.49987003257E+01 -0.11851165944E+01  0.55849271704E+01  0.51100000000E-03 0. -1.
        -11    1    3    3    0    0 -0.21422816654E+02  0.14600847686E+02 -0.15680798017E+02  0.30298667516E+02  0.51100000000E-03 0.  1.
        -12    1    3    3    0    0 -0.79632483800E+01  0.86870822414E+01 -0.16789256218E+01  0.11903676486E+02  0.00000000000E+00 0.  1.
</event>
<event>
 7    1  0.6622189E-010  0.4778727E+02  0.7816164E-02  0.1312668E+00
        -11   -1    0    0    0    0  0.00000000000E+00  0.00000000000E+00  0.45593999997E+02  0.45594000000E+02  0.51100000000E-03 0. -1.
         11   -1    0    0    0    0 -0.00000000000E+00 -0.00000000000E+00 -0.45593999997E+02  0.45594000000E+02  0.51100000000E-03 0.  1.
    9900012    2    1    2    0    0 -0.32341522541E+02  0.14628544229E+02 -0.24973085098E+02  0.47787269985E+02  0.19999995171E+02 0.  0.
         12    1    1    2    0    0  0.32341522541E+02 -0.14628544229E+02  0.24973085098E+02  0.43400730015E+02  0.00000000000E+00 0. -1.
         11    1    3    3    0    0 -0.25845394724E+02  0.17011634608E+02 -0.14153150465E+02  0.34024870445E+02  0.51100000000E-03 0. -1.
        -11    1    3    3    0    0 -0.61008600504E+01 -0.36730311050E+01 -0.95214949596E+01  0.11889933447E+02  0.51100000000E-03 0.  1.
        -12    1    3    3    0    0 -0.39526776624E+00  0.12899407263E+01 -0.12984396734E+01  0.18724660931E+01  0.00000000000E+00 0.  1.
</event>
<event>
 7    1  0.6622189E-010  0.4778727E+02  0.7816164E-02  0.1312668E+00
        -11   -1    0    0    0    0  0.00000000000E+00  0.00000000000E+00  0.45593999997E+02  0.45594000000E+02  0.51100000000E-03 0. -1.
         11   -1    0    0    0    0 -0.00000000000E+00 -0.00000000000E+00 -0.45593999997E+02  0.45594000000E+02  0.51100000000E-03 0.  1.
    9900012    2    1    2    0    0  0.17976935129E+02 -0.29391081184E+02  0.26393508007E+02  0.47787272878E+02  0.20000008362E+02 0.  0.
        -12    1    1    2    0    0 -0.17976935129E+02  0.29391081184E+02 -0.26393508007E+02  0.43400727122E+02  0.00000000000E+00 0.  1.
         11    1    3    3    0    0  0.13088836109E+01 -0.42506611918E+00 -0.21676808918E+01  0.25676250160E+01  0.51100000000E-03 0. -1.
        -11    1    3    3    0    0  0.50251104728E+01 -0.16826957441E+01  0.55793494554E+01  0.76949555449E+01  0.51100000000E-03 0.  1.
         12    1    3    3    0    0  0.11642941045E+02 -0.27283319321E+02  0.22981839443E+02  0.37524692317E+02  0.00000000000E+00 0. -1.
</event>
<event>
 7    1  0.6622189E-010  0.4778727E+02  0.7816164E-02  0.1312668E+00
        -11   -1    0    0    0    0  0.00000000000E+00  0.00000000000E+00  0.45593999997E+02  0.45594000000E+02  0.51100000000E-03 0. -1.
         11   -1    0    0    0    0 -0.00000000000E+00 -0.00000000000E+00 -0.45593999997E+02  0.45594000000E+02  0.51100000000E-03 0.  1.
    9900012    2    1    2    0    0  0.16368122824E+02  0.12823065672E+02 -0.38095622978E+02  0.47787274798E+02  0.20000017113E+02 0.  0.
         12    1    1    2    0    0 -0.16368122824E+02 -0.12823065672E+02  0.38095622978E+02  0.43400725202E+02  0.00000000000E+00 0. -1.
         11    1    3    3    0    0 -0.49515532310E+00 -0.25525311909E+01 -0.19359829374E+00  0.26073118024E+01  0.51100000000E-03 0. -1.
        -11    1    3    3    0    0  0.12447288385E+02  0.11083087955E+02 -0.18869819438E+02  0.25176177483E+02  0.51100000000E-03 0.  1.
         12    1    3    3    0    0  0.44159897622E+01  0.42925089076E+01 -0.19032205246E+02  0.20003785512E+02  0.00000000000E+00 0. -1.
</event>
<event>
 7    1  0.6622189E-010  0.4778727E+02  0.7816164E-02  0.1312668E+00
        -11   -1    0    0    0    0  0.00000000000E+00  0.00000000000E+00  0.45593999997E+02  0.45594000000E+02  0.51100000000E-03 0. -1.
         11   -1    0    0    0    0 -0.00000000000E+00 -0.00000000000E+00 -0.45593999997E+02  0.45594000000E+02  0.51100000000E-03 0.  1.
    9900012    2    1    2    0    0  0.18256250353E+02 -0.14366147141E+02 -0.36659875275E+02  0.47787270561E+02  0.19999997797E+02 0.  0.
         12    1    1    2    0    0 -0.18256250353E+02  0.14366147141E+02  0.36659875275E+02  0.43400729439E+02  0.00000000000E+00 0. -1.
         11    1    3    3    0    0  0.13621328787E+02 -0.12326224524E+02 -0.18660763901E+02  0.26185883956E+02  0.51100000000E-03 0.  1.
        -11    1    3    3    0    0  0.52868035780E+01  0.33778815498E+01 -0.11630184928E+02  0.13214445791E+02  0.51100000000E-03 0. -1.
         12    1    3    3    0    0 -0.65188201157E+00 -0.54178041667E+01 -0.63689264462E+01  0.83869408144E+01  0.00000000000E+00 0. -1.
</event>
<event>
 7    1  0.6622189E-010  0.4778727E+02  0.7816164E-02  0.1312668E+00
        -11   -1    0    0    0    0  0.00000000000E+00  0.00000000000E+00  0.45593999997E+02  0.45594000000E+02  0.51100000000E-03 0. -1.
         11   -1    0    0    0    0 -0.00000000000E+00 -0.00000000000E+00 -0.45593999997E+02  0.45594000000E+02  0.51100000000E-03 0.  1.
    9900012    2    1    2    0    0 -0.20119510400E+01  0.22402783947E+02 -0.37117250256E+02  0.47787274866E+02  0.20000017426E+02 0.  0.
         12    1    1    2    0    0  0.20119510400E+01 -0.22402783947E+02  0.37117250256E+02  0.43400725134E+02  0.00000000000E+00 0. -1.
         11    1    3    3    0    0  0.63463148357E+01  0.98398783163E+01 -0.18824097853E+02  0.22168571842E+02  0.51100000000E-03 0. -1.
        -11    1    3    3    0    0 -0.58219954097E+01  0.35311681079E+01 -0.13417137734E+02  0.15046074704E+02  0.51100000000E-03 0.  1.
         12    1    3    3    0    0 -0.25362704660E+01  0.90317375225E+01 -0.48760146693E+01  0.10572628321E+02  0.00000000000E+00 0. -1.
</event>
<event>
 7    1  0.6622189E-010  0.4778727E+02  0.7816164E-02  0.1312668E+00
        -11   -1    0    0    0    0  0.00000000000E+00  0.00000000000E+00  0.45593999997E+02  0.45594000000E+02  0.51100000000E-03 0.  1.
         11   -1    0    0    0    0 -0.00000000000E+00 -0.00000000000E+00 -0.45593999997E+02  0.45594000000E+02  0.51100000000E-03 0. -1.
    9900012    2    1    2    0    0  0.13899316785E+02  0.40492526431E+02  0.71265657772E+01  0.47787266784E+02  0.19999980576E+02 0.  0.
         12    1    1    2    0    0 -0.13899316785E+02 -0.40492526431E+02 -0.71265657772E+01  0.43400733216E+02  0.00000000000E+00 0. -1.
         11    1    3    3    0    0  0.68393671179E+01  0.18783828367E+02 -0.14471061820E+01  0.20042536447E+02  0.51100000000E-03 0. -1.
        -11    1    3    3    0    0  0.98996958295E+01  0.13539613321E+02  0.90959345295E+01  0.19080386045E+02  0.51100000000E-03 0.  1.
        -12    1    3    3    0    0 -0.28397461620E+01  0.81690847439E+01 -0.52226257031E+00  0.86643442920E+01  0.00000000000E+00 0.  1.
</event>
<event>
 7    1  0.6622189E-010  0.4778727E+02  0.7816164E-02  0.1312668E+00
        -11   -1    0    0    0    0  0.00000000000E+00  0.00000000000E+00  0.45593999997E+02  0.45594000000E+02  0.51100000000E-03 0. -1.
         11   -1    0    0    0    0 -0.00000000000E+00 -0.00000000000E+00 -0.45593999997E+02  0.45594000000E+02  0.51100000000E-03 0.  1.
    9900012    2    1    2    0    0 -0.13386238974E+01 -0.94610348629E+01  0.42335799181E+02  0.47787274350E+02  0.20000015071E+02 0.  0.
        -12    1    1    2    0    0  0.13386238974E+01  0.94610348629E+01 -0.42335799181E+02  0.43400725650E+02  0.00000000000E+00 0.  1.
         11    1    3    3    0    0 -0.49700839190E+00 -0.49640153980E+01  0.59116758157E+01  0.77353976901E+01  0.51100000000E-03 0. -1.
        -11    1    3    3    0    0 -0.16471549820E+01 -0.80593211352E+01  0.35277520492E+02  0.36223876505E+02  0.51100000000E-03 0.  1.
        -12    1    3    3    0    0  0.80553947650E+00  0.35623016702E+01  0.11466028737E+01  0.38280001552E+01  0.00000000000E+00 0.  1.
</event>
<event>
 7    1  0.6622189E-010  0.4778727E+02  0.7816164E-02  0.1312668E+00
        -11   -1    0    0    0    0  0.00000000000E+00  0.00000000000E+00  0.45593999997E+02  0.45594000000E+02  0.51100000000E-03 0. -1.
         11   -1    0    0    0    0 -0.00000000000E+00 -0.00000000000E+00 -0.45593999997E+02  0.45594000000E+02  0.51100000000E-03 0.  1.
    9900012    2    1    2    0    0  0.40898976754E+02  0.68874942193E+01  0.12785140585E+02  0.47787266182E+02  0.19999977830E+02 0.  0.
        -12    1    1    2    0    0 -0.40898976754E+02 -0.68874942193E+01 -0.12785140585E+02  0.43400733818E+02  0.00000000000E+00 0.  1.
         11    1    3    3    0    0 -0.22480959353E-01  0.20105069743E+01 -0.58525876380E+00  0.20940801725E+01  0.51100000000E-03 0. -1.
        -11    1    3    3    0    0  0.27424727709E+02  0.10086569034E+02  0.92740421914E+01  0.30657175727E+02  0.51100000000E-03 0.  1.
        -12    1    3    3    0    0  0.13496730005E+02 -0.52095817886E+01  0.40963571571E+01  0.15036010282E+02  0.00000000000E+00 0.  1.
</event>
<event>
 7    1  0.6622189E-010  0.4778727E+02  0.7816164E-02  0.1312668E+00
        -11   -1    0    0    0    0  0.00000000000E+00  0.00000000000E+00  0.45593999997E+02  0.45594000000E+02  0.51100000000E-03 0. -1.
         11   -1    0    0    0    0 -0.00000000000E+00 -0.00000000000E+00 -0.45593999997E+02  0.45594000000E+02  0.51100000000E-03 0.  1.
    9900012    2    1    2    0    0 -0.16390978771E+02 -0.36475483346E+01 -0.40020677668E+02  0.47787269189E+02  0.19999991542E+02 0.  0.
         12    1    1    2    0    0  0.16390978771E+02  0.36475483346E+01  0.40020677668E+02  0.43400730811E+02  0.00000000000E+00 0. -1.
         11    1    3    3    0    0 -0.22539087567E+01 -0.17688210834E+01  0.16311132271E+01  0.32968717490E+01  0.51100000000E-03 0. -1.
        -11    1    3    3    0    0 -0.86921705177E+00  0.12923359891E+01 -0.18640594679E+01  0.24290715413E+01  0.51100000000E-03 0.  1.
         12    1    3    3    0    0 -0.13267852962E+02 -0.31710632402E+01 -0.39787731427E+02  0.42061325899E+02  0.00000000000E+00 0. -1.
</event>
<event>
 7    1  0.6622189E-010  0.4778727E+02  0.7816164E-02  0.1312668E+00
        -11   -1    0    0    0    0  0.00000000000E+00  0.00000000000E+00  0.45593999997E+02  0.45594000000E+02  0.51100000000E-03 0.  1.
         11   -1    0    0    0    0 -0.00000000000E+00 -0.00000000000E+00 -0.45593999997E+02  0.45594000000E+02  0.51100000000E-03 0. -1.
    9900012    2    1    2    0    0  0.36663511890E+02  0.22179048498E+02 -0.68920353499E+01  0.47787269043E+02  0.19999990874E+02 0.  0.
         12    1    1    2    0    0 -0.36663511890E+02 -0.22179048498E+02  0.68920353499E+01  0.43400730957E+02  0.00000000000E+00 0. -1.
         11    1    3    3    0    0  0.95412642250E+01  0.13169930538E+01 -0.60193416315E+01  0.11357934128E+02  0.51100000000E-03 0. -1.
        -11    1    3    3    0    0  0.23042876715E+02  0.21323490546E+02 -0.34464051638E+01  0.31583906110E+02  0.51100000000E-03 0.  1.
        -12    1    3    3    0    0  0.40793709499E+01 -0.46143510191E+00  0.25737114455E+01  0.48454288051E+01  0.00000000000E+00 0.  1.
</event>
<event>
 7    1  0.6622189E-010  0.4778728E+02  0.7816164E-02  0.1312668E+00
        -11   -1    0    0    0    0  0.00000000000E+00  0.00000000000E+00  0.45593999997E+02  0.45594000000E+02  0.51100000000E-03 0. -1.
         11   -1    0    0    0    0 -0.00000000000E+00 -0.00000000000E+00 -0.45593999997E+02  0.45594000000E+02  0.51100000000E-03 0.  1.
    9900012    2    1    2    0    0 -0.98782236844E+01 -0.29395615639E+02  0.30363481141E+02  0.47787279857E+02  0.20000040180E+02 0.  0.
        -12    1    1    2    0    0  0.98782236844E+01  0.29395615639E+02 -0.30363481141E+02  0.43400720143E+02  0.00000000000E+00 0.  1.
         11    1    3    3    0    0 -0.36638298584E+01 -0.10266472970E+00  0.61185547703E+01  0.71323840345E+01  0.51100000000E-03 0. -1.
        -11    1    3    3    0    0  0.46418161665E+00 -0.24275650305E+02  0.18182129035E+02  0.30333355878E+02  0.51100000000E-03 0.  1.
        -12    1    3    3    0    0 -0.66785754427E+01 -0.50173006035E+01  0.60627973356E+01  0.10321539944E+02  0.00000000000E+00 0.  1.
</event>
<event>
 7    1  0.1147876E-009  0.4778727E+02  0.7816164E-02  0.1312668E+00
        -11   -1    0    0    0    0  0.00000000000E+00  0.00000000000E+00  0.45593999997E+02  0.45594000000E+02  0.51100000000E-03 0. -1.
         11   -1    0    0    0    0 -0.00000000000E+00 -0.00000000000E+00 -0.45593999997E+02  0.45594000000E+02  0.51100000000E-03 0.  1.
    9900012    2    1    2    0    0 -0.13509744777E+02 -0.23901606519E+02 -0.33612842925E+02  0.47787271808E+02  0.20000003481E+02 0.  0.
         12    1    1    2    0    0  0.13509744777E+02  0.23901606519E+02  0.33612842925E+02  0.43400728192E+02  0.00000000000E+00 0. -1.
         11    1    3    3    0    0  0.50004663167E+00 -0.47500514065E+00  0.79178779813E+00  0.10500498540E+01  0.51100000000E-03 0. -1.
        -11    1    3    3    0    0 -0.50972438646E+01 -0.27992720086E+01 -0.17999215291E+02  0.18915326330E+02  0.51100000000E-03 0.  1.
        -12    1    3    3    0    0 -0.89125475436E+01 -0.20627329369E+02 -0.16405415432E+02  0.27821895624E+02  0.00000000000E+00 0.  1.
</event>
<event>
 7    1  0.6622189E-010  0.4778727E+02  0.7816164E-02  0.1312668E+00
        -11   -1    0    0    0    0  0.00000000000E+00  0.00000000000E+00  0.45593999997E+02  0.45594000000E+02  0.51100000000E-03 0. -1.
         11   -1    0    0    0    0 -0.00000000000E+00 -0.00000000000E+00 -0.45593999997E+02  0.45594000000E+02  0.51100000000E-03 0.  1.
    9900012    2    1    2    0    0  0.24647001171E+02 -0.32774401931E+02  0.14212223508E+02  0.47787269756E+02  0.19999994126E+02 0.  0.
        -12    1    1    2    0    0 -0.24647001171E+02  0.32774401931E+02 -0.14212223508E+02  0.43400730244E+02  0.00000000000E+00 0.  1.
         11    1    3    3    0    0  0.58709294256E+01 -0.97332730631E+01  0.32687171586E+01  0.11827465027E+02  0.51100000000E-03 0. -1.
        -11    1    3    3    0    0  0.15513540463E+02 -0.22910130662E+02  0.14411387309E+02  0.31196668237E+02  0.51100000000E-03 0.  1.
        -12    1    3    3    0    0  0.32625312816E+01 -0.13099820571E+00 -0.34678809592E+01  0.47631364919E+01  0.00000000000E+00 0.  1.
</event>
<event>
 7    1  0.6622189E-010  0.4778725E+02  0.7816164E-02  0.1312668E+00
        -11   -1    0    0    0    0  0.00000000000E+00  0.00000000000E+00  0.45593999997E+02  0.45594000000E+02  0.51100000000E-03 0. -1.
         11   -1    0    0    0    0 -0.00000000000E+00 -0.00000000000E+00 -0.45593999997E+02  0.45594000000E+02  0.51100000000E-03 0.  1.
    9900012    2    1    2    0    0 -0.14372270231E+01  0.13141538701E+02 -0.41338348296E+02  0.47787254606E+02  0.19999925049E+02 0.  0.
         12    1    1    2    0    0  0.14372270231E+01 -0.13141538701E+02  0.41338348296E+02  0.43400745394E+02  0.00000000000E+00 0. -1.
         11    1    3    3    0    0 -0.20524842820E+01  0.10581403766E+01 -0.26008958668E-01  0.23093352965E+01  0.51100000000E-03 0. -1.
        -11    1    3    3    0    0  0.52478923175E+01  0.99839562455E+01 -0.37392298820E+02  0.39056417749E+02  0.51100000000E-03 0.  1.
        -12    1    3    3    0    0 -0.46326350585E+01  0.20994420786E+01 -0.39200405177E+01  0.64215015602E+01  0.00000000000E+00 0.  1.
</event>
<event>
 7    1  0.7084743E-010  0.4778726E+02  0.7816164E-02  0.1312668E+00
        -11   -1    0    0    0    0  0.00000000000E+00  0.00000000000E+00  0.45593999997E+02  0.45594000000E+02  0.51100000000E-03 0. -1.
         11   -1    0    0    0    0 -0.00000000000E+00 -0.00000000000E+00 -0.45593999997E+02  0.45594000000E+02  0.51100000000E-03 0.  1.
    9900012    2    1    2    0    0  0.22961646919E+01 -0.21316390709E+02  0.37735436394E+02  0.47787262161E+02  0.19999959497E+02 0.  0.
        -12    1    1    2    0    0 -0.22961646919E+01  0.21316390709E+02 -0.37735436394E+02  0.43400737839E+02  0.00000000000E+00 0.  1.
         11    1    3    3    0    0 -0.55400235844E+01 -0.61335240944E+01  0.66264908872E+01  0.10593505599E+02  0.51100000000E-03 0. -1.
        -11    1    3    3    0    0 -0.56632079505E+00  0.77369188734E+00 -0.27506415659E+00  0.99748630607E+00  0.51100000000E-03 0.  1.
         12    1    3    3    0    0  0.84025090714E+01 -0.15956558501E+02  0.31384009663E+02  0.36196270256E+02  0.00000000000E+00 0. -1.
</event>
<event>
 7    1  0.6622189E-010  0.4778727E+02  0.7816164E-02  0.1312668E+00
        -11   -1    0    0    0    0  0.00000000000E+00  0.00000000000E+00  0.45593999997E+02  0.45594000000E+02  0.51100000000E-03 0. -1.
         11   -1    0    0    0    0 -0.00000000000E+00 -0.00000000000E+00 -0.45593999997E+02  0.45594000000E+02  0.51100000000E-03 0.  1.
    9900012    2    1    2    0    0 -0.26292697838E+02  0.29535400802E+02  0.17887911958E+02  0.47787271270E+02  0.20000001026E+02 0.  0.
        -12    1    1    2    0    0  0.26292697838E+02 -0.29535400802E+02 -0.17887911958E+02  0.43400728730E+02  0.00000000000E+00 0.  1.
         11    1    3    3    0    0 -0.25980049000E+01 -0.75424417703E+00  0.39169456069E+01  0.47603547019E+01  0.51100000000E-03 0. -1.
        -11    1    3    3    0    0 -0.18837985998E+02  0.30482943297E+02  0.12207164515E+02  0.37856233493E+02  0.51100000000E-03 0.  1.
        -12    1    3    3    0    0 -0.48567069401E+01 -0.19329831845E+00  0.17638018363E+01  0.51706830748E+01  0.00000000000E+00 0.  1.
</event>
<event>
 7    1  0.8546291E-010  0.4778727E+02  0.7816164E-02  0.1312668E+00
        -11   -1    0    0    0    0  0.00000000000E+00  0.00000000000E+00  0.45593999997E+02  0.45594000000E+02  0.51100000000E-03 0. -1.
         11   -1    0    0    0    0 -0.00000000000E+00 -0.00000000000E+00 -0.45593999997E+02  0.45594000000E+02  0.51100000000E-03 0.  1.
    9900012    2    1    2    0    0  0.14869151011E+02  0.16318100500E+02 -0.37366446540E+02  0.47787269790E+02  0.19999994283E+02 0.  0.
         12    1    1    2    0    0 -0.14869151011E+02 -0.16318100500E+02  0.37366446540E+02  0.43400730210E+02  0.00000000000E+00 0. -1.
         11    1    3    3    0    0  0.14957708236E+01 -0.21748835589E+01 -0.14505065445E+01  0.30118795375E+01  0.51100000000E-03 0. -1.
        -11    1    3    3    0    0  0.76127240890E+01  0.13665969484E+02 -0.33345150405E+02  0.36832205280E+02  0.51100000000E-03 0.  1.
        -12    1    3    3    0    0  0.57606560985E+01  0.48270145756E+01 -0.25707895897E+01  0.79431849728E+01  0.00000000000E+00 0.  1.
</event>
<event>
 7    1  0.6622189E-010  0.4778731E+02  0.7816164E-02  0.1312668E+00
        -11   -1    0    0    0    0  0.00000000000E+00  0.00000000000E+00  0.45593999997E+02  0.45594000000E+02  0.51100000000E-03 0. -1.
         11   -1    0    0    0    0 -0.00000000000E+00 -0.00000000000E+00 -0.45593999997E+02  0.45594000000E+02  0.51100000000E-03 0.  1.
    9900012    2    1    2    0    0  0.11234948337E+02  0.41800997696E+02  0.31736957030E+01  0.47787310870E+02  0.20000181579E+02 0.  0.
        -12    1    1    2    0    0 -0.11234948337E+02 -0.41800997696E+02 -0.31736957030E+01  0.43400689130E+02  0.00000000000E+00 0.  1.
         11    1    3    3    0    0  0.51185377243E+01  0.14969550696E+02  0.62940512848E+01  0.17026507520E+02  0.51100000000E-03 0. -1.
        -11    1    3    3    0    0 -0.19571323196E+01  0.13158471612E+02 -0.60496814228E+01  0.14614184468E+02  0.51100000000E-03 0.  1.
        -12    1    3    3    0    0  0.80735429323E+01  0.13672975388E+02  0.29293258410E+01  0.16146618882E+02  0.00000000000E+00 0.  1.
</event>
<event>
 7    1  0.6622189E-010  0.4778727E+02  0.7816164E-02  0.1312668E+00
        -11   -1    0    0    0    0  0.00000000000E+00  0.00000000000E+00  0.45593999997E+02  0.45594000000E+02  0.51100000000E-03 0. -1.
         11   -1    0    0    0    0 -0.00000000000E+00 -0.00000000000E+00 -0.45593999997E+02  0.45594000000E+02  0.51100000000E-03 0.  1.
    9900012    2    1    2    0    0  0.44600984087E+01  0.12297644493E+02  0.41382350583E+02  0.47787268697E+02  0.19999989296E+02 0.  0.
        -12    1    1    2    0    0 -0.44600984087E+01 -0.12297644493E+02 -0.41382350583E+02  0.43400731303E+02  0.00000000000E+00 0.  1.
         11    1    3    3    0    0  0.14476785551E+01  0.59438805508E+00  0.27730167741E+02  0.27774291594E+02  0.51100000000E-03 0. -1.
        -11    1    3    3    0    0  0.49885463603E+01  0.62718285273E+01  0.45063865006E+01  0.91939625526E+01  0.51100000000E-03 0.  1.
        -12    1    3    3    0    0 -0.19761265067E+01  0.54314279103E+01  0.91457963417E+01  0.10819014550E+02  0.00000000000E+00 0.  1.
</event>
<event>
 7    1  0.6622189E-010  0.4778725E+02  0.7816164E-02  0.1312668E+00
        -11   -1    0    0    0    0  0.00000000000E+00  0.00000000000E+00  0.45593999997E+02  0.45594000000E+02  0.51100000000E-03 0. -1.
         11   -1    0    0    0    0 -0.00000000000E+00 -0.00000000000E+00 -0.45593999997E+02  0.45594000000E+02  0.51100000000E-03 0.  1.
    9900012    2    1    2    0    0 -0.44724310550E+01 -0.15423512054E+02 -0.40320441037E+02  0.47787247367E+02  0.19999892047E+02 0.  0.
         12    1    1    2    0    0  0.44724310550E+01  0.15423512054E+02  0.40320441037E+02  0.43400752633E+02  0.00000000000E+00 0. -1.
         11    1    3    3    0    0 -0.59623091737E+01 -0.23253857396E+01 -0.18436439298E+02  0.19515605134E+02  0.51100000000E-03 0.  1.
        -11    1    3    3    0    0  0.28148318659E+01 -0.11564133886E+02 -0.82351142679E+01  0.14473063885E+02  0.51100000000E-03 0. -1.
         12    1    3    3    0    0 -0.13249537472E+01 -0.15339924285E+01 -0.13648887472E+02  0.13798578348E+02  0.00000000000E+00 0. -1.
</event>
<event>
 7    1  0.6622189E-010  0.4778727E+02  0.7816164E-02  0.1312668E+00
        -11   -1    0    0    0    0  0.00000000000E+00  0.00000000000E+00  0.45593999997E+02  0.45594000000E+02  0.51100000000E-03 0. -1.
         11   -1    0    0    0    0 -0.00000000000E+00 -0.00000000000E+00 -0.45593999997E+02  0.45594000000E+02  0.51100000000E-03 0.  1.
    9900012    2    1    2    0    0 -0.11057378736E+02  0.34342790601E+02  0.24123237308E+02  0.47787268796E+02  0.19999989750E+02 0.  0.
        -12    1    1    2    0    0  0.11057378736E+02 -0.34342790601E+02 -0.24123237308E+02  0.43400731204E+02  0.00000000000E+00 0.  1.
         11    1    3    3    0    0 -0.10014931984E+02  0.30038291481E+02  0.26712665840E+02  0.41426613840E+02  0.51100000000E-03 0. -1.
        -11    1    3    3    0    0  0.15857249310E+00  0.38472483344E+01 -0.31341954639E+01  0.49648410296E+01  0.51100000000E-03 0.  1.
        -12    1    3    3    0    0 -0.12010192446E+01  0.45725078581E+00  0.54476693215E+00  0.13958139265E+01  0.00000000000E+00 0.  1.
</event>
<event>
 7    1  0.6622189E-010  0.4778727E+02  0.7816164E-02  0.1312668E+00
        -11   -1    0    0    0    0  0.00000000000E+00  0.00000000000E+00  0.45593999997E+02  0.45594000000E+02  0.51100000000E-03 0. -1.
         11   -1    0    0    0    0 -0.00000000000E+00 -0.00000000000E+00 -0.45593999997E+02  0.45594000000E+02  0.51100000000E-03 0.  1.
    9900012    2    1    2    0    0 -0.74957100860E+01 -0.18536930971E+01  0.42708328805E+02  0.47787271929E+02  0.20000004032E+02 0.  0.
        -12    1    1    2    0    0  0.74957100860E+01  0.18536930971E+01 -0.42708328805E+02  0.43400728071E+02  0.00000000000E+00 0.  1.
         11    1    3    3    0    0 -0.46185094795E+01 -0.69548362293E+01  0.73817175518E+01  0.11144062592E+02  0.51100000000E-03 0. -1.
        -11    1    3    3    0    0  0.15325892718E+01  0.49410644960E+01  0.15846778341E+02  0.16669833001E+02  0.51100000000E-03 0.  1.
         12    1    3    3    0    0 -0.44097898782E+01  0.16007863618E+00  0.19479832912E+02  0.19973376335E+02  0.00000000000E+00 0. -1.
</event>
<event>
 7    1  0.6622189E-010  0.4778727E+02  0.7816164E-02  0.1312668E+00
        -11   -1    0    0    0    0  0.00000000000E+00  0.00000000000E+00  0.45593999997E+02  0.45594000000E+02  0.51100000000E-03 0. -1.
         11   -1    0    0    0    0 -0.00000000000E+00 -0.00000000000E+00 -0.45593999997E+02  0.45594000000E+02  0.51100000000E-03 0.  1.
    9900012    2    1    2    0    0 -0.16196829454E+02  0.38850095793E+01  0.40077334089E+02  0.47787270842E+02  0.19999999075E+02 0.  0.
        -12    1    1    2    0    0  0.16196829454E+02 -0.38850095793E+01 -0.40077334089E+02  0.43400729158E+02  0.00000000000E+00 0.  1.
         11    1    3    3    0    0 -0.11224241184E+02  0.38090503793E+01  0.34946357269E+02  0.36901766104E+02  0.51100000000E-03 0. -1.
        -11    1    3    3    0    0 -0.57370118766E+01  0.30421149469E+01  0.29939636469E+01  0.71506354404E+01  0.51100000000E-03 0.  1.
        -12    1    3    3    0    0  0.76442360662E+00 -0.29661557469E+01  0.21370131730E+01  0.37348692971E+01  0.00000000000E+00 0.  1.
</event>
<event>
 7    1  0.6622189E-010  0.4778727E+02  0.7816164E-02  0.1312668E+00
        -11   -1    0    0    0    0  0.00000000000E+00  0.00000000000E+00  0.45593999997E+02  0.45594000000E+02  0.51100000000E-03 0. -1.
         11   -1    0    0    0    0 -0.00000000000E+00 -0.00000000000E+00 -0.45593999997E+02  0.45594000000E+02  0.51100000000E-03 0.  1.
    9900012    2    1    2    0    0  0.24024571545E+02  0.86959619499E+01 -0.35083097308E+02  0.47787268337E+02  0.19999987654E+02 0.  0.
         12    1    1    2    0    0 -0.24024571545E+02 -0.86959619499E+01  0.35083097308E+02  0.43400731663E+02  0.00000000000E+00 0. -1.
         11    1    3    3    0    0  0.83741365445E+01  0.11625444445E+02 -0.20194654331E+02  0.24760880138E+02  0.51100000000E-03 0. -1.
        -11    1    3    3    0    0 -0.48067570241E+00  0.73002648132E+00 -0.15415659261E+01  0.17721212035E+01  0.51100000000E-03 0.  1.
         12    1    3    3    0    0  0.16131110703E+02 -0.36595089765E+01 -0.13346877051E+02  0.21254266995E+02  0.00000000000E+00 0. -1.
</event>
<event>
 7    1  0.6622189E-010  0.4778727E+02  0.7816164E-02  0.1312668E+00
        -11   -1    0    0    0    0  0.00000000000E+00  0.00000000000E+00  0.45593999997E+02  0.45594000000E+02  0.51100000000E-03 0.  1.
         11   -1    0    0    0    0 -0.00000000000E+00 -0.00000000000E+00 -0.45593999997E+02  0.45594000000E+02  0.51100000000E-03 0. -1.
    9900012    2    1    2    0    0 -0.31840189617E+02 -0.29375439778E+02  0.26285240834E+01  0.47787271022E+02  0.19999999896E+02 0.  0.
        -12    1    1    2    0    0  0.31840189617E+02  0.29375439778E+02 -0.26285240834E+01  0.43400728978E+02  0.00000000000E+00 0.  1.
         11    1    3    3    0    0 -0.21822419930E+02 -0.17646612119E+02  0.36467795722E+01  0.28300528836E+02  0.51100000000E-03 0. -1.
        -11    1    3    3    0    0 -0.35767257741E+01 -0.12471621889E+02 -0.81112879006E+00  0.12999701919E+02  0.51100000000E-03 0.  1.
        -12    1    3    3    0    0 -0.64410439127E+01  0.74279423009E+00 -0.20712669878E+00  0.64870402668E+01  0.00000000000E+00 0.  1.
</event>
<event>
 7    1  0.6622189E-010  0.4778726E+02  0.7816164E-02  0.1312668E+00
        -11   -1    0    0    0    0  0.00000000000E+00  0.00000000000E+00  0.45593999997E+02  0.45594000000E+02  0.51100000000E-03 0. -1.
         11   -1    0    0    0    0 -0.00000000000E+00 -0.00000000000E+00 -0.45593999997E+02  0.45594000000E+02  0.51100000000E-03 0.  1.
    9900012    2    1    2    0    0  0.21188031079E+02 -0.22441386530E+02  0.30513531958E+02  0.47787261263E+02  0.19999955403E+02 0.  0.
        -12    1    1    2    0    0 -0.21188031079E+02  0.22441386530E+02 -0.30513531958E+02  0.43400738737E+02  0.00000000000E+00 0.  1.
         11    1    3    3    0    0  0.59362422207E+01 -0.15501199438E+02  0.12005791431E+02  0.20485731226E+02  0.51100000000E-03 0. -1.
        -11    1    3    3    0    0  0.50901734656E+01 -0.45496158140E+00  0.13153157119E+02  0.14111073609E+02  0.51100000000E-03 0.  1.
         12    1    3    3    0    0  0.10161615392E+02 -0.64852255099E+01  0.53545834085E+01  0.13190456428E+02  0.00000000000E+00 0. -1.
</event>
<event>
 7    1  0.6622189E-010  0.4778727E+02  0.7816164E-02  0.1312668E+00
        -11   -1    0    0    0    0  0.00000000000E+00  0.00000000000E+00  0.45593999997E+02  0.45594000000E+02  0.51100000000E-03 0. -1.
         11   -1    0    0    0    0 -0.00000000000E+00 -0.00000000000E+00 -0.45593999997E+02  0.45594000000E+02  0.51100000000E-03 0.  1.
    9900012    2    1    2    0    0  0.10427713404E+02  0.17157949287E+02 -0.38477149633E+02  0.47787268733E+02  0.19999989463E+02 0.  0.
         12    1    1    2    0    0 -0.10427713404E+02 -0.17157949287E+02  0.38477149633E+02  0.43400731267E+02  0.00000000000E+00 0. -1.
         11    1    3    3    0    0 -0.37888722873E+01  0.23848218407E+01 -0.98240157454E+01  0.10796027698E+02  0.51100000000E-03 0. -1.
        -11    1    3    3    0    0  0.14559078334E+02  0.14248259642E+02 -0.29553553236E+02  0.35894180223E+02  0.51100000000E-03 0.  1.
         12    1    3    3    0    0 -0.34249264321E+00  0.52486780468E+00  0.90041934830E+00  0.10970608123E+01  0.00000000000E+00 0. -1.
</event>
<event>
 7    1  0.6622189E-010  0.4778727E+02  0.7816164E-02  0.1312668E+00
        -11   -1    0    0    0    0  0.00000000000E+00  0.00000000000E+00  0.45593999997E+02  0.45594000000E+02  0.51100000000E-03 0. -1.
         11   -1    0    0    0    0 -0.00000000000E+00 -0.00000000000E+00 -0.45593999997E+02  0.45594000000E+02  0.51100000000E-03 0.  1.
    9900012    2    1    2    0    0  0.77255594795E+01 -0.40065623543E+02 -0.14787994871E+02  0.47787271303E+02  0.20000001178E+02 0.  0.
         12    1    1    2    0    0 -0.77255594795E+01  0.40065623543E+02  0.14787994871E+02  0.43400728697E+02  0.00000000000E+00 0. -1.
         11    1    3    3    0    0  0.48941210600E+00  0.18471602544E+01 -0.58179069940E-01  0.19117819646E+01  0.51100000000E-03 0. -1.
        -11    1    3    3    0    0  0.68995549751E+01 -0.17617158376E+02 -0.87890775088E+01  0.20861831459E+02  0.51100000000E-03 0.  1.
         12    1    3    3    0    0  0.33659239837E+00 -0.24295625421E+02 -0.59407382921E+01  0.25013657880E+02  0.00000000000E+00 0. -1.
</event>
<event>
 7    1  0.6622189E-010  0.4778724E+02  0.7816164E-02  0.1312668E+00
        -11   -1    0    0    0    0  0.00000000000E+00  0.00000000000E+00  0.45593999997E+02  0.45594000000E+02  0.51100000000E-03 0. -1.
         11   -1    0    0    0    0 -0.00000000000E+00 -0.00000000000E+00 -0.45593999997E+02  0.45594000000E+02  0.51100000000E-03 0.  1.
    9900012    2    1    2    0    0  0.37382508360E+02 -0.20350723345E+02  0.84865597637E+01  0.47787244608E+02  0.19999879467E+02 0.  0.
        -12    1    1    2    0    0 -0.37382508360E+02  0.20350723345E+02 -0.84865597637E+01  0.43400755392E+02  0.00000000000E+00 0.  1.
         11    1    3    3    0    0  0.64696398460E+01 -0.76344068551E+01  0.85488461874E+01  0.13161427702E+02  0.51100000000E-03 0. -1.
        -11    1    3    3    0    0  0.27992093665E+01 -0.30618101258E+01  0.24104114550E+01  0.47979514344E+01  0.51100000000E-03 0.  1.
         12    1    3    3    0    0  0.28113659147E+02 -0.96545063643E+01 -0.24726978787E+01  0.29827865472E+02  0.00000000000E+00 0. -1.
</event>
<event>
 7    1  0.6622189E-010  0.4778728E+02  0.7816164E-02  0.1312668E+00
        -11   -1    0    0    0    0  0.00000000000E+00  0.00000000000E+00  0.45593999997E+02  0.45594000000E+02  0.51100000000E-03 0. -1.
         11   -1    0    0    0    0 -0.00000000000E+00 -0.00000000000E+00 -0.45593999997E+02  0.45594000000E+02  0.51100000000E-03 0.  1.
    9900012    2    1    2    0    0 -0.47528601961E+01  0.13954935678E+02  0.40820245406E+02  0.47787281747E+02  0.20000048798E+02 0.  0.
        -12    1    1    2    0    0  0.47528601961E+01 -0.13954935678E+02 -0.40820245406E+02  0.43400718253E+02  0.00000000000E+00 0.  1.
         11    1    3    3    0    0 -0.26671584888E+01  0.59910149779E+01  0.32347676476E+02  0.33005729328E+02  0.51100000000E-03 0. -1.
        -11    1    3    3    0    0 -0.16348800265E+01  0.94461684342E+01  0.89957130338E+01  0.13146322073E+02  0.51100000000E-03 0.  1.
         12    1    3    3    0    0 -0.45082168079E+00 -0.14822477340E+01 -0.52314410288E+00  0.16352303462E+01  0.00000000000E+00 0. -1.
</event>
<event>
 7    1  0.6622189E-010  0.4778725E+02  0.7816164E-02  0.1312668E+00
        -11   -1    0    0    0    0  0.00000000000E+00  0.00000000000E+00  0.45593999997E+02  0.45594000000E+02  0.51100000000E-03 0. -1.
         11   -1    0    0    0    0 -0.00000000000E+00 -0.00000000000E+00 -0.45593999997E+02  0.45594000000E+02  0.51100000000E-03 0.  1.
    9900012    2    1    2    0    0  0.27016855396E+02  0.18148376233E+02 -0.28711508735E+02  0.47787253818E+02  0.19999921456E+02 0.  0.
         12    1    1    2    0    0 -0.27016855396E+02 -0.18148376233E+02  0.28711508735E+02  0.43400746182E+02  0.00000000000E+00 0. -1.
         11    1    3    3    0    0  0.10027469729E+02  0.15137392465E+02 -0.16732061751E+02  0.24691145995E+02  0.51100000000E-03 0. -1.
        -11    1    3    3    0    0  0.61071758976E+01 -0.26901770761E+01 -0.12591357425E+01  0.67911761296E+01  0.51100000000E-03 0.  1.
        -12    1    3    3    0    0  0.10882209769E+02  0.57011608434E+01 -0.10720311241E+02  0.16304931693E+02  0.00000000000E+00 0.  1.
</event>
<event>
 7    1  0.6622189E-010  0.4778727E+02  0.7816164E-02  0.1312668E+00
        -11   -1    0    0    0    0  0.00000000000E+00  0.00000000000E+00  0.45593999997E+02  0.45594000000E+02  0.51100000000E-03 0. -1.
         11   -1    0    0    0    0 -0.00000000000E+00 -0.00000000000E+00 -0.45593999997E+02  0.45594000000E+02  0.51100000000E-03 0.  1.
    9900012    2    1    2    0    0  0.29918494270E+02 -0.11349031275E+02  0.29320756071E+02  0.47787267900E+02  0.19999985664E+02 0.  0.
        -12    1    1    2    0    0 -0.29918494270E+02  0.11349031275E+02 -0.29320756071E+02  0.43400732100E+02  0.00000000000E+00 0.  1.
         11    1    3    3    0    0  0.85356495152E+00  0.25849089877E+01  0.58878674054E+01  0.64867025866E+01  0.51100000000E-03 0. -1.
        -11    1    3    3    0    0  0.22136465578E+02 -0.75757865334E+01  0.11392638888E+02  0.26023217922E+02  0.51100000000E-03 0.  1.
        -12    1    3    3    0    0  0.69284637397E+01 -0.63581537294E+01  0.12040249777E+02  0.15277347392E+02  0.00000000000E+00 0.  1.
</event>
<event>
 7    1  0.6622189E-010  0.4778728E+02  0.7816164E-02  0.1312668E+00
        -11   -1    0    0    0    0  0.00000000000E+00  0.00000000000E+00  0.45593999997E+02  0.45594000000E+02  0.51100000000E-03 0. -1.
         11   -1    0    0    0    0 -0.00000000000E+00 -0.00000000000E+00 -0.45593999997E+02  0.45594000000E+02  0.51100000000E-03 0.  1.
    9900012    2    1    2    0    0 -0.20816692387E+02  0.30227133955E+02 -0.23164807570E+02  0.47787278591E+02  0.20000034407E+02 0.  0.
         12    1    1    2    0    0  0.20816692387E+02 -0.30227133955E+02  0.23164807570E+02  0.43400721409E+02  0.00000000000E+00 0. -1.
         11    1    3    3    0    0 -0.29867942710E+01  0.17388416019E+02 -0.39784402315E+01  0.18086070292E+02  0.51100000000E-03 0. -1.
        -11    1    3    3    0    0 -0.13052962903E+02  0.10455984022E+02 -0.11322726507E+02  0.20196820993E+02  0.51100000000E-03 0.  1.
         12    1    3    3    0    0 -0.47769352129E+01  0.23827339140E+01 -0.78636408314E+01  0.95043873057E+01  0.00000000000E+00 0. -1.
</event>
<event>
 7    1  0.6622189E-010  0.4778727E+02  0.7816164E-02  0.1312668E+00
        -11   -1    0    0    0    0  0.00000000000E+00  0.00000000000E+00  0.45593999997E+02  0.45594000000E+02  0.51100000000E-03 0. -1.
         11   -1    0    0    0    0 -0.00000000000E+00 -0.00000000000E+00 -0.45593999997E+02  0.45594000000E+02  0.51100000000E-03 0.  1.
    9900012    2    1    2    0    0  0.33525167813E+02 -0.17751617632E+02  0.21084742691E+02  0.47787272128E+02  0.20000004940E+02 0.  0.
        -12    1    1    2    0    0 -0.33525167813E+02  0.17751617632E+02 -0.21084742691E+02  0.43400727872E+02  0.00000000000E+00 0.  1.
         11    1    3    3    0    0  0.11403065573E+02 -0.24988359753E+01  0.44478501762E+01  0.12492295911E+02  0.51100000000E-03 0.  1.
        -11    1    3    3    0    0  0.23367582273E+02 -0.13324693468E+02  0.18235242922E+02  0.32497929811E+02  0.51100000000E-03 0. -1.
        -12    1    3    3    0    0 -0.12454800323E+01 -0.19280881888E+01 -0.15983504067E+01  0.27970464060E+01  0.00000000000E+00 0.  1.
</event>
<event>
 7    1  0.6622189E-010  0.4778726E+02  0.7816164E-02  0.1312668E+00
        -11   -1    0    0    0    0  0.00000000000E+00  0.00000000000E+00  0.45593999997E+02  0.45594000000E+02  0.51100000000E-03 0. -1.
         11   -1    0    0    0    0 -0.00000000000E+00 -0.00000000000E+00 -0.45593999997E+02  0.45594000000E+02  0.51100000000E-03 0.  1.
    9900012    2    1    2    0    0  0.24030800043E+02  0.25384264101E+02  0.25725165057E+02  0.47787258856E+02  0.19999944428E+02 0.  0.
        -12    1    1    2    0    0 -0.24030800043E+02 -0.25384264101E+02 -0.25725165057E+02  0.43400741144E+02  0.00000000000E+00 0.  1.
         11    1    3    3    0    0  0.10584539864E+02  0.14264067783E+01  0.76385668091E+01  0.13130682525E+02  0.51100000000E-03 0. -1.
        -11    1    3    3    0    0  0.87991008788E+01  0.23253045359E+02  0.15162930909E+02  0.29121173890E+02  0.51100000000E-03 0.  1.
        -12    1    3    3    0    0  0.46471593002E+01  0.70481196386E+00  0.29236673389E+01  0.55354024402E+01  0.00000000000E+00 0.  1.
</event>
<event>
 7    1  0.6622189E-010  0.4778727E+02  0.7816164E-02  0.1312668E+00
        -11   -1    0    0    0    0  0.00000000000E+00  0.00000000000E+00  0.45593999997E+02  0.45594000000E+02  0.51100000000E-03 0. -1.
         11   -1    0    0    0    0 -0.00000000000E+00 -0.00000000000E+00 -0.45593999997E+02  0.45594000000E+02  0.51100000000E-03 0.  1.
    9900012    2    1    2    0    0  0.19410794984E+02 -0.26351798788E+02 -0.28503104377E+02  0.47787271660E+02  0.20000002806E+02 0.  0.
         12    1    1    2    0    0 -0.19410794984E+02  0.26351798788E+02  0.28503104377E+02  0.43400728340E+02  0.00000000000E+00 0. -1.
         11    1    3    3    0    0 -0.26349662640E+01 -0.28979819248E+01 -0.90439195360E+01  0.98556495110E+01  0.51100000000E-03 0. -1.
        -11    1    3    3    0    0  0.15302997459E+02 -0.12815233278E+02 -0.12228475897E+02  0.23408279693E+02  0.51100000000E-03 0.  1.
        -12    1    3    3    0    0  0.67427637895E+01 -0.10638583586E+02 -0.72307089444E+01  0.14523342455E+02  0.00000000000E+00 0.  1.
</event>
<event>
 7    1  0.6622189E-010  0.4778727E+02  0.7816164E-02  0.1312668E+00
        -11   -1    0    0    0    0  0.00000000000E+00  0.00000000000E+00  0.45593999997E+02  0.45594000000E+02  0.51100000000E-03 0. -1.
         11   -1    0    0    0    0 -0.00000000000E+00 -0.00000000000E+00 -0.45593999997E+02  0.45594000000E+02  0.51100000000E-03 0.  1.
    9900012    2    1    2    0    0  0.12175944849E+02  0.38111317659E+02  0.16819552255E+02  0.47787268385E+02  0.19999987873E+02 0.  0.
        -12    1    1    2    0    0 -0.12175944849E+02 -0.38111317659E+02 -0.16819552255E+02  0.43400731615E+02  0.00000000000E+00 0.  1.
         11    1    3    3    0    0 -0.25966595883E+01  0.12990176443E+02  0.13107703575E+01  0.13311853523E+02  0.51100000000E-03 0. -1.
        -11    1    3    3    0    0  0.14650667438E+02  0.26031516672E+02  0.15080397709E+02  0.33461923316E+02  0.51100000000E-03 0.  1.
         12    1    3    3    0    0  0.12193699865E+00 -0.91037545541E+00  0.42838418791E+00  0.10134915460E+01  0.00000000000E+00 0. -1.
</event>
<event>
 7    1  0.6622189E-010  0.4778727E+02  0.7816164E-02  0.1312668E+00
        -11   -1    0    0    0    0  0.00000000000E+00  0.00000000000E+00  0.45593999997E+02  0.45594000000E+02  0.51100000000E-03 0.  1.
         11   -1    0    0    0    0 -0.00000000000E+00 -0.00000000000E+00 -0.45593999997E+02  0.45594000000E+02  0.51100000000E-03 0. -1.
    9900012    2    1    2    0    0  0.18279018339E+02 -0.25317099325E+02  0.30142084501E+02  0.47787270884E+02  0.19999999269E+02 0.  0.
        -12    1    1    2    0    0 -0.18279018339E+02  0.25317099325E+02 -0.30142084501E+02  0.43400729116E+02  0.00000000000E+00 0.  1.
         11    1    3    3    0    0 -0.67050070587E+00  0.16170534045E+01  0.44873732968E+01  0.48167366832E+01  0.51100000000E-03 0.  1.
        -11    1    3    3    0    0  0.58106290574E+01 -0.15205460705E+02  0.84121064173E+01  0.18323017763E+02  0.51100000000E-03 0. -1.
         12    1    3    3    0    0  0.13138889988E+02 -0.11728692024E+02  0.17242604787E+02  0.24647516438E+02  0.00000000000E+00 0. -1.
</event>
<event>
 7    1  0.6622189E-010  0.4778727E+02  0.7816164E-02  0.1312668E+00
        -11   -1    0    0    0    0  0.00000000000E+00  0.00000000000E+00  0.45593999997E+02  0.45594000000E+02  0.51100000000E-03 0. -1.
         11   -1    0    0    0    0 -0.00000000000E+00 -0.00000000000E+00 -0.45593999997E+02  0.45594000000E+02  0.51100000000E-03 0.  1.
    9900012    2    1    2    0    0 -0.23203635372E+01 -0.16024306933E+02  0.40267367983E+02  0.47787269316E+02  0.19999992119E+02 0.  0.
        -12    1    1    2    0    0  0.23203635372E+01  0.16024306933E+02 -0.40267367983E+02  0.43400730684E+02  0.00000000000E+00 0.  1.
         11    1    3    3    0    0 -0.10235584179E+01 -0.60104834886E+01  0.28317045883E+02  0.28965991635E+02  0.51100000000E-03 0. -1.
        -11    1    3    3    0    0 -0.58713400384E+01 -0.46436784121E+01  0.60760851407E+01  0.96413273951E+01  0.51100000000E-03 0.  1.
         12    1    3    3    0    0  0.45745349192E+01 -0.53701450324E+01  0.58742369593E+01  0.91799502858E+01  0.00000000000E+00 0. -1.
</event>
<event>
 7    1  0.6622189E-010  0.4778729E+02  0.7816164E-02  0.1312668E+00
        -11   -1    0    0    0    0  0.00000000000E+00  0.00000000000E+00  0.45593999997E+02  0.45594000000E+02  0.51100000000E-03 0. -1.
         11   -1    0    0    0    0 -0.00000000000E+00 -0.00000000000E+00 -0.45593999997E+02  0.45594000000E+02  0.51100000000E-03 0.  1.
    9900012    2    1    2    0    0  0.12028441290E+02  0.20987512529E+02  0.36034182598E+02  0.47787292661E+02  0.20000098556E+02 0.  0.
        -12    1    1    2    0    0 -0.12028441290E+02 -0.20987512529E+02 -0.36034182598E+02  0.43400707339E+02  0.00000000000E+00 0.  1.
         11    1    3    3    0    0  0.62809757282E+01  0.19380271485E+02  0.28855410687E+02  0.35322518386E+02  0.51100000000E-03 0. -1.
        -11    1    3    3    0    0 -0.14489234427E+01 -0.22272656342E+00 -0.71190894259E+00  0.16296628083E+01  0.51100000000E-03 0.  1.
         12    1    3    3    0    0  0.71963890048E+01  0.18299676071E+01  0.78906808537E+01  0.10835111466E+02  0.00000000000E+00 0. -1.
</event>
<event>
 7    1  0.6622189E-010  0.4778727E+02  0.7816164E-02  0.1312668E+00
        -11   -1    0    0    0    0  0.00000000000E+00  0.00000000000E+00  0.45593999997E+02  0.45594000000E+02  0.51100000000E-03 0. -1.
         11   -1    0    0    0    0 -0.00000000000E+00 -0.00000000000E+00 -0.45593999997E+02  0.45594000000E+02  0.51100000000E-03 0.  1.
    9900012    2    1    2    0    0  0.23885099771E+01 -0.33884641659E+02 -0.27013871519E+02  0.47787272187E+02  0.20000005208E+02 0.  0.
         12    1    1    2    0    0 -0.23885099771E+01  0.33884641659E+02  0.27013871519E+02  0.43400727813E+02  0.00000000000E+00 0. -1.
         11    1    3    3    0    0 -0.87451926972E+00 -0.11373313245E+01  0.27497586061E+01  0.31015285179E+01  0.51100000000E-03 0. -1.
        -11    1    3    3    0    0 -0.83519421744E+00 -0.15737790418E+02 -0.12616328719E+02  0.20187801942E+02  0.51100000000E-03 0.  1.
         12    1    3    3    0    0  0.40982234643E+01 -0.17009519916E+02 -0.17147301406E+02  0.24497941727E+02  0.00000000000E+00 0. -1.
</event>
<event>
 7    1  0.6622189E-010  0.4778727E+02  0.7816164E-02  0.1312668E+00
        -11   -1    0    0    0    0  0.00000000000E+00  0.00000000000E+00  0.45593999997E+02  0.45594000000E+02  0.51100000000E-03 0.  1.
         11   -1    0    0    0    0 -0.00000000000E+00 -0.00000000000E+00 -0.45593999997E+02  0.45594000000E+02  0.51100000000E-03 0. -1.
    9900012    2    1    2    0    0 -0.42855801358E+02  0.35746179374E+01 -0.58502515311E+01  0.47787273665E+02  0.20000011950E+02 0.  0.
         12    1    1    2    0    0  0.42855801358E+02 -0.35746179374E+01  0.58502515311E+01  0.43400726335E+02  0.00000000000E+00 0. -1.
         11    1    3    3    0    0 -0.12257496139E+02  0.57391581919E+01 -0.70554829191E+01  0.15263157859E+02  0.51100000000E-03 0. -1.
        -11    1    3    3    0    0 -0.29117944197E+02  0.16295435532E+00 -0.77469856344E+00  0.29128703825E+02  0.51100000000E-03 0.  1.
        -12    1    3    3    0    0 -0.14803610220E+01 -0.23274946099E+01  0.19799299514E+01  0.33954119819E+01  0.00000000000E+00 0.  1.
</event>
<event>
 7    1  0.6622189E-010  0.4778728E+02  0.7816164E-02  0.1312668E+00
        -11   -1    0    0    0    0  0.00000000000E+00  0.00000000000E+00  0.45593999997E+02  0.45594000000E+02  0.51100000000E-03 0. -1.
         11   -1    0    0    0    0 -0.00000000000E+00 -0.00000000000E+00 -0.45593999997E+02  0.45594000000E+02  0.51100000000E-03 0.  1.
    9900012    2    1    2    0    0 -0.25818543001E+02  0.21130918948E+02 -0.27758050529E+02  0.47787282639E+02  0.20000052864E+02 0.  0.
         12    1    1    2    0    0  0.25818543001E+02 -0.21130918948E+02  0.27758050529E+02  0.43400717361E+02  0.00000000000E+00 0. -1.
         11    1    3    3    0    0  0.49960646486E+00 -0.66970608992E+00  0.35534541287E+00  0.90795566531E+00  0.51100000000E-03 0. -1.
        -11    1    3    3    0    0 -0.84749197698E+01  0.16665885905E+02 -0.11404430303E+02  0.21900617546E+02  0.51100000000E-03 0.  1.
        -12    1    3    3    0    0 -0.17843229696E+02  0.51347391332E+01 -0.16708965639E+02  0.24978709427E+02  0.00000000000E+00 0.  1.
</event>
<event>
 7    1  0.6622189E-010  0.4778727E+02  0.7816164E-02  0.1312668E+00
        -11   -1    0    0    0    0  0.00000000000E+00  0.00000000000E+00  0.45593999997E+02  0.45594000000E+02  0.51100000000E-03 0. -1.
         11   -1    0    0    0    0 -0.00000000000E+00 -0.00000000000E+00 -0.45593999997E+02  0.45594000000E+02  0.51100000000E-03 0.  1.
    9900012    2    1    2    0    0 -0.18249124324E+02  0.22662188563E+02  0.32202764666E+02  0.47787269808E+02  0.19999994364E+02 0.  0.
        -12    1    1    2    0    0  0.18249124324E+02 -0.22662188563E+02 -0.32202764666E+02  0.43400730192E+02  0.00000000000E+00 0.  1.
         11    1    3    3    0    0 -0.89354254985E+01  0.10835496076E+02  0.39466217469E+01  0.14588544394E+02  0.51100000000E-03 0.  1.
        -11    1    3    3    0    0 -0.92693201659E+01  0.49107201048E+01  0.17844918398E+02  0.20699675871E+02  0.51100000000E-03 0. -1.
         12    1    3    3    0    0 -0.44378659209E-01  0.69159723819E+01  0.10411224522E+02  0.12499049543E+02  0.00000000000E+00 0. -1.
</event>
<event>
 7    1  0.6622189E-010  0.4778725E+02  0.7816164E-02  0.1312668E+00
        -11   -1    0    0    0    0  0.00000000000E+00  0.00000000000E+00  0.45593999997E+02  0.45594000000E+02  0.51100000000E-03 0.  1.
         11   -1    0    0    0    0 -0.00000000000E+00 -0.00000000000E+00 -0.45593999997E+02  0.45594000000E+02  0.51100000000E-03 0. -1.
    9900012    2    1    2    0    0 -0.21659669020E+02 -0.37597872758E+02 -0.93997355653E+00  0.47787252906E+02  0.19999917300E+02 0.  0.
         12    1    1    2    0    0  0.21659669020E+02  0.37597872758E+02  0.93997355653E+00  0.43400747094E+02  0.00000000000E+00 0. -1.
         11    1    3    3    0    0 -0.68470417968E+00 -0.37662401441E+01  0.27322440234E+01  0.47030354348E+01  0.51100000000E-03 0. -1.
        -11    1    3    3    0    0 -0.19816462254E+02 -0.31277808451E+02  0.16550767035E+01  0.37063900995E+02  0.51100000000E-03 0.  1.
        -12    1    3    3    0    0 -0.11585025867E+01 -0.25538241630E+01 -0.53272942835E+01  0.60203164768E+01  0.00000000000E+00 0.  1.
</event>
<event>
 7    1  0.6622189E-010  0.4778727E+02  0.7816164E-02  0.1312668E+00
        -11   -1    0    0    0    0  0.00000000000E+00  0.00000000000E+00  0.45593999997E+02  0.45594000000E+02  0.51100000000E-03 0.  1.
         11   -1    0    0    0    0 -0.00000000000E+00 -0.00000000000E+00 -0.45593999997E+02  0.45594000000E+02  0.51100000000E-03 0. -1.
    9900012    2    1    2    0    0 -0.36327159920E+02  0.11032650564E+02 -0.21029537874E+02  0.47787269712E+02  0.19999993926E+02 0.  0.
         12    1    1    2    0    0  0.36327159920E+02 -0.11032650564E+02  0.21029537874E+02  0.43400730288E+02  0.00000000000E+00 0. -1.
         11    1    3    3    0    0 -0.74443936419E+01 -0.23449324876E+01 -0.87348459817E+01  0.11713890884E+02  0.51100000000E-03 0. -1.
        -11    1    3    3    0    0 -0.17032590116E+02  0.13081547483E+02 -0.46676793949E+01  0.21977789739E+02  0.51100000000E-03 0.  1.
        -12    1    3    3    0    0 -0.11850176162E+02  0.29603556824E+00 -0.76270124972E+01  0.14095589089E+02  0.00000000000E+00 0.  1.
</event>
<event>
 7    1  0.6622189E-010  0.4778729E+02  0.7816164E-02  0.1312668E+00
        -11   -1    0    0    0    0  0.00000000000E+00  0.00000000000E+00  0.45593999997E+02  0.45594000000E+02  0.51100000000E-03 0. -1.
         11   -1    0    0    0    0 -0.00000000000E+00 -0.00000000000E+00 -0.45593999997E+02  0.45594000000E+02  0.51100000000E-03 0.  1.
    9900012    2    1    2    0    0  0.30779788026E+02 -0.60073473915E+01  0.30002303168E+02  0.47787288382E+02  0.20000079048E+02 0.  0.
        -12    1    1    2    0    0 -0.30779788026E+02  0.60073473915E+01 -0.30002303168E+02  0.43400711618E+02  0.00000000000E+00 0.  1.
         11    1    3    3    0    0  0.12370048863E+01 -0.14958130384E+01  0.11755028642E+02  0.11914207333E+02  0.51100000000E-03 0. -1.
        -11    1    3    3    0    0  0.13580615438E+02 -0.35822089674E+01  0.43915270634E+01  0.14715666718E+02  0.51100000000E-03 0.  1.
         12    1    3    3    0    0  0.15962167702E+02 -0.92932538574E+00  0.13855747462E+02  0.21157414330E+02  0.00000000000E+00 0. -1.
</event>
<event>
 7    1  0.6622189E-010  0.4778727E+02  0.7816164E-02  0.1312668E+00
        -11   -1    0    0    0    0  0.00000000000E+00  0.00000000000E+00  0.45593999997E+02  0.45594000000E+02  0.51100000000E-03 0. -1.
         11   -1    0    0    0    0 -0.00000000000E+00 -0.00000000000E+00 -0.45593999997E+02  0.45594000000E+02  0.51100000000E-03 0.  1.
    9900012    2    1    2    0    0  0.11876590045E+02  0.99490867063E+01 -0.40541156806E+02  0.47787272903E+02  0.20000008475E+02 0.  0.
         12    1    1    2    0    0 -0.11876590045E+02 -0.99490867063E+01  0.40541156806E+02  0.43400727097E+02  0.00000000000E+00 0. -1.
         11    1    3    3    0    0  0.19184095638E+01 -0.13255177660E+01 -0.20735255708E+02  0.20865956056E+02  0.51100000000E-03 0. -1.
        -11    1    3    3    0    0  0.93686660311E+01  0.61199142868E+01 -0.72447676806E+01  0.13330863179E+02  0.51100000000E-03 0.  1.
        -12    1    3    3    0    0  0.58951445002E+00  0.51546901855E+01 -0.12561133417E+02  0.13590453669E+02  0.00000000000E+00 0.  1.
</event>
<event>
 7    1  0.6622189E-010  0.4778727E+02  0.7816164E-02  0.1312668E+00
        -11   -1    0    0    0    0  0.00000000000E+00  0.00000000000E+00  0.45593999997E+02  0.45594000000E+02  0.51100000000E-03 0. -1.
         11   -1    0    0    0    0 -0.00000000000E+00 -0.00000000000E+00 -0.45593999997E+02  0.45594000000E+02  0.51100000000E-03 0.  1.
    9900012    2    1    2    0    0 -0.97191082961E+01 -0.15243835230E+01 -0.42271010372E+02  0.47787272713E+02  0.20000007606E+02 0.  0.
         12    1    1    2    0    0  0.97191082961E+01  0.15243835230E+01  0.42271010372E+02  0.43400727287E+02  0.00000000000E+00 0. -1.
         11    1    3    3    0    0 -0.93178105223E+01  0.69626725008E+01 -0.18397314437E+02  0.21766064873E+02  0.51100000000E-03 0. -1.
        -11    1    3    3    0    0  0.22183958592E+01 -0.68937932706E+01 -0.17819078947E+02  0.19234480514E+02  0.51100000000E-03 0.  1.
        -12    1    3    3    0    0 -0.26196936330E+01 -0.15932627533E+01 -0.60546169880E+01  0.67867273264E+01  0.00000000000E+00 0.  1.
</event>
<event>
 7    1  0.6622189E-010  0.4778727E+02  0.7816164E-02  0.1312668E+00
        -11   -1    0    0    0    0  0.00000000000E+00  0.00000000000E+00  0.45593999997E+02  0.45594000000E+02  0.51100000000E-03 0. -1.
         11   -1    0    0    0    0 -0.00000000000E+00 -0.00000000000E+00 -0.45593999997E+02  0.45594000000E+02  0.51100000000E-03 0.  1.
    9900012    2    1    2    0    0  0.38191058583E+01  0.16224218517E+02  0.40072589807E+02  0.47787270860E+02  0.19999999157E+02 0.  0.
        -12    1    1    2    0    0 -0.38191058583E+01 -0.16224218517E+02 -0.40072589807E+02  0.43400729140E+02  0.00000000000E+00 0.  1.
         11    1    3    3    0    0 -0.10711584950E+01  0.34348771003E+00  0.20483228585E+00  0.11433813252E+01  0.51100000000E-03 0. -1.
        -11    1    3    3    0    0  0.13556098453E+01  0.78206484884E+01  0.26018831263E+01  0.83528448385E+01  0.51100000000E-03 0.  1.
        -12    1    3    3    0    0  0.35346545079E+01  0.80600823189E+01  0.37265874395E+02  0.38291044696E+02  0.00000000000E+00 0.  1.
</event>
<event>
 7    1  0.6622189E-010  0.4778727E+02  0.7816164E-02  0.1312668E+00
        -11   -1    0    0    0    0  0.00000000000E+00  0.00000000000E+00  0.45593999997E+02  0.45594000000E+02  0.51100000000E-03 0. -1.
         11   -1    0    0    0    0 -0.00000000000E+00 -0.00000000000E+00 -0.45593999997E+02  0.45594000000E+02  0.51100000000E-03 0.  1.
    9900012    2    1    2    0    0 -0.30858781888E+02 -0.10340595046E+02  0.28712907657E+02  0.47787269688E+02  0.19999993815E+02 0.  0.
        -12    1    1    2    0    0  0.30858781888E+02  0.10340595046E+02 -0.28712907657E+02  0.43400730312E+02  0.00000000000E+00 0.  1.
         11    1    3    3    0    0 -0.28179645191E+02 -0.10929072124E+02  0.17939913229E+02  0.35147937457E+02  0.51100000000E-03 0.  1.
        -11    1    3    3    0    0 -0.30590012754E+01  0.22252722018E+01  0.10175643222E+02  0.10856014021E+02  0.51100000000E-03 0. -1.
        -12    1    3    3    0    0  0.37986457812E+00 -0.16367951238E+01  0.59735120569E+00  0.17833182100E+01  0.00000000000E+00 0.  1.
</event>
<event>
 7    1  0.6622189E-010  0.4778726E+02  0.7816164E-02  0.1312668E+00
        -11   -1    0    0    0    0  0.00000000000E+00  0.00000000000E+00  0.45593999997E+02  0.45594000000E+02  0.51100000000E-03 0. -1.
         11   -1    0    0    0    0 -0.00000000000E+00 -0.00000000000E+00 -0.45593999997E+02  0.45594000000E+02  0.51100000000E-03 0.  1.
    9900012    2    1    2    0    0  0.24153639986E+02 -0.43538246720E+01 -0.35794836874E+02  0.47787257372E+02  0.19999937661E+02 0.  0.
         12    1    1    2    0    0 -0.24153639986E+02  0.43538246720E+01  0.35794836874E+02  0.43400742628E+02  0.00000000000E+00 0. -1.
         11    1    3    3    0    0  0.34521594992E+01  0.62491724789E+01 -0.38251422792E+01  0.80994614387E+01  0.51100000000E-03 0. -1.
        -11    1    3    3    0    0  0.12303652592E+02 -0.59656581397E+01 -0.15884504079E+02  0.20959160628E+02  0.51100000000E-03 0.  1.
         12    1    3    3    0    0  0.83978278942E+01 -0.46373390112E+01 -0.16085190516E+02  0.18728635305E+02  0.00000000000E+00 0. -1.
</event>
<event>
 7    1  0.6622189E-010  0.4778729E+02  0.7816164E-02  0.1312668E+00
        -11   -1    0    0    0    0  0.00000000000E+00  0.00000000000E+00  0.45593999997E+02  0.45594000000E+02  0.51100000000E-03 0. -1.
         11   -1    0    0    0    0 -0.00000000000E+00 -0.00000000000E+00 -0.45593999997E+02  0.45594000000E+02  0.51100000000E-03 0.  1.
    9900012    2    1    2    0    0  0.37610309421E+02  0.10111835551E+02 -0.19152989949E+02  0.47787290133E+02  0.20000087033E+02 0.  0.
         12    1    1    2    0    0 -0.37610309421E+02 -0.10111835551E+02  0.19152989949E+02  0.43400709867E+02  0.00000000000E+00 0. -1.
         11    1    3    3    0    0  0.20667315437E+02 -0.24009300292E+01 -0.59446993470E+01  0.21638896528E+02  0.51100000000E-03 0. -1.
        -11    1    3    3    0    0  0.56164949058E+01  0.88438021176E+01 -0.45230238783E+01  0.11411204853E+02  0.51100000000E-03 0.  1.
         12    1    3    3    0    0  0.11326499078E+02  0.36689634627E+01 -0.86852667237E+01  0.14737188752E+02  0.00000000000E+00 0. -1.
</event>
<event>
 7    1  0.6622189E-010  0.4778727E+02  0.7816164E-02  0.1312668E+00
        -11   -1    0    0    0    0  0.00000000000E+00  0.00000000000E+00  0.45593999997E+02  0.45594000000E+02  0.51100000000E-03 0.  1.
         11   -1    0    0    0    0 -0.00000000000E+00 -0.00000000000E+00 -0.45593999997E+02  0.45594000000E+02  0.51100000000E-03 0. -1.
    9900012    2    1    2    0    0  0.13807601370E+02 -0.40048793708E+02 -0.94375873474E+01  0.47787265121E+02  0.19999972994E+02 0.  0.
         12    1    1    2    0    0 -0.13807601370E+02  0.40048793708E+02  0.94375873474E+01  0.43400734879E+02  0.00000000000E+00 0. -1.
         11    1    3    3    0    0 -0.21425535697E+01 -0.15881360372E+02 -0.32111245141E+01  0.16343789768E+02  0.51100000000E-03 0. -1.
        -11    1    3    3    0    0  0.11682538836E+02 -0.23829891149E+02 -0.54151896738E+01  0.27086337982E+02  0.51100000000E-03 0.  1.
         12    1    3    3    0    0  0.42676161034E+01 -0.33754218774E+00 -0.81127315942E+00  0.43571373715E+01  0.00000000000E+00 0. -1.
</event>
<event>
 7    1  0.6622189E-010  0.4778727E+02  0.7816164E-02  0.1312668E+00
        -11   -1    0    0    0    0  0.00000000000E+00  0.00000000000E+00  0.45593999997E+02  0.45594000000E+02  0.51100000000E-03 0. -1.
         11   -1    0    0    0    0 -0.00000000000E+00 -0.00000000000E+00 -0.45593999997E+02  0.45594000000E+02  0.51100000000E-03 0.  1.
    9900012    2    1    2    0    0 -0.38501718381E+02 -0.99278950341E+01 -0.17397643865E+02  0.47787269244E+02  0.19999991790E+02 0.  0.
         12    1    1    2    0    0  0.38501718381E+02  0.99278950341E+01  0.17397643865E+02  0.43400730756E+02  0.00000000000E+00 0. -1.
         11    1    3    3    0    0 -0.87950519123E+01 -0.19064236656E+01  0.32962971986E+01  0.95839952429E+01  0.51100000000E-03 0. -1.
        -11    1    3    3    0    0 -0.28902217138E+02 -0.91962657405E+01 -0.18315308903E+02  0.35431059814E+02  0.51100000000E-03 0.  1.
         12    1    3    3    0    0 -0.80444933090E+00  0.11747943720E+01 -0.23786321602E+01  0.27722141866E+01  0.00000000000E+00 0. -1.
</event>
<event>
 7    1  0.6622189E-010  0.4778727E+02  0.7816164E-02  0.1312668E+00
        -11   -1    0    0    0    0  0.00000000000E+00  0.00000000000E+00  0.45593999997E+02  0.45594000000E+02  0.51100000000E-03 0. -1.
         11   -1    0    0    0    0 -0.00000000000E+00 -0.00000000000E+00 -0.45593999997E+02  0.45594000000E+02  0.51100000000E-03 0.  1.
    9900012    2    1    2    0    0 -0.33366861105E+02  0.13715710801E+02 -0.24127888512E+02  0.47787272508E+02  0.20000006672E+02 0.  0.
         12    1    1    2    0    0  0.33366861105E+02 -0.13715710801E+02  0.24127888512E+02  0.43400727492E+02  0.00000000000E+00 0. -1.
         11    1    3    3    0    0 -0.29567025366E+01 -0.16374304278E+01 -0.49192840556E+01  0.59684691653E+01  0.51100000000E-03 0. -1.
        -11    1    3    3    0    0 -0.12259159277E+02  0.10262749571E+02 -0.16774372694E+01  0.16075596754E+02  0.51100000000E-03 0.  1.
        -12    1    3    3    0    0 -0.18150999292E+02  0.50903916571E+01 -0.17531167187E+02  0.25743206589E+02  0.00000000000E+00 0.  1.
</event>
<event>
 7    1  0.6622189E-010  0.4778726E+02  0.7816164E-02  0.1312668E+00
        -11   -1    0    0    0    0  0.00000000000E+00  0.00000000000E+00  0.45593999997E+02  0.45594000000E+02  0.51100000000E-03 0. -1.
         11   -1    0    0    0    0 -0.00000000000E+00 -0.00000000000E+00 -0.45593999997E+02  0.45594000000E+02  0.51100000000E-03 0.  1.
    9900012    2    1    2    0    0 -0.45250267897E+01  0.44258719575E+01 -0.42936694655E+02  0.47787263164E+02  0.19999964068E+02 0.  0.
         12    1    1    2    0    0  0.45250267897E+01 -0.44258719575E+01  0.42936694655E+02  0.43400736836E+02  0.00000000000E+00 0. -1.
         11    1    3    3    0    0 -0.22652500677E+01  0.16358050934E+01 -0.24218548803E+02  0.24379198563E+02  0.51100000000E-03 0.  1.
        -11    1    3    3    0    0 -0.69265912047E+01 -0.11104523351E+01 -0.56988552156E+01  0.90381259747E+01  0.51100000000E-03 0. -1.
        -12    1    3    3    0    0  0.46668144828E+01  0.39005191992E+01 -0.13019290636E+02  0.14369938626E+02  0.00000000000E+00 0.  1.
</event>
<event>
 7    1  0.6622189E-010  0.4778727E+02  0.7816164E-02  0.1312668E+00
        -11   -1    0    0    0    0  0.00000000000E+00  0.00000000000E+00  0.45593999997E+02  0.45594000000E+02  0.51100000000E-03 0. -1.
         11   -1    0    0    0    0 -0.00000000000E+00 -0.00000000000E+00 -0.45593999997E+02  0.45594000000E+02  0.51100000000E-03 0.  1.
    9900012    2    1    2    0    0 -0.17062303178E+02  0.27824113895E+01  0.39809034205E+02  0.47787271812E+02  0.20000003501E+02 0.  0.
        -12    1    1    2    0    0  0.17062303178E+02 -0.27824113895E+01 -0.39809034205E+02  0.43400728188E+02  0.00000000000E+00 0.  1.
         11    1    3    3    0    0 -0.19819617211E+02 -0.21347367895E+01  0.28962188201E+02  0.35159389545E+02  0.51100000000E-03 0. -1.
        -11    1    3    3    0    0  0.28443196268E+01  0.31629353942E+01  0.52222913645E+01  0.67354763606E+01  0.51100000000E-03 0.  1.
         12    1    3    3    0    0 -0.87005593354E-01  0.17542127849E+01  0.56245546401E+01  0.58924059066E+01  0.00000000000E+00 0. -1.
</event>
<event>
 7    1  0.6622189E-010  0.4778726E+02  0.7816164E-02  0.1312668E+00
        -11   -1    0    0    0    0  0.00000000000E+00  0.00000000000E+00  0.45593999997E+02  0.45594000000E+02  0.51100000000E-03 0. -1.
         11   -1    0    0    0    0 -0.00000000000E+00 -0.00000000000E+00 -0.45593999997E+02  0.45594000000E+02  0.51100000000E-03 0.  1.
    9900012    2    1    2    0    0  0.31724865407E+02  0.17929501583E+02 -0.23573075028E+02  0.47787262928E+02  0.19999962995E+02 0.  0.
         12    1    1    2    0    0 -0.31724865407E+02 -0.17929501583E+02  0.23573075028E+02  0.43400737072E+02  0.00000000000E+00 0. -1.
         11    1    3    3    0    0  0.20161242556E+02  0.80127661563E+01 -0.19917770939E+02  0.29451616633E+02  0.51100000000E-03 0. -1.
        -11    1    3    3    0    0  0.47104231304E+01  0.31381796157E+01 -0.61709032431E+01  0.83735479018E+01  0.51100000000E-03 0.  1.
         12    1    3    3    0    0  0.68531997207E+01  0.67785558105E+01  0.25155991541E+01  0.99620983931E+01  0.00000000000E+00 0. -1.
</event>
<event>
 7    1  0.6622189E-010  0.4778727E+02  0.7816164E-02  0.1312668E+00
        -11   -1    0    0    0    0  0.00000000000E+00  0.00000000000E+00  0.45593999997E+02  0.45594000000E+02  0.51100000000E-03 0. -1.
         11   -1    0    0    0    0 -0.00000000000E+00 -0.00000000000E+00 -0.45593999997E+02  0.45594000000E+02  0.51100000000E-03 0.  1.
    9900012    2    1    2    0    0 -0.13901259100E+02 -0.15135855043E+02  0.38226744019E+02  0.47787273385E+02  0.20000010670E+02 0.  0.
        -12    1    1    2    0    0  0.13901259100E+02  0.15135855043E+02 -0.38226744019E+02  0.43400726615E+02  0.00000000000E+00 0.  1.
         11    1    3    3    0    0 -0.93771284163E+01 -0.16551809884E+02  0.24339509419E+02  0.30891822005E+02  0.51100000000E-03 0. -1.
        -11    1    3    3    0    0 -0.37887093774E+01  0.46676546659E+01  0.68862303314E+01  0.91411972555E+01  0.51100000000E-03 0.  1.
        -12    1    3    3    0    0 -0.73542130616E+00 -0.32516998253E+01  0.70010042690E+01  0.77542541244E+01  0.00000000000E+00 0.  1.
</event>
<event>
 7    1  0.6622189E-010  0.4778727E+02  0.7816164E-02  0.1312668E+00
        -11   -1    0    0    0    0  0.00000000000E+00  0.00000000000E+00  0.45593999997E+02  0.45594000000E+02  0.51100000000E-03 0. -1.
         11   -1    0    0    0    0 -0.00000000000E+00 -0.00000000000E+00 -0.45593999997E+02  0.45594000000E+02  0.51100000000E-03 0.  1.
    9900012    2    1    2    0    0  0.29407215682E+02 -0.12824803443E+02  0.29229491325E+02  0.47787273271E+02  0.20000010150E+02 0.  0.
        -12    1    1    2    0    0 -0.29407215682E+02  0.12824803443E+02 -0.29229491325E+02  0.43400726729E+02  0.00000000000E+00 0.  1.
         11    1    3    3    0    0  0.16140799455E+02 -0.28587720898E+01  0.23467070983E+02  0.28625188308E+02  0.51100000000E-03 0. -1.
        -11    1    3    3    0    0  0.12468151943E+02 -0.55753112345E+01  0.32442805156E+01  0.14037957991E+02  0.51100000000E-03 0.  1.
         12    1    3    3    0    0  0.79826428349E+00 -0.43907201192E+01  0.25181398266E+01  0.51241269713E+01  0.00000000000E+00 0. -1.
</event>
<event>
 7    1  0.6622189E-010  0.4778727E+02  0.7816164E-02  0.1312668E+00
        -11   -1    0    0    0    0  0.00000000000E+00  0.00000000000E+00  0.45593999997E+02  0.45594000000E+02  0.51100000000E-03 0. -1.
         11   -1    0    0    0    0 -0.00000000000E+00 -0.00000000000E+00 -0.45593999997E+02  0.45594000000E+02  0.51100000000E-03 0.  1.
    9900012    2    1    2    0    0  0.51812306418E+01  0.10557504522E+02 -0.41776999525E+02  0.47787265651E+02  0.19999975410E+02 0.  0.
         12    1    1    2    0    0 -0.51812306418E+01 -0.10557504522E+02  0.41776999525E+02  0.43400734349E+02  0.00000000000E+00 0. -1.
         11    1    3    3    0    0  0.38429694032E+01  0.79165086921E+01 -0.12702025847E+02  0.15452539746E+02  0.51100000000E-03 0. -1.
        -11    1    3    3    0    0  0.49371996105E+01  0.10319136319E+01 -0.27706226395E+02  0.28161600932E+02  0.51100000000E-03 0.  1.
        -12    1    3    3    0    0 -0.35989383719E+01  0.16090821977E+01 -0.13687472832E+01  0.41731249741E+01  0.00000000000E+00 0.  1.
</event>
<event>
 7    1  0.6622189E-010  0.4778726E+02  0.7816164E-02  0.1312668E+00
        -11   -1    0    0    0    0  0.00000000000E+00  0.00000000000E+00  0.45593999997E+02  0.45594000000E+02  0.51100000000E-03 0. -1.
         11   -1    0    0    0    0 -0.00000000000E+00 -0.00000000000E+00 -0.45593999997E+02  0.45594000000E+02  0.51100000000E-03 0.  1.
    9900012    2    1    2    0    0 -0.44369869969E+00 -0.32633706987E+02 -0.28608883255E+02  0.47787263815E+02  0.19999967040E+02 0.  0.
         12    1    1    2    0    0  0.44369869969E+00  0.32633706987E+02  0.28608883255E+02  0.43400736185E+02  0.00000000000E+00 0. -1.
         11    1    3    3    0    0 -0.30341166297E+01 -0.11498445587E+02 -0.15968351889E+02  0.19910006955E+02  0.51100000000E-03 0.  1.
        -11    1    3    3    0    0  0.26145315298E+01 -0.53307216243E+01  0.20681198622E+01  0.62872480611E+01  0.51100000000E-03 0. -1.
         12    1    3    3    0    0 -0.24113599810E-01 -0.15804539776E+02 -0.14708651229E+02  0.21590008800E+02  0.00000000000E+00 0. -1.
</event>
<event>
 7    1  0.6622189E-010  0.4778727E+02  0.7816164E-02  0.1312668E+00
        -11   -1    0    0    0    0  0.00000000000E+00  0.00000000000E+00  0.45593999997E+02  0.45594000000E+02  0.51100000000E-03 0. -1.
         11   -1    0    0    0    0 -0.00000000000E+00 -0.00000000000E+00 -0.45593999997E+02  0.45594000000E+02  0.51100000000E-03 0.  1.
    9900012    2    1    2    0    0  0.58627461222E+00  0.39026092147E+02 -0.18980097101E+02  0.47787266456E+02  0.19999979080E+02 0.  0.
         12    1    1    2    0    0 -0.58627461222E+00 -0.39026092147E+02  0.18980097101E+02  0.43400733544E+02  0.00000000000E+00 0. -1.
         11    1    3    3    0    0 -0.10088987968E+01  0.37505502624E+01  0.12003183393E+01  0.40651283411E+01  0.51100000000E-03 0. -1.
        -11    1    3    3    0    0  0.37399806585E+01  0.46041852709E+00 -0.92884643073E+00  0.38810045734E+01  0.51100000000E-03 0.  1.
        -12    1    3    3    0    0 -0.21448072495E+01  0.34815123358E+02 -0.19251569009E+02  0.39841133542E+02  0.00000000000E+00 0.  1.
</event>
<event>
 7    1  0.6622189E-010  0.4778727E+02  0.7816164E-02  0.1312668E+00
        -11   -1    0    0    0    0  0.00000000000E+00  0.00000000000E+00  0.45593999997E+02  0.45594000000E+02  0.51100000000E-03 0. -1.
         11   -1    0    0    0    0 -0.00000000000E+00 -0.00000000000E+00 -0.45593999997E+02  0.45594000000E+02  0.51100000000E-03 0.  1.
    9900012    2    1    2    0    0 -0.54399638266E+01  0.13379623729E+02 -0.40926955669E+02  0.47787271459E+02  0.20000001891E+02 0.  0.
         12    1    1    2    0    0  0.54399638266E+01 -0.13379623729E+02  0.40926955669E+02  0.43400728541E+02  0.00000000000E+00 0. -1.
         11    1    3    3    0    0 -0.72762040280E+01  0.14327251474E+01 -0.54901565932E+01  0.92270074284E+01  0.51100000000E-03 0. -1.
        -11    1    3    3    0    0 -0.25111640764E+01  0.96192287319E+01 -0.27202729174E+02  0.28962458134E+02  0.51100000000E-03 0.  1.
         12    1    3    3    0    0  0.43474042778E+01  0.23276698496E+01 -0.82340699019E+01  0.95978058968E+01  0.00000000000E+00 0. -1.
</event>
<event>
 7    1  0.6622189E-010  0.4778727E+02  0.7816164E-02  0.1312668E+00
        -11   -1    0    0    0    0  0.00000000000E+00  0.00000000000E+00  0.45593999997E+02  0.45594000000E+02  0.51100000000E-03 0. -1.
         11   -1    0    0    0    0 -0.00000000000E+00 -0.00000000000E+00 -0.45593999997E+02  0.45594000000E+02  0.51100000000E-03 0.  1.
    9900012    2    1    2    0    0 -0.12827050490E+02  0.25418342776E+02 -0.32756642278E+02  0.47787274349E+02  0.20000015065E+02 0.  0.
         12    1    1    2    0    0  0.12827050490E+02 -0.25418342776E+02  0.32756642278E+02  0.43400725651E+02  0.00000000000E+00 0. -1.
         11    1    3    3    0    0 -0.80516824145E+01  0.87623443221E+01 -0.57814826004E+01  0.13230034355E+02  0.51100000000E-03 0. -1.
        -11    1    3    3    0    0  0.35012050238E+01  0.59124258664E+01 -0.14860939497E+02  0.16372621636E+02  0.51100000000E-03 0.  1.
        -12    1    3    3    0    0 -0.82765730996E+01  0.10743572587E+02 -0.12114220180E+02  0.18184618357E+02  0.00000000000E+00 0.  1.
</event>
<event>
 7    1  0.6622189E-010  0.4778727E+02  0.7816164E-02  0.1312668E+00
        -11   -1    0    0    0    0  0.00000000000E+00  0.00000000000E+00  0.45593999997E+02  0.45594000000E+02  0.51100000000E-03 0. -1.
         11   -1    0    0    0    0 -0.00000000000E+00 -0.00000000000E+00 -0.45593999997E+02  0.45594000000E+02  0.51100000000E-03 0.  1.
    9900012    2    1    2    0    0 -0.21999314387E+02 -0.91134853773E+01  0.36284951028E+02  0.47787272813E+02  0.20000008064E+02 0.  0.
        -12    1    1    2    0    0  0.21999314387E+02  0.91134853773E+01 -0.36284951028E+02  0.43400727187E+02  0.00000000000E+00 0.  1.
         11    1    3    3    0    0 -0.21049807599E+02 -0.81292723863E+01  0.30809457072E+02  0.38189031341E+02  0.51100000000E-03 0. -1.
        -11    1    3    3    0    0 -0.15446287728E+01  0.15495380953E+01 -0.11558260221E+01  0.24744454751E+01  0.51100000000E-03 0.  1.
        -12    1    3    3    0    0  0.59512198414E+00 -0.25337510864E+01  0.66313199785E+01  0.71237959966E+01  0.00000000000E+00 0.  1.
</event>
<event>
 7    1  0.6622189E-010  0.4778727E+02  0.7816164E-02  0.1312668E+00
        -11   -1    0    0    0    0  0.00000000000E+00  0.00000000000E+00  0.45593999997E+02  0.45594000000E+02  0.51100000000E-03 0. -1.
         11   -1    0    0    0    0 -0.00000000000E+00 -0.00000000000E+00 -0.45593999997E+02  0.45594000000E+02  0.51100000000E-03 0.  1.
    9900012    2    1    2    0    0 -0.22909895852E+01 -0.40662428504E+02 -0.14998045743E+02  0.47787273033E+02  0.20000009069E+02 0.  0.
         12    1    1    2    0    0  0.22909895852E+01  0.40662428504E+02  0.14998045743E+02  0.43400726967E+02  0.00000000000E+00 0. -1.
         11    1    3    3    0    0 -0.44300415671E+01 -0.69184716643E+01  0.40150522695E+00  0.82250668790E+01  0.51100000000E-03 0. -1.
        -11    1    3    3    0    0  0.71036141663E+01 -0.11844684569E+02 -0.77663572286E+01  0.15845320811E+02  0.51100000000E-03 0.  1.
        -12    1    3    3    0    0 -0.49645621844E+01 -0.21899272271E+02 -0.76331937413E+01  0.23716885343E+02  0.00000000000E+00 0.  1.
</event>
<event>
 7    1  0.6622189E-010  0.4778728E+02  0.7816164E-02  0.1312668E+00
        -11   -1    0    0    0    0  0.00000000000E+00  0.00000000000E+00  0.45593999997E+02  0.45594000000E+02  0.51100000000E-03 0. -1.
         11   -1    0    0    0    0 -0.00000000000E+00 -0.00000000000E+00 -0.45593999997E+02  0.45594000000E+02  0.51100000000E-03 0.  1.
    9900012    2    1    2    0    0  0.12250160135E+02  0.96068117004E+01 -0.40512536537E+02  0.47787275685E+02  0.20000021159E+02 0.  0.
         12    1    1    2    0    0 -0.12250160135E+02 -0.96068117004E+01  0.40512536537E+02  0.43400724315E+02  0.00000000000E+00 0. -1.
         11    1    3    3    0    0  0.86125508956E+01 -0.82982374448E+00 -0.11248699600E+02  0.14191472205E+02  0.51100000000E-03 0. -1.
        -11    1    3    3    0    0  0.16000511468E+01  0.72865903706E+01 -0.28876118943E+02  0.29824231899E+02  0.51100000000E-03 0.  1.
        -12    1    3    3    0    0  0.20375580923E+01  0.31500450743E+01 -0.38771799365E+00  0.37715715812E+01  0.00000000000E+00 0.  1.
</event>
<event>
 7    1  0.6622189E-010  0.4778727E+02  0.7816164E-02  0.1312668E+00
        -11   -1    0    0    0    0  0.00000000000E+00  0.00000000000E+00  0.45593999997E+02  0.45594000000E+02  0.51100000000E-03 0.  1.
         11   -1    0    0    0    0 -0.00000000000E+00 -0.00000000000E+00 -0.45593999997E+02  0.45594000000E+02  0.51100000000E-03 0. -1.
    9900012    2    1    2    0    0 -0.36112674471E+02  0.23800600844E+02  0.36095831277E+01  0.47787274795E+02  0.20000017100E+02 0.  0.
        -12    1    1    2    0    0  0.36112674471E+02 -0.23800600844E+02 -0.36095831277E+01  0.43400725205E+02  0.00000000000E+00 0.  1.
         11    1    3    3    0    0 -0.17904196858E+01 -0.22894180467E+01  0.24309856333E+01  0.37890274549E+01  0.51100000000E-03 0.  1.
        -11    1    3    3    0    0  0.30653611481E+00  0.10395483333E+01 -0.56658183360E+00  0.12229637616E+01  0.51100000000E-03 0. -1.
         12    1    3    3    0    0 -0.34628790900E+02  0.25050470557E+02  0.17451793280E+01  0.42775283578E+02  0.00000000000E+00 0. -1.
</event>
<event>
 7    1  0.6622189E-010  0.4778726E+02  0.7816164E-02  0.1312668E+00
        -11   -1    0    0    0    0  0.00000000000E+00  0.00000000000E+00  0.45593999997E+02  0.45594000000E+02  0.51100000000E-03 0. -1.
         11   -1    0    0    0    0 -0.00000000000E+00 -0.00000000000E+00 -0.45593999997E+02  0.45594000000E+02  0.51100000000E-03 0.  1.
    9900012    2    1    2    0    0 -0.11768565812E+01  0.15626023010E+02  0.40473038238E+02  0.47787257947E+02  0.19999940285E+02 0.  0.
        -12    1    1    2    0    0  0.11768565812E+01 -0.15626023010E+02 -0.40473038238E+02  0.43400742053E+02  0.00000000000E+00 0.  1.
         11    1    3    3    0    0 -0.18603286798E+01  0.14689749537E+01  0.82092675913E+01  0.85446348581E+01  0.51100000000E-03 0. -1.
        -11    1    3    3    0    0 -0.27865084297E+01 -0.32551252837E+01  0.90902344940E+01  0.10049519056E+02  0.51100000000E-03 0.  1.
        -12    1    3    3    0    0  0.34699805283E+01  0.17412173340E+02  0.23173536152E+02  0.29193104033E+02  0.00000000000E+00 0.  1.
</event>
<event>
 7    1  0.6622189E-010  0.4778727E+02  0.7816164E-02  0.1312668E+00
        -11   -1    0    0    0    0  0.00000000000E+00  0.00000000000E+00  0.45593999997E+02  0.45594000000E+02  0.51100000000E-03 0. -1.
         11   -1    0    0    0    0 -0.00000000000E+00 -0.00000000000E+00 -0.45593999997E+02  0.45594000000E+02  0.51100000000E-03 0.  1.
    9900012    2    1    2    0    0 -0.37396287690E+02  0.34797700570E+01  0.21749311278E+02  0.47787266438E+02  0.19999978998E+02 0.  0.
        -12    1    1    2    0    0  0.37396287690E+02 -0.34797700570E+01 -0.21749311278E+02  0.43400733562E+02  0.00000000000E+00 0.  1.
         11    1    3    3    0    0 -0.12211654500E+02 -0.69956572104E+01  0.11950796685E+02  0.18463078484E+02  0.51100000000E-03 0. -1.
        -11    1    3    3    0    0 -0.14577426175E+02  0.67807151171E+01  0.79689291163E+01  0.17943892636E+02  0.51100000000E-03 0.  1.
         12    1    3    3    0    0 -0.10607207015E+02  0.36947121503E+01  0.18295854771E+01  0.11380295319E+02  0.00000000000E+00 0. -1.
</event>
<event>
 7    1  0.6622189E-010  0.4778727E+02  0.7816164E-02  0.1312668E+00
        -11   -1    0    0    0    0  0.00000000000E+00  0.00000000000E+00  0.45593999997E+02  0.45594000000E+02  0.51100000000E-03 0. -1.
         11   -1    0    0    0    0 -0.00000000000E+00 -0.00000000000E+00 -0.45593999997E+02  0.45594000000E+02  0.51100000000E-03 0.  1.
    9900012    2    1    2    0    0 -0.29088803756E+02  0.27019409773E+02 -0.17533284536E+02  0.47787273335E+02  0.20000010442E+02 0.  0.
         12    1    1    2    0    0  0.29088803756E+02 -0.27019409773E+02  0.17533284536E+02  0.43400726665E+02  0.00000000000E+00 0. -1.
         11    1    3    3    0    0 -0.12534034198E+01 -0.25820223714E+01 -0.36824377247E+01  0.46688550542E+01  0.51100000000E-03 0. -1.
        -11    1    3    3    0    0 -0.21607165404E+02  0.24531195023E+02 -0.12367770940E+02  0.34951550528E+02  0.51100000000E-03 0.  1.
         12    1    3    3    0    0 -0.62282349322E+01  0.50702371221E+01 -0.14830758710E+01  0.81668677523E+01  0.00000000000E+00 0. -1.
</event>
<event>
 7    1  0.6622189E-010  0.4778727E+02  0.7816164E-02  0.1312668E+00
        -11   -1    0    0    0    0  0.00000000000E+00  0.00000000000E+00  0.45593999997E+02  0.45594000000E+02  0.51100000000E-03 0. -1.
         11   -1    0    0    0    0 -0.00000000000E+00 -0.00000000000E+00 -0.45593999997E+02  0.45594000000E+02  0.51100000000E-03 0.  1.
    9900012    2    1    2    0    0 -0.27670171937E+00  0.16299606511E+02  0.40222755207E+02  0.47787265298E+02  0.19999973798E+02 0.  0.
        -12    1    1    2    0    0  0.27670171937E+00 -0.16299606511E+02 -0.40222755207E+02  0.43400734702E+02  0.00000000000E+00 0.  1.
         11    1    3    3    0    0 -0.55004021684E+01  0.12814141655E+02  0.13889704813E+02  0.19681985429E+02  0.51100000000E-03 0. -1.
        -11    1    3    3    0    0  0.17770420686E+01 -0.16451476355E+01  0.15019364075E+02  0.15213339105E+02  0.51100000000E-03 0.  1.
         12    1    3    3    0    0  0.34466583804E+01  0.51306124920E+01  0.11313686319E+02  0.12891940764E+02  0.00000000000E+00 0. -1.
</event>
<event>
 7    1  0.6622189E-010  0.4778727E+02  0.7816164E-02  0.1312668E+00
        -11   -1    0    0    0    0  0.00000000000E+00  0.00000000000E+00  0.45593999997E+02  0.45594000000E+02  0.51100000000E-03 0.  1.
         11   -1    0    0    0    0 -0.00000000000E+00 -0.00000000000E+00 -0.45593999997E+02  0.45594000000E+02  0.51100000000E-03 0. -1.
    9900012    2    1    2    0    0  0.39001425755E+02  0.69426927289E+01 -0.17728827664E+02  0.47787268168E+02  0.19999986885E+02 0.  0.
         12    1    1    2    0    0 -0.39001425755E+02 -0.69426927289E+01  0.17728827664E+02  0.43400731832E+02  0.00000000000E+00 0. -1.
         11    1    3    3    0    0  0.16640336474E+01  0.51702401397E+01 -0.10374066845E+01  0.55296115571E+01  0.51100000000E-03 0.  1.
        -11    1    3    3    0    0  0.19471814707E+02 -0.36096369600E+01 -0.11456042793E+02  0.22878416985E+02  0.51100000000E-03 0. -1.
         12    1    3    3    0    0  0.17865577400E+02  0.53820895491E+01 -0.52353781861E+01  0.19379239626E+02  0.00000000000E+00 0. -1.
</event>
<event>
 7    1  0.6622189E-010  0.4778727E+02  0.7816164E-02  0.1312668E+00
        -11   -1    0    0    0    0  0.00000000000E+00  0.00000000000E+00  0.45593999997E+02  0.45594000000E+02  0.51100000000E-03 0.  1.
         11   -1    0    0    0    0 -0.00000000000E+00 -0.00000000000E+00 -0.45593999997E+02  0.45594000000E+02  0.51100000000E-03 0. -1.
    9900012    2    1    2    0    0  0.30264721833E+02 -0.17316085680E+02 -0.25842281442E+02  0.47787265893E+02  0.19999976511E+02 0.  0.
         12    1    1    2    0    0 -0.30264721833E+02  0.17316085680E+02  0.25842281442E+02  0.43400734107E+02  0.00000000000E+00 0. -1.
         11    1    3    3    0    0  0.15016844948E+02 -0.54972109185E+01 -0.17132990340E+01  0.16082921188E+02  0.51100000000E-03 0. -1.
        -11    1    3    3    0    0  0.11861864723E+02 -0.97446605772E+01 -0.13814560943E+02  0.20651981473E+02  0.51100000000E-03 0.  1.
         12    1    3    3    0    0  0.33860121618E+01 -0.20742141846E+01 -0.10314421466E+02  0.11052363232E+02  0.00000000000E+00 0. -1.
</event>
<event>
 7    1  0.6622189E-010  0.4778727E+02  0.7816164E-02  0.1312668E+00
        -11   -1    0    0    0    0  0.00000000000E+00  0.00000000000E+00  0.45593999997E+02  0.45594000000E+02  0.51100000000E-03 0. -1.
         11   -1    0    0    0    0 -0.00000000000E+00 -0.00000000000E+00 -0.45593999997E+02  0.45594000000E+02  0.51100000000E-03 0.  1.
    9900012    2    1    2    0    0  0.28942806688E+02 -0.22728344616E+02  0.23007809153E+02  0.47787274315E+02  0.20000014913E+02 0.  0.
        -12    1    1    2    0    0 -0.28942806688E+02  0.22728344616E+02 -0.23007809153E+02  0.43400725685E+02  0.00000000000E+00 0.  1.
         11    1    3    3    0    0  0.90139317870E+01 -0.77928372911E+01  0.68393593651E+01  0.13738854250E+02  0.51100000000E-03 0. -1.
        -11    1    3    3    0    0  0.21692376132E+02 -0.13525512241E+02  0.99482823761E+01  0.27431131696E+02  0.51100000000E-03 0.  1.
        -12    1    3    3    0    0 -0.17635012316E+01 -0.14099950837E+01  0.62201674121E+01  0.66172883695E+01  0.00000000000E+00 0.  1.
</event>
<event>
 7    1  0.6622189E-010  0.4778727E+02  0.7816164E-02  0.1312668E+00
        -11   -1    0    0    0    0  0.00000000000E+00  0.00000000000E+00  0.45593999997E+02  0.45594000000E+02  0.51100000000E-03 0. -1.
         11   -1    0    0    0    0 -0.00000000000E+00 -0.00000000000E+00 -0.45593999997E+02  0.45594000000E+02  0.51100000000E-03 0.  1.
    9900012    2    1    2    0    0 -0.21446187768E+02 -0.37291049893E+02  0.57499799211E+01  0.47787266815E+02  0.19999980716E+02 0.  0.
        -12    1    1    2    0    0  0.21446187768E+02  0.37291049893E+02 -0.57499799211E+01  0.43400733185E+02  0.00000000000E+00 0.  1.
         11    1    3    3    0    0 -0.85325002690E+01 -0.29816575721E+02 -0.71199700328E+00  0.31021584237E+02  0.51100000000E-03 0. -1.
        -11    1    3    3    0    0 -0.30010455189E+01 -0.65939225291E+00  0.28874713376E+01  0.42164633683E+01  0.51100000000E-03 0.  1.
         12    1    3    3    0    0 -0.99126419800E+01 -0.68150819194E+01  0.35745055867E+01  0.12549219210E+02  0.00000000000E+00 0. -1.
</event>
<event>
 7    1  0.6622189E-010  0.4778727E+02  0.7816164E-02  0.1312668E+00
        -11   -1    0    0    0    0  0.00000000000E+00  0.00000000000E+00  0.45593999997E+02  0.45594000000E+02  0.51100000000E-03 0.  1.
         11   -1    0    0    0    0 -0.00000000000E+00 -0.00000000000E+00 -0.45593999997E+02  0.45594000000E+02  0.51100000000E-03 0. -1.
    9900012    2    1    2    0    0 -0.36272496358E+02  0.22060310452E+02 -0.90151130927E+01  0.47787267825E+02  0.19999985321E+02 0.  0.
         12    1    1    2    0    0  0.36272496358E+02 -0.22060310452E+02  0.90151130927E+01  0.43400732175E+02  0.00000000000E+00 0. -1.
         11    1    3    3    0    0 -0.10314000405E+02  0.40976236209E+01 -0.89853026513E+01  0.14279523371E+02  0.51100000000E-03 0. -1.
        -11    1    3    3    0    0 -0.50540745470E+01 -0.67180029114E-01 -0.27746121203E+01  0.57659912732E+01  0.51100000000E-03 0.  1.
         12    1    3    3    0    0 -0.20904421406E+02  0.18029866860E+02  0.27448016789E+01  0.27741753181E+02  0.00000000000E+00 0. -1.
</event>
<event>
 7    1  0.6622189E-010  0.4778727E+02  0.7816164E-02  0.1312668E+00
        -11   -1    0    0    0    0  0.00000000000E+00  0.00000000000E+00  0.45593999997E+02  0.45594000000E+02  0.51100000000E-03 0. -1.
         11   -1    0    0    0    0 -0.00000000000E+00 -0.00000000000E+00 -0.45593999997E+02  0.45594000000E+02  0.51100000000E-03 0.  1.
    9900012    2    1    2    0    0 -0.22573441889E+02  0.22267270954E+02  0.29634973614E+02  0.47787270795E+02  0.19999998864E+02 0.  0.
        -12    1    1    2    0    0  0.22573441889E+02 -0.22267270954E+02 -0.29634973614E+02  0.43400729205E+02  0.00000000000E+00 0.  1.
         11    1    3    3    0    0 -0.15353713234E+02  0.18774059371E+02  0.14089006568E+02  0.28048207103E+02  0.51100000000E-03 0. -1.
        -11    1    3    3    0    0  0.40616579211E+00 -0.24508826150E+01  0.28555126548E+01  0.37849371232E+01  0.51100000000E-03 0.  1.
        -12    1    3    3    0    0 -0.76258944472E+01  0.59440941974E+01  0.12690454391E+02  0.15954126569E+02  0.00000000000E+00 0.  1.
</event>
<event>
 7    1  0.6622189E-010  0.4778727E+02  0.7816164E-02  0.1312668E+00
        -11   -1    0    0    0    0  0.00000000000E+00  0.00000000000E+00  0.45593999997E+02  0.45594000000E+02  0.51100000000E-03 0. -1.
         11   -1    0    0    0    0 -0.00000000000E+00 -0.00000000000E+00 -0.45593999997E+02  0.45594000000E+02  0.51100000000E-03 0.  1.
    9900012    2    1    2    0    0 -0.35229956198E+02  0.10859205593E+02 -0.22903075336E+02  0.47787273973E+02  0.20000013354E+02 0.  0.
         12    1    1    2    0    0  0.35229956198E+02 -0.10859205593E+02  0.22903075336E+02  0.43400726027E+02  0.00000000000E+00 0. -1.
         11    1    3    3    0    0 -0.69302816838E+01 -0.37171725466E+00 -0.13879494380E+01  0.70776678248E+01  0.51100000000E-03 0. -1.
        -11    1    3    3    0    0 -0.19319936915E+01 -0.36690011307E+00  0.25179640332E+01  0.31948956870E+01  0.51100000000E-03 0.  1.
        -12    1    3    3    0    0 -0.26367680822E+02  0.11597822961E+02 -0.24033089931E+02  0.37514710462E+02  0.00000000000E+00 0.  1.
</event>
<event>
 7    1  0.6622189E-010  0.4778724E+02  0.7816164E-02  0.1312668E+00
        -11   -1    0    0    0    0  0.00000000000E+00  0.00000000000E+00  0.45593999997E+02  0.45594000000E+02  0.51100000000E-03 0. -1.
         11   -1    0    0    0    0 -0.00000000000E+00 -0.00000000000E+00 -0.45593999997E+02  0.45594000000E+02  0.51100000000E-03 0.  1.
    9900012    2    1    2    0    0 -0.13761635493E+02  0.22574982175E+02  0.34418215690E+02  0.47787239604E+02  0.19999856651E+02 0.  0.
        -12    1    1    2    0    0  0.13761635493E+02 -0.22574982175E+02 -0.34418215690E+02  0.43400760396E+02  0.00000000000E+00 0.  1.
         11    1    3    3    0    0 -0.29592274152E+01  0.16819842264E+01  0.23911528993E+01  0.41597728642E+01  0.51100000000E-03 0. -1.
        -11    1    3    3    0    0 -0.85201956957E+01  0.57472886694E+00  0.55897667115E+01  0.10206348030E+02  0.51100000000E-03 0.  1.
        -12    1    3    3    0    0 -0.22822123822E+01  0.20318269082E+02  0.26437296079E+02  0.33421118710E+02  0.00000000000E+00 0.  1.
</event>
<event>
 7    1  0.6622189E-010  0.4778727E+02  0.7816164E-02  0.1312668E+00
        -11   -1    0    0    0    0  0.00000000000E+00  0.00000000000E+00  0.45593999997E+02  0.45594000000E+02  0.51100000000E-03 0. -1.
         11   -1    0    0    0    0 -0.00000000000E+00 -0.00000000000E+00 -0.45593999997E+02  0.45594000000E+02  0.51100000000E-03 0.  1.
    9900012    2    1    2    0    0 -0.15747439472E+02  0.17425318696E+02 -0.36496570654E+02  0.47787271307E+02  0.20000001196E+02 0.  0.
         12    1    1    2    0    0  0.15747439472E+02 -0.17425318696E+02  0.36496570654E+02  0.43400728693E+02  0.00000000000E+00 0. -1.
         11    1    3    3    0    0 -0.80321187918E-01  0.19889143353E+01  0.22967986935E+01  0.30393282525E+01  0.51100000000E-03 0. -1.
        -11    1    3    3    0    0 -0.12441907049E+02  0.11263764092E+02 -0.32137960655E+02  0.36256336657E+02  0.51100000000E-03 0.  1.
         12    1    3    3    0    0 -0.32252112354E+01  0.41726402694E+01 -0.66554086928E+01  0.84916063969E+01  0.00000000000E+00 0. -1.
</event>
<event>
 7    1  0.6622189E-010  0.4778727E+02  0.7816164E-02  0.1312668E+00
        -11   -1    0    0    0    0  0.00000000000E+00  0.00000000000E+00  0.45593999997E+02  0.45594000000E+02  0.51100000000E-03 0.  1.
         11   -1    0    0    0    0 -0.00000000000E+00 -0.00000000000E+00 -0.45593999997E+02  0.45594000000E+02  0.51100000000E-03 0. -1.
    9900012    2    1    2    0    0  0.41257580562E+02  0.12303948877E+02  0.54816186785E+01  0.47787271261E+02  0.20000000986E+02 0.  0.
        -12    1    1    2    0    0 -0.41257580562E+02 -0.12303948877E+02 -0.54816186785E+01  0.43400728739E+02  0.00000000000E+00 0.  1.
         11    1    3    3    0    0  0.24231470696E+02  0.30707771454E+00 -0.12547707207E+01  0.24265879721E+02  0.51100000000E-03 0. -1.
        -11    1    3    3    0    0  0.30083634194E+01  0.66458850458E+01  0.63054903897E+00  0.73222695155E+01  0.51100000000E-03 0.  1.
        -12    1    3    3    0    0  0.14017746447E+02  0.53509861162E+01  0.61058403603E+01  0.16199122025E+02  0.00000000000E+00 0.  1.
</event>
<event>
 7    1  0.6622189E-010  0.4778727E+02  0.7816164E-02  0.1312668E+00
        -11   -1    0    0    0    0  0.00000000000E+00  0.00000000000E+00  0.45593999997E+02  0.45594000000E+02  0.51100000000E-03 0. -1.
         11   -1    0    0    0    0 -0.00000000000E+00 -0.00000000000E+00 -0.45593999997E+02  0.45594000000E+02  0.51100000000E-03 0.  1.
    9900012    2    1    2    0    0 -0.25011763304E+02  0.22599519899E+02 -0.27336722791E+02  0.47787274014E+02  0.20000013538E+02 0.  0.
         12    1    1    2    0    0  0.25011763304E+02 -0.22599519899E+02  0.27336722791E+02  0.43400725986E+02  0.00000000000E+00 0. -1.
         11    1    3    3    0    0 -0.22814951303E+02  0.16816360471E+02 -0.25257258341E+02  0.37963681086E+02  0.51100000000E-03 0.  1.
        -11    1    3    3    0    0 -0.34608556809E+01  0.49903501512E+00 -0.26117396366E+01  0.43643719114E+01  0.51100000000E-03 0. -1.
         12    1    3    3    0    0  0.12640436801E+01  0.52841244126E+01  0.53227518651E+00  0.54592210165E+01  0.00000000000E+00 0. -1.
</event>
<event>
 7    1  0.6622189E-010  0.4778727E+02  0.7816164E-02  0.1312668E+00
        -11   -1    0    0    0    0  0.00000000000E+00  0.00000000000E+00  0.45593999997E+02  0.45594000000E+02  0.51100000000E-03 0. -1.
         11   -1    0    0    0    0 -0.00000000000E+00 -0.00000000000E+00 -0.45593999997E+02  0.45594000000E+02  0.51100000000E-03 0.  1.
    9900012    2    1    2    0    0  0.88577119207E+01 -0.13972187167E+00 -0.42486993116E+02  0.47787272279E+02  0.20000005631E+02 0.  0.
         12    1    1    2    0    0 -0.88577119207E+01  0.13972187167E+00  0.42486993116E+02  0.43400727721E+02  0.00000000000E+00 0. -1.
         11    1    3    3    0    0 -0.33293253240E+01 -0.33144515689E+01 -0.45820627308E+01  0.65624153667E+01  0.51100000000E-03 0. -1.
        -11    1    3    3    0    0  0.76932026926E+01  0.59513488278E+01 -0.16281316247E+02  0.18965367898E+02  0.51100000000E-03 0.  1.
        -12    1    3    3    0    0  0.44938345521E+01 -0.27766191306E+01 -0.21623614138E+02  0.22259489014E+02  0.00000000000E+00 0.  1.
</event>
<event>
 7    1  0.6622189E-010  0.4778727E+02  0.7816164E-02  0.1312668E+00
        -11   -1    0    0    0    0  0.00000000000E+00  0.00000000000E+00  0.45593999997E+02  0.45594000000E+02  0.51100000000E-03 0. -1.
         11   -1    0    0    0    0 -0.00000000000E+00 -0.00000000000E+00 -0.45593999997E+02  0.45594000000E+02  0.51100000000E-03 0.  1.
    9900012    2    1    2    0    0  0.19249301713E+02 -0.31772614941E+02  0.22440783209E+02  0.47787269273E+02  0.19999991924E+02 0.  0.
        -12    1    1    2    0    0 -0.19249301713E+02  0.31772614941E+02 -0.22440783209E+02  0.43400730727E+02  0.00000000000E+00 0.  1.
         11    1    3    3    0    0  0.69712036274E+01 -0.43546561274E+00  0.64093841899E+01  0.94798479033E+01  0.51100000000E-03 0. -1.
        -11    1    3    3    0    0  0.25275285504E+01 -0.71099869805E+00  0.16054824645E+01  0.30775792316E+01  0.51100000000E-03 0.  1.
         12    1    3    3    0    0  0.97505695351E+01 -0.30626150630E+02  0.14425916555E+02  0.35229842138E+02  0.00000000000E+00 0. -1.
</event>
<event>
 7    1  0.6622189E-010  0.4778727E+02  0.7816164E-02  0.1312668E+00
        -11   -1    0    0    0    0  0.00000000000E+00  0.00000000000E+00  0.45593999997E+02  0.45594000000E+02  0.51100000000E-03 0. -1.
         11   -1    0    0    0    0 -0.00000000000E+00 -0.00000000000E+00 -0.45593999997E+02  0.45594000000E+02  0.51100000000E-03 0.  1.
    9900012    2    1    2    0    0 -0.12228929326E+02 -0.37010095162E+02  0.19087421916E+02  0.47787268074E+02  0.19999986454E+02 0.  0.
        -12    1    1    2    0    0  0.12228929326E+02  0.37010095162E+02 -0.19087421916E+02  0.43400731926E+02  0.00000000000E+00 0.  1.
         11    1    3    3    0    0 -0.67787123091E+01 -0.25913770805E+02  0.34303930326E+01  0.27004482119E+02  0.51100000000E-03 0. -1.
        -11    1    3    3    0    0 -0.68324999117E+00 -0.86510200620E+00  0.54644852075E+01  0.55745700171E+01  0.51100000000E-03 0.  1.
        -12    1    3    3    0    0 -0.47669670255E+01 -0.10231222351E+02  0.10192543676E+02  0.15208215937E+02  0.00000000000E+00 0.  1.
</event>
<event>
 7    1  0.6622189E-010  0.4778727E+02  0.7816164E-02  0.1312668E+00
        -11   -1    0    0    0    0  0.00000000000E+00  0.00000000000E+00  0.45593999997E+02  0.45594000000E+02  0.51100000000E-03 0. -1.
         11   -1    0    0    0    0 -0.00000000000E+00 -0.00000000000E+00 -0.45593999997E+02  0.45594000000E+02  0.51100000000E-03 0.  1.
    9900012    2    1    2    0    0  0.24195786073E+02 -0.26950529152E+02  0.23913512994E+02  0.47787272023E+02  0.20000004460E+02 0.  0.
        -12    1    1    2    0    0 -0.24195786073E+02  0.26950529152E+02 -0.23913512994E+02  0.43400727977E+02  0.00000000000E+00 0.  1.
         11    1    3    3    0    0  0.14181284956E+02 -0.15387370579E+02  0.76504977047E+01  0.22280263278E+02  0.51100000000E-03 0. -1.
        -11    1    3    3    0    0  0.82031092823E+01 -0.48901615621E+01  0.15943763492E+02  0.18585162806E+02  0.51100000000E-03 0.  1.
        -12    1    3    3    0    0  0.18113918353E+01 -0.66729970108E+01  0.31925179742E+00  0.69218459386E+01  0.00000000000E+00 0.  1.
</event>
<event>
 7    1  0.6622189E-010  0.4778727E+02  0.7816164E-02  0.1312668E+00
        -11   -1    0    0    0    0  0.00000000000E+00  0.00000000000E+00  0.45593999997E+02  0.45594000000E+02  0.51100000000E-03 0. -1.
         11   -1    0    0    0    0 -0.00000000000E+00 -0.00000000000E+00 -0.45593999997E+02  0.45594000000E+02  0.51100000000E-03 0.  1.
    9900012    2    1    2    0    0 -0.19091654400E+02 -0.14357409056E+02 -0.36235297713E+02  0.47787271171E+02  0.20000000576E+02 0.  0.
         12    1    1    2    0    0  0.19091654400E+02  0.14357409056E+02  0.36235297713E+02  0.43400728829E+02  0.00000000000E+00 0. -1.
         11    1    3    3    0    0 -0.11359914812E+02 -0.82089472240E+01 -0.15577068507E+02  0.20954224935E+02  0.51100000000E-03 0. -1.
        -11    1    3    3    0    0 -0.20728413716E+00 -0.44352667737E+01 -0.18200252855E+02  0.18734026858E+02  0.51100000000E-03 0.  1.
        -12    1    3    3    0    0 -0.75244554511E+01 -0.17131950581E+01 -0.24579763506E+01  0.80990193778E+01  0.00000000000E+00 0.  1.
</event>
<event>
 7    1  0.6622189E-010  0.4778727E+02  0.7816164E-02  0.1312668E+00
        -11   -1    0    0    0    0  0.00000000000E+00  0.00000000000E+00  0.45593999997E+02  0.45594000000E+02  0.51100000000E-03 0. -1.
         11   -1    0    0    0    0 -0.00000000000E+00 -0.00000000000E+00 -0.45593999997E+02  0.45594000000E+02  0.51100000000E-03 0.  1.
    9900012    2    1    2    0    0  0.54579234135E+01 -0.38124928831E+02  0.20008102066E+02  0.47787271036E+02  0.19999999961E+02 0.  0.
        -12    1    1    2    0    0 -0.54579234135E+01  0.38124928831E+02 -0.20008102066E+02  0.43400728964E+02  0.00000000000E+00 0.  1.
         11    1    3    3    0    0  0.55864206214E+01 -0.22146919529E+02  0.13114973421E+02  0.26338121955E+02  0.51100000000E-03 0. -1.
        -11    1    3    3    0    0  0.32548872958E+01 -0.16419724674E+02  0.46762715603E+01  0.17380137100E+02  0.51100000000E-03 0.  1.
         12    1    3    3    0    0 -0.33833845037E+01  0.44171537201E+00  0.22168570839E+01  0.40690119808E+01  0.00000000000E+00 0. -1.
</event>
<event>
 7    1  0.6622189E-010  0.4778727E+02  0.7816164E-02  0.1312668E+00
        -11   -1    0    0    0    0  0.00000000000E+00  0.00000000000E+00  0.45593999997E+02  0.45594000000E+02  0.51100000000E-03 0. -1.
         11   -1    0    0    0    0 -0.00000000000E+00 -0.00000000000E+00 -0.45593999997E+02  0.45594000000E+02  0.51100000000E-03 0.  1.
    9900012    2    1    2    0    0  0.12872377552E+02  0.38467335958E+02 -0.15433380712E+02  0.47787270976E+02  0.19999999690E+02 0.  0.
         12    1    1    2    0    0 -0.12872377552E+02 -0.38467335958E+02  0.15433380712E+02  0.43400729024E+02  0.00000000000E+00 0. -1.
         11    1    3    3    0    0  0.68363880479E+01  0.52399949854E+01 -0.86088723100E+01  0.12178112814E+02  0.51100000000E-03 0. -1.
        -11    1    3    3    0    0 -0.39594532451E+00  0.94625574172E+01 -0.55038581383E+01  0.10953959113E+02  0.51100000000E-03 0.  1.
         12    1    3    3    0    0  0.64319348286E+01  0.23764783556E+02 -0.13206502636E+01  0.24655199050E+02  0.00000000000E+00 0. -1.
</event>
<event>
 7    1  0.6622189E-010  0.4778727E+02  0.7816164E-02  0.1312668E+00
        -11   -1    0    0    0    0  0.00000000000E+00  0.00000000000E+00  0.45593999997E+02  0.45594000000E+02  0.51100000000E-03 0. -1.
         11   -1    0    0    0    0 -0.00000000000E+00 -0.00000000000E+00 -0.45593999997E+02  0.45594000000E+02  0.51100000000E-03 0.  1.
    9900012    2    1    2    0    0 -0.29299759223E+02 -0.19009288485E+02  0.25764207736E+02  0.47787270288E+02  0.19999996552E+02 0.  0.
        -12    1    1    2    0    0  0.29299759223E+02  0.19009288485E+02 -0.25764207736E+02  0.43400729712E+02  0.00000000000E+00 0.  1.
         11    1    3    3    0    0 -0.28768981492E+02 -0.12526711438E+02  0.25832674780E+02  0.40643571227E+02  0.51100000000E-03 0. -1.
        -11    1    3    3    0    0 -0.15700946855E+01 -0.51428459577E+01 -0.48095883904E+00  0.53986464537E+01  0.51100000000E-03 0.  1.
         12    1    3    3    0    0  0.10393169541E+01 -0.13397310892E+01  0.41249179547E+00  0.17450526078E+01  0.00000000000E+00 0. -1.
</event>
<event>
 7    1  0.6622189E-010  0.4778727E+02  0.7816164E-02  0.1312668E+00
        -11   -1    0    0    0    0  0.00000000000E+00  0.00000000000E+00  0.45593999997E+02  0.45594000000E+02  0.51100000000E-03 0. -1.
         11   -1    0    0    0    0 -0.00000000000E+00 -0.00000000000E+00 -0.45593999997E+02  0.45594000000E+02  0.51100000000E-03 0.  1.
    9900012    2    1    2    0    0  0.11537488752E+02 -0.27347672840E+02 -0.31664084149E+02  0.47787273261E+02  0.20000010107E+02 0.  0.
         12    1    1    2    0    0 -0.11537488752E+02  0.27347672840E+02  0.31664084149E+02  0.43400726739E+02  0.00000000000E+00 0. -1.
         11    1    3    3    0    0 -0.39563172164E+01 -0.14890216114E+02 -0.16563006333E+02  0.22620878870E+02  0.51100000000E-03 0. -1.
        -11    1    3    3    0    0  0.90490954531E+01 -0.61186897731E+01 -0.66312455041E+01  0.12778807075E+02  0.51100000000E-03 0.  1.
        -12    1    3    3    0    0  0.64447105158E+01 -0.63387669528E+01 -0.84698323121E+01  0.12387587316E+02  0.00000000000E+00 0.  1.
</event>
<event>
 7    1  0.6622189E-010  0.4778727E+02  0.7816164E-02  0.1312668E+00
        -11   -1    0    0    0    0  0.00000000000E+00  0.00000000000E+00  0.45593999997E+02  0.45594000000E+02  0.51100000000E-03 0. -1.
         11   -1    0    0    0    0 -0.00000000000E+00 -0.00000000000E+00 -0.45593999997E+02  0.45594000000E+02  0.51100000000E-03 0.  1.
    9900012    2    1    2    0    0 -0.21718162085E+02  0.13061727752E+02 -0.35232597632E+02  0.47787271526E+02  0.20000002195E+02 0.  0.
         12    1    1    2    0    0  0.21718162085E+02 -0.13061727752E+02  0.35232597632E+02  0.43400728474E+02  0.00000000000E+00 0. -1.
         11    1    3    3    0    0 -0.17033385433E+02 -0.92659699257E+00 -0.18465858045E+02  0.25139266395E+02  0.51100000000E-03 0. -1.
        -11    1    3    3    0    0 -0.23202175258E+01  0.11636763441E+02 -0.12539861183E+02  0.17264002766E+02  0.51100000000E-03 0.  1.
         12    1    3    3    0    0 -0.23645591262E+01  0.23515613036E+01 -0.42268784042E+01  0.53840023654E+01  0.00000000000E+00 0. -1.
</event>
<event>
 7    1  0.6622189E-010  0.4778727E+02  0.7816164E-02  0.1312668E+00
        -11   -1    0    0    0    0  0.00000000000E+00  0.00000000000E+00  0.45593999997E+02  0.45594000000E+02  0.51100000000E-03 0. -1.
         11   -1    0    0    0    0 -0.00000000000E+00 -0.00000000000E+00 -0.45593999997E+02  0.45594000000E+02  0.51100000000E-03 0.  1.
    9900012    2    1    2    0    0  0.18773588070E+02  0.32128705900E+02  0.22336555471E+02  0.47787273484E+02  0.20000011122E+02 0.  0.
        -12    1    1    2    0    0 -0.18773588070E+02 -0.32128705900E+02 -0.22336555471E+02  0.43400726516E+02  0.00000000000E+00 0.  1.
         11    1    3    3    0    0  0.13921636466E+02  0.30841635177E+02  0.17947881375E+02  0.38303327119E+02  0.51100000000E-03 0. -1.
        -11    1    3    3    0    0  0.58504687784E+01 -0.31620937933E+00  0.47722356871E+01  0.75566002284E+01  0.51100000000E-03 0.  1.
         12    1    3    3    0    0 -0.99851717439E+00  0.16032801028E+01 -0.38356159115E+00  0.19273461365E+01  0.00000000000E+00 0. -1.
</event>
<event>
 7    1  0.6622189E-010  0.4778726E+02  0.7816164E-02  0.1312668E+00
        -11   -1    0    0    0    0  0.00000000000E+00  0.00000000000E+00  0.45593999997E+02  0.45594000000E+02  0.51100000000E-03 0. -1.
         11   -1    0    0    0    0 -0.00000000000E+00 -0.00000000000E+00 -0.45593999997E+02  0.45594000000E+02  0.51100000000E-03 0.  1.
    9900012    2    1    2    0    0 -0.76643592706E+01  0.12231962209E+02 -0.40929951415E+02  0.47787260083E+02  0.19999950022E+02 0.  0.
         12    1    1    2    0    0  0.76643592706E+01 -0.12231962209E+02  0.40929951415E+02  0.43400739917E+02  0.00000000000E+00 0. -1.
         11    1    3    3    0    0 -0.54639216614E+00  0.12337604010E+02 -0.15199364683E+02  0.19584067610E+02  0.51100000000E-03 0. -1.
        -11    1    3    3    0    0 -0.82728263652E+01 -0.25820488476E+01 -0.17452579148E+02  0.19485870560E+02  0.51100000000E-03 0.  1.
        -12    1    3    3    0    0  0.11548592607E+01  0.24764070465E+01 -0.82780075843E+01  0.87173219131E+01  0.00000000000E+00 0.  1.
</event>
<event>
 7    1  0.8229745E-010  0.4778727E+02  0.7816164E-02  0.1312668E+00
        -11   -1    0    0    0    0  0.00000000000E+00  0.00000000000E+00  0.45593999997E+02  0.45594000000E+02  0.51100000000E-03 0. -1.
         11   -1    0    0    0    0 -0.00000000000E+00 -0.00000000000E+00 -0.45593999997E+02  0.45594000000E+02  0.51100000000E-03 0.  1.
    9900012    2    1    2    0    0  0.31692042192E+02  0.15579917200E+02 -0.25229027748E+02  0.47787271903E+02  0.20000003913E+02 0.  0.
         12    1    1    2    0    0 -0.31692042192E+02 -0.15579917200E+02  0.25229027748E+02  0.43400728097E+02  0.00000000000E+00 0. -1.
         11    1    3    3    0    0  0.12509031615E+01 -0.15543093319E+01  0.15303646948E+01  0.25144885323E+01  0.51100000000E-03 0. -1.
        -11    1    3    3    0    0  0.30222354144E+02  0.16299909035E+02 -0.22793862538E+02  0.41214534987E+02  0.51100000000E-03 0.  1.
        -12    1    3    3    0    0  0.21878488650E+00  0.83431749766E+00 -0.39655299051E+01  0.40582483835E+01  0.00000000000E+00 0.  1.
</event>
<event>
 7    1  0.6622189E-010  0.4778729E+02  0.7816164E-02  0.1312668E+00
        -11   -1    0    0    0    0  0.00000000000E+00  0.00000000000E+00  0.45593999997E+02  0.45594000000E+02  0.51100000000E-03 0.  1.
         11   -1    0    0    0    0 -0.00000000000E+00 -0.00000000000E+00 -0.45593999997E+02  0.45594000000E+02  0.51100000000E-03 0. -1.
    9900012    2    1    2    0    0 -0.10348190119E+02 -0.41597660366E+02 -0.67949447515E+01  0.47787289628E+02  0.20000084729E+02 0.  0.
         12    1    1    2    0    0  0.10348190119E+02  0.41597660366E+02  0.67949447515E+01  0.43400710372E+02  0.00000000000E+00 0. -1.
         11    1    3    3    0    0 -0.33699649697E+01 -0.11104053024E+02 -0.88574972580E+01  0.14598353174E+02  0.51100000000E-03 0. -1.
        -11    1    3    3    0    0 -0.55598444672E+01 -0.64775023154E+01 -0.20572490907E+01  0.87807847501E+01  0.51100000000E-03 0.  1.
         12    1    3    3    0    0 -0.14183806818E+01 -0.24016105026E+02  0.41198015972E+01  0.24408151703E+02  0.00000000000E+00 0. -1.
</event>
<event>
 7    1  0.6622189E-010  0.4778727E+02  0.7816164E-02  0.1312668E+00
        -11   -1    0    0    0    0  0.00000000000E+00  0.00000000000E+00  0.45593999997E+02  0.45594000000E+02  0.51100000000E-03 0. -1.
         11   -1    0    0    0    0 -0.00000000000E+00 -0.00000000000E+00 -0.45593999997E+02  0.45594000000E+02  0.51100000000E-03 0.  1.
    9900012    2    1    2    0    0 -0.12878128372E+02 -0.39701881429E+02  0.11896957751E+02  0.47787272091E+02  0.20000004770E+02 0.  0.
        -12    1    1    2    0    0  0.12878128372E+02  0.39701881429E+02 -0.11896957751E+02  0.43400727909E+02  0.00000000000E+00 0.  1.
         11    1    3    3    0    0 -0.15380262023E+02 -0.26159445453E+02  0.11881205518E+02  0.32588833841E+02  0.51100000000E-03 0. -1.
        -11    1    3    3    0    0  0.82224785491E+00 -0.61079788007E+01 -0.31783115153E+01  0.69343464662E+01  0.51100000000E-03 0.  1.
         12    1    3    3    0    0  0.16798857962E+01 -0.74344571752E+01  0.31940637480E+01  0.82640917834E+01  0.00000000000E+00 0. -1.
</event>
<event>
 7    1  0.6622189E-010  0.4778727E+02  0.7816164E-02  0.1312668E+00
        -11   -1    0    0    0    0  0.00000000000E+00  0.00000000000E+00  0.45593999997E+02  0.45594000000E+02  0.51100000000E-03 0. -1.
         11   -1    0    0    0    0 -0.00000000000E+00 -0.00000000000E+00 -0.45593999997E+02  0.45594000000E+02  0.51100000000E-03 0.  1.
    9900012    2    1    2    0    0 -0.39680619717E+00 -0.30014399405E+01  0.43295001606E+02  0.47787271193E+02  0.20000000678E+02 0.  0.
        -12    1    1    2    0    0  0.39680619717E+00  0.30014399405E+01 -0.43295001606E+02  0.43400728807E+02  0.00000000000E+00 0.  1.
         11    1    3    3    0    0 -0.77985832279E+01 -0.20872262023E+01  0.26365633777E+02  0.27573919893E+02  0.51100000000E-03 0. -1.
        -11    1    3    3    0    0  0.63122503462E+01 -0.21744928540E+01  0.17267688693E+02  0.18513400462E+02  0.51100000000E-03 0.  1.
        -12    1    3    3    0    0  0.10895266845E+01  0.12602791158E+01 -0.33832086280E+00  0.16999508381E+01  0.00000000000E+00 0.  1.
</event>
<event>
 7    1  0.6622189E-010  0.4778726E+02  0.7816164E-02  0.1312668E+00
        -11   -1    0    0    0    0  0.00000000000E+00  0.00000000000E+00  0.45593999997E+02  0.45594000000E+02  0.51100000000E-03 0. -1.
         11   -1    0    0    0    0 -0.00000000000E+00 -0.00000000000E+00 -0.45593999997E+02  0.45594000000E+02  0.51100000000E-03 0.  1.
    9900012    2    1    2    0    0 -0.20272738230E+00 -0.12181759780E+02 -0.41655581359E+02  0.47787264659E+02  0.19999970888E+02 0.  0.
         12    1    1    2    0    0  0.20272738230E+00  0.12181759780E+02  0.41655581359E+02  0.43400735341E+02  0.00000000000E+00 0. -1.
         11    1    3    3    0    0 -0.42793194128E+01  0.29998835789E+01 -0.77251062573E+01  0.93267970425E+01  0.51100000000E-03 0. -1.
        -11    1    3    3    0    0  0.26070043733E+01 -0.91050408163E+01 -0.10194437731E+02  0.13914912899E+02  0.51100000000E-03 0.  1.
        -12    1    3    3    0    0  0.14695876571E+01 -0.60766025430E+01 -0.23736037371E+02  0.24545554718E+02  0.00000000000E+00 0.  1.
</event>
<event>
 7    1  0.6840518E-010  0.4778727E+02  0.7816164E-02  0.1312668E+00
        -11   -1    0    0    0    0  0.00000000000E+00  0.00000000000E+00  0.45593999997E+02  0.45594000000E+02  0.51100000000E-03 0. -1.
         11   -1    0    0    0    0 -0.00000000000E+00 -0.00000000000E+00 -0.45593999997E+02  0.45594000000E+02  0.51100000000E-03 0.  1.
    9900012    2    1    2    0    0 -0.15414442197E+02 -0.90366969404E+00  0.40561089713E+02  0.47787266759E+02  0.19999980459E+02 0.  0.
        -12    1    1    2    0    0  0.15414442197E+02  0.90366969404E+00 -0.40561089713E+02  0.43400733241E+02  0.00000000000E+00 0.  1.
         11    1    3    3    0    0 -0.11662569758E+02 -0.62641313082E+00  0.10126311076E+02  0.15458010966E+02  0.51100000000E-03 0. -1.
        -11    1    3    3    0    0 -0.16057072464E+01 -0.11144964725E+01  0.15363807965E+00  0.19606129320E+01  0.51100000000E-03 0.  1.
         12    1    3    3    0    0 -0.21461651929E+01  0.83723990929E+00  0.30281140558E+02  0.30368642860E+02  0.00000000000E+00 0. -1.
</event>
<event>
 7    1  0.6622189E-010  0.4778727E+02  0.7816164E-02  0.1312668E+00
        -11   -1    0    0    0    0  0.00000000000E+00  0.00000000000E+00  0.45593999997E+02  0.45594000000E+02  0.51100000000E-03 0. -1.
         11   -1    0    0    0    0 -0.00000000000E+00 -0.00000000000E+00 -0.45593999997E+02  0.45594000000E+02  0.51100000000E-03 0.  1.
    9900012    2    1    2    0    0 -0.11602038147E+02 -0.10069191277E+02  0.40590974863E+02  0.47787272559E+02  0.20000006904E+02 0.  0.
        -12    1    1    2    0    0  0.11602038147E+02  0.10069191277E+02 -0.40590974863E+02  0.43400727441E+02  0.00000000000E+00 0.  1.
         11    1    3    3    0    0 -0.81774291908E+01 -0.14223745649E+02  0.23475303223E+02  0.28640446053E+02  0.51100000000E-03 0. -1.
        -11    1    3    3    0    0 -0.10562218013E+01  0.80409771497E+00  0.13821337159E+02  0.13884939278E+02  0.51100000000E-03 0.  1.
         12    1    3    3    0    0 -0.23683871548E+01  0.33504566571E+01  0.32943344811E+01  0.52618872279E+01  0.00000000000E+00 0. -1.
</event>
<event>
 7    1  0.6622189E-010  0.4778727E+02  0.7816164E-02  0.1312668E+00
        -11   -1    0    0    0    0  0.00000000000E+00  0.00000000000E+00  0.45593999997E+02  0.45594000000E+02  0.51100000000E-03 0. -1.
         11   -1    0    0    0    0 -0.00000000000E+00 -0.00000000000E+00 -0.45593999997E+02  0.45594000000E+02  0.51100000000E-03 0.  1.
    9900012    2    1    2    0    0  0.13688311079E+02 -0.80859678423E+01  0.40384036201E+02  0.47787272863E+02  0.20000008291E+02 0.  0.
        -12    1    1    2    0    0 -0.13688311079E+02  0.80859678423E+01 -0.40384036201E+02  0.43400727137E+02  0.00000000000E+00 0.  1.
         11    1    3    3    0    0  0.97260414839E+01 -0.88619421133E+01  0.31218418185E+02  0.33878009611E+02  0.51100000000E-03 0. -1.
        -11    1    3    3    0    0 -0.13932590957E+01 -0.15666325434E+01 -0.89033871854E+00  0.22777646342E+01  0.51100000000E-03 0.  1.
        -12    1    3    3    0    0  0.53555286912E+01  0.23426068143E+01  0.10055956735E+02  0.11631498618E+02  0.00000000000E+00 0.  1.
</event>
<event>
 7    1  0.6622189E-010  0.4778731E+02  0.7816164E-02  0.1312668E+00
        -11   -1    0    0    0    0  0.00000000000E+00  0.00000000000E+00  0.45593999997E+02  0.45594000000E+02  0.51100000000E-03 0. -1.
         11   -1    0    0    0    0 -0.00000000000E+00 -0.00000000000E+00 -0.45593999997E+02  0.45594000000E+02  0.51100000000E-03 0.  1.
    9900012    2    1    2    0    0 -0.21943287037E+02  0.70264839796E+01  0.36779623498E+02  0.47787308442E+02  0.20000170508E+02 0.  0.
        -12    1    1    2    0    0  0.21943287037E+02 -0.70264839796E+01 -0.36779623498E+02  0.43400691558E+02  0.00000000000E+00 0.  1.
         11    1    3    3    0    0 -0.15114172849E+02 -0.41523254729E+01  0.12661274707E+02  0.20149141551E+02  0.51100000000E-03 0. -1.
        -11    1    3    3    0    0 -0.37664765996E+01  0.50576568193E+01  0.14699212019E+02  0.15994782672E+02  0.51100000000E-03 0.  1.
         12    1    3    3    0    0 -0.30626375879E+01  0.61211526332E+01  0.94191367717E+01  0.11643384219E+02  0.00000000000E+00 0. -1.
</event>
<event>
 7    1  0.6622189E-010  0.4778727E+02  0.7816164E-02  0.1312668E+00
        -11   -1    0    0    0    0  0.00000000000E+00  0.00000000000E+00  0.45593999997E+02  0.45594000000E+02  0.51100000000E-03 0. -1.
         11   -1    0    0    0    0 -0.00000000000E+00 -0.00000000000E+00 -0.45593999997E+02  0.45594000000E+02  0.51100000000E-03 0.  1.
    9900012    2    1    2    0    0  0.38175267939E+02 -0.11022519791E+02  0.17457855065E+02  0.47787265811E+02  0.19999976137E+02 0.  0.
        -12    1    1    2    0    0 -0.38175267939E+02  0.11022519791E+02 -0.17457855065E+02  0.43400734189E+02  0.00000000000E+00 0.  1.
         11    1    3    3    0    0  0.20089885906E+02 -0.69079937891E+01  0.95523040479E+00  0.21265849602E+02  0.51100000000E-03 0. -1.
        -11    1    3    3    0    0 -0.11955522585E+00  0.74349108725E+00 -0.68486003284E+00  0.10178929092E+01  0.51100000000E-03 0.  1.
         12    1    3    3    0    0  0.18204937258E+02 -0.48580170892E+01  0.17187484693E+02  0.25503523299E+02  0.00000000000E+00 0. -1.
</event>
<event>
 7    1  0.6757908E-010  0.4778727E+02  0.7816164E-02  0.1312668E+00
        -11   -1    0    0    0    0  0.00000000000E+00  0.00000000000E+00  0.45593999997E+02  0.45594000000E+02  0.51100000000E-03 0. -1.
         11   -1    0    0    0    0 -0.00000000000E+00 -0.00000000000E+00 -0.45593999997E+02  0.45594000000E+02  0.51100000000E-03 0.  1.
    9900012    2    1    2    0    0 -0.26306578522E+02 -0.10221311879E+02  0.32971382009E+02  0.47787270494E+02  0.19999997492E+02 0.  0.
        -12    1    1    2    0    0  0.26306578522E+02  0.10221311879E+02 -0.32971382009E+02  0.43400729506E+02  0.00000000000E+00 0.  1.
         11    1    3    3    0    0 -0.57852397916E+01 -0.94101116218E+01  0.14399181161E+02  0.18148157442E+02  0.51100000000E-03 0. -1.
        -11    1    3    3    0    0 -0.45721264119E+01  0.28698982756E+01  0.76551420627E+00  0.54522168244E+01  0.51100000000E-03 0.  1.
         12    1    3    3    0    0 -0.15949212319E+02 -0.36810985326E+01  0.17806686641E+02  0.24186896228E+02  0.00000000000E+00 0. -1.
</event>
<event>
 7    1  0.6622189E-010  0.4778727E+02  0.7816164E-02  0.1312668E+00
        -11   -1    0    0    0    0  0.00000000000E+00  0.00000000000E+00  0.45593999997E+02  0.45594000000E+02  0.51100000000E-03 0. -1.
         11   -1    0    0    0    0 -0.00000000000E+00 -0.00000000000E+00 -0.45593999997E+02  0.45594000000E+02  0.51100000000E-03 0.  1.
    9900012    2    1    2    0    0 -0.40740728738E+01 -0.30339565493E+02  0.30765826437E+02  0.47787269817E+02  0.19999994404E+02 0.  0.
        -12    1    1    2    0    0  0.40740728738E+01  0.30339565493E+02 -0.30765826437E+02  0.43400730183E+02  0.00000000000E+00 0.  1.
         11    1    3    3    0    0 -0.34981749946E+00 -0.74701260824E+00  0.10896444607E+02  0.10927621217E+02  0.51100000000E-03 0. -1.
        -11    1    3    3    0    0  0.12372894494E+01 -0.38735118002E+01  0.14242842524E+00  0.40688161626E+01  0.51100000000E-03 0.  1.
         12    1    3    3    0    0 -0.49615448238E+01 -0.25719041084E+02  0.19726953405E+02  0.32790832438E+02  0.00000000000E+00 0. -1.
</event>
<event>
 7    1  0.6622189E-010  0.4778724E+02  0.7816164E-02  0.1312668E+00
        -11   -1    0    0    0    0  0.00000000000E+00  0.00000000000E+00  0.45593999997E+02  0.45594000000E+02  0.51100000000E-03 0. -1.
         11   -1    0    0    0    0 -0.00000000000E+00 -0.00000000000E+00 -0.45593999997E+02  0.45594000000E+02  0.51100000000E-03 0.  1.
    9900012    2    1    2    0    0  0.54112641362E+01 -0.13477993342E+02  0.40898510055E+02  0.47787237233E+02  0.19999845838E+02 0.  0.
        -12    1    1    2    0    0 -0.54112641362E+01  0.13477993342E+02 -0.40898510055E+02  0.43400762767E+02  0.00000000000E+00 0.  1.
         11    1    3    3    0    0  0.26801977041E+00 -0.85802151849E+01  0.24363419620E+02  0.25831533889E+02  0.51100000000E-03 0. -1.
        -11    1    3    3    0    0  0.43564686921E+01  0.29453623021E+01  0.11382453466E+02  0.12538509709E+02  0.51100000000E-03 0.  1.
        -12    1    3    3    0    0  0.78677567372E+00 -0.78431404589E+01  0.51526369686E+01  0.94171936345E+01  0.00000000000E+00 0.  1.
</event>
<event>
 7    1  0.6622189E-010  0.4778726E+02  0.7816164E-02  0.1312668E+00
        -11   -1    0    0    0    0  0.00000000000E+00  0.00000000000E+00  0.45593999997E+02  0.45594000000E+02  0.51100000000E-03 0. -1.
         11   -1    0    0    0    0 -0.00000000000E+00 -0.00000000000E+00 -0.45593999997E+02  0.45594000000E+02  0.51100000000E-03 0.  1.
    9900012    2    1    2    0    0  0.36458282847E+01  0.34185252705E+02 -0.26489632698E+02  0.47787260296E+02  0.19999950995E+02 0.  0.
         12    1    1    2    0    0 -0.36458282847E+01 -0.34185252705E+02  0.26489632698E+02  0.43400739704E+02  0.00000000000E+00 0. -1.
         11    1    3    3    0    0 -0.39173293867E+01  0.97939602663E+01 -0.91548160641E+01  0.13967024903E+02  0.51100000000E-03 0. -1.
        -11    1    3    3    0    0 -0.12379145265E+01  0.18278568296E+02 -0.10673072135E+02  0.21202663993E+02  0.51100000000E-03 0.  1.
        -12    1    3    3    0    0  0.88010721979E+01  0.61127241426E+01 -0.66617444982E+01  0.12617571400E+02  0.00000000000E+00 0.  1.
</event>
<event>
 7    1  0.6622189E-010  0.4778727E+02  0.7816164E-02  0.1312668E+00
        -11   -1    0    0    0    0  0.00000000000E+00  0.00000000000E+00  0.45593999997E+02  0.45594000000E+02  0.51100000000E-03 0. -1.
         11   -1    0    0    0    0 -0.00000000000E+00 -0.00000000000E+00 -0.45593999997E+02  0.45594000000E+02  0.51100000000E-03 0.  1.
    9900012    2    1    2    0    0 -0.34950191197E+02  0.12139008027E+02  0.22688145645E+02  0.47787270359E+02  0.19999996875E+02 0.  0.
        -12    1    1    2    0    0  0.34950191197E+02 -0.12139008027E+02 -0.22688145645E+02  0.43400729641E+02  0.00000000000E+00 0.  1.
         11    1    3    3    0    0 -0.10346253888E+02  0.27505489683E+01 -0.11356948893E+01  0.10765699805E+02  0.51100000000E-03 0. -1.
        -11    1    3    3    0    0 -0.97036892616E+01 -0.29501598056E+00  0.12961991976E+02  0.16194500794E+02  0.51100000000E-03 0.  1.
         12    1    3    3    0    0 -0.14900248047E+02  0.96834750395E+01  0.10861848558E+02  0.20827069760E+02  0.00000000000E+00 0. -1.
</event>
<event>
 7    1  0.6622189E-010  0.4778727E+02  0.7816164E-02  0.1312668E+00
        -11   -1    0    0    0    0  0.00000000000E+00  0.00000000000E+00  0.45593999997E+02  0.45594000000E+02  0.51100000000E-03 0. -1.
         11   -1    0    0    0    0 -0.00000000000E+00 -0.00000000000E+00 -0.45593999997E+02  0.45594000000E+02  0.51100000000E-03 0.  1.
    9900012    2    1    2    0    0 -0.39318407150E+02  0.47204087792E+01  0.17759619773E+02  0.47787268505E+02  0.19999988420E+02 0.  0.
        -12    1    1    2    0    0  0.39318407150E+02 -0.47204087792E+01 -0.17759619773E+02  0.43400731495E+02  0.00000000000E+00 0.  1.
         11    1    3    3    0    0 -0.33040360409E+02 -0.27250048508E+01  0.18426648551E+02  0.37929308516E+02  0.51100000000E-03 0. -1.
        -11    1    3    3    0    0 -0.49896554560E+01  0.50394071403E+01 -0.24218887826E+00  0.70958397396E+01  0.51100000000E-03 0.  1.
         12    1    3    3    0    0 -0.12883912850E+01  0.24060064897E+01 -0.42483989971E+00  0.27621202494E+01  0.00000000000E+00 0. -1.
</event>
<event>
 7    1  0.6622189E-010  0.4778729E+02  0.7816164E-02  0.1312668E+00
        -11   -1    0    0    0    0  0.00000000000E+00  0.00000000000E+00  0.45593999997E+02  0.45594000000E+02  0.51100000000E-03 0.  1.
         11   -1    0    0    0    0 -0.00000000000E+00 -0.00000000000E+00 -0.45593999997E+02  0.45594000000E+02  0.51100000000E-03 0. -1.
    9900012    2    1    2    0    0  0.40037428878E+01 -0.33259775074E+02 -0.27593097607E+02  0.47787289975E+02  0.20000086314E+02 0.  0.
         12    1    1    2    0    0 -0.40037428878E+01  0.33259775074E+02  0.27593097607E+02  0.43400710025E+02  0.00000000000E+00 0. -1.
         11    1    3    3    0    0 -0.56687750572E+01 -0.53633097844E+01 -0.81774963955E+01  0.11303607833E+02  0.51100000000E-03 0. -1.
        -11    1    3    3    0    0  0.68598851706E+01 -0.16864363691E+02 -0.66596939583E+01  0.19385982336E+02  0.51100000000E-03 0.  1.
        -12    1    3    3    0    0  0.28126327744E+01 -0.11032101599E+02 -0.12755907253E+02  0.17097699806E+02  0.00000000000E+00 0.  1.
</event>
<event>
 7    1  0.6622189E-010  0.4778727E+02  0.7816164E-02  0.1312668E+00
        -11   -1    0    0    0    0  0.00000000000E+00  0.00000000000E+00  0.45593999997E+02  0.45594000000E+02  0.51100000000E-03 0. -1.
         11   -1    0    0    0    0 -0.00000000000E+00 -0.00000000000E+00 -0.45593999997E+02  0.45594000000E+02  0.51100000000E-03 0.  1.
    9900012    2    1    2    0    0 -0.50075954327E+01  0.26113588642E+02  0.34302007562E+02  0.47787271359E+02  0.20000001434E+02 0.  0.
        -12    1    1    2    0    0  0.50075954327E+01 -0.26113588642E+02 -0.34302007562E+02  0.43400728641E+02  0.00000000000E+00 0.  1.
         11    1    3    3    0    0 -0.42507390005E+01  0.15725625482E+02  0.17821929637E+02  0.24145087598E+02  0.51100000000E-03 0. -1.
        -11    1    3    3    0    0 -0.37880089856E+01  0.12620212247E+02  0.13163584895E+02  0.18625217765E+02  0.51100000000E-03 0.  1.
        -12    1    3    3    0    0  0.30311525535E+01 -0.22322490873E+01  0.33164930307E+01  0.50169659968E+01  0.00000000000E+00 0.  1.
</event>
<event>
 7    1  0.6622189E-010  0.4778727E+02  0.7816164E-02  0.1312668E+00
        -11   -1    0    0    0    0  0.00000000000E+00  0.00000000000E+00  0.45593999997E+02  0.45594000000E+02  0.51100000000E-03 0. -1.
         11   -1    0    0    0    0 -0.00000000000E+00 -0.00000000000E+00 -0.45593999997E+02  0.45594000000E+02  0.51100000000E-03 0.  1.
    9900012    2    1    2    0    0 -0.30315853102E+02  0.23521345797E+02  0.20280997756E+02  0.47787268124E+02  0.19999986683E+02 0.  0.
        -12    1    1    2    0    0  0.30315853102E+02 -0.23521345797E+02 -0.20280997756E+02  0.43400731876E+02  0.00000000000E+00 0.  1.
         11    1    3    3    0    0 -0.12136700856E+02  0.18639091890E+02  0.47593997307E+01  0.22745705973E+02  0.51100000000E-03 0. -1.
        -11    1    3    3    0    0 -0.17266333810E+01 -0.95918043310E+00  0.57066322376E+00  0.20559539663E+01  0.51100000000E-03 0.  1.
         12    1    3    3    0    0 -0.16452518866E+02  0.58414343398E+01  0.14950934802E+02  0.22985608185E+02  0.00000000000E+00 0. -1.
</event>
<event>
 7    1  0.6622189E-010  0.4778727E+02  0.7816164E-02  0.1312668E+00
        -11   -1    0    0    0    0  0.00000000000E+00  0.00000000000E+00  0.45593999997E+02  0.45594000000E+02  0.51100000000E-03 0. -1.
         11   -1    0    0    0    0 -0.00000000000E+00 -0.00000000000E+00 -0.45593999997E+02  0.45594000000E+02  0.51100000000E-03 0.  1.
    9900012    2    1    2    0    0 -0.26508936275E+02  0.22298897095E+02  0.26146864536E+02  0.47787273749E+02  0.20000012330E+02 0.  0.
        -12    1    1    2    0    0  0.26508936275E+02 -0.22298897095E+02 -0.26146864536E+02  0.43400726251E+02  0.00000000000E+00 0.  1.
         11    1    3    3    0    0 -0.34654865196E+01 -0.62547729421E+00 -0.19475114818E+01  0.40241297066E+01  0.51100000000E-03 0.  1.
        -11    1    3    3    0    0 -0.16338175979E+02  0.17669915866E+02  0.15738466663E+02  0.28755195255E+02  0.51100000000E-03 0. -1.
         12    1    3    3    0    0 -0.67052737761E+01  0.52544585238E+01  0.12355909355E+02  0.15007948787E+02  0.00000000000E+00 0. -1.
</event>
<event>
 7    1  0.6622189E-010  0.4778727E+02  0.7816164E-02  0.1312668E+00
        -11   -1    0    0    0    0  0.00000000000E+00  0.00000000000E+00  0.45593999997E+02  0.45594000000E+02  0.51100000000E-03 0. -1.
         11   -1    0    0    0    0 -0.00000000000E+00 -0.00000000000E+00 -0.45593999997E+02  0.45594000000E+02  0.51100000000E-03 0.  1.
    9900012    2    1    2    0    0 -0.30989421407E+02 -0.10570408492E+02  0.28487637138E+02  0.47787271382E+02  0.20000001541E+02 0.  0.
        -12    1    1    2    0    0  0.30989421407E+02  0.10570408492E+02 -0.28487637138E+02  0.43400728618E+02  0.00000000000E+00 0.  1.
         11    1    3    3    0    0 -0.14601877086E+02 -0.12000739767E+02  0.13862971000E+02  0.23439593312E+02  0.51100000000E-03 0. -1.
        -11    1    3    3    0    0  0.35824293148E+00 -0.16280851754E+01  0.38658568862E+01  0.42099701973E+01  0.51100000000E-03 0.  1.
         12    1    3    3    0    0 -0.16745787252E+02  0.30584164510E+01  0.10758809252E+02  0.20137707874E+02  0.00000000000E+00 0. -1.
</event>
<event>
 7    1  0.6622189E-010  0.4778727E+02  0.7816164E-02  0.1312668E+00
        -11   -1    0    0    0    0  0.00000000000E+00  0.00000000000E+00  0.45593999997E+02  0.45594000000E+02  0.51100000000E-03 0. -1.
         11   -1    0    0    0    0 -0.00000000000E+00 -0.00000000000E+00 -0.45593999997E+02  0.45594000000E+02  0.51100000000E-03 0.  1.
    9900012    2    1    2    0    0 -0.21992999537E+02 -0.32836357391E+02  0.17936137438E+02  0.47787269344E+02  0.19999992245E+02 0.  0.
        -12    1    1    2    0    0  0.21992999537E+02  0.32836357391E+02 -0.17936137438E+02  0.43400730656E+02  0.00000000000E+00 0.  1.
         11    1    3    3    0    0 -0.63205771848E+01  0.95463870373E+00  0.40715325311E+00  0.64052170172E+01  0.51100000000E-03 0. -1.
        -11    1    3    3    0    0 -0.10549808344E+02 -0.26023270354E+02  0.11829160210E+02  0.30470282039E+02  0.51100000000E-03 0.  1.
         12    1    3    3    0    0 -0.51226140081E+01 -0.77677257403E+01  0.56998239753E+01  0.10911770287E+02  0.00000000000E+00 0. -1.
</event>
<event>
 7    1  0.6622189E-010  0.4778727E+02  0.7816164E-02  0.1312668E+00
        -11   -1    0    0    0    0  0.00000000000E+00  0.00000000000E+00  0.45593999997E+02  0.45594000000E+02  0.51100000000E-03 0. -1.
         11   -1    0    0    0    0 -0.00000000000E+00 -0.00000000000E+00 -0.45593999997E+02  0.45594000000E+02  0.51100000000E-03 0.  1.
    9900012    2    1    2    0    0  0.31721659334E+02  0.14078353934E+01  0.29586783439E+02  0.47787269296E+02  0.19999992026E+02 0.  0.
        -12    1    1    2    0    0 -0.31721659334E+02 -0.14078353934E+01 -0.29586783439E+02  0.43400730704E+02  0.00000000000E+00 0.  1.
         11    1    3    3    0    0  0.69737620873E+01  0.25158457667E+01  0.66258856088E+01  0.99430980048E+01  0.51100000000E-03 0. -1.
        -11    1    3    3    0    0  0.22669532667E+02 -0.11369613551E+01  0.25775684190E+02  0.34345105739E+02  0.51100000000E-03 0.  1.
        -12    1    3    3    0    0  0.20783645795E+01  0.28950981786E-01 -0.28147863598E+01  0.34990655518E+01  0.00000000000E+00 0.  1.
</event>
<event>
 7    1  0.6622189E-010  0.4778725E+02  0.7816164E-02  0.1312668E+00
        -11   -1    0    0    0    0  0.00000000000E+00  0.00000000000E+00  0.45593999997E+02  0.45594000000E+02  0.51100000000E-03 0. -1.
         11   -1    0    0    0    0 -0.00000000000E+00 -0.00000000000E+00 -0.45593999997E+02  0.45594000000E+02  0.51100000000E-03 0.  1.
    9900012    2    1    2    0    0  0.10419237843E+02 -0.84059516188E+01 -0.41284436533E+02  0.47787248397E+02  0.19999896741E+02 0.  0.
         12    1    1    2    0    0 -0.10419237843E+02  0.84059516188E+01  0.41284436533E+02  0.43400751603E+02  0.00000000000E+00 0. -1.
         11    1    3    3    0    0  0.70906972997E+01  0.57327532231E+01 -0.15661887963E+02  0.18122835941E+02  0.51100000000E-03 0. -1.
        -11    1    3    3    0    0  0.26271660032E+01 -0.12673345086E+02 -0.20089305531E+02  0.23897612304E+02  0.51100000000E-03 0.  1.
        -12    1    3    3    0    0  0.70137454009E+00 -0.14653597559E+01 -0.55332430396E+01  0.57668001522E+01  0.00000000000E+00 0.  1.
</event>
<event>
 7    1  0.6622189E-010  0.4778727E+02  0.7816164E-02  0.1312668E+00
        -11   -1    0    0    0    0  0.00000000000E+00  0.00000000000E+00  0.45593999997E+02  0.45594000000E+02  0.51100000000E-03 0. -1.
         11   -1    0    0    0    0 -0.00000000000E+00 -0.00000000000E+00 -0.45593999997E+02  0.45594000000E+02  0.51100000000E-03 0.  1.
    9900012    2    1    2    0    0  0.14051934745E+02 -0.24234740114E+02  0.33148812541E+02  0.47787271074E+02  0.20000000133E+02 0.  0.
        -12    1    1    2    0    0 -0.14051934745E+02  0.24234740114E+02 -0.33148812541E+02  0.43400728926E+02  0.00000000000E+00 0.  1.
         11    1    3    3    0    0 -0.13663058053E+01 -0.12848094538E+02  0.14978153833E+02  0.19780935704E+02  0.51100000000E-03 0.  1.
        -11    1    3    3    0    0  0.35222394206E+01 -0.83024501717E+01  0.79435622297E+01  0.12018195811E+02  0.51100000000E-03 0. -1.
         12    1    3    3    0    0  0.11896001130E+02 -0.30841954037E+01  0.10227096479E+02  0.15988139559E+02  0.00000000000E+00 0. -1.
</event>
<event>
 7    1  0.6622189E-010  0.4778727E+02  0.7816164E-02  0.1312668E+00
        -11   -1    0    0    0    0  0.00000000000E+00  0.00000000000E+00  0.45593999997E+02  0.45594000000E+02  0.51100000000E-03 0. -1.
         11   -1    0    0    0    0 -0.00000000000E+00 -0.00000000000E+00 -0.45593999997E+02  0.45594000000E+02  0.51100000000E-03 0.  1.
    9900012    2    1    2    0    0  0.85444431911E+01  0.23367598023E+01 -0.42487120876E+02  0.47787269636E+02  0.19999993577E+02 0.  0.
         12    1    1    2    0    0 -0.85444431911E+01 -0.23367598023E+01  0.42487120876E+02  0.43400730364E+02  0.00000000000E+00 0. -1.
         11    1    3    3    0    0 -0.43802045576E+01 -0.89273483055E+00 -0.16804743949E+02  0.17389151414E+02  0.51100000000E-03 0. -1.
        -11    1    3    3    0    0  0.10582676233E+02  0.25376225571E+01 -0.10854570774E+02  0.15370565098E+02  0.51100000000E-03 0.  1.
         12    1    3    3    0    0  0.23419715154E+01  0.69187207567E+00 -0.14827806154E+02  0.15027553124E+02  0.00000000000E+00 0. -1.
</event>
<event>
 7    1  0.6622189E-010  0.4778727E+02  0.7816164E-02  0.1312668E+00
        -11   -1    0    0    0    0  0.00000000000E+00  0.00000000000E+00  0.45593999997E+02  0.45594000000E+02  0.51100000000E-03 0.  1.
         11   -1    0    0    0    0 -0.00000000000E+00 -0.00000000000E+00 -0.45593999997E+02  0.45594000000E+02  0.51100000000E-03 0. -1.
    9900012    2    1    2    0    0 -0.23358621263E+02 -0.36476956593E+02  0.27257894753E+01  0.47787268694E+02  0.19999989284E+02 0.  0.
        -12    1    1    2    0    0  0.23358621263E+02  0.36476956593E+02 -0.27257894753E+01  0.43400731306E+02  0.00000000000E+00 0.  1.
         11    1    3    3    0    0 -0.21328955341E+02 -0.22540791872E+02 -0.59050971587E+00  0.31038046590E+02  0.51100000000E-03 0. -1.
        -11    1    3    3    0    0 -0.26288559596E+00 -0.13390800763E+02  0.49529890259E+01  0.14279872355E+02  0.51100000000E-03 0.  1.
         12    1    3    3    0    0 -0.17667803262E+01 -0.54536395828E+00 -0.16366898347E+01  0.24693497491E+01  0.00000000000E+00 0. -1.
</event>
<event>
 7    1  0.6622189E-010  0.4778727E+02  0.7816164E-02  0.1312668E+00
        -11   -1    0    0    0    0  0.00000000000E+00  0.00000000000E+00  0.45593999997E+02  0.45594000000E+02  0.51100000000E-03 0.  1.
         11   -1    0    0    0    0 -0.00000000000E+00 -0.00000000000E+00 -0.45593999997E+02  0.45594000000E+02  0.51100000000E-03 0. -1.
    9900012    2    1    2    0    0  0.58720050342E+01 -0.10675710518E+02  0.41655393674E+02  0.47787273504E+02  0.20000011215E+02 0.  0.
        -12    1    1    2    0    0 -0.58720050342E+01  0.10675710518E+02 -0.41655393674E+02  0.43400726496E+02  0.00000000000E+00 0.  1.
         11    1    3    3    0    0  0.54893006654E+01  0.31001526282E+01  0.50299945296E+01  0.80649992773E+01  0.51100000000E-03 0. -1.
        -11    1    3    3    0    0  0.18465540243E+01 -0.67139951785E+01  0.25734575875E+02  0.26660005416E+02  0.51100000000E-03 0.  1.
         12    1    3    3    0    0 -0.14638496556E+01 -0.70618679680E+01  0.10890823269E+02  0.13062268811E+02  0.00000000000E+00 0. -1.
</event>
<event>
 7    1  0.6622189E-010  0.4778727E+02  0.7816164E-02  0.1312668E+00
        -11   -1    0    0    0    0  0.00000000000E+00  0.00000000000E+00  0.45593999997E+02  0.45594000000E+02  0.51100000000E-03 0. -1.
         11   -1    0    0    0    0 -0.00000000000E+00 -0.00000000000E+00 -0.45593999997E+02  0.45594000000E+02  0.51100000000E-03 0.  1.
    9900012    2    1    2    0    0 -0.23535529530E+02 -0.14468061174E+02  0.33472034138E+02  0.47787274042E+02  0.20000013665E+02 0.  0.
        -12    1    1    2    0    0  0.23535529530E+02  0.14468061174E+02 -0.33472034138E+02  0.43400725958E+02  0.00000000000E+00 0.  1.
         11    1    3    3    0    0 -0.71878049249E+01 -0.12010574266E+02  0.92490022713E+01  0.16776843479E+02  0.51100000000E-03 0.  1.
        -11    1    3    3    0    0 -0.75890557481E+01 -0.25813114936E+01  0.39720825023E+01  0.89461933715E+01  0.51100000000E-03 0. -1.
         12    1    3    3    0    0 -0.87586688570E+01  0.12382458548E+00  0.20250949364E+02  0.22064237191E+02  0.00000000000E+00 0. -1.
</event>
<event>
 7    1  0.6622189E-010  0.4778727E+02  0.7816164E-02  0.1312668E+00
        -11   -1    0    0    0    0  0.00000000000E+00  0.00000000000E+00  0.45593999997E+02  0.45594000000E+02  0.51100000000E-03 0.  1.
         11   -1    0    0    0    0 -0.00000000000E+00 -0.00000000000E+00 -0.45593999997E+02  0.45594000000E+02  0.51100000000E-03 0. -1.
    9900012    2    1    2    0    0  0.30456732404E+02 -0.24718571157E+02 -0.18574251970E+02  0.47787272529E+02  0.20000006770E+02 0.  0.
         12    1    1    2    0    0 -0.30456732404E+02  0.24718571157E+02  0.18574251970E+02  0.43400727471E+02  0.00000000000E+00 0. -1.
         11    1    3    3    0    0 -0.17889775921E+00  0.76679933958E+00  0.17205656543E+01  0.18921765423E+01  0.51100000000E-03 0. -1.
        -11    1    3    3    0    0  0.18327736018E+02 -0.91916546408E+01 -0.12646179626E+02  0.24089796221E+02  0.51100000000E-03 0.  1.
         12    1    3    3    0    0  0.12307894145E+02 -0.16293715855E+02 -0.76486379984E+01  0.21805299766E+02  0.00000000000E+00 0. -1.
</event>
<event>
 7    1  0.6622189E-010  0.4778728E+02  0.7816164E-02  0.1312668E+00
        -11   -1    0    0    0    0  0.00000000000E+00  0.00000000000E+00  0.45593999997E+02  0.45594000000E+02  0.51100000000E-03 0. -1.
         11   -1    0    0    0    0 -0.00000000000E+00 -0.00000000000E+00 -0.45593999997E+02  0.45594000000E+02  0.51100000000E-03 0.  1.
    9900012    2    1    2    0    0 -0.21286391749E+02  0.33548544597E+02  0.17464460815E+02  0.47787277543E+02  0.20000029627E+02 0.  0.
        -12    1    1    2    0    0  0.21286391749E+02 -0.33548544597E+02 -0.17464460815E+02  0.43400722457E+02  0.00000000000E+00 0.  1.
         11    1    3    3    0    0 -0.68978688905E+01  0.74515967863E+01  0.11831333822E+02  0.15591258774E+02  0.51100000000E-03 0. -1.
        -11    1    3    3    0    0 -0.16135900737E+02  0.24436431400E+02  0.53650961404E+01  0.29770635348E+02  0.51100000000E-03 0.  1.
        -12    1    3    3    0    0  0.17473778784E+01  0.16605164106E+01  0.26803085342E+00  0.24253834209E+01  0.00000000000E+00 0.  1.
</event>
<event>
 7    1  0.6622189E-010  0.4778728E+02  0.7816164E-02  0.1312668E+00
        -11   -1    0    0    0    0  0.00000000000E+00  0.00000000000E+00  0.45593999997E+02  0.45594000000E+02  0.51100000000E-03 0. -1.
         11   -1    0    0    0    0 -0.00000000000E+00 -0.00000000000E+00 -0.45593999997E+02  0.45594000000E+02  0.51100000000E-03 0.  1.
    9900012    2    1    2    0    0  0.11575072408E+02 -0.15738102738E+02 -0.38755033447E+02  0.47787276543E+02  0.20000025072E+02 0.  0.
         12    1    1    2    0    0 -0.11575072408E+02  0.15738102738E+02  0.38755033447E+02  0.43400723457E+02  0.00000000000E+00 0. -1.
         11    1    3    3    0    0 -0.86548102394E+00 -0.37088943015E+01  0.11978905513E+01  0.39924799782E+01  0.51100000000E-03 0. -1.
        -11    1    3    3    0    0  0.31793128127E+01 -0.42689418355E+01 -0.17573679618E+02  0.18362083486E+02  0.51100000000E-03 0.  1.
         12    1    3    3    0    0  0.92612406196E+01 -0.77602666011E+01 -0.22379244381E+02  0.25432713080E+02  0.00000000000E+00 0. -1.
</event>
<event>
 7    1  0.6622189E-010  0.4778727E+02  0.7816164E-02  0.1312668E+00
        -11   -1    0    0    0    0  0.00000000000E+00  0.00000000000E+00  0.45593999997E+02  0.45594000000E+02  0.51100000000E-03 0. -1.
         11   -1    0    0    0    0 -0.00000000000E+00 -0.00000000000E+00 -0.45593999997E+02  0.45594000000E+02  0.51100000000E-03 0.  1.
    9900012    2    1    2    0    0  0.73660805671E+01  0.15101903566E+00 -0.42770797951E+02  0.47787272966E+02  0.20000008763E+02 0.  0.
         12    1    1    2    0    0 -0.73660805671E+01 -0.15101903566E+00  0.42770797951E+02  0.43400727034E+02  0.00000000000E+00 0. -1.
         11    1    3    3    0    0  0.41642323079E+01  0.97924355249E+00 -0.84957553474E-01  0.42786641252E+01  0.51100000000E-03 0. -1.
        -11    1    3    3    0    0 -0.92390244795E+00  0.21366961520E+01 -0.24980681369E+02  0.25088912055E+02  0.51100000000E-03 0.  1.
         12    1    3    3    0    0  0.41257507072E+01 -0.29649206689E+01 -0.17705159028E+02  0.18419696786E+02  0.00000000000E+00 0. -1.
</event>
<event>
 7    1  0.6622189E-010  0.4778728E+02  0.7816164E-02  0.1312668E+00
        -11   -1    0    0    0    0  0.00000000000E+00  0.00000000000E+00  0.45593999997E+02  0.45594000000E+02  0.51100000000E-03 0. -1.
         11   -1    0    0    0    0 -0.00000000000E+00 -0.00000000000E+00 -0.45593999997E+02  0.45594000000E+02  0.51100000000E-03 0.  1.
    9900012    2    1    2    0    0  0.23667749283E+02  0.17979837815E+02 -0.31625717183E+02  0.47787275221E+02  0.20000019042E+02 0.  0.
         12    1    1    2    0    0 -0.23667749283E+02 -0.17979837815E+02  0.31625717183E+02  0.43400724779E+02  0.00000000000E+00 0. -1.
         11    1    3    3    0    0  0.17164698449E+02  0.14717523519E+02 -0.24583940713E+02  0.33400636411E+02  0.51100000000E-03 0. -1.
        -11    1    3    3    0    0  0.24634482112E+01  0.55208470329E+01 -0.76151971269E+01  0.97231454063E+01  0.51100000000E-03 0.  1.
         12    1    3    3    0    0  0.40396026231E+01 -0.22585327368E+01  0.57342065721E+00  0.46634934036E+01  0.00000000000E+00 0. -1.
</event>
<event>
 7    1  0.6622189E-010  0.4778727E+02  0.7816164E-02  0.1312668E+00
        -11   -1    0    0    0    0  0.00000000000E+00  0.00000000000E+00  0.45593999997E+02  0.45594000000E+02  0.51100000000E-03 0. -1.
         11   -1    0    0    0    0 -0.00000000000E+00 -0.00000000000E+00 -0.45593999997E+02  0.45594000000E+02  0.51100000000E-03 0.  1.
    9900012    2    1    2    0    0 -0.55580968678E+01 -0.16476553604E+02 -0.39764983817E+02  0.47787271925E+02  0.20000004017E+02 0.  0.
         12    1    1    2    0    0  0.55580968678E+01  0.16476553604E+02  0.39764983817E+02  0.43400728075E+02  0.00000000000E+00 0. -1.
         11    1    3    3    0    0 -0.79556224401E+01 -0.57061342979E+01 -0.72023378963E+01  0.12154240761E+02  0.51100000000E-03 0. -1.
        -11    1    3    3    0    0 -0.32891571825E+01 -0.15475711709E+01 -0.81309235517E+01  0.89064835690E+01  0.51100000000E-03 0.  1.
         12    1    3    3    0    0  0.56866827547E+01 -0.92228481347E+01 -0.24431722369E+02  0.26726547596E+02  0.00000000000E+00 0. -1.
</event>
<event>
 7    1  0.6622189E-010  0.4778727E+02  0.7816164E-02  0.1312668E+00
        -11   -1    0    0    0    0  0.00000000000E+00  0.00000000000E+00  0.45593999997E+02  0.45594000000E+02  0.51100000000E-03 0. -1.
         11   -1    0    0    0    0 -0.00000000000E+00 -0.00000000000E+00 -0.45593999997E+02  0.45594000000E+02  0.51100000000E-03 0.  1.
    9900012    2    1    2    0    0  0.11855995736E+01  0.97010658201E+00 -0.43373685035E+02  0.47787270667E+02  0.19999998278E+02 0.  0.
         12    1    1    2    0    0 -0.11855995736E+01 -0.97010658201E+00  0.43373685035E+02  0.43400729333E+02  0.00000000000E+00 0. -1.
         11    1    3    3    0    0  0.44547675713E+01 -0.26823546986E+01 -0.28620247925E+01  0.59355848084E+01  0.51100000000E-03 0. -1.
        -11    1    3    3    0    0 -0.24644664918E+01 -0.14039999402E+01 -0.30259096272E+02  0.30391737666E+02  0.51100000000E-03 0.  1.
        -12    1    3    3    0    0 -0.80470150596E+00  0.50564612208E+01 -0.10252563971E+02  0.11459948192E+02  0.00000000000E+00 0.  1.
</event>
<event>
 7    1  0.6622189E-010  0.4778727E+02  0.7816164E-02  0.1312668E+00
        -11   -1    0    0    0    0  0.00000000000E+00  0.00000000000E+00  0.45593999997E+02  0.45594000000E+02  0.51100000000E-03 0. -1.
         11   -1    0    0    0    0 -0.00000000000E+00 -0.00000000000E+00 -0.45593999997E+02  0.45594000000E+02  0.51100000000E-03 0.  1.
    9900012    2    1    2    0    0  0.26107682907E+02 -0.14290610675E+02 -0.31587821010E+02  0.47787273089E+02  0.20000009323E+02 0.  0.
         12    1    1    2    0    0 -0.26107682907E+02  0.14290610675E+02  0.31587821010E+02  0.43400726911E+02  0.00000000000E+00 0. -1.
         11    1    3    3    0    0 -0.70469760981E+00 -0.43795267022E+00 -0.10560429780E+02  0.10592973080E+02  0.51100000000E-03 0. -1.
        -11    1    3    3    0    0  0.22539918283E+02 -0.95844886400E+01 -0.15350461147E+02  0.28905829799E+02  0.51100000000E-03 0.  1.
         12    1    3    3    0    0  0.42724622334E+01 -0.42681693650E+01 -0.56769300832E+01  0.82884702107E+01  0.00000000000E+00 0. -1.
</event>
<event>
 7    1  0.6622189E-010  0.4778727E+02  0.7816164E-02  0.1312668E+00
        -11   -1    0    0    0    0  0.00000000000E+00  0.00000000000E+00  0.45593999997E+02  0.45594000000E+02  0.51100000000E-03 0. -1.
         11   -1    0    0    0    0 -0.00000000000E+00 -0.00000000000E+00 -0.45593999997E+02  0.45594000000E+02  0.51100000000E-03 0.  1.
    9900012    2    1    2    0    0 -0.11111791802E+02 -0.23446457685E+02 -0.34791016255E+02  0.47787272966E+02  0.20000008761E+02 0.  0.
         12    1    1    2    0    0  0.11111791802E+02  0.23446457685E+02  0.34791016255E+02  0.43400727034E+02  0.00000000000E+00 0. -1.
         11    1    3    3    0    0 -0.14420238431E+02 -0.95094968962E+01 -0.17270191750E+02  0.24426078911E+02  0.51100000000E-03 0. -1.
        -11    1    3    3    0    0  0.15492886414E+01 -0.12732412473E+02 -0.16743909401E+02  0.21092015669E+02  0.51100000000E-03 0.  1.
         12    1    3    3    0    0  0.17591579875E+01 -0.12045483156E+01 -0.77691510413E+00  0.22691783862E+01  0.00000000000E+00 0. -1.
</event>
<event>
 7    1  0.6622189E-010  0.4778727E+02  0.7816164E-02  0.1312668E+00
        -11   -1    0    0    0    0  0.00000000000E+00  0.00000000000E+00  0.45593999997E+02  0.45594000000E+02  0.51100000000E-03 0. -1.
         11   -1    0    0    0    0 -0.00000000000E+00 -0.00000000000E+00 -0.45593999997E+02  0.45594000000E+02  0.51100000000E-03 0.  1.
    9900012    2    1    2    0    0 -0.49029968059E+01 -0.49537547564E+01 -0.42837415262E+02  0.47787271778E+02  0.20000003346E+02 0.  0.
         12    1    1    2    0    0  0.49029968059E+01  0.49537547564E+01  0.42837415262E+02  0.43400728222E+02  0.00000000000E+00 0. -1.
         11    1    3    3    0    0  0.26282842761E+01  0.51354405279E+01 -0.60711205416E+01  0.83749108976E+01  0.51100000000E-03 0. -1.
        -11    1    3    3    0    0 -0.67428209491E+01 -0.47192526215E+01 -0.16597376537E+02  0.18525924749E+02  0.51100000000E-03 0.  1.
         12    1    3    3    0    0 -0.78846013294E+00 -0.53699426628E+01 -0.20168918183E+02  0.20886436131E+02  0.00000000000E+00 0. -1.
</event>
<event>
 7    1  0.6622189E-010  0.4778727E+02  0.7816164E-02  0.1312668E+00
        -11   -1    0    0    0    0  0.00000000000E+00  0.00000000000E+00  0.45593999997E+02  0.45594000000E+02  0.51100000000E-03 0. -1.
         11   -1    0    0    0    0 -0.00000000000E+00 -0.00000000000E+00 -0.45593999997E+02  0.45594000000E+02  0.51100000000E-03 0.  1.
    9900012    2    1    2    0    0  0.13403748738E+01  0.25560957852E+01  0.43304657250E+02  0.47787267633E+02  0.19999984445E+02 0.  0.
        -12    1    1    2    0    0 -0.13403748738E+01 -0.25560957852E+01 -0.43304657250E+02  0.43400732367E+02  0.00000000000E+00 0.  1.
         11    1    3    3    0    0  0.27117084630E+00 -0.22704496282E+01  0.14874117705E+01  0.27277956628E+01  0.51100000000E-03 0. -1.
        -11    1    3    3    0    0 -0.12966482388E+01  0.37840882104E+01  0.95105500306E+00  0.41115843807E+01  0.51100000000E-03 0.  1.
        -12    1    3    3    0    0  0.23658522663E+01  0.10424572029E+01  0.40866190477E+02  0.40947887589E+02  0.00000000000E+00 0.  1.
</event>
<event>
 7    1  0.6622189E-010  0.4778727E+02  0.7816164E-02  0.1312668E+00
        -11   -1    0    0    0    0  0.00000000000E+00  0.00000000000E+00  0.45593999997E+02  0.45594000000E+02  0.51100000000E-03 0. -1.
         11   -1    0    0    0    0 -0.00000000000E+00 -0.00000000000E+00 -0.45593999997E+02  0.45594000000E+02  0.51100000000E-03 0.  1.
    9900012    2    1    2    0    0 -0.13522038148E+02 -0.14913804036E+02 -0.38449400577E+02  0.47787268770E+02  0.19999989632E+02 0.  0.
         12    1    1    2    0    0  0.13522038148E+02  0.14913804036E+02  0.38449400577E+02  0.43400731230E+02  0.00000000000E+00 0. -1.
         11    1    3    3    0    0 -0.18015328413E+01 -0.99405891832E+01 -0.19131270913E+02  0.21634841366E+02  0.51100000000E-03 0. -1.
        -11    1    3    3    0    0 -0.77751223524E+01  0.22150368078E+01 -0.14608541812E+02  0.16696359177E+02  0.51100000000E-03 0.  1.
         12    1    3    3    0    0 -0.39453829543E+01 -0.71882516602E+01 -0.47095878525E+01  0.94560682277E+01  0.00000000000E+00 0. -1.
</event>
<event>
 7    1  0.6622189E-010  0.4778727E+02  0.7816164E-02  0.1312668E+00
        -11   -1    0    0    0    0  0.00000000000E+00  0.00000000000E+00  0.45593999997E+02  0.45594000000E+02  0.51100000000E-03 0. -1.
         11   -1    0    0    0    0 -0.00000000000E+00 -0.00000000000E+00 -0.45593999997E+02  0.45594000000E+02  0.51100000000E-03 0.  1.
    9900012    2    1    2    0    0  0.32651866509E+02 -0.14251959360E+02 -0.24786297602E+02  0.47787270964E+02  0.19999999632E+02 0.  0.
         12    1    1    2    0    0 -0.32651866509E+02  0.14251959360E+02  0.24786297602E+02  0.43400729036E+02  0.00000000000E+00 0. -1.
         11    1    3    3    0    0  0.34751067956E+00  0.19695489205E+01 -0.52303162722E+01  0.55996513454E+01  0.51100000000E-03 0. -1.
        -11    1    3    3    0    0  0.80507766502E+00 -0.30433852514E+01 -0.87887426964E+00  0.32684497974E+01  0.51100000000E-03 0.  1.
         12    1    3    3    0    0  0.31499278164E+02 -0.13178123029E+02 -0.18677107060E+02  0.38919169821E+02  0.00000000000E+00 0. -1.
</event>
<event>
 7    1  0.6622189E-010  0.4778727E+02  0.7816164E-02  0.1312668E+00
        -11   -1    0    0    0    0  0.00000000000E+00  0.00000000000E+00  0.45593999997E+02  0.45594000000E+02  0.51100000000E-03 0. -1.
         11   -1    0    0    0    0 -0.00000000000E+00 -0.00000000000E+00 -0.45593999997E+02  0.45594000000E+02  0.51100000000E-03 0.  1.
    9900012    2    1    2    0    0  0.11433889287E+02  0.40603942842E+02  0.10208294928E+02  0.47787270929E+02  0.19999999475E+02 0.  0.
        -12    1    1    2    0    0 -0.11433889287E+02 -0.40603942842E+02 -0.10208294928E+02  0.43400729071E+02  0.00000000000E+00 0.  1.
         11    1    3    3    0    0  0.57503682077E+01  0.12411377604E+02  0.21196480967E+01  0.13842035142E+02  0.51100000000E-03 0. -1.
        -11    1    3    3    0    0  0.10279248961E+02  0.20573042253E+02  0.95968629534E+01  0.24920128522E+02  0.51100000000E-03 0.  1.
        -12    1    3    3    0    0 -0.45957278818E+01  0.76195229849E+01 -0.15082161220E+01  0.90251072654E+01  0.00000000000E+00 0.  1.
</event>
<event>
 7    1  0.6622189E-010  0.4778727E+02  0.7816164E-02  0.1312668E+00
        -11   -1    0    0    0    0  0.00000000000E+00  0.00000000000E+00  0.45593999997E+02  0.45594000000E+02  0.51100000000E-03 0.  1.
         11   -1    0    0    0    0 -0.00000000000E+00 -0.00000000000E+00 -0.45593999997E+02  0.45594000000E+02  0.51100000000E-03 0. -1.
    9900012    2    1    2    0    0 -0.73277170597E+01 -0.42649016239E+02 -0.33150149337E+01  0.47787270197E+02  0.19999996134E+02 0.  0.
         12    1    1    2    0    0  0.73277170597E+01  0.42649016239E+02  0.33150149337E+01  0.43400729803E+02  0.00000000000E+00 0. -1.
         11    1    3    3    0    0 -0.11279268144E+01 -0.20653973569E+02 -0.63685268317E+01  0.21642942899E+02  0.51100000000E-03 0. -1.
        -11    1    3    3    0    0 -0.45729967201E+01 -0.19300292372E+02  0.70560314845E+01  0.21052343462E+02  0.51100000000E-03 0.  1.
        -12    1    3    3    0    0 -0.16267935251E+01 -0.26947502982E+01 -0.40025195866E+01  0.50919838358E+01  0.00000000000E+00 0.  1.
</event>
<event>
 7    1  0.6622189E-010  0.4778729E+02  0.7816164E-02  0.1312668E+00
        -11   -1    0    0    0    0  0.00000000000E+00  0.00000000000E+00  0.45593999997E+02  0.45594000000E+02  0.51100000000E-03 0. -1.
         11   -1    0    0    0    0 -0.00000000000E+00 -0.00000000000E+00 -0.45593999997E+02  0.45594000000E+02  0.51100000000E-03 0.  1.
    9900012    2    1    2    0    0  0.12517352624E+02 -0.22933390779E+02  0.34655406402E+02  0.47787288920E+02  0.20000081502E+02 0.  0.
        -12    1    1    2    0    0 -0.12517352624E+02  0.22933390779E+02 -0.34655406402E+02  0.43400711080E+02  0.00000000000E+00 0.  1.
         11    1    3    3    0    0  0.61385500069E+01 -0.20424146659E+02  0.13065322236E+02  0.25010601919E+02  0.51100000000E-03 0. -1.
        -11    1    3    3    0    0  0.36624711590E+01 -0.26114961887E+01  0.12281256128E+02  0.13079100110E+02  0.51100000000E-03 0.  1.
         12    1    3    3    0    0  0.27163314579E+01  0.10225206891E+00  0.93088280376E+01  0.96975868910E+01  0.00000000000E+00 0. -1.
</event>
<event>
 7    1  0.6622189E-010  0.4778727E+02  0.7816164E-02  0.1312668E+00
        -11   -1    0    0    0    0  0.00000000000E+00  0.00000000000E+00  0.45593999997E+02  0.45594000000E+02  0.51100000000E-03 0. -1.
         11   -1    0    0    0    0 -0.00000000000E+00 -0.00000000000E+00 -0.45593999997E+02  0.45594000000E+02  0.51100000000E-03 0.  1.
    9900012    2    1    2    0    0 -0.19708151060E+02 -0.14258533905E+02  0.35943104870E+02  0.47787265041E+02  0.19999972627E+02 0.  0.
        -12    1    1    2    0    0  0.19708151060E+02  0.14258533905E+02 -0.35943104870E+02  0.43400734959E+02  0.00000000000E+00 0.  1.
         11    1    3    3    0    0 -0.10838299019E+02 -0.24735477501E+01  0.13765596340E+02  0.17694033089E+02  0.51100000000E-03 0. -1.
        -11    1    3    3    0    0  0.12988783236E+01  0.24612368058E+01  0.23222446039E+01  0.36245816000E+01  0.51100000000E-03 0.  1.
        -12    1    3    3    0    0 -0.10168730364E+02 -0.14246222960E+02  0.19855263926E+02  0.26468650352E+02  0.00000000000E+00 0.  1.
</event>
<event>
 7    1  0.6622189E-010  0.4778727E+02  0.7816164E-02  0.1312668E+00
        -11   -1    0    0    0    0  0.00000000000E+00  0.00000000000E+00  0.45593999997E+02  0.45594000000E+02  0.51100000000E-03 0. -1.
         11   -1    0    0    0    0 -0.00000000000E+00 -0.00000000000E+00 -0.45593999997E+02  0.45594000000E+02  0.51100000000E-03 0.  1.
    9900012    2    1    2    0    0 -0.90524528332E+01  0.41470568638E+02 -0.90481142086E+01  0.47787270326E+02  0.19999996725E+02 0.  0.
         12    1    1    2    0    0  0.90524528332E+01 -0.41470568638E+02  0.90481142086E+01  0.43400729674E+02  0.00000000000E+00 0. -1.
         11    1    3    3    0    0 -0.12623560799E+02  0.20537314364E+02 -0.92441460165E+01  0.25818400499E+02  0.51100000000E-03 0. -1.
        -11    1    3    3    0    0 -0.13859710451E+01  0.58268105871E+01 -0.78007678387E+00  0.60399633613E+01  0.51100000000E-03 0.  1.
         12    1    3    3    0    0  0.49570790105E+01  0.15106443688E+02  0.97610859178E+00  0.15928906466E+02  0.00000000000E+00 0. -1.
</event>
<event>
 7    1  0.6622189E-010  0.4778727E+02  0.7816164E-02  0.1312668E+00
        -11   -1    0    0    0    0  0.00000000000E+00  0.00000000000E+00  0.45593999997E+02  0.45594000000E+02  0.51100000000E-03 0. -1.
         11   -1    0    0    0    0 -0.00000000000E+00 -0.00000000000E+00 -0.45593999997E+02  0.45594000000E+02  0.51100000000E-03 0.  1.
    9900012    2    1    2    0    0 -0.18538940562E+02 -0.25244748563E+02  0.30043865531E+02  0.47787268402E+02  0.19999987953E+02 0.  0.
        -12    1    1    2    0    0  0.18538940562E+02  0.25244748563E+02 -0.30043865531E+02  0.43400731598E+02  0.00000000000E+00 0.  1.
         11    1    3    3    0    0 -0.10111953005E+01  0.15089381513E+01  0.85505681570E+01  0.87413743970E+01  0.51100000000E-03 0. -1.
        -11    1    3    3    0    0 -0.16052477894E+02 -0.22757068596E+02  0.16082323107E+02  0.32159094117E+02  0.51100000000E-03 0.  1.
         12    1    3    3    0    0 -0.14752673682E+01 -0.39966181179E+01  0.54109742670E+01  0.68867998886E+01  0.00000000000E+00 0. -1.
</event>
<event>
 7    1  0.6622189E-010  0.4778728E+02  0.7816164E-02  0.1312668E+00
        -11   -1    0    0    0    0  0.00000000000E+00  0.00000000000E+00  0.45593999997E+02  0.45594000000E+02  0.51100000000E-03 0. -1.
         11   -1    0    0    0    0 -0.00000000000E+00 -0.00000000000E+00 -0.45593999997E+02  0.45594000000E+02  0.51100000000E-03 0.  1.
    9900012    2    1    2    0    0 -0.16897416253E+02  0.26300862891E+02  0.30105890321E+02  0.47787277692E+02  0.20000030309E+02 0.  0.
        -12    1    1    2    0    0  0.16897416253E+02 -0.26300862891E+02 -0.30105890321E+02  0.43400722308E+02  0.00000000000E+00 0.  1.
         11    1    3    3    0    0 -0.83501055686E+01  0.55369961224E+01  0.89616515395E+01  0.13442238937E+02  0.51100000000E-03 0. -1.
        -11    1    3    3    0    0 -0.16876233293E+01 -0.22384421887E+01  0.89916138683E+00  0.29440087287E+01  0.51100000000E-03 0.  1.
        -12    1    3    3    0    0 -0.68596873549E+01  0.23002308958E+02  0.20245077395E+02  0.31401030026E+02  0.00000000000E+00 0.  1.
</event>
<event>
 7    1  0.6622189E-010  0.4778727E+02  0.7816164E-02  0.1312668E+00
        -11   -1    0    0    0    0  0.00000000000E+00  0.00000000000E+00  0.45593999997E+02  0.45594000000E+02  0.51100000000E-03 0.  1.
         11   -1    0    0    0    0 -0.00000000000E+00 -0.00000000000E+00 -0.45593999997E+02  0.45594000000E+02  0.51100000000E-03 0. -1.
    9900012    2    1    2    0    0 -0.40536110973E+02 -0.14976617705E+02 -0.40184324486E+01  0.47787272241E+02  0.20000005456E+02 0.  0.
        -12    1    1    2    0    0  0.40536110973E+02  0.14976617705E+02  0.40184324486E+01  0.43400727759E+02  0.00000000000E+00 0.  1.
         11    1    3    3    0    0 -0.64493336774E+01 -0.93860159479E+01 -0.34181529705E+01  0.11890120699E+02  0.51100000000E-03 0. -1.
        -11    1    3    3    0    0 -0.18998900808E+02  0.88757288212E+00 -0.31557760544E+01  0.19279650939E+02  0.51100000000E-03 0.  1.
         12    1    3    3    0    0 -0.15087876487E+02 -0.64781746388E+01  0.25554965763E+01  0.16617500603E+02  0.00000000000E+00 0. -1.
</event>
<event>
 7    1  0.6622189E-010  0.4778728E+02  0.7816164E-02  0.1312668E+00
        -11   -1    0    0    0    0  0.00000000000E+00  0.00000000000E+00  0.45593999997E+02  0.45594000000E+02  0.51100000000E-03 0. -1.
         11   -1    0    0    0    0 -0.00000000000E+00 -0.00000000000E+00 -0.45593999997E+02  0.45594000000E+02  0.51100000000E-03 0.  1.
    9900012    2    1    2    0    0 -0.17734722292E+02  0.23818822333E+02  0.31650690009E+02  0.47787275926E+02  0.20000022257E+02 0.  0.
        -12    1    1    2    0    0  0.17734722292E+02 -0.23818822333E+02 -0.31650690009E+02  0.43400724074E+02  0.00000000000E+00 0.  1.
         11    1    3    3    0    0 -0.26600383655E+01 -0.31375445240E+01  0.44294177932E+01  0.60448103357E+01  0.51100000000E-03 0.  1.
        -11    1    3    3    0    0 -0.11113306358E+02  0.15860354605E+02  0.20399084102E+02  0.28127905341E+02  0.51100000000E-03 0. -1.
        -12    1    3    3    0    0 -0.39613775681E+01  0.11096012252E+02  0.68221881142E+01  0.13614560250E+02  0.00000000000E+00 0.  1.
</event>
<event>
 7    1  0.6622189E-010  0.4778727E+02  0.7816164E-02  0.1312668E+00
        -11   -1    0    0    0    0  0.00000000000E+00  0.00000000000E+00  0.45593999997E+02  0.45594000000E+02  0.51100000000E-03 0. -1.
         11   -1    0    0    0    0 -0.00000000000E+00 -0.00000000000E+00 -0.45593999997E+02  0.45594000000E+02  0.51100000000E-03 0.  1.
    9900012    2    1    2    0    0 -0.62387677035E+01  0.54047559830E+01  0.42608564640E+02  0.47787269702E+02  0.19999993880E+02 0.  0.
        -12    1    1    2    0    0  0.62387677035E+01 -0.54047559830E+01 -0.42608564640E+02  0.43400730298E+02  0.00000000000E+00 0.  1.
         11    1    3    3    0    0  0.57788744125E+01  0.16285612074E+00  0.21119644230E+02  0.21896604400E+02  0.51100000000E-03 0. -1.
        -11    1    3    3    0    0 -0.51986915089E+01  0.59697896542E+00  0.41144192351E+01  0.66566675742E+01  0.51100000000E-03 0.  1.
         12    1    3    3    0    0 -0.68189506071E+01  0.46449208968E+01  0.17374501175E+02  0.19233997728E+02  0.00000000000E+00 0. -1.
</event>
<event>
 7    1  0.6622189E-010  0.4778727E+02  0.7816164E-02  0.1312668E+00
        -11   -1    0    0    0    0  0.00000000000E+00  0.00000000000E+00  0.45593999997E+02  0.45594000000E+02  0.51100000000E-03 0. -1.
         11   -1    0    0    0    0 -0.00000000000E+00 -0.00000000000E+00 -0.45593999997E+02  0.45594000000E+02  0.51100000000E-03 0.  1.
    9900012    2    1    2    0    0 -0.28915994622E+02 -0.23166569388E+02 -0.22600854005E+02  0.47787270928E+02  0.19999999471E+02 0.  0.
         12    1    1    2    0    0  0.28915994622E+02  0.23166569388E+02  0.22600854005E+02  0.43400729072E+02  0.00000000000E+00 0. -1.
         11    1    3    3    0    0 -0.24437233641E+01 -0.43039798284E+01  0.31832662850E+01  0.58846589320E+01  0.51100000000E-03 0. -1.
        -11    1    3    3    0    0 -0.18245446839E+02 -0.13230211670E+02 -0.21153262977E+02  0.30909470491E+02  0.51100000000E-03 0.  1.
         12    1    3    3    0    0 -0.82268244187E+01 -0.56323778902E+01 -0.46308573128E+01  0.10993141506E+02  0.00000000000E+00 0. -1.
</event>
<event>
 7    1  0.6622189E-010  0.4778725E+02  0.7816164E-02  0.1312668E+00
        -11   -1    0    0    0    0  0.00000000000E+00  0.00000000000E+00  0.45593999997E+02  0.45594000000E+02  0.51100000000E-03 0. -1.
         11   -1    0    0    0    0 -0.00000000000E+00 -0.00000000000E+00 -0.45593999997E+02  0.45594000000E+02  0.51100000000E-03 0.  1.
    9900012    2    1    2    0    0  0.79093637808E+01 -0.11291231070E+02 -0.41153066522E+02  0.47787253248E+02  0.19999918858E+02 0.  0.
         12    1    1    2    0    0 -0.79093637808E+01  0.11291231070E+02  0.41153066522E+02  0.43400746752E+02  0.00000000000E+00 0. -1.
         11    1    3    3    0    0  0.54782319337E+01 -0.78724485201E+00 -0.13132543784E+01  0.56881822140E+01  0.51100000000E-03 0. -1.
        -11    1    3    3    0    0  0.14236841555E+00 -0.10991755612E+02 -0.29095121719E+02  0.31102492960E+02  0.51100000000E-03 0.  1.
         12    1    3    3    0    0  0.22887634315E+01  0.48776939396E+00 -0.10744690424E+02  0.10996578074E+02  0.00000000000E+00 0. -1.
</event>
<event>
 7    1  0.6622189E-010  0.4778727E+02  0.7816164E-02  0.1312668E+00
        -11   -1    0    0    0    0  0.00000000000E+00  0.00000000000E+00  0.45593999997E+02  0.45594000000E+02  0.51100000000E-03 0. -1.
         11   -1    0    0    0    0 -0.00000000000E+00 -0.00000000000E+00 -0.45593999997E+02  0.45594000000E+02  0.51100000000E-03 0.  1.
    9900012    2    1    2    0    0  0.15783889275E+02 -0.26833096092E+02  0.30240324636E+02  0.47787269124E+02  0.19999991244E+02 0.  0.
        -12    1    1    2    0    0 -0.15783889275E+02  0.26833096092E+02 -0.30240324636E+02  0.43400730876E+02  0.00000000000E+00 0.  1.
         11    1    3    3    0    0  0.26844629900E+01 -0.16665636254E+01  0.79028405522E+01  0.85110907008E+01  0.51100000000E-03 0.  1.
        -11    1    3    3    0    0  0.13286388812E+02 -0.20603881501E+02  0.24103016939E+02  0.34380277579E+02  0.51100000000E-03 0. -1.
        -12    1    3    3    0    0 -0.18696252697E+00 -0.45626509653E+01 -0.17655328555E+01  0.48959008447E+01  0.00000000000E+00 0.  1.
</event>
<event>
 7    1  0.6622189E-010  0.4778727E+02  0.7816164E-02  0.1312668E+00
        -11   -1    0    0    0    0  0.00000000000E+00  0.00000000000E+00  0.45593999997E+02  0.45594000000E+02  0.51100000000E-03 0. -1.
         11   -1    0    0    0    0 -0.00000000000E+00 -0.00000000000E+00 -0.45593999997E+02  0.45594000000E+02  0.51100000000E-03 0.  1.
    9900012    2    1    2    0    0  0.20777526397E+02  0.31562470255E+02  0.21347788827E+02  0.47787271670E+02  0.20000002850E+02 0.  0.
        -12    1    1    2    0    0 -0.20777526397E+02 -0.31562470255E+02 -0.21347788827E+02  0.43400728330E+02  0.00000000000E+00 0.  1.
         11    1    3    3    0    0  0.15808931760E+02  0.24445504767E+02  0.23137706003E+02  0.37186804999E+02  0.51100000000E-03 0. -1.
        -11    1    3    3    0    0 -0.21428823599E+00 -0.70167388336E+00 -0.92437174098E+00  0.11801394254E+01  0.51100000000E-03 0.  1.
         12    1    3    3    0    0  0.51828828735E+01  0.78186393713E+01 -0.86554543495E+00  0.94203272448E+01  0.00000000000E+00 0. -1.
</event>
<event>
 7    1  0.6622189E-010  0.4778727E+02  0.7816164E-02  0.1312668E+00
        -11   -1    0    0    0    0  0.00000000000E+00  0.00000000000E+00  0.45593999997E+02  0.45594000000E+02  0.51100000000E-03 0. -1.
         11   -1    0    0    0    0 -0.00000000000E+00 -0.00000000000E+00 -0.45593999997E+02  0.45594000000E+02  0.51100000000E-03 0.  1.
    9900012    2    1    2    0    0 -0.12170393400E+02  0.10975666058E+02 -0.40187555090E+02  0.47787270686E+02  0.19999998364E+02 0.  0.
         12    1    1    2    0    0  0.12170393400E+02 -0.10975666058E+02  0.40187555090E+02  0.43400729314E+02  0.00000000000E+00 0. -1.
         11    1    3    3    0    0  0.12830106526E+01  0.13827668380E+01 -0.22177416255E+02  0.22257492053E+02  0.51100000000E-03 0. -1.
        -11    1    3    3    0    0 -0.11311818459E+02  0.86908360805E+01 -0.18283480764E+02  0.23189944755E+02  0.51100000000E-03 0.  1.
         12    1    3    3    0    0 -0.21415855938E+01  0.90206313930E+00  0.27334193017E+00  0.23398338773E+01  0.00000000000E+00 0. -1.
</event>
<event>
 7    1  0.6622189E-010  0.4778727E+02  0.7816164E-02  0.1312668E+00
        -11   -1    0    0    0    0  0.00000000000E+00  0.00000000000E+00  0.45593999997E+02  0.45594000000E+02  0.51100000000E-03 0. -1.
         11   -1    0    0    0    0 -0.00000000000E+00 -0.00000000000E+00 -0.45593999997E+02  0.45594000000E+02  0.51100000000E-03 0.  1.
    9900012    2    1    2    0    0 -0.15639459070E+02 -0.31488372346E+02 -0.25446275949E+02  0.47787271519E+02  0.20000002165E+02 0.  0.
         12    1    1    2    0    0  0.15639459070E+02  0.31488372346E+02  0.25446275949E+02  0.43400728481E+02  0.00000000000E+00 0. -1.
         11    1    3    3    0    0 -0.19457550097E+02 -0.20588565681E+02 -0.17715001483E+02  0.33411174334E+02  0.51100000000E-03 0. -1.
        -11    1    3    3    0    0  0.32604442499E+01 -0.96518561835E+01 -0.50592324887E+01  0.11374737717E+02  0.51100000000E-03 0.  1.
         12    1    3    3    0    0  0.55764677642E+00 -0.12479504809E+01 -0.26720419772E+01  0.30013594683E+01  0.00000000000E+00 0. -1.
</event>
<event>
 7    1  0.6622189E-010  0.4778728E+02  0.7816164E-02  0.1312668E+00
        -11   -1    0    0    0    0  0.00000000000E+00  0.00000000000E+00  0.45593999997E+02  0.45594000000E+02  0.51100000000E-03 0. -1.
         11   -1    0    0    0    0 -0.00000000000E+00 -0.00000000000E+00 -0.45593999997E+02  0.45594000000E+02  0.51100000000E-03 0.  1.
    9900012    2    1    2    0    0  0.16798677871E+02 -0.32451078530E+02 -0.23416973207E+02  0.47787277539E+02  0.20000029611E+02 0.  0.
         12    1    1    2    0    0 -0.16798677871E+02  0.32451078530E+02  0.23416973207E+02  0.43400722461E+02  0.00000000000E+00 0. -1.
         11    1    3    3    0    0 -0.78751225696E+00 -0.19463839198E+02 -0.13487033916E+02  0.23693064301E+02  0.51100000000E-03 0. -1.
        -11    1    3    3    0    0  0.12197511562E+02 -0.99293298259E+01 -0.76751911313E+01  0.17500841073E+02  0.51100000000E-03 0.  1.
         12    1    3    3    0    0  0.53886785659E+01 -0.30579095060E+01 -0.22547481598E+01  0.65933721644E+01  0.00000000000E+00 0. -1.
</event>
<event>
 7    1  0.6622189E-010  0.4778727E+02  0.7816164E-02  0.1312668E+00
        -11   -1    0    0    0    0  0.00000000000E+00  0.00000000000E+00  0.45593999997E+02  0.45594000000E+02  0.51100000000E-03 0. -1.
         11   -1    0    0    0    0 -0.00000000000E+00 -0.00000000000E+00 -0.45593999997E+02  0.45594000000E+02  0.51100000000E-03 0.  1.
    9900012    2    1    2    0    0  0.26095770484E+01  0.20538002847E+02  0.38144514870E+02  0.47787268808E+02  0.19999989805E+02 0.  0.
        -12    1    1    2    0    0 -0.26095770484E+01 -0.20538002847E+02 -0.38144514870E+02  0.43400731192E+02  0.00000000000E+00 0.  1.
         11    1    3    3    0    0  0.11189353856E+01  0.70404011577E+01  0.95326266999E+00  0.71922162674E+01  0.51100000000E-03 0.  1.
        -11    1    3    3    0    0  0.46063960556E+00  0.11600343228E+02  0.18928451039E+02  0.22205098758E+02  0.51100000000E-03 0. -1.
         12    1    3    3    0    0  0.10300020572E+01  0.18972584613E+01  0.18262801160E+02  0.18389953783E+02  0.00000000000E+00 0. -1.
</event>
<event>
 7    1  0.6622189E-010  0.4778726E+02  0.7816164E-02  0.1312668E+00
        -11   -1    0    0    0    0  0.00000000000E+00  0.00000000000E+00  0.45593999997E+02  0.45594000000E+02  0.51100000000E-03 0. -1.
         11   -1    0    0    0    0 -0.00000000000E+00 -0.00000000000E+00 -0.45593999997E+02  0.45594000000E+02  0.51100000000E-03 0.  1.
    9900012    2    1    2    0    0  0.11041698735E+02  0.20004303005E+02 -0.36898953005E+02  0.47787262880E+02  0.19999962777E+02 0.  0.
         12    1    1    2    0    0 -0.11041698735E+02 -0.20004303005E+02  0.36898953005E+02  0.43400737120E+02  0.00000000000E+00 0. -1.
         11    1    3    3    0    0 -0.50892373031E+01  0.43159666326E+01 -0.56531982048E+01  0.87456591807E+01  0.51100000000E-03 0. -1.
        -11    1    3    3    0    0  0.11981615312E+02  0.73676813870E+01 -0.19981188189E+02  0.24435419297E+02  0.51100000000E-03 0.  1.
         12    1    3    3    0    0  0.41493207263E+01  0.83206549849E+01 -0.11264566611E+02  0.14606184403E+02  0.00000000000E+00 0. -1.
</event>
<event>
 7    1  0.6622189E-010  0.4778728E+02  0.7816164E-02  0.1312668E+00
        -11   -1    0    0    0    0  0.00000000000E+00  0.00000000000E+00  0.45593999997E+02  0.45594000000E+02  0.51100000000E-03 0.  1.
         11   -1    0    0    0    0 -0.00000000000E+00 -0.00000000000E+00 -0.45593999997E+02  0.45594000000E+02  0.51100000000E-03 0. -1.
    9900012    2    1    2    0    0  0.21485937768E+02 -0.21982037543E+02  0.30639307105E+02  0.47787278391E+02  0.20000033496E+02 0.  0.
        -12    1    1    2    0    0 -0.21485937768E+02  0.21982037543E+02 -0.30639307105E+02  0.43400721609E+02  0.00000000000E+00 0.  1.
         11    1    3    3    0    0  0.71768220199E+01 -0.43706610070E+01  0.73157506748E+01  0.11141349117E+02  0.51100000000E-03 0. -1.
        -11    1    3    3    0    0  0.14481806687E+02 -0.52068059278E+01  0.95623788643E+01  0.18118295800E+02  0.51100000000E-03 0.  1.
        -12    1    3    3    0    0 -0.17269093985E+00 -0.12404570609E+02  0.13761177566E+02  0.18527633474E+02  0.00000000000E+00 0.  1.
</event>
<event>
 7    1  0.6622189E-010  0.4778727E+02  0.7816164E-02  0.1312668E+00
        -11   -1    0    0    0    0  0.00000000000E+00  0.00000000000E+00  0.45593999997E+02  0.45594000000E+02  0.51100000000E-03 0. -1.
         11   -1    0    0    0    0 -0.00000000000E+00 -0.00000000000E+00 -0.45593999997E+02  0.45594000000E+02  0.51100000000E-03 0.  1.
    9900012    2    1    2    0    0  0.13533437295E+02 -0.38770699296E+02  0.14046428737E+02  0.47787271790E+02  0.20000003399E+02 0.  0.
        -12    1    1    2    0    0 -0.13533437295E+02  0.38770699296E+02 -0.14046428737E+02  0.43400728210E+02  0.00000000000E+00 0.  1.
         11    1    3    3    0    0 -0.76876259898E+00 -0.18834639988E+02  0.43781623191E+01  0.19352079086E+02  0.51100000000E-03 0. -1.
        -11    1    3    3    0    0  0.13896568630E+02 -0.15983494408E+02  0.40654654721E+01  0.21566518563E+02  0.51100000000E-03 0.  1.
         12    1    3    3    0    0  0.40563126408E+00 -0.39525649003E+01  0.56028009460E+01  0.68686741409E+01  0.00000000000E+00 0. -1.
</event>
<event>
 7    1  0.6622189E-010  0.4778727E+02  0.7816164E-02  0.1312668E+00
        -11   -1    0    0    0    0  0.00000000000E+00  0.00000000000E+00  0.45593999997E+02  0.45594000000E+02  0.51100000000E-03 0. -1.
         11   -1    0    0    0    0 -0.00000000000E+00 -0.00000000000E+00 -0.45593999997E+02  0.45594000000E+02  0.51100000000E-03 0.  1.
    9900012    2    1    2    0    0 -0.55745414566E+01  0.18069892638E+02 -0.39064395846E+02  0.47787267803E+02  0.19999985221E+02 0.  0.
         12    1    1    2    0    0  0.55745414566E+01 -0.18069892638E+02  0.39064395846E+02  0.43400732197E+02  0.00000000000E+00 0. -1.
         11    1    3    3    0    0 -0.44761419222E+00 -0.32588041282E+01 -0.13791591843E+01  0.35668253570E+01  0.51100000000E-03 0. -1.
        -11    1    3    3    0    0 -0.15339958133E+01  0.83619772785E+01 -0.21820540332E+02  0.23418193521E+02  0.51100000000E-03 0.  1.
         12    1    3    3    0    0 -0.35929314510E+01  0.12966719488E+02 -0.15864696330E+02  0.20802248925E+02  0.00000000000E+00 0. -1.
</event>
<event>
 7    1  0.6622189E-010  0.4778727E+02  0.7816164E-02  0.1312668E+00
        -11   -1    0    0    0    0  0.00000000000E+00  0.00000000000E+00  0.45593999997E+02  0.45594000000E+02  0.51100000000E-03 0. -1.
         11   -1    0    0    0    0 -0.00000000000E+00 -0.00000000000E+00 -0.45593999997E+02  0.45594000000E+02  0.51100000000E-03 0.  1.
    9900012    2    1    2    0    0 -0.25461842905E+02  0.26739267487E+01 -0.35045222872E+02  0.47787274493E+02  0.20000015723E+02 0.  0.
         12    1    1    2    0    0  0.25461842905E+02 -0.26739267487E+01  0.35045222872E+02  0.43400725507E+02  0.00000000000E+00 0. -1.
         11    1    3    3    0    0 -0.70884622830E+01 -0.52849944427E+01 -0.15032911022E+02  0.17440351999E+02  0.51100000000E-03 0. -1.
        -11    1    3    3    0    0 -0.40394061342E+01  0.59136951894E+01 -0.24134732225E+01  0.75573438434E+01  0.51100000000E-03 0.  1.
        -12    1    3    3    0    0 -0.14333974488E+02  0.20452260021E+01 -0.17598838628E+02  0.22789578650E+02  0.00000000000E+00 0.  1.
</event>
<event>
 7    1  0.6622189E-010  0.4778727E+02  0.7816164E-02  0.1312668E+00
        -11   -1    0    0    0    0  0.00000000000E+00  0.00000000000E+00  0.45593999997E+02  0.45594000000E+02  0.51100000000E-03 0. -1.
         11   -1    0    0    0    0 -0.00000000000E+00 -0.00000000000E+00 -0.45593999997E+02  0.45594000000E+02  0.51100000000E-03 0.  1.
    9900012    2    1    2    0    0  0.19505449646E+02 -0.38128120856E+02 -0.70290229422E+01  0.47787270405E+02  0.19999997083E+02 0.  0.
        -12    1    1    2    0    0 -0.19505449646E+02  0.38128120856E+02  0.70290229422E+01  0.43400729595E+02  0.00000000000E+00 0.  1.
         11    1    3    3    0    0  0.22281791186E+02 -0.25631245471E+02 -0.76601537419E+01  0.34815469528E+02  0.51100000000E-03 0. -1.
        -11    1    3    3    0    0 -0.80048889660E+00 -0.80023014196E+01  0.22606054531E+00  0.80454157204E+01  0.51100000000E-03 0.  1.
         12    1    3    3    0    0 -0.19758526435E+01 -0.44945739647E+01  0.40507025439E+00  0.49263851559E+01  0.00000000000E+00 0. -1.
</event>
<event>
 7    1  0.6622189E-010  0.4778727E+02  0.7816164E-02  0.1312668E+00
        -11   -1    0    0    0    0  0.00000000000E+00  0.00000000000E+00  0.45593999997E+02  0.45594000000E+02  0.51100000000E-03 0. -1.
         11   -1    0    0    0    0 -0.00000000000E+00 -0.00000000000E+00 -0.45593999997E+02  0.45594000000E+02  0.51100000000E-03 0.  1.
    9900012    2    1    2    0    0  0.18556682563E+02  0.38589309467E+02  0.70808100119E+01  0.47787272549E+02  0.20000006858E+02 0.  0.
        -12    1    1    2    0    0 -0.18556682563E+02 -0.38589309467E+02 -0.70808100119E+01  0.43400727451E+02  0.00000000000E+00 0.  1.
         11    1    3    3    0    0  0.31284543954E+01  0.15091990947E+02  0.96932367596E+01  0.18207532968E+02  0.51100000000E-03 0. -1.
        -11    1    3    3    0    0  0.18297927054E+01  0.82930111892E+01 -0.34447443822E+01  0.91645207212E+01  0.51100000000E-03 0.  1.
         12    1    3    3    0    0  0.13598435463E+02  0.15204307331E+02  0.83231763458E+00  0.20415218860E+02  0.00000000000E+00 0. -1.
</event>
<event>
 7    1  0.6622189E-010  0.4778728E+02  0.7816164E-02  0.1312668E+00
        -11   -1    0    0    0    0  0.00000000000E+00  0.00000000000E+00  0.45593999997E+02  0.45594000000E+02  0.51100000000E-03 0. -1.
         11   -1    0    0    0    0 -0.00000000000E+00 -0.00000000000E+00 -0.45593999997E+02  0.45594000000E+02  0.51100000000E-03 0.  1.
    9900012    2    1    2    0    0 -0.24881521724E+01 -0.56432562087E+01  0.42960277735E+02  0.47787277599E+02  0.20000029883E+02 0.  0.
        -12    1    1    2    0    0  0.24881521724E+01  0.56432562087E+01 -0.42960277735E+02  0.43400722401E+02  0.00000000000E+00 0.  1.
         11    1    3    3    0    0 -0.67873419765E+00  0.10113459444E+01  0.31396779062E+02  0.31420395230E+02  0.51100000000E-03 0. -1.
        -11    1    3    3    0    0 -0.98021340337E+00 -0.42539788033E+01  0.12813081572E+02  0.13536329399E+02  0.51100000000E-03 0.  1.
         12    1    3    3    0    0 -0.82920457137E+00 -0.24006233498E+01 -0.12495828984E+01  0.28305529688E+01  0.00000000000E+00 0. -1.
</event>
<event>
 7    1  0.6622189E-010  0.4778727E+02  0.7816164E-02  0.1312668E+00
        -11   -1    0    0    0    0  0.00000000000E+00  0.00000000000E+00  0.45593999997E+02  0.45594000000E+02  0.51100000000E-03 0. -1.
         11   -1    0    0    0    0 -0.00000000000E+00 -0.00000000000E+00 -0.45593999997E+02  0.45594000000E+02  0.51100000000E-03 0.  1.
    9900012    2    1    2    0    0 -0.22011709239E+01  0.42545289626E+02 -0.82871346493E+01  0.47787269321E+02  0.19999992142E+02 0.  0.
         12    1    1    2    0    0  0.22011709239E+01 -0.42545289626E+02  0.82871346493E+01  0.43400730679E+02  0.00000000000E+00 0. -1.
         11    1    3    3    0    0  0.24058850646E+01  0.38450852483E+01  0.15147438470E+01  0.47819883620E+01  0.51100000000E-03 0. -1.
        -11    1    3    3    0    0 -0.18143039123E+01  0.18343231893E+02  0.31731920840E+01  0.18703876690E+02  0.51100000000E-03 0.  1.
        -12    1    3    3    0    0 -0.27927520762E+01  0.20356972484E+02 -0.12975070580E+02  0.24301404269E+02  0.00000000000E+00 0.  1.
</event>
<event>
 7    1  0.6622189E-010  0.4778727E+02  0.7816164E-02  0.1312668E+00
        -11   -1    0    0    0    0  0.00000000000E+00  0.00000000000E+00  0.45593999997E+02  0.45594000000E+02  0.51100000000E-03 0. -1.
         11   -1    0    0    0    0 -0.00000000000E+00 -0.00000000000E+00 -0.45593999997E+02  0.45594000000E+02  0.51100000000E-03 0.  1.
    9900012    2    1    2    0    0  0.14645979655E+02  0.58190161747E+00 -0.40850702051E+02  0.47787272038E+02  0.20000004531E+02 0.  0.
         12    1    1    2    0    0 -0.14645979655E+02 -0.58190161747E+00  0.40850702051E+02  0.43400727962E+02  0.00000000000E+00 0. -1.
         11    1    3    3    0    0  0.51386074053E+01  0.59835055245E+01 -0.33020574308E+02  0.33949461738E+02  0.51100000000E-03 0. -1.
        -11    1    3    3    0    0  0.53823213875E+01 -0.47385824560E+01 -0.42507489038E+01  0.83362109927E+01  0.51100000000E-03 0.  1.
         12    1    3    3    0    0  0.41250508623E+01 -0.66302145106E+00 -0.35793788396E+01  0.55015993073E+01  0.00000000000E+00 0. -1.
</event>
<event>
 7    1  0.6622189E-010  0.4778727E+02  0.7816164E-02  0.1312668E+00
        -11   -1    0    0    0    0  0.00000000000E+00  0.00000000000E+00  0.45593999997E+02  0.45594000000E+02  0.51100000000E-03 0. -1.
         11   -1    0    0    0    0 -0.00000000000E+00 -0.00000000000E+00 -0.45593999997E+02  0.45594000000E+02  0.51100000000E-03 0.  1.
    9900012    2    1    2    0    0 -0.23370120216E+02 -0.15281686496E+02  0.33225453505E+02  0.47787271646E+02  0.20000002742E+02 0.  0.
        -12    1    1    2    0    0  0.23370120216E+02  0.15281686496E+02 -0.33225453505E+02  0.43400728354E+02  0.00000000000E+00 0.  1.
         11    1    3    3    0    0 -0.16945506875E+02 -0.15278986196E+02  0.32180651714E+02  0.39448599055E+02  0.51100000000E-03 0. -1.
        -11    1    3    3    0    0 -0.22220840374E+01  0.11379491202E+01 -0.18521152566E+01  0.31085232594E+01  0.51100000000E-03 0.  1.
         12    1    3    3    0    0 -0.42025293033E+01 -0.11406494198E+01  0.28969170478E+01  0.52301493312E+01  0.00000000000E+00 0. -1.
</event>
<event>
 7    1  0.6622189E-010  0.4778727E+02  0.7816164E-02  0.1312668E+00
        -11   -1    0    0    0    0  0.00000000000E+00  0.00000000000E+00  0.45593999997E+02  0.45594000000E+02  0.51100000000E-03 0. -1.
         11   -1    0    0    0    0 -0.00000000000E+00 -0.00000000000E+00 -0.45593999997E+02  0.45594000000E+02  0.51100000000E-03 0.  1.
    9900012    2    1    2    0    0 -0.27769316752E+02 -0.24907505894E+02 -0.22183425274E+02  0.47787272361E+02  0.20000006002E+02 0.  0.
         12    1    1    2    0    0  0.27769316752E+02  0.24907505894E+02  0.22183425274E+02  0.43400727639E+02  0.00000000000E+00 0. -1.
         11    1    3    3    0    0 -0.12088370921E+01  0.11884734611E+01 -0.39789285879E+00  0.17412855226E+01  0.51100000000E-03 0. -1.
        -11    1    3    3    0    0 -0.14921139446E+02 -0.75077637041E+01 -0.16516174510E+02  0.23490230712E+02  0.51100000000E-03 0.  1.
        -12    1    3    3    0    0 -0.11639340214E+02 -0.18588215651E+02 -0.52693579057E+01  0.22555756126E+02  0.00000000000E+00 0.  1.
</event>
<event>
 7    1  0.6622189E-010  0.4778727E+02  0.7816164E-02  0.1312668E+00
        -11   -1    0    0    0    0  0.00000000000E+00  0.00000000000E+00  0.45593999997E+02  0.45594000000E+02  0.51100000000E-03 0. -1.
         11   -1    0    0    0    0 -0.00000000000E+00 -0.00000000000E+00 -0.45593999997E+02  0.45594000000E+02  0.51100000000E-03 0.  1.
    9900012    2    1    2    0    0  0.24493649365E+02 -0.16059860274E+02 -0.32027567985E+02  0.47787273252E+02  0.20000010063E+02 0.  0.
         12    1    1    2    0    0 -0.24493649365E+02  0.16059860274E+02  0.32027567985E+02  0.43400726748E+02  0.00000000000E+00 0. -1.
         11    1    3    3    0    0  0.55206449118E+01 -0.73286610575E+00  0.14815265969E+01  0.57627714070E+01  0.51100000000E-03 0. -1.
        -11    1    3    3    0    0  0.17145047502E+02 -0.10286128997E+02 -0.26772353185E+02  0.33414308296E+02  0.51100000000E-03 0.  1.
        -12    1    3    3    0    0  0.18279569508E+01 -0.50408651706E+01 -0.67367413977E+01  0.86101935484E+01  0.00000000000E+00 0.  1.
</event>
<event>
 7    1  0.6622189E-010  0.4778728E+02  0.7816164E-02  0.1312668E+00
        -11   -1    0    0    0    0  0.00000000000E+00  0.00000000000E+00  0.45593999997E+02  0.45594000000E+02  0.51100000000E-03 0. -1.
         11   -1    0    0    0    0 -0.00000000000E+00 -0.00000000000E+00 -0.45593999997E+02  0.45594000000E+02  0.51100000000E-03 0.  1.
    9900012    2    1    2    0    0  0.48617795317E+01 -0.21809083157E+02 -0.37206852809E+02  0.47787275302E+02  0.20000019413E+02 0.  0.
         12    1    1    2    0    0 -0.48617795317E+01  0.21809083157E+02  0.37206852809E+02  0.43400724698E+02  0.00000000000E+00 0. -1.
         11    1    3    3    0    0 -0.50986069450E+01 -0.13806280310E+02 -0.12873315625E+02  0.19553297017E+02  0.51100000000E-03 0. -1.
        -11    1    3    3    0    0  0.10190498234E+02 -0.87964166078E+01 -0.22444047533E+02  0.26171711242E+02  0.51100000000E-03 0.  1.
        -12    1    3    3    0    0 -0.23011175755E+00  0.79361376034E+00 -0.18894896501E+01  0.20622670437E+01  0.00000000000E+00 0.  1.
</event>
<event>
 7    1  0.6622189E-010  0.4778727E+02  0.7816164E-02  0.1312668E+00
        -11   -1    0    0    0    0  0.00000000000E+00  0.00000000000E+00  0.45593999997E+02  0.45594000000E+02  0.51100000000E-03 0. -1.
         11   -1    0    0    0    0 -0.00000000000E+00 -0.00000000000E+00 -0.45593999997E+02  0.45594000000E+02  0.51100000000E-03 0.  1.
    9900012    2    1    2    0    0  0.20360800882E+01  0.40830448389E+02  0.14572308984E+02  0.47787270434E+02  0.19999997216E+02 0.  0.
        -12    1    1    2    0    0 -0.20360800882E+01 -0.40830448389E+02 -0.14572308984E+02  0.43400729566E+02  0.00000000000E+00 0.  1.
         11    1    3    3    0    0  0.44465095319E+01  0.13580929248E+02  0.26030843069E+01  0.14525465033E+02  0.51100000000E-03 0. -1.
        -11    1    3    3    0    0 -0.61943267296E+01  0.18659552169E+02  0.23149602667E+01  0.19796656588E+02  0.51100000000E-03 0.  1.
        -12    1    3    3    0    0  0.37838972858E+01  0.85899669725E+01  0.96542644100E+01  0.13465148813E+02  0.00000000000E+00 0.  1.
</event>
<event>
 7    1  0.6622189E-010  0.4778727E+02  0.7816164E-02  0.1312668E+00
        -11   -1    0    0    0    0  0.00000000000E+00  0.00000000000E+00  0.45593999997E+02  0.45594000000E+02  0.51100000000E-03 0.  1.
         11   -1    0    0    0    0 -0.00000000000E+00 -0.00000000000E+00 -0.45593999997E+02  0.45594000000E+02  0.51100000000E-03 0. -1.
    9900012    2    1    2    0    0  0.29243126445E+02  0.31908385987E+02  0.32122024993E+01  0.47787265151E+02  0.19999973128E+02 0.  0.
        -12    1    1    2    0    0 -0.29243126445E+02 -0.31908385987E+02 -0.32122024993E+01  0.43400734849E+02  0.00000000000E+00 0.  1.
         11    1    3    3    0    0  0.68422027720E+01  0.13839413713E+02  0.23129309512E+01  0.15610725817E+02  0.51100000000E-03 0. -1.
        -11    1    3    3    0    0  0.79731586575E+01 -0.11153630125E+01  0.13766381182E+01  0.81676450950E+01  0.51100000000E-03 0.  1.
        -12    1    3    3    0    0  0.14427765015E+02  0.19184335286E+02 -0.47736657014E+00  0.24008894238E+02  0.00000000000E+00 0.  1.
</event>
<event>
 7    1  0.6622189E-010  0.4778727E+02  0.7816164E-02  0.1312668E+00
        -11   -1    0    0    0    0  0.00000000000E+00  0.00000000000E+00  0.45593999997E+02  0.45594000000E+02  0.51100000000E-03 0. -1.
         11   -1    0    0    0    0 -0.00000000000E+00 -0.00000000000E+00 -0.45593999997E+02  0.45594000000E+02  0.51100000000E-03 0.  1.
    9900012    2    1    2    0    0  0.15841431052E+02  0.13452163838E+02 -0.38101333092E+02  0.47787271514E+02  0.20000002141E+02 0.  0.
         12    1    1    2    0    0 -0.15841431052E+02 -0.13452163838E+02  0.38101333092E+02  0.43400728486E+02  0.00000000000E+00 0. -1.
         11    1    3    3    0    0  0.92337064370E+01  0.31917363560E+01 -0.59936655292E+01  0.11461786173E+02  0.51100000000E-03 0. -1.
        -11    1    3    3    0    0  0.19299764485E+01  0.18606576582E+01 -0.22755214817E+02  0.22912587318E+02  0.51100000000E-03 0.  1.
         12    1    3    3    0    0  0.46777481669E+01  0.83997698237E+01 -0.93524527465E+01  0.13412898023E+02  0.00000000000E+00 0. -1.
</event>
<event>
 7    1  0.6622189E-010  0.4778727E+02  0.7816164E-02  0.1312668E+00
        -11   -1    0    0    0    0  0.00000000000E+00  0.00000000000E+00  0.45593999997E+02  0.45594000000E+02  0.51100000000E-03 0.  1.
         11   -1    0    0    0    0 -0.00000000000E+00 -0.00000000000E+00 -0.45593999997E+02  0.45594000000E+02  0.51100000000E-03 0. -1.
    9900012    2    1    2    0    0 -0.16238175138E+02 -0.28154445604E+02  0.28762340404E+02  0.47787269999E+02  0.19999995232E+02 0.  0.
        -12    1    1    2    0    0  0.16238175138E+02  0.28154445604E+02 -0.28762340404E+02  0.43400730001E+02  0.00000000000E+00 0.  1.
         11    1    3    3    0    0 -0.48465500195E+01 -0.14168706055E+02  0.51735111318E+01  0.15843184530E+02  0.51100000000E-03 0. -1.
        -11    1    3    3    0    0 -0.13813789039E+02 -0.12026606690E+02  0.18934747387E+02  0.26343589257E+02  0.51100000000E-03 0.  1.
         12    1    3    3    0    0  0.24221639200E+01 -0.19591328601E+01  0.46540818860E+01  0.56004962120E+01  0.00000000000E+00 0. -1.
</event>
<event>
 7    1  0.6622189E-010  0.4778727E+02  0.7816164E-02  0.1312668E+00
        -11   -1    0    0    0    0  0.00000000000E+00  0.00000000000E+00  0.45593999997E+02  0.45594000000E+02  0.51100000000E-03 0. -1.
         11   -1    0    0    0    0 -0.00000000000E+00 -0.00000000000E+00 -0.45593999997E+02  0.45594000000E+02  0.51100000000E-03 0.  1.
    9900012    2    1    2    0    0 -0.21717496421E+02  0.18310868977E+02  0.32812887999E+02  0.47787271984E+02  0.20000004282E+02 0.  0.
        -12    1    1    2    0    0  0.21717496421E+02 -0.18310868977E+02 -0.32812887999E+02  0.43400728016E+02  0.00000000000E+00 0.  1.
         11    1    3    3    0    0 -0.74402149434E+01  0.12376661966E+02  0.12916282542E+02  0.19374439729E+02  0.51100000000E-03 0. -1.
        -11    1    3    3    0    0 -0.11230483629E+02  0.22080618266E+01  0.20582712385E+02  0.23550952188E+02  0.51100000000E-03 0.  1.
        -12    1    3    3    0    0 -0.30467978489E+01  0.37261451841E+01 -0.68610692835E+00  0.48618800667E+01  0.00000000000E+00 0.  1.
</event>
<event>
 7    1  0.6622189E-010  0.4778727E+02  0.7816164E-02  0.1312668E+00
        -11   -1    0    0    0    0  0.00000000000E+00  0.00000000000E+00  0.45593999997E+02  0.45594000000E+02  0.51100000000E-03 0. -1.
         11   -1    0    0    0    0 -0.00000000000E+00 -0.00000000000E+00 -0.45593999997E+02  0.45594000000E+02  0.51100000000E-03 0.  1.
    9900012    2    1    2    0    0  0.11840529527E+02  0.34849514238E+01 -0.41608659540E+02  0.47787267580E+02  0.19999984204E+02 0.  0.
         12    1    1    2    0    0 -0.11840529527E+02 -0.34849514238E+01  0.41608659540E+02  0.43400732420E+02  0.00000000000E+00 0. -1.
         11    1    3    3    0    0  0.66594786758E+01  0.79087256697E+01 -0.84888360715E+01  0.13377478689E+02  0.51100000000E-03 0. -1.
        -11    1    3    3    0    0  0.64790293614E+01 -0.46305090672E+01 -0.29600572016E+02  0.30653112397E+02  0.51100000000E-03 0.  1.
        -12    1    3    3    0    0 -0.12979785102E+01  0.20673482132E+00 -0.35192514527E+01  0.37566764948E+01  0.00000000000E+00 0.  1.
</event>
<event>
 7    1  0.6622189E-010  0.4778727E+02  0.7816164E-02  0.1312668E+00
        -11   -1    0    0    0    0  0.00000000000E+00  0.00000000000E+00  0.45593999997E+02  0.45594000000E+02  0.51100000000E-03 0. -1.
         11   -1    0    0    0    0 -0.00000000000E+00 -0.00000000000E+00 -0.45593999997E+02  0.45594000000E+02  0.51100000000E-03 0.  1.
    9900012    2    1    2    0    0  0.36767221019E+02 -0.15260048763E+02 -0.17289474450E+02  0.47787267789E+02  0.19999985155E+02 0.  0.
         12    1    1    2    0    0 -0.36767221019E+02  0.15260048763E+02  0.17289474450E+02  0.43400732211E+02  0.00000000000E+00 0. -1.
         11    1    3    3    0    0  0.72767371576E+01 -0.45674952088E+01 -0.13583475895E+02  0.16072452638E+02  0.51100000000E-03 0. -1.
        -11    1    3    3    0    0  0.25460912221E+02 -0.81917782270E+01 -0.34147440011E+01  0.26963378099E+02  0.51100000000E-03 0.  1.
         12    1    3    3    0    0  0.40295716402E+01 -0.25007753269E+01 -0.29125455416E+00  0.47514370515E+01  0.00000000000E+00 0. -1.
</event>
<event>
 7    1  0.6622189E-010  0.4778727E+02  0.7816164E-02  0.1312668E+00
        -11   -1    0    0    0    0  0.00000000000E+00  0.00000000000E+00  0.45593999997E+02  0.45594000000E+02  0.51100000000E-03 0. -1.
         11   -1    0    0    0    0 -0.00000000000E+00 -0.00000000000E+00 -0.45593999997E+02  0.45594000000E+02  0.51100000000E-03 0.  1.
    9900012    2    1    2    0    0 -0.48335688022E+01 -0.31549945719E+02  0.29408517031E+02  0.47787270326E+02  0.19999996725E+02 0.  0.
        -12    1    1    2    0    0  0.48335688022E+01  0.31549945719E+02 -0.29408517031E+02  0.43400729674E+02  0.00000000000E+00 0.  1.
         11    1    3    3    0    0 -0.32155462815E+01 -0.12292286257E+02  0.66679793738E+01  0.14349285296E+02  0.51100000000E-03 0. -1.
        -11    1    3    3    0    0 -0.23629253229E+01 -0.11893237988E+02  0.31975825292E+01  0.12540217710E+02  0.51100000000E-03 0.  1.
        -12    1    3    3    0    0  0.74490280215E+00 -0.73644214744E+01  0.19542955128E+02  0.20897767320E+02  0.00000000000E+00 0.  1.
</event>
<event>
 7    1  0.6622189E-010  0.4778727E+02  0.7816164E-02  0.1312668E+00
        -11   -1    0    0    0    0  0.00000000000E+00  0.00000000000E+00  0.45593999997E+02  0.45594000000E+02  0.51100000000E-03 0.  1.
         11   -1    0    0    0    0 -0.00000000000E+00 -0.00000000000E+00 -0.45593999997E+02  0.45594000000E+02  0.51100000000E-03 0. -1.
    9900012    2    1    2    0    0  0.21533548294E+02  0.36550735631E+02 -0.91636938730E+01  0.47787271173E+02  0.20000000587E+02 0.  0.
        -12    1    1    2    0    0 -0.21533548294E+02 -0.36550735631E+02  0.91636938730E+01  0.43400728827E+02  0.00000000000E+00 0.  1.
         11    1    3    3    0    0  0.56452743650E+01  0.24422673169E+02 -0.69367840611E-01  0.25066728936E+02  0.51100000000E-03 0. -1.
        -11    1    3    3    0    0  0.10123339020E+02  0.66681392548E+01 -0.24501518032E+01  0.12367268015E+02  0.51100000000E-03 0.  1.
         12    1    3    3    0    0  0.57649349095E+01  0.54599232069E+01 -0.66441742291E+01  0.10353274222E+02  0.00000000000E+00 0. -1.
</event>
<event>
 7    1  0.6622189E-010  0.4778728E+02  0.7816164E-02  0.1312668E+00
        -11   -1    0    0    0    0  0.00000000000E+00  0.00000000000E+00  0.45593999997E+02  0.45594000000E+02  0.51100000000E-03 0. -1.
         11   -1    0    0    0    0 -0.00000000000E+00 -0.00000000000E+00 -0.45593999997E+02  0.45594000000E+02  0.51100000000E-03 0.  1.
    9900012    2    1    2    0    0 -0.25317950582E+02 -0.15512697662E+02 -0.31654073346E+02  0.47787276852E+02  0.20000026477E+02 0.  0.
         12    1    1    2    0    0  0.25317950582E+02  0.15512697662E+02  0.31654073346E+02  0.43400723148E+02  0.00000000000E+00 0. -1.
         11    1    3    3    0    0 -0.24795674068E+02 -0.12286853003E+02 -0.16464399906E+02  0.32200445242E+02  0.51100000000E-03 0. -1.
        -11    1    3    3    0    0 -0.92742477669E+00 -0.19905269542E+01 -0.94774720370E+01  0.97285554295E+01  0.51100000000E-03 0.  1.
         12    1    3    3    0    0  0.40514826301E+00 -0.12353177048E+01 -0.57122014023E+01  0.58582761805E+01  0.00000000000E+00 0. -1.
</event>
<event>
 7    1  0.6622189E-010  0.4778727E+02  0.7816164E-02  0.1312668E+00
        -11   -1    0    0    0    0  0.00000000000E+00  0.00000000000E+00  0.45593999997E+02  0.45594000000E+02  0.51100000000E-03 0. -1.
         11   -1    0    0    0    0 -0.00000000000E+00 -0.00000000000E+00 -0.45593999997E+02  0.45594000000E+02  0.51100000000E-03 0.  1.
    9900012    2    1    2    0    0 -0.22723874485E+02  0.33322556512E+02  0.16026731893E+02  0.47787269830E+02  0.19999994463E+02 0.  0.
        -12    1    1    2    0    0  0.22723874485E+02 -0.33322556512E+02 -0.16026731893E+02  0.43400730170E+02  0.00000000000E+00 0.  1.
         11    1    3    3    0    0 -0.21890978339E+01 -0.11730706813E+01 -0.16218396054E+01  0.29662447836E+01  0.51100000000E-03 0.  1.
        -11    1    3    3    0    0 -0.20471817247E+02  0.30613593144E+02  0.13727794086E+02  0.39303176936E+02  0.51100000000E-03 0. -1.
        -12    1    3    3    0    0 -0.62959404799E-01  0.38820340495E+01  0.39207774125E+01  0.55178481102E+01  0.00000000000E+00 0.  1.
</event>
<event>
 7    1  0.6622189E-010  0.4778727E+02  0.7816164E-02  0.1312668E+00
        -11   -1    0    0    0    0  0.00000000000E+00  0.00000000000E+00  0.45593999997E+02  0.45594000000E+02  0.51100000000E-03 0.  1.
         11   -1    0    0    0    0 -0.00000000000E+00 -0.00000000000E+00 -0.45593999997E+02  0.45594000000E+02  0.51100000000E-03 0. -1.
    9900012    2    1    2    0    0  0.20263652012E+02  0.38302425224E+02 -0.24356003398E+01  0.47787268210E+02  0.19999987074E+02 0.  0.
         12    1    1    2    0    0 -0.20263652012E+02 -0.38302425224E+02  0.24356003398E+01  0.43400731790E+02  0.00000000000E+00 0. -1.
         11    1    3    3    0    0  0.10966595340E+02  0.25641014304E+02  0.26999918264E+01  0.28018168820E+02  0.51100000000E-03 0.  1.
        -11    1    3    3    0    0  0.42253331448E+01  0.10220310605E+02 -0.78084393679E+01  0.13538091249E+02  0.51100000000E-03 0. -1.
        -12    1    3    3    0    0  0.50717235269E+01  0.24411003154E+01  0.26728472017E+01  0.62310081405E+01  0.00000000000E+00 0.  1.
</event>
<event>
 7    1  0.6622189E-010  0.4778727E+02  0.7816164E-02  0.1312668E+00
        -11   -1    0    0    0    0  0.00000000000E+00  0.00000000000E+00  0.45593999997E+02  0.45594000000E+02  0.51100000000E-03 0. -1.
         11   -1    0    0    0    0 -0.00000000000E+00 -0.00000000000E+00 -0.45593999997E+02  0.45594000000E+02  0.51100000000E-03 0.  1.
    9900012    2    1    2    0    0  0.12858622931E+02 -0.11499630791E+02  0.39825093726E+02  0.47787265187E+02  0.19999973295E+02 0.  0.
        -12    1    1    2    0    0 -0.12858622931E+02  0.11499630791E+02 -0.39825093726E+02  0.43400734813E+02  0.00000000000E+00 0.  1.
         11    1    3    3    0    0  0.12741774509E+01  0.31388953462E+00 -0.17965785587E+01  0.22248032711E+01  0.51100000000E-03 0. -1.
        -11    1    3    3    0    0  0.47777876892E+01 -0.42392755616E-01  0.13624495940E+02  0.14438003402E+02  0.51100000000E-03 0.  1.
         12    1    3    3    0    0  0.68066577904E+01 -0.11771127570E+02  0.27997176344E+02  0.31124458514E+02  0.00000000000E+00 0. -1.
</event>
<event>
 7    1  0.6622189E-010  0.4778727E+02  0.7816164E-02  0.1312668E+00
        -11   -1    0    0    0    0  0.00000000000E+00  0.00000000000E+00  0.45593999997E+02  0.45594000000E+02  0.51100000000E-03 0. -1.
         11   -1    0    0    0    0 -0.00000000000E+00 -0.00000000000E+00 -0.45593999997E+02  0.45594000000E+02  0.51100000000E-03 0.  1.
    9900012    2    1    2    0    0  0.14343401445E+02  0.21352969565E+02  0.34956266954E+02  0.47787273352E+02  0.20000010521E+02 0.  0.
        -12    1    1    2    0    0 -0.14343401445E+02 -0.21352969565E+02 -0.34956266954E+02  0.43400726648E+02  0.00000000000E+00 0.  1.
         11    1    3    3    0    0  0.11685180561E+02  0.69738204094E+01  0.16765042338E+02  0.21592689983E+02  0.51100000000E-03 0. -1.
        -11    1    3    3    0    0 -0.18827785125E+01  0.93197175684E+01  0.37270696506E+01  0.10212396336E+02  0.51100000000E-03 0.  1.
         12    1    3    3    0    0  0.45409993958E+01  0.50594315870E+01  0.14464154965E+02  0.15982187033E+02  0.00000000000E+00 0. -1.
</event>
<event>
 7    1  0.6622189E-010  0.4778727E+02  0.7816164E-02  0.1312668E+00
        -11   -1    0    0    0    0  0.00000000000E+00  0.00000000000E+00  0.45593999997E+02  0.45594000000E+02  0.51100000000E-03 0.  1.
         11   -1    0    0    0    0 -0.00000000000E+00 -0.00000000000E+00 -0.45593999997E+02  0.45594000000E+02  0.51100000000E-03 0. -1.
    9900012    2    1    2    0    0  0.20646808400E+01  0.42636213412E+02  0.78430773653E+01  0.47787268859E+02  0.19999990034E+02 0.  0.
        -12    1    1    2    0    0 -0.20646808400E+01 -0.42636213412E+02 -0.78430773653E+01  0.43400731141E+02  0.00000000000E+00 0.  1.
         11    1    3    3    0    0 -0.99127764229E+00  0.24487851139E+01  0.61974000181E+01  0.67369835345E+01  0.51100000000E-03 0.  1.
        -11    1    3    3    0    0  0.15244646560E+01  0.38623297859E+01  0.21783648606E+01  0.46890145648E+01  0.51100000000E-03 0. -1.
         12    1    3    3    0    0  0.15314938263E+01  0.36325098512E+02 -0.53268751349E+00  0.36361270759E+02  0.00000000000E+00 0. -1.
</event>
<event>
 7    1  0.6622189E-010  0.4778727E+02  0.7816164E-02  0.1312668E+00
        -11   -1    0    0    0    0  0.00000000000E+00  0.00000000000E+00  0.45593999997E+02  0.45594000000E+02  0.51100000000E-03 0. -1.
         11   -1    0    0    0    0 -0.00000000000E+00 -0.00000000000E+00 -0.45593999997E+02  0.45594000000E+02  0.51100000000E-03 0.  1.
    9900012    2    1    2    0    0 -0.27083062807E+02  0.24932445762E+02 -0.22989227068E+02  0.47787266091E+02  0.19999977415E+02 0.  0.
         12    1    1    2    0    0  0.27083062807E+02 -0.24932445762E+02  0.22989227068E+02  0.43400733909E+02  0.00000000000E+00 0. -1.
         11    1    3    3    0    0 -0.10730500244E+02 -0.16034683880E+00 -0.61630333958E+01  0.12375472819E+02  0.51100000000E-03 0. -1.
        -11    1    3    3    0    0 -0.97754908051E+01  0.20470627010E+02 -0.14915014740E+02  0.27148931022E+02  0.51100000000E-03 0.  1.
        -12    1    3    3    0    0 -0.65770717580E+01  0.46221655904E+01 -0.19111789318E+01  0.82628622501E+01  0.00000000000E+00 0.  1.
</event>
<event>
 7    1  0.6892583E-010  0.4778727E+02  0.7816164E-02  0.1312668E+00
        -11   -1    0    0    0    0  0.00000000000E+00  0.00000000000E+00  0.45593999997E+02  0.45594000000E+02  0.51100000000E-03 0. -1.
         11   -1    0    0    0    0 -0.00000000000E+00 -0.00000000000E+00 -0.45593999997E+02  0.45594000000E+02  0.51100000000E-03 0.  1.
    9900012    2    1    2    0    0 -0.56096567154E+01  0.27934468704E+00 -0.43035762053E+02  0.47787273078E+02  0.20000009271E+02 0.  0.
         12    1    1    2    0    0  0.56096567154E+01 -0.27934468704E+00  0.43035762053E+02  0.43400726922E+02  0.00000000000E+00 0. -1.
         11    1    3    3    0    0  0.13564912710E+01 -0.35178355310E+01 -0.97495827881E+01  0.10453210043E+02  0.51100000000E-03 0. -1.
        -11    1    3    3    0    0 -0.76294575546E+01  0.14439110332E+01 -0.33928853772E+02  0.34806042869E+02  0.51100000000E-03 0.  1.
        -12    1    3    3    0    0  0.66330956823E+00  0.23532691848E+01  0.64267450711E+00  0.25280201664E+01  0.00000000000E+00 0.  1.
</event>
<event>
 7    1  0.6622189E-010  0.4778727E+02  0.7816164E-02  0.1312668E+00
        -11   -1    0    0    0    0  0.00000000000E+00  0.00000000000E+00  0.45593999997E+02  0.45594000000E+02  0.51100000000E-03 0. -1.
         11   -1    0    0    0    0 -0.00000000000E+00 -0.00000000000E+00 -0.45593999997E+02  0.45594000000E+02  0.51100000000E-03 0.  1.
    9900012    2    1    2    0    0 -0.31986837297E+02 -0.28716923779E+02  0.59836010440E+01  0.47787274740E+02  0.20000016851E+02 0.  0.
        -12    1    1    2    0    0  0.31986837297E+02  0.28716923779E+02 -0.59836010440E+01  0.43400725260E+02  0.00000000000E+00 0.  1.
         11    1    3    3    0    0 -0.23280127243E+02 -0.10941032222E+02  0.98201832747E+01  0.27533734043E+02  0.51100000000E-03 0. -1.
        -11    1    3    3    0    0 -0.83672713902E+01 -0.15852310036E+02 -0.32818280306E+01  0.18222989861E+02  0.51100000000E-03 0.  1.
        -12    1    3    3    0    0 -0.33943866372E+00 -0.19235815214E+01 -0.55475420011E+00  0.20305508363E+01  0.00000000000E+00 0.  1.
</event>
<event>
 7    1  0.6622189E-010  0.4778727E+02  0.7816164E-02  0.1312668E+00
        -11   -1    0    0    0    0  0.00000000000E+00  0.00000000000E+00  0.45593999997E+02  0.45594000000E+02  0.51100000000E-03 0. -1.
         11   -1    0    0    0    0 -0.00000000000E+00 -0.00000000000E+00 -0.45593999997E+02  0.45594000000E+02  0.51100000000E-03 0.  1.
    9900012    2    1    2    0    0 -0.22894991117E+02 -0.22400189622E+02 -0.29286076241E+02  0.47787269880E+02  0.19999994692E+02 0.  0.
         12    1    1    2    0    0  0.22894991117E+02  0.22400189622E+02  0.29286076241E+02  0.43400730120E+02  0.00000000000E+00 0. -1.
         11    1    3    3    0    0 -0.12481278968E+02 -0.46977782456E+00 -0.84518154784E+01  0.15080988065E+02  0.51100000000E-03 0. -1.
        -11    1    3    3    0    0 -0.10827835628E+02 -0.21643359328E+02 -0.18897158219E+02  0.30704716517E+02  0.51100000000E-03 0.  1.
         12    1    3    3    0    0  0.41412347985E+00 -0.28705246980E+00 -0.19371025437E+01  0.20015652979E+01  0.00000000000E+00 0. -1.
</event>
<event>
 7    1  0.6622189E-010  0.4778728E+02  0.7816164E-02  0.1312668E+00
        -11   -1    0    0    0    0  0.00000000000E+00  0.00000000000E+00  0.45593999997E+02  0.45594000000E+02  0.51100000000E-03 0. -1.
         11   -1    0    0    0    0 -0.00000000000E+00 -0.00000000000E+00 -0.45593999997E+02  0.45594000000E+02  0.51100000000E-03 0.  1.
    9900012    2    1    2    0    0 -0.35387857514E+02 -0.11613793091E+02  0.22280981137E+02  0.47787276852E+02  0.20000026477E+02 0.  0.
        -12    1    1    2    0    0  0.35387857514E+02  0.11613793091E+02 -0.22280981137E+02  0.43400723148E+02  0.00000000000E+00 0.  1.
         11    1    3    3    0    0 -0.75369079619E+01 -0.55439089106E+01  0.65338309639E+01  0.11411873420E+02  0.51100000000E-03 0. -1.
        -11    1    3    3    0    0 -0.13584118375E+02 -0.12528544284E+01  0.16364316532E+02  0.21304665500E+02  0.51100000000E-03 0.  1.
        -12    1    3    3    0    0 -0.14266831177E+02 -0.48170297517E+01 -0.61716635940E+00  0.15070737931E+02  0.00000000000E+00 0.  1.
</event>
<event>
 7    1  0.6622189E-010  0.4778727E+02  0.7816164E-02  0.1312668E+00
        -11   -1    0    0    0    0  0.00000000000E+00  0.00000000000E+00  0.45593999997E+02  0.45594000000E+02  0.51100000000E-03 0. -1.
         11   -1    0    0    0    0 -0.00000000000E+00 -0.00000000000E+00 -0.45593999997E+02  0.45594000000E+02  0.51100000000E-03 0.  1.
    9900012    2    1    2    0    0  0.19670565432E+02 -0.27764322936E+02 -0.26941316910E+02  0.47787270405E+02  0.19999997085E+02 0.  0.
         12    1    1    2    0    0 -0.19670565432E+02  0.27764322936E+02  0.26941316910E+02  0.43400729595E+02  0.00000000000E+00 0. -1.
         11    1    3    3    0    0  0.12411738163E+02 -0.11553662873E+02 -0.33601606742E+01  0.17286672613E+02  0.51100000000E-03 0. -1.
        -11    1    3    3    0    0 -0.46768664425E+00 -0.38878656580E+01 -0.94161469142E+01  0.10197943574E+02  0.51100000000E-03 0.  1.
        -12    1    3    3    0    0  0.77265139132E+01 -0.12322794405E+02 -0.14165009321E+02  0.20302654218E+02  0.00000000000E+00 0.  1.
</event>
<event>
 7    1  0.6622189E-010  0.4778728E+02  0.7816164E-02  0.1312668E+00
        -11   -1    0    0    0    0  0.00000000000E+00  0.00000000000E+00  0.45593999997E+02  0.45594000000E+02  0.51100000000E-03 0. -1.
         11   -1    0    0    0    0 -0.00000000000E+00 -0.00000000000E+00 -0.45593999997E+02  0.45594000000E+02  0.51100000000E-03 0.  1.
    9900012    2    1    2    0    0  0.77174026329E+01 -0.25237154368E+02 -0.34455051657E+02  0.47787275943E+02  0.20000022333E+02 0.  0.
         12    1    1    2    0    0 -0.77174026329E+01  0.25237154368E+02  0.34455051657E+02  0.43400724057E+02  0.00000000000E+00 0. -1.
         11    1    3    3    0    0 -0.14310154807E+01  0.27851905641E+01 -0.42889699082E+01  0.53104006364E+01  0.51100000000E-03 0. -1.
        -11    1    3    3    0    0  0.74574607125E+01 -0.20873169929E+02 -0.19478399126E+02  0.29507812117E+02  0.51100000000E-03 0.  1.
         12    1    3    3    0    0  0.16909574012E+01 -0.71491750033E+01 -0.10687682623E+02  0.12969063189E+02  0.00000000000E+00 0. -1.
</event>
<event>
 7    1  0.6698112E-010  0.4778726E+02  0.7816164E-02  0.1312668E+00
        -11   -1    0    0    0    0  0.00000000000E+00  0.00000000000E+00  0.45593999997E+02  0.45594000000E+02  0.51100000000E-03 0.  1.
         11   -1    0    0    0    0 -0.00000000000E+00 -0.00000000000E+00 -0.45593999997E+02  0.45594000000E+02  0.51100000000E-03 0. -1.
    9900012    2    1    2    0    0 -0.26554186293E+02 -0.24327653356E+02 -0.24221154632E+02  0.47787264302E+02  0.19999969257E+02 0.  0.
         12    1    1    2    0    0  0.26554186293E+02  0.24327653356E+02  0.24221154632E+02  0.43400735698E+02  0.00000000000E+00 0. -1.
         11    1    3    3    0    0 -0.12185458540E+01  0.10323327802E+01 -0.20861353496E+01  0.26272658650E+01  0.51100000000E-03 0. -1.
        -11    1    3    3    0    0 -0.82293633841E+01 -0.40965059724E+01  0.11779148586E+01  0.92677541273E+01  0.51100000000E-03 0.  1.
        -12    1    3    3    0    0 -0.17106277055E+02 -0.21263480163E+02 -0.23312934141E+02  0.35892244309E+02  0.00000000000E+00 0.  1.
</event>
<event>
 7    1  0.6622189E-010  0.4778727E+02  0.7816164E-02  0.1312668E+00
        -11   -1    0    0    0    0  0.00000000000E+00  0.00000000000E+00  0.45593999997E+02  0.45594000000E+02  0.51100000000E-03 0. -1.
         11   -1    0    0    0    0 -0.00000000000E+00 -0.00000000000E+00 -0.45593999997E+02  0.45594000000E+02  0.51100000000E-03 0.  1.
    9900012    2    1    2    0    0  0.32156677175E+02  0.22678487743E+02  0.18310034802E+02  0.47787273420E+02  0.20000010831E+02 0.  0.
        -12    1    1    2    0    0 -0.32156677175E+02 -0.22678487743E+02 -0.18310034802E+02  0.43400726580E+02  0.00000000000E+00 0.  1.
         11    1    3    3    0    0  0.16151548602E+02  0.17152858693E+02  0.14967172223E+02  0.27912529950E+02  0.51100000000E-03 0. -1.
        -11    1    3    3    0    0  0.20331744321E+01  0.16330333948E-01 -0.29565674756E+01  0.35882246934E+01  0.51100000000E-03 0.  1.
        -12    1    3    3    0    0  0.13971954140E+02  0.55092987153E+01  0.62994300544E+01  0.16286518776E+02  0.00000000000E+00 0.  1.
</event>
<event>
 7    1  0.6622189E-010  0.4778726E+02  0.7816164E-02  0.1312668E+00
        -11   -1    0    0    0    0  0.00000000000E+00  0.00000000000E+00  0.45593999997E+02  0.45594000000E+02  0.51100000000E-03 0.  1.
         11   -1    0    0    0    0 -0.00000000000E+00 -0.00000000000E+00 -0.45593999997E+02  0.45594000000E+02  0.51100000000E-03 0. -1.
    9900012    2    1    2    0    0 -0.99837280103E+00  0.32614599894E+02 -0.28616690216E+02  0.47787264599E+02  0.19999970611E+02 0.  0.
         12    1    1    2    0    0  0.99837280103E+00 -0.32614599894E+02  0.28616690216E+02  0.43400735401E+02  0.00000000000E+00 0. -1.
         11    1    3    3    0    0 -0.37829554637E+00 -0.42450079757E+00 -0.58572890931E+00  0.81632534192E+00  0.51100000000E-03 0. -1.
        -11    1    3    3    0    0 -0.44013746833E+01  0.20671577697E+01  0.23676793870E+00  0.48683980595E+01  0.51100000000E-03 0.  1.
        -12    1    3    3    0    0  0.37812974286E+01  0.30971942922E+02 -0.28267729245E+02  0.42102541197E+02  0.00000000000E+00 0.  1.
</event>
<event>
 7    1  0.6622189E-010  0.4778728E+02  0.7816164E-02  0.1312668E+00
        -11   -1    0    0    0    0  0.00000000000E+00  0.00000000000E+00  0.45593999997E+02  0.45594000000E+02  0.51100000000E-03 0. -1.
         11   -1    0    0    0    0 -0.00000000000E+00 -0.00000000000E+00 -0.45593999997E+02  0.45594000000E+02  0.51100000000E-03 0.  1.
    9900012    2    1    2    0    0  0.25625038951E+02  0.18042554939E+02  0.30024098949E+02  0.47787275033E+02  0.20000018184E+02 0.  0.
        -12    1    1    2    0    0 -0.25625038951E+02 -0.18042554939E+02 -0.30024098949E+02  0.43400724967E+02  0.00000000000E+00 0.  1.
         11    1    3    3    0    0  0.12471877410E+02  0.34273051491E+01  0.15340047437E+02  0.20065173868E+02  0.51100000000E-03 0. -1.
        -11    1    3    3    0    0  0.51107255396E+01  0.55724241360E+01 -0.13015055163E+01  0.76723753272E+01  0.51100000000E-03 0.  1.
        -12    1    3    3    0    0  0.80424360015E+01  0.90428256543E+01  0.15985557029E+02  0.20049725838E+02  0.00000000000E+00 0.  1.
</event>
<event>
 7    1  0.6622189E-010  0.4778733E+02  0.7816164E-02  0.1312668E+00
        -11   -1    0    0    0    0  0.00000000000E+00  0.00000000000E+00  0.45593999997E+02  0.45594000000E+02  0.51100000000E-03 0. -1.
         11   -1    0    0    0    0 -0.00000000000E+00 -0.00000000000E+00 -0.45593999997E+02  0.45594000000E+02  0.51100000000E-03 0.  1.
    9900012    2    1    2    0    0 -0.24677132970E+02  0.50112073228E+01  0.35348907588E+02  0.47787327677E+02  0.20000258207E+02 0.  0.
        -12    1    1    2    0    0  0.24677132970E+02 -0.50112073228E+01 -0.35348907588E+02  0.43400672323E+02  0.00000000000E+00 0.  1.
         11    1    3    3    0    0 -0.19990555252E+02  0.78260890615E+01  0.17584958272E+02  0.27750688765E+02  0.51100000000E-03 0. -1.
        -11    1    3    3    0    0 -0.21926887257E+01 -0.33577312948E+00  0.15905218637E+02  0.16059159616E+02  0.51100000000E-03 0.  1.
         12    1    3    3    0    0 -0.24938889925E+01 -0.24791086092E+01  0.18587306799E+01  0.39774792952E+01  0.00000000000E+00 0. -1.
</event>
<event>
 7    1  0.6622189E-010  0.4778728E+02  0.7816164E-02  0.1312668E+00
        -11   -1    0    0    0    0  0.00000000000E+00  0.00000000000E+00  0.45593999997E+02  0.45594000000E+02  0.51100000000E-03 0. -1.
         11   -1    0    0    0    0 -0.00000000000E+00 -0.00000000000E+00 -0.45593999997E+02  0.45594000000E+02  0.51100000000E-03 0.  1.
    9900012    2    1    2    0    0 -0.62295603234E+01  0.19669318007E+02  0.38182890487E+02  0.47787278593E+02  0.20000034418E+02 0.  0.
        -12    1    1    2    0    0  0.62295603234E+01 -0.19669318007E+02 -0.38182890487E+02  0.43400721407E+02  0.00000000000E+00 0.  1.
         11    1    3    3    0    0  0.35256142668E+01 -0.63704490286E+00  0.30327603274E+01  0.46939767395E+01  0.51100000000E-03 0. -1.
        -11    1    3    3    0    0  0.17414884980E+01  0.53879007981E+01  0.50549834501E+01  0.75904621165E+01  0.51100000000E-03 0.  1.
         12    1    3    3    0    0 -0.11496663088E+02  0.14918462112E+02  0.30095146709E+02  0.35502839737E+02  0.00000000000E+00 0. -1.
</event>
<event>
 7    1  0.6622189E-010  0.4778727E+02  0.7816164E-02  0.1312668E+00
        -11   -1    0    0    0    0  0.00000000000E+00  0.00000000000E+00  0.45593999997E+02  0.45594000000E+02  0.51100000000E-03 0. -1.
         11   -1    0    0    0    0 -0.00000000000E+00 -0.00000000000E+00 -0.45593999997E+02  0.45594000000E+02  0.51100000000E-03 0.  1.
    9900012    2    1    2    0    0  0.29489531528E+02  0.28336177435E+02 -0.14527625920E+02  0.47787270326E+02  0.19999996725E+02 0.  0.
         12    1    1    2    0    0 -0.29489531528E+02 -0.28336177435E+02  0.14527625920E+02  0.43400729674E+02  0.00000000000E+00 0. -1.
         11    1    3    3    0    0  0.71322675532E+01  0.12792400621E+02  0.19267258854E+01  0.14772509164E+02  0.51100000000E-03 0. -1.
        -11    1    3    3    0    0  0.12569091813E+02  0.68976609980E+01 -0.38061100608E+01  0.14833956664E+02  0.51100000000E-03 0.  1.
         12    1    3    3    0    0  0.97881721618E+01  0.86461158154E+01 -0.12648241745E+02  0.18180804498E+02  0.00000000000E+00 0. -1.
</event>
<event>
 7    1  0.6622189E-010  0.4778727E+02  0.7816164E-02  0.1312668E+00
        -11   -1    0    0    0    0  0.00000000000E+00  0.00000000000E+00  0.45593999997E+02  0.45594000000E+02  0.51100000000E-03 0. -1.
         11   -1    0    0    0    0 -0.00000000000E+00 -0.00000000000E+00 -0.45593999997E+02  0.45594000000E+02  0.51100000000E-03 0.  1.
    9900012    2    1    2    0    0 -0.19384225630E+02 -0.20081895113E+02  0.33235407244E+02  0.47787274093E+02  0.20000013898E+02 0.  0.
        -12    1    1    2    0    0  0.19384225630E+02  0.20081895113E+02 -0.33235407244E+02  0.43400725907E+02  0.00000000000E+00 0.  1.
         11    1    3    3    0    0 -0.68145868468E+01 -0.40878741452E+00  0.16704689257E+02  0.18045840088E+02  0.51100000000E-03 0. -1.
        -11    1    3    3    0    0 -0.29253648976E+00  0.38449855398E+00 -0.50787885411E+00  0.70096927709E+00  0.51100000000E-03 0.  1.
         12    1    3    3    0    0 -0.12277102293E+02 -0.20057606252E+02  0.17038596842E+02  0.29040464728E+02  0.00000000000E+00 0. -1.
</event>
<event>
 7    1  0.6622189E-010  0.4778728E+02  0.7816164E-02  0.1312668E+00
        -11   -1    0    0    0    0  0.00000000000E+00  0.00000000000E+00  0.45593999997E+02  0.45594000000E+02  0.51100000000E-03 0. -1.
         11   -1    0    0    0    0 -0.00000000000E+00 -0.00000000000E+00 -0.45593999997E+02  0.45594000000E+02  0.51100000000E-03 0.  1.
    9900012    2    1    2    0    0 -0.68696067974E+00 -0.41191985791E+02  0.13651764120E+02  0.47787282587E+02  0.20000052627E+02 0.  0.
        -12    1    1    2    0    0  0.68696067974E+00  0.41191985791E+02 -0.13651764120E+02  0.43400717413E+02  0.00000000000E+00 0.  1.
         11    1    3    3    0    0 -0.22564538273E-02  0.19815030086E+00  0.20463340859E+01  0.20559066335E+01  0.51100000000E-03 0. -1.
        -11    1    3    3    0    0 -0.47354580983E+01 -0.89412117883E+01 -0.19993062174E+01  0.10313440612E+02  0.51100000000E-03 0.  1.
        -12    1    3    3    0    0  0.40507538724E+01 -0.32448924303E+02  0.13604736252E+02  0.35417935342E+02  0.00000000000E+00 0.  1.
</event>
<event>
 7    1  0.6622189E-010  0.4778726E+02  0.7816164E-02  0.1312668E+00
        -11   -1    0    0    0    0  0.00000000000E+00  0.00000000000E+00  0.45593999997E+02  0.45594000000E+02  0.51100000000E-03 0. -1.
         11   -1    0    0    0    0 -0.00000000000E+00 -0.00000000000E+00 -0.45593999997E+02  0.45594000000E+02  0.51100000000E-03 0.  1.
    9900012    2    1    2    0    0 -0.36504916686E+01  0.41323971564E+02 -0.12752547175E+02  0.47787260667E+02  0.19999952684E+02 0.  0.
         12    1    1    2    0    0  0.36504916686E+01 -0.41323971564E+02  0.12752547175E+02  0.43400739333E+02  0.00000000000E+00 0. -1.
         11    1    3    3    0    0  0.62375395959E+01  0.25738905962E+02 -0.41459632460E+01  0.26806476677E+02  0.51100000000E-03 0. -1.
        -11    1    3    3    0    0 -0.84561219384E+01  0.11311517389E+02 -0.43403989435E+01  0.14774826128E+02  0.51100000000E-03 0.  1.
        -12    1    3    3    0    0 -0.14319093261E+01  0.42735482127E+01 -0.42661849858E+01  0.62059578614E+01  0.00000000000E+00 0.  1.
</event>
<event>
 7    1  0.6622189E-010  0.4778728E+02  0.7816164E-02  0.1312668E+00
        -11   -1    0    0    0    0  0.00000000000E+00  0.00000000000E+00  0.45593999997E+02  0.45594000000E+02  0.51100000000E-03 0. -1.
         11   -1    0    0    0    0 -0.00000000000E+00 -0.00000000000E+00 -0.45593999997E+02  0.45594000000E+02  0.51100000000E-03 0.  1.
    9900012    2    1    2    0    0 -0.27692577571E+02 -0.65467257796E+01  0.32770175275E+02  0.47787275829E+02  0.20000021817E+02 0.  0.
        -12    1    1    2    0    0  0.27692577571E+02  0.65467257796E+01 -0.32770175275E+02  0.43400724171E+02  0.00000000000E+00 0.  1.
         11    1    3    3    0    0 -0.18580414489E+02 -0.56718969468E+01  0.21044112043E+02  0.28640126911E+02  0.51100000000E-03 0. -1.
        -11    1    3    3    0    0 -0.79811618243E+00 -0.26631692160E+01 -0.16967861224E+01  0.32570758542E+01  0.51100000000E-03 0.  1.
        -12    1    3    3    0    0 -0.83140468993E+01  0.17883403832E+01  0.13422849355E+02  0.15890073064E+02  0.00000000000E+00 0.  1.
</event>
<event>
 7    1  0.7969491E-010  0.4778727E+02  0.7816164E-02  0.1312668E+00
        -11   -1    0    0    0    0  0.00000000000E+00  0.00000000000E+00  0.45593999997E+02  0.45594000000E+02  0.51100000000E-03 0. -1.
         11   -1    0    0    0    0 -0.00000000000E+00 -0.00000000000E+00 -0.45593999997E+02  0.45594000000E+02  0.51100000000E-03 0.  1.
    9900012    2    1    2    0    0  0.48451356215E+01  0.38283047894E+01 -0.42959189998E+02  0.47787271181E+02  0.20000000624E+02 0.  0.
         12    1    1    2    0    0 -0.48451356215E+01 -0.38283047894E+01  0.42959189998E+02  0.43400728819E+02  0.00000000000E+00 0. -1.
         11    1    3    3    0    0  0.56678347698E+01 -0.27162930262E+01 -0.55119375157E+01  0.83596683080E+01  0.51100000000E-03 0. -1.
        -11    1    3    3    0    0  0.11978533087E+01  0.49744087028E+01 -0.36237822142E+02  0.36597258755E+02  0.51100000000E-03 0.  1.
        -12    1    3    3    0    0 -0.20205524571E+01  0.15701891129E+01 -0.12094303396E+01  0.28303441184E+01  0.00000000000E+00 0.  1.
</event>
<event>
 7    1  0.6622189E-010  0.4778727E+02  0.7816164E-02  0.1312668E+00
        -11   -1    0    0    0    0  0.00000000000E+00  0.00000000000E+00  0.45593999997E+02  0.45594000000E+02  0.51100000000E-03 0. -1.
         11   -1    0    0    0    0 -0.00000000000E+00 -0.00000000000E+00 -0.45593999997E+02  0.45594000000E+02  0.51100000000E-03 0.  1.
    9900012    2    1    2    0    0 -0.92051399328E+01 -0.31082784389E+02 -0.28857399996E+02  0.47787267044E+02  0.19999981761E+02 0.  0.
         12    1    1    2    0    0  0.92051399328E+01  0.31082784389E+02  0.28857399996E+02  0.43400732956E+02  0.00000000000E+00 0. -1.
         11    1    3    3    0    0 -0.22565142154E+01 -0.41007733233E+00 -0.12759569910E+01  0.26245163987E+01  0.51100000000E-03 0. -1.
        -11    1    3    3    0    0 -0.10737712295E+01 -0.10330528451E+02 -0.20245875838E+02  0.22754522439E+02  0.51100000000E-03 0.  1.
        -12    1    3    3    0    0 -0.58748544880E+01 -0.20342178606E+02 -0.73355671673E+01  0.22408228206E+02  0.00000000000E+00 0.  1.
</event>
<event>
 7    1  0.6622189E-010  0.4778727E+02  0.7816164E-02  0.1312668E+00
        -11   -1    0    0    0    0  0.00000000000E+00  0.00000000000E+00  0.45593999997E+02  0.45594000000E+02  0.51100000000E-03 0. -1.
         11   -1    0    0    0    0 -0.00000000000E+00 -0.00000000000E+00 -0.45593999997E+02  0.45594000000E+02  0.51100000000E-03 0.  1.
    9900012    2    1    2    0    0 -0.90525462833E+01 -0.13706464231E+02  0.40172218974E+02  0.47787274969E+02  0.20000017892E+02 0.  0.
        -12    1    1    2    0    0  0.90525462833E+01  0.13706464231E+02 -0.40172218974E+02  0.43400725031E+02  0.00000000000E+00 0.  1.
         11    1    3    3    0    0 -0.12734695622E+01 -0.14813366782E+02  0.21160918672E+02  0.25861980578E+02  0.51100000000E-03 0. -1.
        -11    1    3    3    0    0 -0.81474610534E+01  0.25154137832E+01  0.11741080626E+02  0.14510734049E+02  0.51100000000E-03 0.  1.
        -12    1    3    3    0    0  0.36838433231E+00 -0.14085112326E+01  0.72702196765E+01  0.74145603412E+01  0.00000000000E+00 0.  1.
</event>
<event>
 7    1  0.6622189E-010  0.4778726E+02  0.7816164E-02  0.1312668E+00
        -11   -1    0    0    0    0  0.00000000000E+00  0.00000000000E+00  0.45593999997E+02  0.45594000000E+02  0.51100000000E-03 0. -1.
         11   -1    0    0    0    0 -0.00000000000E+00 -0.00000000000E+00 -0.45593999997E+02  0.45594000000E+02  0.51100000000E-03 0.  1.
    9900012    2    1    2    0    0  0.33655408865E+02 -0.15284955831E+02 -0.22744398674E+02  0.47787261623E+02  0.19999957043E+02 0.  0.
         12    1    1    2    0    0 -0.33655408865E+02  0.15284955831E+02  0.22744398674E+02  0.43400738377E+02  0.00000000000E+00 0. -1.
         11    1    3    3    0    0  0.43944429728E+01  0.82294570646E+00 -0.11345736195E+01  0.46125509468E+01  0.51100000000E-03 0. -1.
        -11    1    3    3    0    0 -0.10532450247E+01  0.12963503297E+01  0.58360246582E+00  0.17693053322E+01  0.51100000000E-03 0.  1.
        -12    1    3    3    0    0  0.30314210917E+02 -0.17404251867E+02 -0.22193427520E+02  0.41405405344E+02  0.00000000000E+00 0.  1.
</event>
<event>
 7    1  0.6622189E-010  0.4778727E+02  0.7816164E-02  0.1312668E+00
        -11   -1    0    0    0    0  0.00000000000E+00  0.00000000000E+00  0.45593999997E+02  0.45594000000E+02  0.51100000000E-03 0. -1.
         11   -1    0    0    0    0 -0.00000000000E+00 -0.00000000000E+00 -0.45593999997E+02  0.45594000000E+02  0.51100000000E-03 0.  1.
    9900012    2    1    2    0    0  0.75180219145E+01  0.48445107689E+01 -0.42469205051E+02  0.47787270562E+02  0.19999997801E+02 0.  0.
         12    1    1    2    0    0 -0.75180219145E+01 -0.48445107689E+01  0.42469205051E+02  0.43400729438E+02  0.00000000000E+00 0. -1.
         11    1    3    3    0    0  0.24522183002E+00  0.93336231107E+01 -0.17315376375E+02  0.19672287955E+02  0.51100000000E-03 0. -1.
        -11    1    3    3    0    0  0.80694694343E+01 -0.98150915695E+00 -0.12117709794E+02  0.14591730127E+02  0.51100000000E-03 0.  1.
         12    1    3    3    0    0 -0.79666934985E+00 -0.35076031848E+01 -0.13036118881E+02  0.13523252480E+02  0.00000000000E+00 0. -1.
</event>
<event>
 7    1  0.6622189E-010  0.4778727E+02  0.7816164E-02  0.1312668E+00
        -11   -1    0    0    0    0  0.00000000000E+00  0.00000000000E+00  0.45593999997E+02  0.45594000000E+02  0.51100000000E-03 0. -1.
         11   -1    0    0    0    0 -0.00000000000E+00 -0.00000000000E+00 -0.45593999997E+02  0.45594000000E+02  0.51100000000E-03 0.  1.
    9900012    2    1    2    0    0 -0.25493134094E+02  0.24180917721E+02 -0.25475609807E+02  0.47787270020E+02  0.19999995331E+02 0.  0.
         12    1    1    2    0    0  0.25493134094E+02 -0.24180917721E+02  0.25475609807E+02  0.43400729980E+02  0.00000000000E+00 0. -1.
         11    1    3    3    0    0 -0.48747753541E+01  0.84837797175E+01 -0.17482783650E+02  0.20034611987E+02  0.51100000000E-03 0.  1.
        -11    1    3    3    0    0 -0.73165072409E+01  0.83467217974E+01 -0.14030025019E+01  0.11187826386E+02  0.51100000000E-03 0. -1.
         12    1    3    3    0    0 -0.13301851499E+02  0.73504162060E+01 -0.65898236548E+01  0.16564831647E+02  0.00000000000E+00 0. -1.
</event>
<event>
 7    1  0.6622189E-010  0.4778727E+02  0.7816164E-02  0.1312668E+00
        -11   -1    0    0    0    0  0.00000000000E+00  0.00000000000E+00  0.45593999997E+02  0.45594000000E+02  0.51100000000E-03 0. -1.
         11   -1    0    0    0    0 -0.00000000000E+00 -0.00000000000E+00 -0.45593999997E+02  0.45594000000E+02  0.51100000000E-03 0.  1.
    9900012    2    1    2    0    0  0.36027760924E+02  0.11694609027E+02 -0.21186317087E+02  0.47787268794E+02  0.19999989739E+02 0.  0.
         12    1    1    2    0    0 -0.36027760924E+02 -0.11694609027E+02  0.21186317087E+02  0.43400731206E+02  0.00000000000E+00 0. -1.
         11    1    3    3    0    0 -0.49278024358E+00  0.11727969846E+01 -0.47540838690E+01  0.49213411617E+01  0.51100000000E-03 0. -1.
        -11    1    3    3    0    0  0.30012822669E+02  0.49513983938E+01 -0.95649993123E+01  0.31886910837E+02  0.51100000000E-03 0.  1.
        -12    1    3    3    0    0  0.65077184986E+01  0.55704136486E+01 -0.68672339062E+01  0.10979016796E+02  0.00000000000E+00 0.  1.
</event>
<event>
 7    1  0.6622189E-010  0.4778727E+02  0.7816164E-02  0.1312668E+00
        -11   -1    0    0    0    0  0.00000000000E+00  0.00000000000E+00  0.45593999997E+02  0.45594000000E+02  0.51100000000E-03 0.  1.
         11   -1    0    0    0    0 -0.00000000000E+00 -0.00000000000E+00 -0.45593999997E+02  0.45594000000E+02  0.51100000000E-03 0. -1.
    9900012    2    1    2    0    0 -0.27163705213E+02  0.15941211979E+02 -0.29860241165E+02  0.47787272786E+02  0.20000007942E+02 0.  0.
         12    1    1    2    0    0  0.27163705213E+02 -0.15941211979E+02  0.29860241165E+02  0.43400727214E+02  0.00000000000E+00 0. -1.
         11    1    3    3    0    0 -0.18553239744E+02  0.13313171050E+01 -0.20819622946E+02  0.27918664190E+02  0.51100000000E-03 0. -1.
        -11    1    3    3    0    0 -0.11783343374E+01  0.67288273411E+01 -0.29488495133E+01  0.74405176507E+01  0.51100000000E-03 0.  1.
         12    1    3    3    0    0 -0.74321311306E+01  0.78810675325E+01 -0.60917687058E+01  0.12428090946E+02  0.00000000000E+00 0. -1.
</event>
<event>
 7    1  0.6622189E-010  0.4778727E+02  0.7816164E-02  0.1312668E+00
        -11   -1    0    0    0    0  0.00000000000E+00  0.00000000000E+00  0.45593999997E+02  0.45594000000E+02  0.51100000000E-03 0. -1.
         11   -1    0    0    0    0 -0.00000000000E+00 -0.00000000000E+00 -0.45593999997E+02  0.45594000000E+02  0.51100000000E-03 0.  1.
    9900012    2    1    2    0    0 -0.30057366455E+01  0.37794430343E+02  0.21122737744E+02  0.47787268814E+02  0.19999989829E+02 0.  0.
        -12    1    1    2    0    0  0.30057366455E+01 -0.37794430343E+02 -0.21122737744E+02  0.43400731186E+02  0.00000000000E+00 0.  1.
         11    1    3    3    0    0 -0.46215034587E+00  0.27514831989E+01  0.84717042902E+01  0.89193058350E+01  0.51100000000E-03 0. -1.
        -11    1    3    3    0    0 -0.45581655233E-01  0.33780873379E+02  0.10623460667E+02  0.35411966914E+02  0.51100000000E-03 0.  1.
        -12    1    3    3    0    0 -0.24980046444E+01  0.12620737648E+01  0.20275727869E+01  0.34559960644E+01  0.00000000000E+00 0.  1.
</event>
<event>
 7    1  0.6622189E-010  0.4778727E+02  0.7816164E-02  0.1312668E+00
        -11   -1    0    0    0    0  0.00000000000E+00  0.00000000000E+00  0.45593999997E+02  0.45594000000E+02  0.51100000000E-03 0. -1.
         11   -1    0    0    0    0 -0.00000000000E+00 -0.00000000000E+00 -0.45593999997E+02  0.45594000000E+02  0.51100000000E-03 0.  1.
    9900012    2    1    2    0    0 -0.16133536898E+02  0.27480489244E+02  0.29464469090E+02  0.47787271427E+02  0.20000001744E+02 0.  0.
        -12    1    1    2    0    0  0.16133536898E+02 -0.27480489244E+02 -0.29464469090E+02  0.43400728573E+02  0.00000000000E+00 0.  1.
         11    1    3    3    0    0 -0.88563273961E+00  0.42243766546E+01  0.48088808155E+01  0.64618138651E+01  0.51100000000E-03 0. -1.
        -11    1    3    3    0    0  0.35802512279E+01  0.27111676284E+01  0.70619177367E+01  0.83689492259E+01  0.51100000000E-03 0.  1.
        -12    1    3    3    0    0 -0.18828155386E+02  0.20544944961E+02  0.17593670538E+02  0.32956508336E+02  0.00000000000E+00 0.  1.
</event>
<event>
 7    1  0.6622189E-010  0.4778728E+02  0.7816164E-02  0.1312668E+00
        -11   -1    0    0    0    0  0.00000000000E+00  0.00000000000E+00  0.45593999997E+02  0.45594000000E+02  0.51100000000E-03 0. -1.
         11   -1    0    0    0    0 -0.00000000000E+00 -0.00000000000E+00 -0.45593999997E+02  0.45594000000E+02  0.51100000000E-03 0.  1.
    9900012    2    1    2    0    0  0.39462915890E+02  0.72046396480E+01  0.16564852374E+02  0.47787275384E+02  0.20000019787E+02 0.  0.
        -12    1    1    2    0    0 -0.39462915890E+02 -0.72046396480E+01 -0.16564852374E+02  0.43400724616E+02  0.00000000000E+00 0.  1.
         11    1    3    3    0    0  0.11473013213E+02  0.28075022016E+01  0.13048272969E+02  0.17600270695E+02  0.51100000000E-03 0. -1.
        -11    1    3    3    0    0  0.68445291920E+00 -0.18447374139E+01  0.35431844315E+00  0.19992683024E+01  0.51100000000E-03 0.  1.
         12    1    3    3    0    0  0.27305449757E+02  0.62418748603E+01  0.31622609621E+01  0.28187736387E+02  0.00000000000E+00 0. -1.
</event>
<event>
 7    1  0.6622189E-010  0.4778727E+02  0.7816164E-02  0.1312668E+00
        -11   -1    0    0    0    0  0.00000000000E+00  0.00000000000E+00  0.45593999997E+02  0.45594000000E+02  0.51100000000E-03 0. -1.
         11   -1    0    0    0    0 -0.00000000000E+00 -0.00000000000E+00 -0.45593999997E+02  0.45594000000E+02  0.51100000000E-03 0.  1.
    9900012    2    1    2    0    0  0.19374712044E+00 -0.10028152779E+02 -0.42225843116E+02  0.47787271746E+02  0.20000003201E+02 0.  0.
         12    1    1    2    0    0 -0.19374712044E+00  0.10028152779E+02  0.42225843116E+02  0.43400728254E+02  0.00000000000E+00 0. -1.
         11    1    3    3    0    0  0.28451635133E+01 -0.11515369939E+02 -0.13685422436E+02  0.18110480054E+02  0.51100000000E-03 0. -1.
        -11    1    3    3    0    0  0.75666774504E+00  0.37526350634E+01 -0.17191945229E+02  0.17613000795E+02  0.51100000000E-03 0.  1.
         12    1    3    3    0    0 -0.34080841379E+01 -0.22654179033E+01 -0.11348475450E+02  0.12063790897E+02  0.00000000000E+00 0. -1.
</event>
<event>
 7    1  0.6622189E-010  0.4778728E+02  0.7816164E-02  0.1312668E+00
        -11   -1    0    0    0    0  0.00000000000E+00  0.00000000000E+00  0.45593999997E+02  0.45594000000E+02  0.51100000000E-03 0.  1.
         11   -1    0    0    0    0 -0.00000000000E+00 -0.00000000000E+00 -0.45593999997E+02  0.45594000000E+02  0.51100000000E-03 0. -1.
    9900012    2    1    2    0    0  0.43097062464E+02 -0.20616650473E+01 -0.46920782200E+01  0.47787275884E+02  0.20000022063E+02 0.  0.
         12    1    1    2    0    0 -0.43097062464E+02  0.20616650473E+01  0.46920782200E+01  0.43400724116E+02  0.00000000000E+00 0. -1.
         11    1    3    3    0    0  0.13364785003E+02 -0.21162715156E+01  0.59154683774E+01  0.14767831584E+02  0.51100000000E-03 0.  1.
        -11    1    3    3    0    0  0.11753099537E+02 -0.15784123640E+00 -0.93058253130E+01  0.14991952761E+02  0.51100000000E-03 0. -1.
         12    1    3    3    0    0  0.17979177924E+02  0.21244770473E+00 -0.13017212843E+01  0.18027491538E+02  0.00000000000E+00 0. -1.
</event>
<event>
 7    1  0.6622189E-010  0.4778727E+02  0.7816164E-02  0.1312668E+00
        -11   -1    0    0    0    0  0.00000000000E+00  0.00000000000E+00  0.45593999997E+02  0.45594000000E+02  0.51100000000E-03 0. -1.
         11   -1    0    0    0    0 -0.00000000000E+00 -0.00000000000E+00 -0.45593999997E+02  0.45594000000E+02  0.51100000000E-03 0.  1.
    9900012    2    1    2    0    0 -0.37344401756E+02 -0.12580187827E+02  0.18186751253E+02  0.47787269714E+02  0.19999993933E+02 0.  0.
        -12    1    1    2    0    0  0.37344401756E+02  0.12580187827E+02 -0.18186751253E+02  0.43400730286E+02  0.00000000000E+00 0.  1.
         11    1    3    3    0    0 -0.13609984748E+02 -0.27234446016E+01  0.14103286417E+01  0.13951267415E+02  0.51100000000E-03 0. -1.
        -11    1    3    3    0    0 -0.22669255208E+02 -0.51302238616E+01  0.95330123152E+01  0.25121557528E+02  0.51100000000E-03 0.  1.
        -12    1    3    3    0    0 -0.10651617994E+01 -0.47265193635E+01  0.72434102959E+01  0.87144447710E+01  0.00000000000E+00 0.  1.
</event>
<event>
 7    1  0.6622189E-010  0.4778727E+02  0.7816164E-02  0.1312668E+00
        -11   -1    0    0    0    0  0.00000000000E+00  0.00000000000E+00  0.45593999997E+02  0.45594000000E+02  0.51100000000E-03 0. -1.
         11   -1    0    0    0    0 -0.00000000000E+00 -0.00000000000E+00 -0.45593999997E+02  0.45594000000E+02  0.51100000000E-03 0.  1.
    9900012    2    1    2    0    0 -0.11712546397E+02  0.41267292320E+02  0.65917005529E+01  0.47787266426E+02  0.19999978944E+02 0.  0.
        -12    1    1    2    0    0  0.11712546397E+02 -0.41267292320E+02 -0.65917005529E+01  0.43400733574E+02  0.00000000000E+00 0.  1.
         11    1    3    3    0    0  0.38654064327E+01  0.26731986136E+01  0.11125113242E+01  0.48296003380E+01  0.51100000000E-03 0.  1.
        -11    1    3    3    0    0 -0.15480385132E+02  0.32066664268E+02  0.69161726627E+01  0.36273223260E+02  0.51100000000E-03 0. -1.
         12    1    3    3    0    0 -0.97567698129E-01  0.65274294392E+01 -0.14369834339E+01  0.66844428286E+01  0.00000000000E+00 0. -1.
</event>
<event>
 7    1  0.8465190E-010  0.4778727E+02  0.7816164E-02  0.1312668E+00
        -11   -1    0    0    0    0  0.00000000000E+00  0.00000000000E+00  0.45593999997E+02  0.45594000000E+02  0.51100000000E-03 0. -1.
         11   -1    0    0    0    0 -0.00000000000E+00 -0.00000000000E+00 -0.45593999997E+02  0.45594000000E+02  0.51100000000E-03 0.  1.
    9900012    2    1    2    0    0 -0.65576251823E+01  0.34282758844E+02  0.25793668130E+02  0.47787270541E+02  0.19999997704E+02 0.  0.
        -12    1    1    2    0    0  0.65576251823E+01 -0.34282758844E+02 -0.25793668130E+02  0.43400729459E+02  0.00000000000E+00 0.  1.
         11    1    3    3    0    0  0.76362507489E+00  0.27025316144E+02  0.21269259348E+02  0.34399596355E+02  0.51100000000E-03 0. -1.
        -11    1    3    3    0    0 -0.67368567157E+00  0.18296092933E+01 -0.18574370532E+01  0.26928414766E+01  0.51100000000E-03 0.  1.
         12    1    3    3    0    0 -0.66475645856E+01  0.54278334065E+01  0.63818458357E+01  0.10694832709E+02  0.00000000000E+00 0. -1.
</event>
<event>
 7    1  0.6622189E-010  0.4778727E+02  0.7816164E-02  0.1312668E+00
        -11   -1    0    0    0    0  0.00000000000E+00  0.00000000000E+00  0.45593999997E+02  0.45594000000E+02  0.51100000000E-03 0. -1.
         11   -1    0    0    0    0 -0.00000000000E+00 -0.00000000000E+00 -0.45593999997E+02  0.45594000000E+02  0.51100000000E-03 0.  1.
    9900012    2    1    2    0    0 -0.17741703672E+02  0.24023259732E+02  0.31491878000E+02  0.47787269162E+02  0.19999991417E+02 0.  0.
        -12    1    1    2    0    0  0.17741703672E+02 -0.24023259732E+02 -0.31491878000E+02  0.43400730838E+02  0.00000000000E+00 0.  1.
         11    1    3    3    0    0  0.32177782184E+01  0.99113151039E+01  0.97747032655E+01  0.14287515107E+02  0.51100000000E-03 0. -1.
        -11    1    3    3    0    0 -0.16314556821E+02  0.91762534191E+01  0.16375269276E+02  0.24870018802E+02  0.51100000000E-03 0.  1.
         12    1    3    3    0    0 -0.46449250694E+01  0.49356912085E+01  0.53419054583E+01  0.86297352527E+01  0.00000000000E+00 0. -1.
</event>
<event>
 7    1  0.6622189E-010  0.4778727E+02  0.7816164E-02  0.1312668E+00
        -11   -1    0    0    0    0  0.00000000000E+00  0.00000000000E+00  0.45593999997E+02  0.45594000000E+02  0.51100000000E-03 0. -1.
         11   -1    0    0    0    0 -0.00000000000E+00 -0.00000000000E+00 -0.45593999997E+02  0.45594000000E+02  0.51100000000E-03 0.  1.
    9900012    2    1    2    0    0  0.37284886506E+02 -0.13155674204E+02  0.17899406022E+02  0.47787271187E+02  0.20000000650E+02 0.  0.
        -12    1    1    2    0    0 -0.37284886506E+02  0.13155674204E+02 -0.17899406022E+02  0.43400728813E+02  0.00000000000E+00 0.  1.
         11    1    3    3    0    0  0.26303849762E+02 -0.73651170410E+01  0.47733562691E+01  0.27729449898E+02  0.51100000000E-03 0. -1.
        -11    1    3    3    0    0  0.16332531742E+01 -0.53184902049E+01  0.32148470417E+01  0.64256591688E+01  0.51100000000E-03 0.  1.
        -12    1    3    3    0    0  0.93477835705E+01 -0.47206695799E+00  0.99112027110E+01  0.13632162120E+02  0.00000000000E+00 0.  1.
</event>
<event>
 7    1  0.8882061E-010  0.4778730E+02  0.7816164E-02  0.1312668E+00
        -11   -1    0    0    0    0  0.00000000000E+00  0.00000000000E+00  0.45593999997E+02  0.45594000000E+02  0.51100000000E-03 0. -1.
         11   -1    0    0    0    0 -0.00000000000E+00 -0.00000000000E+00 -0.45593999997E+02  0.45594000000E+02  0.51100000000E-03 0.  1.
    9900012    2    1    2    0    0 -0.13633536276E+02 -0.60322636700E+01 -0.40759770874E+02  0.47787303715E+02  0.20000148957E+02 0.  0.
         12    1    1    2    0    0  0.13633536276E+02  0.60322636700E+01  0.40759770874E+02  0.43400696285E+02  0.00000000000E+00 0. -1.
         11    1    3    3    0    0  0.80625537604E+00 -0.31212793490E+01 -0.22459123343E+00  0.32315435923E+01  0.51100000000E-03 0. -1.
        -11    1    3    3    0    0 -0.14586297145E+02 -0.43593789075E+01 -0.27442552356E+02  0.31382446191E+02  0.51100000000E-03 0.  1.
        -12    1    3    3    0    0  0.14650549260E+00  0.14483945865E+01 -0.13092627284E+02  0.13173313931E+02  0.00000000000E+00 0.  1.
</event>
<event>
 7    1  0.6622189E-010  0.4778727E+02  0.7816164E-02  0.1312668E+00
        -11   -1    0    0    0    0  0.00000000000E+00  0.00000000000E+00  0.45593999997E+02  0.45594000000E+02  0.51100000000E-03 0. -1.
         11   -1    0    0    0    0 -0.00000000000E+00 -0.00000000000E+00 -0.45593999997E+02  0.45594000000E+02  0.51100000000E-03 0.  1.
    9900012    2    1    2    0    0 -0.25919525021E+02 -0.34456959912E+02 -0.49517162808E+01  0.47787270078E+02  0.19999995592E+02 0.  0.
         12    1    1    2    0    0  0.25919525021E+02  0.34456959912E+02  0.49517162808E+01  0.43400729922E+02  0.00000000000E+00 0. -1.
         11    1    3    3    0    0 -0.15936199819E+02 -0.10701152288E+02 -0.36115307246E+01  0.19532544110E+02  0.51100000000E-03 0. -1.
        -11    1    3    3    0    0 -0.46250651199E+01 -0.18083231022E+02 -0.54375683110E+01  0.19441235068E+02  0.51100000000E-03 0.  1.
        -12    1    3    3    0    0 -0.53582600817E+01 -0.56725766014E+01  0.40973827548E+01  0.88134908998E+01  0.00000000000E+00 0.  1.
</event>
<event>
 7    1  0.6622189E-010  0.4778727E+02  0.7816164E-02  0.1312668E+00
        -11   -1    0    0    0    0  0.00000000000E+00  0.00000000000E+00  0.45593999997E+02  0.45594000000E+02  0.51100000000E-03 0. -1.
         11   -1    0    0    0    0 -0.00000000000E+00 -0.00000000000E+00 -0.45593999997E+02  0.45594000000E+02  0.51100000000E-03 0.  1.
    9900012    2    1    2    0    0 -0.98299196262E+01 -0.27156433196E+02 -0.32396360263E+02  0.47787270258E+02  0.19999996417E+02 0.  0.
         12    1    1    2    0    0  0.98299196262E+01  0.27156433196E+02  0.32396360263E+02  0.43400729742E+02  0.00000000000E+00 0. -1.
         11    1    3    3    0    0  0.21433394931E+01 -0.10408746419E+02 -0.44149546184E+01  0.11507724829E+02  0.51100000000E-03 0. -1.
        -11    1    3    3    0    0 -0.25956014107E+01 -0.10565479644E+02 -0.85574006707E+01  0.13841806721E+02  0.51100000000E-03 0.  1.
         12    1    3    3    0    0 -0.93776577086E+01 -0.61822071333E+01 -0.19424004974E+02  0.22437738709E+02  0.00000000000E+00 0. -1.
</event>
<event>
 7    1  0.6622189E-010  0.4778727E+02  0.7816164E-02  0.1312668E+00
        -11   -1    0    0    0    0  0.00000000000E+00  0.00000000000E+00  0.45593999997E+02  0.45594000000E+02  0.51100000000E-03 0. -1.
         11   -1    0    0    0    0 -0.00000000000E+00 -0.00000000000E+00 -0.45593999997E+02  0.45594000000E+02  0.51100000000E-03 0.  1.
    9900012    2    1    2    0    0  0.19024734504E+02 -0.30240928568E+02  0.24640793434E+02  0.47787274376E+02  0.20000015191E+02 0.  0.
        -12    1    1    2    0    0 -0.19024734504E+02  0.30240928568E+02 -0.24640793434E+02  0.43400725624E+02  0.00000000000E+00 0.  1.
         11    1    3    3    0    0  0.53668818797E+01 -0.21573745927E+02  0.71612230011E+01  0.23356220789E+02  0.51100000000E-03 0.  1.
        -11    1    3    3    0    0  0.78584864528E+00 -0.27126907261E+01  0.21688873029E+01  0.35609439005E+01  0.51100000000E-03 0. -1.
         12    1    3    3    0    0  0.12872003979E+02 -0.59544919149E+01  0.15310683130E+02  0.20870109686E+02  0.00000000000E+00 0. -1.
</event>
<event>
 7    1  0.6622189E-010  0.4778727E+02  0.7816164E-02  0.1312668E+00
        -11   -1    0    0    0    0  0.00000000000E+00  0.00000000000E+00  0.45593999997E+02  0.45594000000E+02  0.51100000000E-03 0.  1.
         11   -1    0    0    0    0 -0.00000000000E+00 -0.00000000000E+00 -0.45593999997E+02  0.45594000000E+02  0.51100000000E-03 0. -1.
    9900012    2    1    2    0    0  0.17012643768E+02  0.39922639294E+02 -0.61336704601E+00  0.47787269646E+02  0.19999993622E+02 0.  0.
         12    1    1    2    0    0 -0.17012643768E+02 -0.39922639294E+02  0.61336704601E+00  0.43400730354E+02  0.00000000000E+00 0. -1.
         11    1    3    3    0    0  0.64336472071E+01  0.16513117646E+02 -0.44872424269E+01  0.18281417222E+02  0.51100000000E-03 0. -1.
        -11    1    3    3    0    0 -0.22586150891E+01 -0.26322060547E+00 -0.14267141652E+00  0.22783727970E+01  0.51100000000E-03 0.  1.
        -12    1    3    3    0    0  0.12837611650E+02  0.23672742253E+02  0.40165467974E+01  0.27227479627E+02  0.00000000000E+00 0.  1.
</event>
<event>
 7    1  0.6622189E-010  0.4778727E+02  0.7816164E-02  0.1312668E+00
        -11   -1    0    0    0    0  0.00000000000E+00  0.00000000000E+00  0.45593999997E+02  0.45594000000E+02  0.51100000000E-03 0. -1.
         11   -1    0    0    0    0 -0.00000000000E+00 -0.00000000000E+00 -0.45593999997E+02  0.45594000000E+02  0.51100000000E-03 0.  1.
    9900012    2    1    2    0    0 -0.65321839721E+01  0.90281374978E+01  0.41945754306E+02  0.47787274217E+02  0.20000014467E+02 0.  0.
        -12    1    1    2    0    0  0.65321839721E+01 -0.90281374978E+01 -0.41945754306E+02  0.43400725783E+02  0.00000000000E+00 0.  1.
         11    1    3    3    0    0 -0.42778103255E+01  0.40757416341E+01  0.17973869967E+02  0.18920130362E+02  0.51100000000E-03 0.  1.
        -11    1    3    3    0    0 -0.56832853823E+01  0.76665146117E+01  0.84689909336E+01  0.12759270619E+02  0.51100000000E-03 0. -1.
        -12    1    3    3    0    0  0.34289117357E+01 -0.27141187481E+01  0.15502893406E+02  0.16107873237E+02  0.00000000000E+00 0.  1.
</event>
<event>
 7    1  0.6622189E-010  0.4778727E+02  0.7816164E-02  0.1312668E+00
        -11   -1    0    0    0    0  0.00000000000E+00  0.00000000000E+00  0.45593999997E+02  0.45594000000E+02  0.51100000000E-03 0. -1.
         11   -1    0    0    0    0 -0.00000000000E+00 -0.00000000000E+00 -0.45593999997E+02  0.45594000000E+02  0.51100000000E-03 0.  1.
    9900012    2    1    2    0    0  0.52472178900E+01 -0.19087488410E+02  0.38623280530E+02  0.47787270648E+02  0.19999998192E+02 0.  0.
        -12    1    1    2    0    0 -0.52472178900E+01  0.19087488410E+02 -0.38623280530E+02  0.43400729352E+02  0.00000000000E+00 0.  1.
         11    1    3    3    0    0  0.20997788504E+01 -0.16113725400E+01  0.10391817318E+02  0.10723593620E+02  0.51100000000E-03 0. -1.
        -11    1    3    3    0    0  0.86842290210E+01 -0.46098593385E+01  0.94763169349E+01  0.13655300060E+02  0.51100000000E-03 0.  1.
        -12    1    3    3    0    0 -0.55367899814E+01 -0.12866256531E+02  0.18755146277E+02  0.23408376969E+02  0.00000000000E+00 0.  1.
</event>
<event>
 7    1  0.6622189E-010  0.4778727E+02  0.7816164E-02  0.1312668E+00
        -11   -1    0    0    0    0  0.00000000000E+00  0.00000000000E+00  0.45593999997E+02  0.45594000000E+02  0.51100000000E-03 0.  1.
         11   -1    0    0    0    0 -0.00000000000E+00 -0.00000000000E+00 -0.45593999997E+02  0.45594000000E+02  0.51100000000E-03 0. -1.
    9900012    2    1    2    0    0 -0.36189966211E+01 -0.30030079318E+02  0.31124275469E+02  0.47787270469E+02  0.19999997377E+02 0.  0.
        -12    1    1    2    0    0  0.36189966211E+01  0.30030079318E+02 -0.31124275469E+02  0.43400729531E+02  0.00000000000E+00 0.  1.
         11    1    3    3    0    0 -0.15840473385E+01  0.21624031805E+01  0.37697654327E+00  0.27068995292E+01  0.51100000000E-03 0. -1.
        -11    1    3    3    0    0 -0.45553436286E+01 -0.19506455162E+02  0.18438521052E+02  0.27225576346E+02  0.51100000000E-03 0.  1.
         12    1    3    3    0    0  0.25203943459E+01 -0.12686027336E+02  0.12308777874E+02  0.17854794594E+02  0.00000000000E+00 0. -1.
</event>
<event>
 7    1  0.6622189E-010  0.4778728E+02  0.7816164E-02  0.1312668E+00
        -11   -1    0    0    0    0  0.00000000000E+00  0.00000000000E+00  0.45593999997E+02  0.45594000000E+02  0.51100000000E-03 0. -1.
         11   -1    0    0    0    0 -0.00000000000E+00 -0.00000000000E+00 -0.45593999997E+02  0.45594000000E+02  0.51100000000E-03 0.  1.
    9900012    2    1    2    0    0  0.38955837304E+00  0.33029469364E+02  0.28151823783E+02  0.47787276683E+02  0.20000025707E+02 0.  0.
        -12    1    1    2    0    0 -0.38955837304E+00 -0.33029469364E+02 -0.28151823783E+02  0.43400723317E+02  0.00000000000E+00 0.  1.
         11    1    3    3    0    0 -0.52804077792E+01  0.33173574096E+01  0.99139945587E+01  0.11712166959E+02  0.51100000000E-03 0. -1.
        -11    1    3    3    0    0 -0.67499446733E-01 -0.25949248365E+00  0.98276695733E+00  0.10186872326E+01  0.51100000000E-03 0.  1.
         12    1    3    3    0    0  0.57374655990E+01  0.29971604438E+02  0.17255062267E+02  0.35056422491E+02  0.00000000000E+00 0. -1.
</event>
<event>
 7    1  0.6622189E-010  0.4778728E+02  0.7816164E-02  0.1312668E+00
        -11   -1    0    0    0    0  0.00000000000E+00  0.00000000000E+00  0.45593999997E+02  0.45594000000E+02  0.51100000000E-03 0. -1.
         11   -1    0    0    0    0 -0.00000000000E+00 -0.00000000000E+00 -0.45593999997E+02  0.45594000000E+02  0.51100000000E-03 0.  1.
    9900012    2    1    2    0    0 -0.31274631030E+02 -0.17618734186E+01 -0.30040232205E+02  0.47787282322E+02  0.20000051419E+02 0.  0.
         12    1    1    2    0    0  0.31274631030E+02  0.17618734186E+01  0.30040232205E+02  0.43400717678E+02  0.00000000000E+00 0. -1.
         11    1    3    3    0    0 -0.67551826954E+00  0.47515721614E+01 -0.52259428272E+01  0.70953676178E+01  0.51100000000E-03 0. -1.
        -11    1    3    3    0    0 -0.22064600960E+02 -0.81135397018E+01 -0.19184110021E+02  0.30343141227E+02  0.51100000000E-03 0.  1.
        -12    1    3    3    0    0 -0.85345118009E+01  0.16000941219E+01 -0.56301793574E+01  0.10348773477E+02  0.00000000000E+00 0.  1.
</event>
<event>
 7    1  0.6622189E-010  0.4778729E+02  0.7816164E-02  0.1312668E+00
        -11   -1    0    0    0    0  0.00000000000E+00  0.00000000000E+00  0.45593999997E+02  0.45594000000E+02  0.51100000000E-03 0. -1.
         11   -1    0    0    0    0 -0.00000000000E+00 -0.00000000000E+00 -0.45593999997E+02  0.45594000000E+02  0.51100000000E-03 0.  1.
    9900012    2    1    2    0    0  0.13037064978E+00 -0.19500427302E+02 -0.38772901837E+02  0.47787290578E+02  0.20000089060E+02 0.  0.
         12    1    1    2    0    0 -0.13037064978E+00  0.19500427302E+02  0.38772901837E+02  0.43400709422E+02  0.00000000000E+00 0. -1.
         11    1    3    3    0    0 -0.75886874178E+01 -0.13930936489E+02 -0.26377943980E+02  0.30780758552E+02  0.51100000000E-03 0. -1.
        -11    1    3    3    0    0 -0.84863650815E-01 -0.25064569457E+00 -0.50122187777E+01  0.50191993824E+01  0.51100000000E-03 0.  1.
         12    1    3    3    0    0  0.78039217184E+01 -0.53188451181E+01 -0.73827390797E+01  0.11987332643E+02  0.00000000000E+00 0. -1.
</event>
<event>
 7    1  0.6622189E-010  0.4778727E+02  0.7816164E-02  0.1312668E+00
        -11   -1    0    0    0    0  0.00000000000E+00  0.00000000000E+00  0.45593999997E+02  0.45594000000E+02  0.51100000000E-03 0. -1.
         11   -1    0    0    0    0 -0.00000000000E+00 -0.00000000000E+00 -0.45593999997E+02  0.45594000000E+02  0.51100000000E-03 0.  1.
    9900012    2    1    2    0    0 -0.24470678013E+02 -0.10296643459E+02  0.34333482608E+02  0.47787274465E+02  0.20000015595E+02 0.  0.
        -12    1    1    2    0    0  0.24470678013E+02  0.10296643459E+02 -0.34333482608E+02  0.43400725535E+02  0.00000000000E+00 0.  1.
         11    1    3    3    0    0 -0.27698117734E+01 -0.34137530308E+01  0.32130801005E+01  0.54451309451E+01  0.51100000000E-03 0. -1.
        -11    1    3    3    0    0 -0.55373064116E+01 -0.88845099724E+01  0.51005783327E+01  0.11645264245E+02  0.51100000000E-03 0.  1.
        -12    1    3    3    0    0 -0.16163559828E+02  0.20016195437E+01  0.26019824175E+02  0.30696879275E+02  0.00000000000E+00 0.  1.
</event>
<event>
 7    1  0.6622189E-010  0.4778727E+02  0.7816164E-02  0.1312668E+00
        -11   -1    0    0    0    0  0.00000000000E+00  0.00000000000E+00  0.45593999997E+02  0.45594000000E+02  0.51100000000E-03 0. -1.
         11   -1    0    0    0    0 -0.00000000000E+00 -0.00000000000E+00 -0.45593999997E+02  0.45594000000E+02  0.51100000000E-03 0.  1.
    9900012    2    1    2    0    0  0.20099373388E+02 -0.40657066761E+01  0.38250602103E+02  0.47787270253E+02  0.19999996389E+02 0.  0.
        -12    1    1    2    0    0 -0.20099373388E+02  0.40657066761E+01 -0.38250602103E+02  0.43400729747E+02  0.00000000000E+00 0.  1.
         11    1    3    3    0    0  0.94590247465E+01 -0.90649406635E+01  0.14111843690E+02  0.19255919375E+02  0.51100000000E-03 0. -1.
        -11    1    3    3    0    0  0.72079669803E+01  0.13498040824E+01  0.21803863670E+02  0.23004026392E+02  0.51100000000E-03 0.  1.
         12    1    3    3    0    0  0.34323816617E+01  0.36494299050E+01  0.23348947423E+01  0.55273244848E+01  0.00000000000E+00 0. -1.
</event>
<event>
 7    1  0.6622189E-010  0.4778727E+02  0.7816164E-02  0.1312668E+00
        -11   -1    0    0    0    0  0.00000000000E+00  0.00000000000E+00  0.45593999997E+02  0.45594000000E+02  0.51100000000E-03 0. -1.
         11   -1    0    0    0    0 -0.00000000000E+00 -0.00000000000E+00 -0.45593999997E+02  0.45594000000E+02  0.51100000000E-03 0.  1.
    9900012    2    1    2    0    0  0.25787457695E+01 -0.39845936700E+02 -0.17008074945E+02  0.47787271727E+02  0.20000003113E+02 0.  0.
         12    1    1    2    0    0 -0.25787457695E+01  0.39845936700E+02  0.17008074945E+02  0.43400728273E+02  0.00000000000E+00 0. -1.
         11    1    3    3    0    0 -0.54687372485E+01 -0.20982405042E+02 -0.16230516201E+02  0.27085015504E+02  0.51100000000E-03 0. -1.
        -11    1    3    3    0    0  0.79256249371E+01 -0.17807320031E+02 -0.20036358068E+00  0.19492468370E+02  0.51100000000E-03 0.  1.
        -12    1    3    3    0    0  0.12185808088E+00 -0.10562116270E+01 -0.57719516345E+00  0.12097878532E+01  0.00000000000E+00 0.  1.
</event>
<event>
 7    1  0.6622189E-010  0.4778727E+02  0.7816164E-02  0.1312668E+00
        -11   -1    0    0    0    0  0.00000000000E+00  0.00000000000E+00  0.45593999997E+02  0.45594000000E+02  0.51100000000E-03 0. -1.
         11   -1    0    0    0    0 -0.00000000000E+00 -0.00000000000E+00 -0.45593999997E+02  0.45594000000E+02  0.51100000000E-03 0.  1.
    9900012    2    1    2    0    0  0.20002708998E+02  0.32147196847E+01  0.38382035087E+02  0.47787269507E+02  0.19999992990E+02 0.  0.
        -12    1    1    2    0    0 -0.20002708998E+02 -0.32147196847E+01 -0.38382035087E+02  0.43400730493E+02  0.00000000000E+00 0.  1.
         11    1    3    3    0    0  0.41352917432E+01 -0.39001312800E+01  0.16305049578E+02  0.17267492690E+02  0.51100000000E-03 0. -1.
        -11    1    3    3    0    0  0.12500286272E+02  0.31161276557E+01  0.72158810104E+01  0.14766053889E+02  0.51100000000E-03 0.  1.
        -12    1    3    3    0    0  0.33671309829E+01  0.39987233090E+01  0.14861104499E+02  0.15753722928E+02  0.00000000000E+00 0.  1.
</event>
<event>
 7    1  0.6622189E-010  0.4778727E+02  0.7816164E-02  0.1312668E+00
        -11   -1    0    0    0    0  0.00000000000E+00  0.00000000000E+00  0.45593999997E+02  0.45594000000E+02  0.51100000000E-03 0. -1.
         11   -1    0    0    0    0 -0.00000000000E+00 -0.00000000000E+00 -0.45593999997E+02  0.45594000000E+02  0.51100000000E-03 0.  1.
    9900012    2    1    2    0    0 -0.24379416820E+02 -0.35453530060E+01  0.35730906083E+02  0.47787272564E+02  0.20000006930E+02 0.  0.
        -12    1    1    2    0    0  0.24379416820E+02  0.35453530060E+01 -0.35730906083E+02  0.43400727436E+02  0.00000000000E+00 0.  1.
         11    1    3    3    0    0 -0.53862462791E+01 -0.83725811734E+01  0.10120925400E+02  0.14196650862E+02  0.51100000000E-03 0. -1.
        -11    1    3    3    0    0 -0.17108255556E+02  0.68911042751E+01  0.19334528015E+02  0.26720847668E+02  0.51100000000E-03 0.  1.
        -12    1    3    3    0    0 -0.18849149856E+01 -0.20638761077E+01  0.62754526684E+01  0.68697740344E+01  0.00000000000E+00 0.  1.
</event>
<event>
 7    1  0.6622189E-010  0.4778727E+02  0.7816164E-02  0.1312668E+00
        -11   -1    0    0    0    0  0.00000000000E+00  0.00000000000E+00  0.45593999997E+02  0.45594000000E+02  0.51100000000E-03 0. -1.
         11   -1    0    0    0    0 -0.00000000000E+00 -0.00000000000E+00 -0.45593999997E+02  0.45594000000E+02  0.51100000000E-03 0.  1.
    9900012    2    1    2    0    0 -0.16021521157E+00 -0.10058433620E+02 -0.42218785908E+02  0.47787266834E+02  0.19999980805E+02 0.  0.
         12    1    1    2    0    0  0.16021521157E+00  0.10058433620E+02  0.42218785908E+02  0.43400733166E+02  0.00000000000E+00 0. -1.
         11    1    3    3    0    0  0.14252450798E+01 -0.67232655677E+01 -0.89824540364E+01  0.11310088603E+02  0.51100000000E-03 0. -1.
        -11    1    3    3    0    0 -0.15121046266E+01 -0.87132407619E+01 -0.14499060476E+02  0.16983220540E+02  0.51100000000E-03 0.  1.
        -12    1    3    3    0    0 -0.73355664771E-01  0.53780727092E+01 -0.18737271395E+02  0.19493957691E+02  0.00000000000E+00 0.  1.
</event>
<event>
 7    1  0.6622189E-010  0.4778727E+02  0.7816164E-02  0.1312668E+00
        -11   -1    0    0    0    0  0.00000000000E+00  0.00000000000E+00  0.45593999997E+02  0.45594000000E+02  0.51100000000E-03 0. -1.
         11   -1    0    0    0    0 -0.00000000000E+00 -0.00000000000E+00 -0.45593999997E+02  0.45594000000E+02  0.51100000000E-03 0.  1.
    9900012    2    1    2    0    0 -0.16891262621E+02 -0.36394114243E+02  0.16546209292E+02  0.47787270209E+02  0.19999996190E+02 0.  0.
        -12    1    1    2    0    0  0.16891262621E+02  0.36394114243E+02 -0.16546209292E+02  0.43400729791E+02  0.00000000000E+00 0.  1.
         11    1    3    3    0    0  0.14587429922E+01 -0.11615124839E+02  0.85915258556E+01  0.14520791058E+02  0.51100000000E-03 0. -1.
        -11    1    3    3    0    0 -0.24809020570E+01 -0.21360445576E-01  0.21697426354E+01  0.32959239448E+01  0.51100000000E-03 0.  1.
         12    1    3    3    0    0 -0.15869103557E+02 -0.24757628958E+02  0.57849408010E+01  0.29970555206E+02  0.00000000000E+00 0. -1.
</event>
<event>
 7    1  0.6622189E-010  0.4778727E+02  0.7816164E-02  0.1312668E+00
        -11   -1    0    0    0    0  0.00000000000E+00  0.00000000000E+00  0.45593999997E+02  0.45594000000E+02  0.51100000000E-03 0. -1.
         11   -1    0    0    0    0 -0.00000000000E+00 -0.00000000000E+00 -0.45593999997E+02  0.45594000000E+02  0.51100000000E-03 0.  1.
    9900012    2    1    2    0    0  0.31349602188E+02 -0.18762816733E+01  0.29955052237E+02  0.47787272532E+02  0.20000006782E+02 0.  0.
        -12    1    1    2    0    0 -0.31349602188E+02  0.18762816733E+01 -0.29955052237E+02  0.43400727468E+02  0.00000000000E+00 0.  1.
         11    1    3    3    0    0  0.11222364915E+01  0.46575629403E+01  0.20960390005E+01  0.52293103789E+01  0.51100000000E-03 0. -1.
        -11    1    3    3    0    0  0.36627074309E+00  0.82595753489E+00  0.26244269973E+01  0.27756039761E+01  0.51100000000E-03 0.  1.
         12    1    3    3    0    0  0.29861094953E+02 -0.73598021485E+01  0.25234586239E+02  0.39782358177E+02  0.00000000000E+00 0. -1.
</event>
<event>
 7    1  0.6622189E-010  0.4778727E+02  0.7816164E-02  0.1312668E+00
        -11   -1    0    0    0    0  0.00000000000E+00  0.00000000000E+00  0.45593999997E+02  0.45594000000E+02  0.51100000000E-03 0.  1.
         11   -1    0    0    0    0 -0.00000000000E+00 -0.00000000000E+00 -0.45593999997E+02  0.45594000000E+02  0.51100000000E-03 0. -1.
    9900012    2    1    2    0    0  0.38123569737E+02  0.86892441989E+01  0.18833847832E+02  0.47787270071E+02  0.19999995562E+02 0.  0.
        -12    1    1    2    0    0 -0.38123569737E+02 -0.86892441989E+01 -0.18833847832E+02  0.43400729929E+02  0.00000000000E+00 0.  1.
         11    1    3    3    0    0  0.22865542542E+02  0.19255163590E+01  0.37734125429E+01  0.23254661715E+02  0.51100000000E-03 0. -1.
        -11    1    3    3    0    0  0.16117811168E+02  0.78724358418E+01  0.14276158523E+02  0.22925265219E+02  0.51100000000E-03 0.  1.
         12    1    3    3    0    0 -0.85978397354E+00 -0.11087080019E+01  0.78427676578E+00  0.16073431370E+01  0.00000000000E+00 0. -1.
</event>
<event>
 7    1  0.6622189E-010  0.4778727E+02  0.7816164E-02  0.1312668E+00
        -11   -1    0    0    0    0  0.00000000000E+00  0.00000000000E+00  0.45593999997E+02  0.45594000000E+02  0.51100000000E-03 0. -1.
         11   -1    0    0    0    0 -0.00000000000E+00 -0.00000000000E+00 -0.45593999997E+02  0.45594000000E+02  0.51100000000E-03 0.  1.
    9900012    2    1    2    0    0 -0.17788150634E+02 -0.15811532955E+02 -0.36293251233E+02  0.47787274633E+02  0.20000016360E+02 0.  0.
         12    1    1    2    0    0  0.17788150634E+02  0.15811532955E+02  0.36293251233E+02  0.43400725367E+02  0.00000000000E+00 0. -1.
         11    1    3    3    0    0 -0.65379674997E+01 -0.16730803474E+01 -0.73745679219E+00  0.67888187233E+01  0.51100000000E-03 0. -1.
        -11    1    3    3    0    0 -0.95208830674E+01 -0.43492438767E+01 -0.18652176605E+02  0.21388474210E+02  0.51100000000E-03 0.  1.
         12    1    3    3    0    0 -0.17293000666E+01 -0.97892087308E+01 -0.16903617836E+02  0.19609981699E+02  0.00000000000E+00 0. -1.
</event>
<event>
 7    1  0.6622189E-010  0.4778727E+02  0.7816164E-02  0.1312668E+00
        -11   -1    0    0    0    0  0.00000000000E+00  0.00000000000E+00  0.45593999997E+02  0.45594000000E+02  0.51100000000E-03 0. -1.
         11   -1    0    0    0    0 -0.00000000000E+00 -0.00000000000E+00 -0.45593999997E+02  0.45594000000E+02  0.51100000000E-03 0.  1.
    9900012    2    1    2    0    0 -0.15227188242E+01  0.15673731191E+01 -0.43345679775E+02  0.47787270901E+02  0.19999999347E+02 0.  0.
         12    1    1    2    0    0  0.15227188242E+01 -0.15673731191E+01  0.43345679775E+02  0.43400729099E+02  0.00000000000E+00 0. -1.
         11    1    3    3    0    0 -0.50277649208E+01 -0.45775525292E+01 -0.17513885722E+02  0.18787458599E+02  0.51100000000E-03 0. -1.
        -11    1    3    3    0    0  0.74965607526E+01  0.33560337884E+01 -0.17867685662E+02  0.19665085229E+02  0.51100000000E-03 0.  1.
        -12    1    3    3    0    0 -0.39915146560E+01  0.27888918599E+01 -0.79641083921E+01  0.93347270734E+01  0.00000000000E+00 0.  1.
</event>
<event>
 7    1  0.6622189E-010  0.4778727E+02  0.7816164E-02  0.1312668E+00
        -11   -1    0    0    0    0  0.00000000000E+00  0.00000000000E+00  0.45593999997E+02  0.45594000000E+02  0.51100000000E-03 0. -1.
         11   -1    0    0    0    0 -0.00000000000E+00 -0.00000000000E+00 -0.45593999997E+02  0.45594000000E+02  0.51100000000E-03 0.  1.
    9900012    2    1    2    0    0 -0.56660214823E+01  0.74743521390E+01 -0.42375151643E+02  0.47787271710E+02  0.20000003037E+02 0.  0.
         12    1    1    2    0    0  0.56660214823E+01 -0.74743521390E+01  0.42375151643E+02  0.43400728290E+02  0.00000000000E+00 0. -1.
         11    1    3    3    0    0 -0.47747426589E+01  0.10390806023E+02 -0.12146776567E+02  0.16682661613E+02  0.51100000000E-03 0. -1.
        -11    1    3    3    0    0  0.89165773101E+00 -0.34454662556E+01 -0.27893294934E+02  0.28119427337E+02  0.51100000000E-03 0.  1.
        -12    1    3    3    0    0 -0.17829365544E+01  0.52901237200E+00 -0.23350801418E+01  0.29851827608E+01  0.00000000000E+00 0.  1.
</event>
<event>
 7    1  0.6622189E-010  0.4778727E+02  0.7816164E-02  0.1312668E+00
        -11   -1    0    0    0    0  0.00000000000E+00  0.00000000000E+00  0.45593999997E+02  0.45594000000E+02  0.51100000000E-03 0. -1.
         11   -1    0    0    0    0 -0.00000000000E+00 -0.00000000000E+00 -0.45593999997E+02  0.45594000000E+02  0.51100000000E-03 0.  1.
    9900012    2    1    2    0    0  0.25406429846E+02 -0.13745787177E+02  0.32391200928E+02  0.47787271432E+02  0.20000001768E+02 0.  0.
        -12    1    1    2    0    0 -0.25406429846E+02  0.13745787177E+02 -0.32391200928E+02  0.43400728568E+02  0.00000000000E+00 0.  1.
         11    1    3    3    0    0  0.61186091755E+01 -0.28532198539E+01  0.11271802991E+02  0.13138941537E+02  0.51100000000E-03 0. -1.
        -11    1    3    3    0    0 -0.18192053128E+01 -0.36283764350E+01  0.74203089402E+01  0.84578725784E+01  0.51100000000E-03 0.  1.
        -12    1    3    3    0    0  0.21107025983E+02 -0.72641908877E+01  0.13699088997E+02  0.26190457317E+02  0.00000000000E+00 0.  1.
</event>
<event>
 7    1  0.6998751E-010  0.4778727E+02  0.7816164E-02  0.1312668E+00
        -11   -1    0    0    0    0  0.00000000000E+00  0.00000000000E+00  0.45593999997E+02  0.45594000000E+02  0.51100000000E-03 0. -1.
         11   -1    0    0    0    0 -0.00000000000E+00 -0.00000000000E+00 -0.45593999997E+02  0.45594000000E+02  0.51100000000E-03 0.  1.
    9900012    2    1    2    0    0  0.12218906944E+02 -0.36069474018E+02 -0.20816214240E+02  0.47787269382E+02  0.19999992422E+02 0.  0.
         12    1    1    2    0    0 -0.12218906944E+02  0.36069474018E+02  0.20816214240E+02  0.43400730618E+02  0.00000000000E+00 0. -1.
         11    1    3    3    0    0  0.12723658661E+01  0.46150168595E+00 -0.61070169430E+00  0.14848755921E+01  0.51100000000E-03 0. -1.
        -11    1    3    3    0    0 -0.36240194919E+01 -0.93452170164E+01 -0.90451729719E+01  0.13501175975E+02  0.51100000000E-03 0.  1.
        -12    1    3    3    0    0  0.14570560570E+02 -0.27185758688E+02 -0.11160339574E+02  0.32801217815E+02  0.00000000000E+00 0.  1.
</event>
<event>
 7    1  0.6622189E-010  0.4778727E+02  0.7816164E-02  0.1312668E+00
        -11   -1    0    0    0    0  0.00000000000E+00  0.00000000000E+00  0.45593999997E+02  0.45594000000E+02  0.51100000000E-03 0. -1.
         11   -1    0    0    0    0 -0.00000000000E+00 -0.00000000000E+00 -0.45593999997E+02  0.45594000000E+02  0.51100000000E-03 0.  1.
    9900012    2    1    2    0    0 -0.32369960077E+02 -0.27571168253E+01 -0.28778588836E+02  0.47787272080E+02  0.20000004723E+02 0.  0.
         12    1    1    2    0    0  0.32369960077E+02  0.27571168253E+01  0.28778588836E+02  0.43400727920E+02  0.00000000000E+00 0. -1.
         11    1    3    3    0    0 -0.18970772463E+01  0.15697876248E+01  0.78057584075E+00  0.25831055282E+01  0.51100000000E-03 0. -1.
        -11    1    3    3    0    0 -0.10904030656E+02 -0.61924114210E+01 -0.44289028075E+01  0.13298835441E+02  0.51100000000E-03 0.  1.
        -12    1    3    3    0    0 -0.19568852175E+02  0.18655069710E+01 -0.25130261869E+02  0.31905331111E+02  0.00000000000E+00 0.  1.
</event>
<event>
 7    1  0.6622189E-010  0.4778727E+02  0.7816164E-02  0.1312668E+00
        -11   -1    0    0    0    0  0.00000000000E+00  0.00000000000E+00  0.45593999997E+02  0.45594000000E+02  0.51100000000E-03 0. -1.
         11   -1    0    0    0    0 -0.00000000000E+00 -0.00000000000E+00 -0.45593999997E+02  0.45594000000E+02  0.51100000000E-03 0.  1.
    9900012    2    1    2    0    0  0.13506593626E+01 -0.10619750183E+02  0.42059716009E+02  0.47787273216E+02  0.20000009901E+02 0.  0.
        -12    1    1    2    0    0 -0.13506593626E+01  0.10619750183E+02 -0.42059716009E+02  0.43400726784E+02  0.00000000000E+00 0.  1.
         11    1    3    3    0    0  0.64014933500E+00  0.39265310251E+01  0.19709169239E+02  0.20106685192E+02  0.51100000000E-03 0. -1.
        -11    1    3    3    0    0  0.14076293045E+01 -0.15011037741E+02  0.22190183615E+02  0.26827540392E+02  0.51100000000E-03 0.  1.
        -12    1    3    3    0    0 -0.69711927689E+00  0.46475653295E+00  0.16036315427E+00  0.85304763196E+00  0.00000000000E+00 0.  1.
</event>
<event>
 7    1  0.6622189E-010  0.4778727E+02  0.7816164E-02  0.1312668E+00
        -11   -1    0    0    0    0  0.00000000000E+00  0.00000000000E+00  0.45593999997E+02  0.45594000000E+02  0.51100000000E-03 0.  1.
         11   -1    0    0    0    0 -0.00000000000E+00 -0.00000000000E+00 -0.45593999997E+02  0.45594000000E+02  0.51100000000E-03 0. -1.
    9900012    2    1    2    0    0  0.36755732792E+02 -0.20175286954E+02 -0.11207005000E+02  0.47787273533E+02  0.20000011348E+02 0.  0.
         12    1    1    2    0    0 -0.36755732792E+02  0.20175286954E+02  0.11207005000E+02  0.43400726467E+02  0.00000000000E+00 0. -1.
         11    1    3    3    0    0  0.30425728904E+02 -0.17508719632E+02 -0.11903908691E+02  0.37067280516E+02  0.51100000000E-03 0.  1.
        -11    1    3    3    0    0 -0.28223711230E+00 -0.37187217734E+01  0.14092106724E+01  0.39867812074E+01  0.51100000000E-03 0. -1.
        -12    1    3    3    0    0  0.66122410005E+01  0.10521544516E+01 -0.71230698166E+00  0.67332118098E+01  0.00000000000E+00 0.  1.
</event>
<event>
 7    1  0.6622189E-010  0.4778729E+02  0.7816164E-02  0.1312668E+00
        -11   -1    0    0    0    0  0.00000000000E+00  0.00000000000E+00  0.45593999997E+02  0.45594000000E+02  0.51100000000E-03 0. -1.
         11   -1    0    0    0    0 -0.00000000000E+00 -0.00000000000E+00 -0.45593999997E+02  0.45594000000E+02  0.51100000000E-03 0.  1.
    9900012    2    1    2    0    0 -0.15748454539E+02  0.22533869113E+02 -0.33583212032E+02  0.47787294845E+02  0.20000108515E+02 0.  0.
         12    1    1    2    0    0  0.15748454539E+02 -0.22533869113E+02  0.33583212032E+02  0.43400705155E+02  0.00000000000E+00 0. -1.
         11    1    3    3    0    0 -0.12975942077E+02  0.10190845848E+02 -0.13488890272E+02  0.21311465762E+02  0.51100000000E-03 0. -1.
        -11    1    3    3    0    0  0.50053287917E+00  0.13682964842E+02 -0.15592321845E+02  0.20750772535E+02  0.51100000000E-03 0.  1.
         12    1    3    3    0    0 -0.32730453421E+01 -0.13399415774E+01 -0.45019999149E+01  0.57250565479E+01  0.00000000000E+00 0. -1.
</event>
<event>
 7    1  0.6622189E-010  0.4778727E+02  0.7816164E-02  0.1312668E+00
        -11   -1    0    0    0    0  0.00000000000E+00  0.00000000000E+00  0.45593999997E+02  0.45594000000E+02  0.51100000000E-03 0. -1.
         11   -1    0    0    0    0 -0.00000000000E+00 -0.00000000000E+00 -0.45593999997E+02  0.45594000000E+02  0.51100000000E-03 0.  1.
    9900012    2    1    2    0    0  0.48799086558E+01  0.15455638496E+02  0.40260816340E+02  0.47787267262E+02  0.19999982756E+02 0.  0.
        -12    1    1    2    0    0 -0.48799086558E+01 -0.15455638496E+02 -0.40260816340E+02  0.43400732738E+02  0.00000000000E+00 0.  1.
         11    1    3    3    0    0 -0.62040978757E+00  0.17715528000E+01  0.19722376414E+02  0.19811497655E+02  0.51100000000E-03 0. -1.
        -11    1    3    3    0    0 -0.16964003542E+01  0.66790257254E+01  0.25011095297E+01  0.73309418183E+01  0.51100000000E-03 0.  1.
        -12    1    3    3    0    0  0.71967187976E+01  0.70050599703E+01  0.18037330396E+02  0.20644827789E+02  0.00000000000E+00 0.  1.
</event>
<event>
 7    1  0.6622189E-010  0.4778727E+02  0.7816164E-02  0.1312668E+00
        -11   -1    0    0    0    0  0.00000000000E+00  0.00000000000E+00  0.45593999997E+02  0.45594000000E+02  0.51100000000E-03 0.  1.
         11   -1    0    0    0    0 -0.00000000000E+00 -0.00000000000E+00 -0.45593999997E+02  0.45594000000E+02  0.51100000000E-03 0. -1.
    9900012    2    1    2    0    0  0.18015840115E+02 -0.39438411766E+02  0.19142873624E+01  0.47787270585E+02  0.19999997905E+02 0.  0.
         12    1    1    2    0    0 -0.18015840115E+02  0.39438411766E+02 -0.19142873624E+01  0.43400729415E+02  0.00000000000E+00 0. -1.
         11    1    3    3    0    0  0.16768187630E+02 -0.29003190733E+02 -0.21447447667E+00  0.33502286320E+02  0.51100000000E-03 0. -1.
        -11    1    3    3    0    0  0.44465726406E+01 -0.92913284039E+01  0.30905483182E+01  0.10754175046E+02  0.51100000000E-03 0.  1.
         12    1    3    3    0    0 -0.31989201556E+01 -0.11438926287E+01 -0.96178647918E+00  0.35308092187E+01  0.00000000000E+00 0. -1.
</event>
<event>
 7    1  0.6622189E-010  0.4778722E+02  0.7816164E-02  0.1312668E+00
        -11   -1    0    0    0    0  0.00000000000E+00  0.00000000000E+00  0.45593999997E+02  0.45594000000E+02  0.51100000000E-03 0. -1.
         11   -1    0    0    0    0 -0.00000000000E+00 -0.00000000000E+00 -0.45593999997E+02  0.45594000000E+02  0.51100000000E-03 0.  1.
    9900012    2    1    2    0    0 -0.25519626586E+02 -0.29440140389E+02  0.19122083462E+02  0.47787224855E+02  0.19999789405E+02 0.  0.
        -12    1    1    2    0    0  0.25519626586E+02  0.29440140389E+02 -0.19122083462E+02  0.43400775145E+02  0.00000000000E+00 0.  1.
         11    1    3    3    0    0 -0.93805661206E+01 -0.41886275840E+01  0.32111656942E+01  0.10763419863E+02  0.51100000000E-03 0. -1.
        -11    1    3    3    0    0 -0.10846746820E+02 -0.19413979196E+02  0.18289263826E+02  0.28793257481E+02  0.51100000000E-03 0.  1.
        -12    1    3    3    0    0 -0.52923136452E+01 -0.58375336089E+01 -0.23783460584E+01  0.82305475108E+01  0.00000000000E+00 0.  1.
</event>
<event>
 7    1  0.6622189E-010  0.4778727E+02  0.7816164E-02  0.1312668E+00
        -11   -1    0    0    0    0  0.00000000000E+00  0.00000000000E+00  0.45593999997E+02  0.45594000000E+02  0.51100000000E-03 0. -1.
         11   -1    0    0    0    0 -0.00000000000E+00 -0.00000000000E+00 -0.45593999997E+02  0.45594000000E+02  0.51100000000E-03 0.  1.
    9900012    2    1    2    0    0 -0.28034932937E+02 -0.11090746302E+02 -0.31219566580E+02  0.47787268949E+02  0.19999990446E+02 0.  0.
         12    1    1    2    0    0  0.28034932937E+02  0.11090746302E+02  0.31219566580E+02  0.43400731051E+02  0.00000000000E+00 0. -1.
         11    1    3    3    0    0 -0.85110337972E+01 -0.71519005979E+01 -0.35195730640E+01  0.11660822153E+02  0.51100000000E-03 0. -1.
        -11    1    3    3    0    0 -0.82678797227E+01  0.53382476295E+00 -0.20317463361E+02  0.21941789390E+02  0.51100000000E-03 0.  1.
         12    1    3    3    0    0 -0.11256019417E+02 -0.44726704672E+01 -0.73825301553E+01  0.14184657406E+02  0.00000000000E+00 0. -1.
</event>
<event>
 7    1  0.6622189E-010  0.4778727E+02  0.7816164E-02  0.1312668E+00
        -11   -1    0    0    0    0  0.00000000000E+00  0.00000000000E+00  0.45593999997E+02  0.45594000000E+02  0.51100000000E-03 0. -1.
         11   -1    0    0    0    0 -0.00000000000E+00 -0.00000000000E+00 -0.45593999997E+02  0.45594000000E+02  0.51100000000E-03 0.  1.
    9900012    2    1    2    0    0 -0.29659317133E+02 -0.98320480067E+01 -0.30121066994E+02  0.47787274918E+02  0.20000017660E+02 0.  0.
         12    1    1    2    0    0  0.29659317133E+02  0.98320480067E+01  0.30121066994E+02  0.43400725082E+02  0.00000000000E+00 0. -1.
         11    1    3    3    0    0 -0.11011811801E+02 -0.19578374089E+01 -0.17708483715E+00  0.11185905674E+02  0.51100000000E-03 0. -1.
        -11    1    3    3    0    0 -0.25566868789E+01 -0.34990007821E+01 -0.53028594789E+01  0.68483555094E+01  0.51100000000E-03 0.  1.
         12    1    3    3    0    0 -0.16090818453E+02 -0.43752098158E+01 -0.24641122678E+02  0.29753013734E+02  0.00000000000E+00 0. -1.
</event>
<event>
 7    1  0.1052938E-009  0.4778727E+02  0.7816164E-02  0.1312668E+00
        -11   -1    0    0    0    0  0.00000000000E+00  0.00000000000E+00  0.45593999997E+02  0.45594000000E+02  0.51100000000E-03 0. -1.
         11   -1    0    0    0    0 -0.00000000000E+00 -0.00000000000E+00 -0.45593999997E+02  0.45594000000E+02  0.51100000000E-03 0.  1.
    9900012    2    1    2    0    0 -0.83842987859E+01 -0.21867638524E+01  0.42526986044E+02  0.47787274842E+02  0.20000017314E+02 0.  0.
        -12    1    1    2    0    0  0.83842987859E+01  0.21867638524E+01 -0.42526986044E+02  0.43400725158E+02  0.00000000000E+00 0.  1.
         11    1    3    3    0    0 -0.50197565447E+01  0.45364763911E+00  0.34237552629E+02  0.34606556637E+02  0.51100000000E-03 0. -1.
        -11    1    3    3    0    0  0.23637284415E+01  0.15836337441E+01  0.10613244427E+01  0.30366952126E+01  0.51100000000E-03 0.  1.
         12    1    3    3    0    0 -0.57282706827E+01 -0.42240452356E+01  0.72281089717E+01  0.10144022993E+02  0.00000000000E+00 0. -1.
</event>
<event>
 7    1  0.6622189E-010  0.4778727E+02  0.7816164E-02  0.1312668E+00
        -11   -1    0    0    0    0  0.00000000000E+00  0.00000000000E+00  0.45593999997E+02  0.45594000000E+02  0.51100000000E-03 0. -1.
         11   -1    0    0    0    0 -0.00000000000E+00 -0.00000000000E+00 -0.45593999997E+02  0.45594000000E+02  0.51100000000E-03 0.  1.
    9900012    2    1    2    0    0 -0.40626133185E+02  0.31878634349E+01  0.14932448998E+02  0.47787271850E+02  0.20000003675E+02 0.  0.
        -12    1    1    2    0    0  0.40626133185E+02 -0.31878634349E+01 -0.14932448998E+02  0.43400728150E+02  0.00000000000E+00 0.  1.
         11    1    3    3    0    0 -0.31668468474E+02  0.26178152708E+01  0.94974677519E+01  0.33165445064E+02  0.51100000000E-03 0. -1.
        -11    1    3    3    0    0 -0.51207341999E+01 -0.19090761622E+01 -0.20633452250E+01  0.58415652284E+01  0.51100000000E-03 0.  1.
         12    1    3    3    0    0 -0.38369305107E+01  0.24791243263E+01  0.74983264709E+01  0.87802615584E+01  0.00000000000E+00 0. -1.
</event>
<event>
 7    1  0.6622189E-010  0.4778727E+02  0.7816164E-02  0.1312668E+00
        -11   -1    0    0    0    0  0.00000000000E+00  0.00000000000E+00  0.45593999997E+02  0.45594000000E+02  0.51100000000E-03 0. -1.
         11   -1    0    0    0    0 -0.00000000000E+00 -0.00000000000E+00 -0.45593999997E+02  0.45594000000E+02  0.51100000000E-03 0.  1.
    9900012    2    1    2    0    0 -0.25809861247E+02 -0.26457432856E+02  0.22748165615E+02  0.47787265793E+02  0.19999976055E+02 0.  0.
        -12    1    1    2    0    0  0.25809861247E+02  0.26457432856E+02 -0.22748165615E+02  0.43400734207E+02  0.00000000000E+00 0.  1.
         11    1    3    3    0    0 -0.14632279359E+02 -0.16592669690E+02  0.20275522902E+02  0.30008617361E+02  0.51100000000E-03 0. -1.
        -11    1    3    3    0    0 -0.97513248427E+01 -0.11575530347E+02  0.11290994716E+01  0.15177486778E+02  0.51100000000E-03 0.  1.
         12    1    3    3    0    0 -0.14262570451E+01  0.17107671821E+01  0.13435432413E+01  0.26011616542E+01  0.00000000000E+00 0. -1.
</event>
<event>
 7    1  0.6622189E-010  0.4778727E+02  0.7816164E-02  0.1312668E+00
        -11   -1    0    0    0    0  0.00000000000E+00  0.00000000000E+00  0.45593999997E+02  0.45594000000E+02  0.51100000000E-03 0. -1.
         11   -1    0    0    0    0 -0.00000000000E+00 -0.00000000000E+00 -0.45593999997E+02  0.45594000000E+02  0.51100000000E-03 0.  1.
    9900012    2    1    2    0    0  0.38138346813E+01 -0.30099991562E+02 -0.31033348254E+02  0.47787268084E+02  0.19999986503E+02 0.  0.
         12    1    1    2    0    0 -0.38138346813E+01  0.30099991562E+02  0.31033348254E+02  0.43400731916E+02  0.00000000000E+00 0. -1.
         11    1    3    3    0    0  0.10971745019E+02 -0.23981857892E+02 -0.19457614679E+02  0.32773578779E+02  0.51100000000E-03 0. -1.
        -11    1    3    3    0    0 -0.52313090494E+01 -0.50824183399E+01 -0.96725067603E+01  0.12114246070E+02  0.51100000000E-03 0.  1.
         12    1    3    3    0    0 -0.19266012883E+01 -0.10357153294E+01 -0.19032268142E+01  0.28994432351E+01  0.00000000000E+00 0. -1.
</event>
<event>
 7    1  0.6622189E-010  0.4778727E+02  0.7816164E-02  0.1312668E+00
        -11   -1    0    0    0    0  0.00000000000E+00  0.00000000000E+00  0.45593999997E+02  0.45594000000E+02  0.51100000000E-03 0. -1.
         11   -1    0    0    0    0 -0.00000000000E+00 -0.00000000000E+00 -0.45593999997E+02  0.45594000000E+02  0.51100000000E-03 0.  1.
    9900012    2    1    2    0    0  0.41205589833E+02  0.99331837023E+01  0.93303030996E+01  0.47787270422E+02  0.19999997163E+02 0.  0.
        -12    1    1    2    0    0 -0.41205589833E+02 -0.99331837023E+01 -0.93303030996E+01  0.43400729578E+02  0.00000000000E+00 0.  1.
         11    1    3    3    0    0  0.22489203849E+02  0.53096424069E+01  0.24201476712E+01  0.23233891350E+02  0.51100000000E-03 0. -1.
        -11    1    3    3    0    0  0.14848017596E+00 -0.31675100526E+01  0.22408830161E+01  0.38828756417E+01  0.51100000000E-03 0.  1.
        -12    1    3    3    0    0  0.18567905808E+02  0.77910513480E+01  0.46692724122E+01  0.20670503430E+02  0.00000000000E+00 0.  1.
</event>
<event>
 7    1  0.6622189E-010  0.4778727E+02  0.7816164E-02  0.1312668E+00
        -11   -1    0    0    0    0  0.00000000000E+00  0.00000000000E+00  0.45593999997E+02  0.45594000000E+02  0.51100000000E-03 0. -1.
         11   -1    0    0    0    0 -0.00000000000E+00 -0.00000000000E+00 -0.45593999997E+02  0.45594000000E+02  0.51100000000E-03 0.  1.
    9900012    2    1    2    0    0 -0.36060183436E+02 -0.34896666834E+01  0.23897883583E+02  0.47787269099E+02  0.19999991128E+02 0.  0.
        -12    1    1    2    0    0  0.36060183436E+02  0.34896666834E+01 -0.23897883583E+02  0.43400730901E+02  0.00000000000E+00 0.  1.
         11    1    3    3    0    0 -0.56703321490E+00  0.35222248667E+01  0.34996403503E+01  0.49975071306E+01  0.51100000000E-03 0. -1.
        -11    1    3    3    0    0 -0.26637181202E+02 -0.49626706951E+01  0.20024781659E+02  0.33692126730E+02  0.51100000000E-03 0.  1.
        -12    1    3    3    0    0 -0.88559690191E+01 -0.20492208550E+01  0.37346157418E+00  0.90976352382E+01  0.00000000000E+00 0.  1.
</event>
<event>
 7    1  0.6622189E-010  0.4778725E+02  0.7816164E-02  0.1312668E+00
        -11   -1    0    0    0    0  0.00000000000E+00  0.00000000000E+00  0.45593999997E+02  0.45594000000E+02  0.51100000000E-03 0. -1.
         11   -1    0    0    0    0 -0.00000000000E+00 -0.00000000000E+00 -0.45593999997E+02  0.45594000000E+02  0.51100000000E-03 0.  1.
    9900012    2    1    2    0    0  0.32314916322E+02 -0.14663814699E+02  0.24986867320E+02  0.47787253268E+02  0.19999918948E+02 0.  0.
        -12    1    1    2    0    0 -0.32314916322E+02  0.14663814699E+02 -0.24986867320E+02  0.43400746732E+02  0.00000000000E+00 0.  1.
         11    1    3    3    0    0  0.11009549376E+02  0.19905087706E+01  0.11898970316E+02  0.16332721680E+02  0.51100000000E-03 0. -1.
        -11    1    3    3    0    0  0.24504843901E+01 -0.63070668520E+01  0.11733523993E+01  0.68673664629E+01  0.51100000000E-03 0.  1.
         12    1    3    3    0    0  0.18854882557E+02 -0.10347256618E+02  0.11914544604E+02  0.24587165125E+02  0.00000000000E+00 0. -1.
</event>
<event>
 7    1  0.6622189E-010  0.4778727E+02  0.7816164E-02  0.1312668E+00
        -11   -1    0    0    0    0  0.00000000000E+00  0.00000000000E+00  0.45593999997E+02  0.45594000000E+02  0.51100000000E-03 0.  1.
         11   -1    0    0    0    0 -0.00000000000E+00 -0.00000000000E+00 -0.45593999997E+02  0.45594000000E+02  0.51100000000E-03 0. -1.
    9900012    2    1    2    0    0 -0.32416428666E+02 -0.26735034851E+02  0.10864440287E+02  0.47787274215E+02  0.20000014457E+02 0.  0.
         12    1    1    2    0    0  0.32416428666E+02  0.26735034851E+02 -0.10864440287E+02  0.43400725785E+02  0.00000000000E+00 0. -1.
         11    1    3    3    0    0 -0.12828593058E+02 -0.10686765594E+02 -0.15756517491E+00  0.16697442492E+02  0.51100000000E-03 0. -1.
        -11    1    3    3    0    0 -0.82989975909E+01 -0.15479647049E+02  0.48971369009E+01  0.18233891079E+02  0.51100000000E-03 0.  1.
        -12    1    3    3    0    0 -0.11288838016E+02 -0.56862220710E+00  0.61248685609E+01  0.12855940645E+02  0.00000000000E+00 0.  1.
</event>
<event>
 7    1  0.6622189E-010  0.4778728E+02  0.7816164E-02  0.1312668E+00
        -11   -1    0    0    0    0  0.00000000000E+00  0.00000000000E+00  0.45593999997E+02  0.45594000000E+02  0.51100000000E-03 0. -1.
         11   -1    0    0    0    0 -0.00000000000E+00 -0.00000000000E+00 -0.45593999997E+02  0.45594000000E+02  0.51100000000E-03 0.  1.
    9900012    2    1    2    0    0  0.16362537933E+02  0.41653882682E+01  0.39981741740E+02  0.47787276739E+02  0.20000025963E+02 0.  0.
        -12    1    1    2    0    0 -0.16362537933E+02 -0.41653882682E+01 -0.39981741740E+02  0.43400723261E+02  0.00000000000E+00 0.  1.
         11    1    3    3    0    0  0.15499900853E+02  0.59480386062E+01  0.14761188037E+02  0.22215282178E+02  0.51100000000E-03 0. -1.
        -11    1    3    3    0    0  0.11858452859E+01 -0.12391652945E+01  0.24681665341E+02  0.24741187602E+02  0.51100000000E-03 0.  1.
        -12    1    3    3    0    0 -0.32320820595E+00 -0.54348504354E+00  0.53888836152E+00  0.83080695900E+00  0.00000000000E+00 0.  1.
</event>
<event>
 7    1  0.6622189E-010  0.4778727E+02  0.7816164E-02  0.1312668E+00
        -11   -1    0    0    0    0  0.00000000000E+00  0.00000000000E+00  0.45593999997E+02  0.45594000000E+02  0.51100000000E-03 0. -1.
         11   -1    0    0    0    0 -0.00000000000E+00 -0.00000000000E+00 -0.45593999997E+02  0.45594000000E+02  0.51100000000E-03 0.  1.
    9900012    2    1    2    0    0  0.24758273808E+02  0.16031285904E+02 -0.31837853580E+02  0.47787272238E+02  0.20000005442E+02 0.  0.
         12    1    1    2    0    0 -0.24758273808E+02 -0.16031285904E+02  0.31837853580E+02  0.43400727762E+02  0.00000000000E+00 0. -1.
         11    1    3    3    0    0  0.84157056847E+01 -0.12772750375E+01 -0.23892097016E+01  0.88410325727E+01  0.51100000000E-03 0. -1.
        -11    1    3    3    0    0  0.15654600142E+02  0.18054723188E+02 -0.25832216029E+02  0.35190096906E+02  0.51100000000E-03 0.  1.
         12    1    3    3    0    0  0.68796798093E+00 -0.74616224617E+00 -0.36164278494E+01  0.37561427596E+01  0.00000000000E+00 0. -1.
</event>
<event>
 7    1  0.6622189E-010  0.4778728E+02  0.7816164E-02  0.1312668E+00
        -11   -1    0    0    0    0  0.00000000000E+00  0.00000000000E+00  0.45593999997E+02  0.45594000000E+02  0.51100000000E-03 0. -1.
         11   -1    0    0    0    0 -0.00000000000E+00 -0.00000000000E+00 -0.45593999997E+02  0.45594000000E+02  0.51100000000E-03 0.  1.
    9900012    2    1    2    0    0 -0.28253941912E+02  0.93161839906E+01 -0.31599782124E+02  0.47787277103E+02  0.20000027623E+02 0.  0.
         12    1    1    2    0    0  0.28253941912E+02 -0.93161839906E+01  0.31599782124E+02  0.43400722897E+02  0.00000000000E+00 0. -1.
         11    1    3    3    0    0 -0.48792657440E+01  0.89598575657E+01 -0.10064282454E+02  0.14330947748E+02  0.51100000000E-03 0. -1.
        -11    1    3    3    0    0 -0.18192615838E+02 -0.27394697470E+01 -0.11351821385E+02  0.21618043726E+02  0.51100000000E-03 0.  1.
        -12    1    3    3    0    0 -0.51820603298E+01  0.30957961719E+01 -0.10183678285E+02  0.11838285628E+02  0.00000000000E+00 0.  1.
</event>
<event>
 7    1  0.6622189E-010  0.4778727E+02  0.7816164E-02  0.1312668E+00
        -11   -1    0    0    0    0  0.00000000000E+00  0.00000000000E+00  0.45593999997E+02  0.45594000000E+02  0.51100000000E-03 0. -1.
         11   -1    0    0    0    0 -0.00000000000E+00 -0.00000000000E+00 -0.45593999997E+02  0.45594000000E+02  0.51100000000E-03 0.  1.
    9900012    2    1    2    0    0 -0.18966122410E+02 -0.96776954765E+01  0.37818667545E+02  0.47787271851E+02  0.20000003676E+02 0.  0.
        -12    1    1    2    0    0  0.18966122410E+02  0.96776954765E+01 -0.37818667545E+02  0.43400728149E+02  0.00000000000E+00 0.  1.
         11    1    3    3    0    0 -0.62184967384E+01  0.28735684822E+01  0.92789178931E+01  0.11533664424E+02  0.51100000000E-03 0. -1.
        -11    1    3    3    0    0 -0.38684039463E+01 -0.12416217058E+02  0.13208542460E+02  0.18536250681E+02  0.51100000000E-03 0.  1.
        -12    1    3    3    0    0 -0.88792217255E+01 -0.13504690093E+00  0.15331207192E+02  0.17717356746E+02  0.00000000000E+00 0.  1.
</event>
<event>
 7    1  0.6622189E-010  0.4778727E+02  0.7816164E-02  0.1312668E+00
        -11   -1    0    0    0    0  0.00000000000E+00  0.00000000000E+00  0.45593999997E+02  0.45594000000E+02  0.51100000000E-03 0. -1.
         11   -1    0    0    0    0 -0.00000000000E+00 -0.00000000000E+00 -0.45593999997E+02  0.45594000000E+02  0.51100000000E-03 0.  1.
    9900012    2    1    2    0    0 -0.35264072559E+02 -0.17167342824E+01 -0.25241266778E+02  0.47787267995E+02  0.19999986096E+02 0.  0.
         12    1    1    2    0    0  0.35264072559E+02  0.17167342824E+01  0.25241266778E+02  0.43400732005E+02  0.00000000000E+00 0. -1.
         11    1    3    3    0    0 -0.19735057930E+01  0.12456272990E+01 -0.74964339201E+01  0.78512950692E+01  0.51100000000E-03 0. -1.
        -11    1    3    3    0    0 -0.31482073188E+02  0.56286782652E+00 -0.17359069156E+02  0.35955180915E+02  0.51100000000E-03 0.  1.
        -12    1    3    3    0    0 -0.18084935785E+01 -0.35252294080E+01 -0.38576370116E+00  0.39807920111E+01  0.00000000000E+00 0.  1.
</event>
<event>
 7    1  0.6622189E-010  0.4778727E+02  0.7816164E-02  0.1312668E+00
        -11   -1    0    0    0    0  0.00000000000E+00  0.00000000000E+00  0.45593999997E+02  0.45594000000E+02  0.51100000000E-03 0. -1.
         11   -1    0    0    0    0 -0.00000000000E+00 -0.00000000000E+00 -0.45593999997E+02  0.45594000000E+02  0.51100000000E-03 0.  1.
    9900012    2    1    2    0    0  0.38421486478E+02  0.33435291832E+01  0.19905611612E+02  0.47787272077E+02  0.20000004708E+02 0.  0.
        -12    1    1    2    0    0 -0.38421486478E+02 -0.33435291832E+01 -0.19905611612E+02  0.43400727923E+02  0.00000000000E+00 0.  1.
         11    1    3    3    0    0  0.25795660572E+02  0.28275379334E+01  0.53987187966E+01  0.26505796348E+02  0.51100000000E-03 0.  1.
        -11    1    3    3    0    0  0.17308034729E+01  0.28274662876E+01  0.72948054161E+01  0.80127668498E+01  0.51100000000E-03 0. -1.
         12    1    3    3    0    0  0.10895022433E+02 -0.23114750378E+01  0.72120873991E+01  0.13268708879E+02  0.00000000000E+00 0. -1.
</event>
<event>
 7    1  0.6622189E-010  0.4778727E+02  0.7816164E-02  0.1312668E+00
        -11   -1    0    0    0    0  0.00000000000E+00  0.00000000000E+00  0.45593999997E+02  0.45594000000E+02  0.51100000000E-03 0. -1.
         11   -1    0    0    0    0 -0.00000000000E+00 -0.00000000000E+00 -0.45593999997E+02  0.45594000000E+02  0.51100000000E-03 0.  1.
    9900012    2    1    2    0    0 -0.13346791050E+02 -0.32142063298E+02 -0.25930180625E+02  0.47787270379E+02  0.19999996967E+02 0.  0.
         12    1    1    2    0    0  0.13346791050E+02  0.32142063298E+02  0.25930180625E+02  0.43400729621E+02  0.00000000000E+00 0. -1.
         11    1    3    3    0    0 -0.80939408920E+00 -0.39048331192E+01 -0.61634306891E+01  0.73410298052E+01  0.51100000000E-03 0. -1.
        -11    1    3    3    0    0 -0.15562124205E+02 -0.16637879155E+02 -0.16149954214E+02  0.27925252979E+02  0.51100000000E-03 0.  1.
        -12    1    3    3    0    0  0.30247272443E+01 -0.11599351023E+02 -0.36167957222E+01  0.12520987595E+02  0.00000000000E+00 0.  1.
</event>
<event>
 7    1  0.6622189E-010  0.4778728E+02  0.7816164E-02  0.1312668E+00
        -11   -1    0    0    0    0  0.00000000000E+00  0.00000000000E+00  0.45593999997E+02  0.45594000000E+02  0.51100000000E-03 0. -1.
         11   -1    0    0    0    0 -0.00000000000E+00 -0.00000000000E+00 -0.45593999997E+02  0.45594000000E+02  0.51100000000E-03 0.  1.
    9900012    2    1    2    0    0  0.60135821772E+01 -0.54684328338E+01 -0.42632797914E+02  0.47787281271E+02  0.20000046625E+02 0.  0.
         12    1    1    2    0    0 -0.60135821772E+01  0.54684328338E+01  0.42632797914E+02  0.43400718729E+02  0.00000000000E+00 0. -1.
         11    1    3    3    0    0  0.54034307094E+01  0.66458006816E+01 -0.16300681780E+02  0.18414015230E+02  0.51100000000E-03 0. -1.
        -11    1    3    3    0    0 -0.90044874926E+00 -0.51419605546E+01 -0.15900622079E+02  0.16735601246E+02  0.51100000000E-03 0.  1.
         12    1    3    3    0    0  0.15106002171E+01 -0.69722729609E+01 -0.10431494054E+02  0.12637664795E+02  0.00000000000E+00 0. -1.
</event>
<event>
 7    1  0.6622189E-010  0.4778729E+02  0.7816164E-02  0.1312668E+00
        -11   -1    0    0    0    0  0.00000000000E+00  0.00000000000E+00  0.45593999997E+02  0.45594000000E+02  0.51100000000E-03 0. -1.
         11   -1    0    0    0    0 -0.00000000000E+00 -0.00000000000E+00 -0.45593999997E+02  0.45594000000E+02  0.51100000000E-03 0.  1.
    9900012    2    1    2    0    0 -0.24406284798E+02  0.25298739032E+02 -0.25454436005E+02  0.47787294400E+02  0.20000106486E+02 0.  0.
         12    1    1    2    0    0  0.24406284798E+02 -0.25298739032E+02  0.25454436005E+02  0.43400705600E+02  0.00000000000E+00 0. -1.
         11    1    3    3    0    0 -0.19083488510E+02  0.89236644063E+01 -0.12915858302E+02  0.24710943246E+02  0.51100000000E-03 0. -1.
        -11    1    3    3    0    0 -0.61856923511E+01  0.15676411474E+02 -0.13511343430E+02  0.21600209909E+02  0.51100000000E-03 0.  1.
         12    1    3    3    0    0  0.86289606345E+00  0.69866315185E+00  0.97276572694E+00  0.14761412451E+01  0.00000000000E+00 0. -1.
</event>
<event>
 7    1  0.6622189E-010  0.4778729E+02  0.7816164E-02  0.1312668E+00
        -11   -1    0    0    0    0  0.00000000000E+00  0.00000000000E+00  0.45593999997E+02  0.45594000000E+02  0.51100000000E-03 0. -1.
         11   -1    0    0    0    0 -0.00000000000E+00 -0.00000000000E+00 -0.45593999997E+02  0.45594000000E+02  0.51100000000E-03 0.  1.
    9900012    2    1    2    0    0  0.37791956701E+02 -0.97939145979E+01  0.18959669446E+02  0.47787287795E+02  0.20000076370E+02 0.  0.
        -12    1    1    2    0    0 -0.37791956701E+02  0.97939145979E+01 -0.18959669446E+02  0.43400712205E+02  0.00000000000E+00 0.  1.
         11    1    3    3    0    0  0.34633967688E+02 -0.25872898488E+01  0.13571587464E+02  0.37287984300E+02  0.51100000000E-03 0. -1.
        -11    1    3    3    0    0  0.34149959842E+01 -0.69016907563E+01  0.33071441647E+01  0.83804973394E+01  0.51100000000E-03 0.  1.
         12    1    3    3    0    0 -0.25700697163E+00 -0.30493399279E+00  0.20809378174E+01  0.21188061552E+01  0.00000000000E+00 0. -1.
</event>
<event>
 7    1  0.6622189E-010  0.4778727E+02  0.7816164E-02  0.1312668E+00
        -11   -1    0    0    0    0  0.00000000000E+00  0.00000000000E+00  0.45593999997E+02  0.45594000000E+02  0.51100000000E-03 0. -1.
         11   -1    0    0    0    0 -0.00000000000E+00 -0.00000000000E+00 -0.45593999997E+02  0.45594000000E+02  0.51100000000E-03 0.  1.
    9900012    2    1    2    0    0 -0.19519715496E+02  0.10190013384E+02 -0.37400099029E+02  0.47787273356E+02  0.20000010541E+02 0.  0.
         12    1    1    2    0    0  0.19519715496E+02 -0.10190013384E+02  0.37400099029E+02  0.43400726644E+02  0.00000000000E+00 0. -1.
         11    1    3    3    0    0 -0.64416378143E+01  0.68662005832E+01 -0.38517336309E+01  0.10172279017E+02  0.51100000000E-03 0. -1.
        -11    1    3    3    0    0 -0.11875957595E+02 -0.15032548112E+01 -0.22132735768E+02  0.25162593997E+02  0.51100000000E-03 0.  1.
        -12    1    3    3    0    0 -0.12021200875E+01  0.48270676116E+01 -0.11415629630E+02  0.12452400342E+02  0.00000000000E+00 0.  1.
</event>
<event>
 7    1  0.6622189E-010  0.4778725E+02  0.7816164E-02  0.1312668E+00
        -11   -1    0    0    0    0  0.00000000000E+00  0.00000000000E+00  0.45593999997E+02  0.45594000000E+02  0.51100000000E-03 0. -1.
         11   -1    0    0    0    0 -0.00000000000E+00 -0.00000000000E+00 -0.45593999997E+02  0.45594000000E+02  0.51100000000E-03 0.  1.
    9900012    2    1    2    0    0  0.87540467243E+01  0.16744510579E+01 -0.42475736953E+02  0.47787247125E+02  0.19999890941E+02 0.  0.
         12    1    1    2    0    0 -0.87540467243E+01 -0.16744510579E+01  0.42475736953E+02  0.43400752875E+02  0.00000000000E+00 0. -1.
         11    1    3    3    0    0 -0.38071320551E+01  0.41139072605E+01 -0.13160127782E+02  0.14304106087E+02  0.51100000000E-03 0. -1.
        -11    1    3    3    0    0  0.12892411377E+02 -0.33610089180E+01 -0.29602614135E+02  0.32462677276E+02  0.51100000000E-03 0.  1.
        -12    1    3    3    0    0 -0.33123259749E+00  0.92155271537E+00  0.28700496363E+00  0.10204637622E+01  0.00000000000E+00 0.  1.
</event>
<event>
 7    1  0.6622189E-010  0.4778727E+02  0.7816164E-02  0.1312668E+00
        -11   -1    0    0    0    0  0.00000000000E+00  0.00000000000E+00  0.45593999997E+02  0.45594000000E+02  0.51100000000E-03 0. -1.
         11   -1    0    0    0    0 -0.00000000000E+00 -0.00000000000E+00 -0.45593999997E+02  0.45594000000E+02  0.51100000000E-03 0.  1.
    9900012    2    1    2    0    0  0.10750582370E+02  0.53779316995E+01  0.41702836748E+02  0.47787265404E+02  0.19999974282E+02 0.  0.
        -12    1    1    2    0    0 -0.10750582370E+02 -0.53779316995E+01 -0.41702836748E+02  0.43400734596E+02  0.00000000000E+00 0.  1.
         11    1    3    3    0    0  0.17039684052E+01 -0.28747874994E+01  0.30261361535E+02  0.30445326632E+02  0.51100000000E-03 0. -1.
        -11    1    3    3    0    0  0.21291933983E+01  0.47834254826E+01  0.54257617373E+01  0.75401269595E+01  0.51100000000E-03 0.  1.
         12    1    3    3    0    0  0.69174205668E+01  0.34692937163E+01  0.60157134753E+01  0.98018118124E+01  0.00000000000E+00 0. -1.
</event>
<event>
 7    1  0.6622189E-010  0.4778727E+02  0.7816164E-02  0.1312668E+00
        -11   -1    0    0    0    0  0.00000000000E+00  0.00000000000E+00  0.45593999997E+02  0.45594000000E+02  0.51100000000E-03 0. -1.
         11   -1    0    0    0    0 -0.00000000000E+00 -0.00000000000E+00 -0.45593999997E+02  0.45594000000E+02  0.51100000000E-03 0.  1.
    9900012    2    1    2    0    0 -0.16808437810E+02 -0.34577038472E+02 -0.20137736740E+02  0.47787267148E+02  0.19999982234E+02 0.  0.
         12    1    1    2    0    0  0.16808437810E+02  0.34577038472E+02  0.20137736740E+02  0.43400732852E+02  0.00000000000E+00 0. -1.
         11    1    3    3    0    0 -0.14559851990E+02 -0.95161859957E+01 -0.57892203398E+01  0.18331998208E+02  0.51100000000E-03 0. -1.
        -11    1    3    3    0    0 -0.24307940077E+01 -0.17156855023E+02 -0.12413682021E+02  0.21315861122E+02  0.51100000000E-03 0.  1.
         12    1    3    3    0    0  0.18220818834E+00 -0.79039974527E+01 -0.19348343800E+01  0.81394078184E+01  0.00000000000E+00 0. -1.
</event>
<event>
 7    1  0.6622189E-010  0.4778727E+02  0.7816164E-02  0.1312668E+00
        -11   -1    0    0    0    0  0.00000000000E+00  0.00000000000E+00  0.45593999997E+02  0.45594000000E+02  0.51100000000E-03 0. -1.
         11   -1    0    0    0    0 -0.00000000000E+00 -0.00000000000E+00 -0.45593999997E+02  0.45594000000E+02  0.51100000000E-03 0.  1.
    9900012    2    1    2    0    0 -0.17044521563E+02  0.12359793760E+02  0.37951847969E+02  0.47787274415E+02  0.20000015366E+02 0.  0.
        -12    1    1    2    0    0  0.17044521563E+02 -0.12359793760E+02 -0.37951847969E+02  0.43400725585E+02  0.00000000000E+00 0.  1.
         11    1    3    3    0    0 -0.95322356515E+01  0.70327824636E+01  0.11061653429E+02  0.16207520555E+02  0.51100000000E-03 0. -1.
        -11    1    3    3    0    0 -0.95193934212E+01  0.24406317338E+01  0.26219559260E+02  0.28000728963E+02  0.51100000000E-03 0.  1.
        -12    1    3    3    0    0  0.20071075098E+01  0.28863795622E+01  0.67063527891E+00  0.35790248965E+01  0.00000000000E+00 0.  1.
</event>
<event>
 7    1 -0.1067917E-009  0.4778727E+02  0.7816164E-02  0.1312668E+00
        -11   -1    0    0    0    0  0.00000000000E+00  0.00000000000E+00  0.45593999997E+02  0.45594000000E+02  0.51100000000E-03 0. -1.
         11   -1    0    0    0    0 -0.00000000000E+00 -0.00000000000E+00 -0.45593999997E+02  0.45594000000E+02  0.51100000000E-03 0.  1.
    9900012    2    1    2    0    0  0.81824103070E+01  0.27168624092E+02 -0.32841089320E+02  0.47787272803E+02  0.20000008020E+02 0.  0.
         12    1    1    2    0    0 -0.81824103070E+01 -0.27168624092E+02  0.32841089320E+02  0.43400727197E+02  0.00000000000E+00 0. -1.
         11    1    3    3    0    0 -0.33214645518E+01  0.30379794991E+01 -0.11791673627E+02  0.12621608985E+02  0.51100000000E-03 0. -1.
        -11    1    3    3    0    0  0.10868087693E+00  0.10054803675E+02 -0.72198011200E+01  0.12378869777E+02  0.51100000000E-03 0.  1.
         12    1    3    3    0    0  0.11395193982E+02  0.14075840918E+02 -0.13829614573E+02  0.22786794041E+02  0.00000000000E+00 0. -1.
</event>
<event>
 7    1  0.6622189E-010  0.4778727E+02  0.7816164E-02  0.1312668E+00
        -11   -1    0    0    0    0  0.00000000000E+00  0.00000000000E+00  0.45593999997E+02  0.45594000000E+02  0.51100000000E-03 0. -1.
         11   -1    0    0    0    0 -0.00000000000E+00 -0.00000000000E+00 -0.45593999997E+02  0.45594000000E+02  0.51100000000E-03 0.  1.
    9900012    2    1    2    0    0  0.22972576427E+02  0.10055118208E+02  0.35422852329E+02  0.47787272621E+02  0.20000007190E+02 0.  0.
        -12    1    1    2    0    0 -0.22972576427E+02 -0.10055118208E+02 -0.35422852329E+02  0.43400727379E+02  0.00000000000E+00 0.  1.
         11    1    3    3    0    0  0.14976089655E+02  0.14498151783E+02  0.30441230621E+02  0.36893741860E+02  0.51100000000E-03 0. -1.
        -11    1    3    3    0    0  0.36174101077E+01 -0.34987930847E+01  0.16002690743E+01  0.52809156694E+01  0.51100000000E-03 0.  1.
         12    1    3    3    0    0  0.43790766641E+01 -0.94424049048E+00  0.33813526341E+01  0.56126150919E+01  0.00000000000E+00 0. -1.
</event>
<event>
 7    1  0.7454878E-010  0.4778727E+02  0.7816164E-02  0.1312668E+00
        -11   -1    0    0    0    0  0.00000000000E+00  0.00000000000E+00  0.45593999997E+02  0.45594000000E+02  0.51100000000E-03 0. -1.
         11   -1    0    0    0    0 -0.00000000000E+00 -0.00000000000E+00 -0.45593999997E+02  0.45594000000E+02  0.51100000000E-03 0.  1.
    9900012    2    1    2    0    0 -0.31444393131E+02 -0.14443450171E+02 -0.26196566437E+02  0.47787271834E+02  0.20000003602E+02 0.  0.
         12    1    1    2    0    0  0.31444393131E+02  0.14443450171E+02  0.26196566437E+02  0.43400728166E+02  0.00000000000E+00 0. -1.
         11    1    3    3    0    0 -0.85678783133E+01  0.98587915460E+00 -0.28483698637E+00  0.86291151846E+01  0.51100000000E-03 0. -1.
        -11    1    3    3    0    0 -0.40010725710E+01 -0.61236804644E+01 -0.11580059949E+02  0.13696927861E+02  0.51100000000E-03 0.  1.
        -12    1    3    3    0    0 -0.18875442246E+02 -0.93056488616E+01 -0.14331669502E+02  0.25461228789E+02  0.00000000000E+00 0.  1.
</event>
<event>
 7    1  0.6622189E-010  0.4778727E+02  0.7816164E-02  0.1312668E+00
        -11   -1    0    0    0    0  0.00000000000E+00  0.00000000000E+00  0.45593999997E+02  0.45594000000E+02  0.51100000000E-03 0. -1.
         11   -1    0    0    0    0 -0.00000000000E+00 -0.00000000000E+00 -0.45593999997E+02  0.45594000000E+02  0.51100000000E-03 0.  1.
    9900012    2    1    2    0    0  0.35728946449E+02 -0.80127456628E+01 -0.23299387865E+02  0.47787272100E+02  0.20000004812E+02 0.  0.
         12    1    1    2    0    0 -0.35728946449E+02  0.80127456628E+01  0.23299387865E+02  0.43400727900E+02  0.00000000000E+00 0. -1.
         11    1    3    3    0    0  0.15676299884E+02 -0.19905931220E+01 -0.24899997881E+01  0.15997154066E+02  0.51100000000E-03 0. -1.
        -11    1    3    3    0    0  0.11523037898E+02 -0.48373685463E+01 -0.19381131335E+02  0.23060979792E+02  0.51100000000E-03 0.  1.
        -12    1    3    3    0    0  0.85296086670E+01 -0.11847839945E+01 -0.14282567417E+01  0.87291382418E+01  0.00000000000E+00 0.  1.
</event>
<event>
 7    1  0.6622189E-010  0.4778727E+02  0.7816164E-02  0.1312668E+00
        -11   -1    0    0    0    0  0.00000000000E+00  0.00000000000E+00  0.45593999997E+02  0.45594000000E+02  0.51100000000E-03 0.  1.
         11   -1    0    0    0    0 -0.00000000000E+00 -0.00000000000E+00 -0.45593999997E+02  0.45594000000E+02  0.51100000000E-03 0. -1.
    9900012    2    1    2    0    0 -0.16594518585E+02  0.37649833469E+02  0.13810694821E+02  0.47787270758E+02  0.19999998694E+02 0.  0.
        -12    1    1    2    0    0  0.16594518585E+02 -0.37649833469E+02 -0.13810694821E+02  0.43400729242E+02  0.00000000000E+00 0.  1.
         11    1    3    3    0    0 -0.30179493137E+01  0.17337898788E+02 -0.32967439726E+01  0.17904727686E+02  0.51100000000E-03 0. -1.
        -11    1    3    3    0    0 -0.61157842141E+01  0.92392975882E+01  0.88815373670E+01  0.14200321924E+02  0.51100000000E-03 0.  1.
         12    1    3    3    0    0 -0.74607850569E+01  0.11072637093E+02  0.82259014264E+01  0.15682221148E+02  0.00000000000E+00 0. -1.
</event>
<event>
 7    1  0.6622189E-010  0.4778728E+02  0.7816164E-02  0.1312668E+00
        -11   -1    0    0    0    0  0.00000000000E+00  0.00000000000E+00  0.45593999997E+02  0.45594000000E+02  0.51100000000E-03 0. -1.
         11   -1    0    0    0    0 -0.00000000000E+00 -0.00000000000E+00 -0.45593999997E+02  0.45594000000E+02  0.51100000000E-03 0.  1.
    9900012    2    1    2    0    0  0.23621845264E+02  0.31845473448E+01 -0.36269682072E+02  0.47787277044E+02  0.20000027356E+02 0.  0.
         12    1    1    2    0    0 -0.23621845264E+02 -0.31845473448E+01  0.36269682072E+02  0.43400722956E+02  0.00000000000E+00 0. -1.
         11    1    3    3    0    0  0.12105713488E+01  0.27111439556E+01 -0.14467761288E+02  0.14769289133E+02  0.51100000000E-03 0.  1.
        -11    1    3    3    0    0  0.16422691752E+02 -0.37393369408E+01 -0.11561676531E+02  0.20429385933E+02  0.51100000000E-03 0. -1.
         12    1    3    3    0    0  0.59885821631E+01  0.42127403301E+01 -0.10240244254E+02  0.12588601979E+02  0.00000000000E+00 0. -1.
</event>
<event>
 7    1  0.6622189E-010  0.4778727E+02  0.7816164E-02  0.1312668E+00
        -11   -1    0    0    0    0  0.00000000000E+00  0.00000000000E+00  0.45593999997E+02  0.45594000000E+02  0.51100000000E-03 0. -1.
         11   -1    0    0    0    0 -0.00000000000E+00 -0.00000000000E+00 -0.45593999997E+02  0.45594000000E+02  0.51100000000E-03 0.  1.
    9900012    2    1    2    0    0  0.24076324544E+02 -0.58703188789E+01 -0.35629949151E+02  0.47787270470E+02  0.19999997380E+02 0.  0.
         12    1    1    2    0    0 -0.24076324544E+02  0.58703188789E+01  0.35629949151E+02  0.43400729530E+02  0.00000000000E+00 0. -1.
         11    1    3    3    0    0 -0.11155569091E+01  0.25109285467E+00  0.16855760812E+01  0.20368313199E+01  0.51100000000E-03 0. -1.
        -11    1    3    3    0    0  0.10765275682E+02 -0.53487857942E+01 -0.17209577933E+02  0.20992147172E+02  0.51100000000E-03 0.  1.
         12    1    3    3    0    0  0.14426605770E+02 -0.77262593937E+00 -0.20105947299E+02  0.24758291978E+02  0.00000000000E+00 0. -1.
</event>
<event>
 7    1  0.6622189E-010  0.4778728E+02  0.7816164E-02  0.1312668E+00
        -11   -1    0    0    0    0  0.00000000000E+00  0.00000000000E+00  0.45593999997E+02  0.45594000000E+02  0.51100000000E-03 0. -1.
         11   -1    0    0    0    0 -0.00000000000E+00 -0.00000000000E+00 -0.45593999997E+02  0.45594000000E+02  0.51100000000E-03 0.  1.
    9900012    2    1    2    0    0  0.37777528097E-01  0.12229975257E+02  0.41641913295E+02  0.47787278061E+02  0.20000031993E+02 0.  0.
        -12    1    1    2    0    0 -0.37777528097E-01 -0.12229975257E+02 -0.41641913295E+02  0.43400721939E+02  0.00000000000E+00 0.  1.
         11    1    3    3    0    0  0.12769151796E+01  0.70654395411E+01  0.41836069318E+02  0.42447704820E+02  0.51100000000E-03 0. -1.
        -11    1    3    3    0    0 -0.71978272054E+00  0.26248306217E+01  0.14294523762E+00  0.27254828122E+01  0.51100000000E-03 0.  1.
         12    1    3    3    0    0 -0.51935493093E+00  0.25397050945E+01 -0.33710126034E+00  0.26140904290E+01  0.00000000000E+00 0. -1.
</event>
<event>
 7    1  0.6622189E-010  0.4778727E+02  0.7816164E-02  0.1312668E+00
        -11   -1    0    0    0    0  0.00000000000E+00  0.00000000000E+00  0.45593999997E+02  0.45594000000E+02  0.51100000000E-03 0. -1.
         11   -1    0    0    0    0 -0.00000000000E+00 -0.00000000000E+00 -0.45593999997E+02  0.45594000000E+02  0.51100000000E-03 0.  1.
    9900012    2    1    2    0    0 -0.49292219258E+01 -0.36815565589E+02 -0.22448610847E+02  0.47787271580E+02  0.20000002441E+02 0.  0.
         12    1    1    2    0    0  0.49292219258E+01  0.36815565589E+02  0.22448610847E+02  0.43400728420E+02  0.00000000000E+00 0. -1.
         11    1    3    3    0    0 -0.45504286344E+01 -0.13995277762E+02 -0.25246946075E+01  0.14931452827E+02  0.51100000000E-03 0.  1.
        -11    1    3    3    0    0  0.38081652860E+01 -0.20713617441E+02 -0.18283941945E+02  0.27890116594E+02  0.51100000000E-03 0. -1.
         12    1    3    3    0    0 -0.41869585774E+01 -0.21066703862E+01 -0.16399742952E+01  0.49657021592E+01  0.00000000000E+00 0. -1.
</event>
<event>
 7    1  0.6622189E-010  0.4778727E+02  0.7816164E-02  0.1312668E+00
        -11   -1    0    0    0    0  0.00000000000E+00  0.00000000000E+00  0.45593999997E+02  0.45594000000E+02  0.51100000000E-03 0. -1.
         11   -1    0    0    0    0 -0.00000000000E+00 -0.00000000000E+00 -0.45593999997E+02  0.45594000000E+02  0.51100000000E-03 0.  1.
    9900012    2    1    2    0    0 -0.92005874420E+01 -0.28216961139E+02  0.31666634915E+02  0.47787268762E+02  0.19999989592E+02 0.  0.
        -12    1    1    2    0    0  0.92005874420E+01  0.28216961139E+02 -0.31666634915E+02  0.43400731238E+02  0.00000000000E+00 0.  1.
         11    1    3    3    0    0 -0.31082304656E+01 -0.42336273087E+01  0.18296463138E+01  0.55616816441E+01  0.51100000000E-03 0. -1.
        -11    1    3    3    0    0 -0.60450498138E+01 -0.26547933436E+02  0.26290545207E+02  0.37848753804E+02  0.51100000000E-03 0.  1.
        -12    1    3    3    0    0 -0.47307162645E-01  0.25645996059E+01  0.35464433945E+01  0.43768333138E+01  0.00000000000E+00 0.  1.
</event>
<event>
 7    1  0.6622189E-010  0.4778727E+02  0.7816164E-02  0.1312668E+00
        -11   -1    0    0    0    0  0.00000000000E+00  0.00000000000E+00  0.45593999997E+02  0.45594000000E+02  0.51100000000E-03 0.  1.
         11   -1    0    0    0    0 -0.00000000000E+00 -0.00000000000E+00 -0.45593999997E+02  0.45594000000E+02  0.51100000000E-03 0. -1.
    9900012    2    1    2    0    0 -0.26630625078E+02  0.31335423830E+02 -0.13875312379E+02  0.47787271063E+02  0.20000000086E+02 0.  0.
         12    1    1    2    0    0  0.26630625078E+02 -0.31335423830E+02  0.13875312379E+02  0.43400728937E+02  0.00000000000E+00 0. -1.
         11    1    3    3    0    0 -0.11028598945E+02  0.18761314890E+02 -0.10588508253E+01  0.21788485410E+02  0.51100000000E-03 0. -1.
        -11    1    3    3    0    0 -0.57709055797E+01  0.51581956809E+01  0.62962185139E+00  0.77657425806E+01  0.51100000000E-03 0.  1.
         12    1    3    3    0    0 -0.98311205528E+01  0.74159132584E+01 -0.13446083405E+02  0.18233043073E+02  0.00000000000E+00 0. -1.
</event>
<event>
 7    1  0.6622189E-010  0.4778727E+02  0.7816164E-02  0.1312668E+00
        -11   -1    0    0    0    0  0.00000000000E+00  0.00000000000E+00  0.45593999997E+02  0.45594000000E+02  0.51100000000E-03 0. -1.
         11   -1    0    0    0    0 -0.00000000000E+00 -0.00000000000E+00 -0.45593999997E+02  0.45594000000E+02  0.51100000000E-03 0.  1.
    9900012    2    1    2    0    0  0.27873305020E+02  0.27416825560E+01  0.33153960801E+02  0.47787273361E+02  0.20000010561E+02 0.  0.
        -12    1    1    2    0    0 -0.27873305020E+02 -0.27416825560E+01 -0.33153960801E+02  0.43400726639E+02  0.00000000000E+00 0.  1.
         11    1    3    3    0    0  0.22230200948E+02 -0.11109930812E+00  0.14114228436E+02  0.26332596185E+02  0.51100000000E-03 0.  1.
        -11    1    3    3    0    0  0.19635693048E+01  0.51561921377E+01  0.98128543765E+01  0.11257621110E+02  0.51100000000E-03 0. -1.
        -12    1    3    3    0    0  0.36795347679E+01 -0.23034102736E+01  0.92268779890E+01  0.10197056066E+02  0.00000000000E+00 0.  1.
</event>
<event>
 7    1  0.6862348E-010  0.4778727E+02  0.7816164E-02  0.1312668E+00
        -11   -1    0    0    0    0  0.00000000000E+00  0.00000000000E+00  0.45593999997E+02  0.45594000000E+02  0.51100000000E-03 0. -1.
         11   -1    0    0    0    0 -0.00000000000E+00 -0.00000000000E+00 -0.45593999997E+02  0.45594000000E+02  0.51100000000E-03 0.  1.
    9900012    2    1    2    0    0  0.41998145237E+01 -0.22178368955E+02 -0.37068922098E+02  0.47787268704E+02  0.19999989330E+02 0.  0.
         12    1    1    2    0    0 -0.41998145237E+01  0.22178368955E+02  0.37068922098E+02  0.43400731296E+02  0.00000000000E+00 0. -1.
         11    1    3    3    0    0 -0.13766519104E+01  0.14082792123E+01 -0.70134265830E+01  0.72846807424E+01  0.51100000000E-03 0. -1.
        -11    1    3    3    0    0  0.65743770001E+01 -0.19243735284E+02 -0.16357815544E+02  0.26098312402E+02  0.51100000000E-03 0.  1.
        -12    1    3    3    0    0 -0.99791056596E+00 -0.43429128829E+01 -0.13697679971E+02  0.14404275560E+02  0.00000000000E+00 0.  1.
</event>
<event>
 7    1  0.6622189E-010  0.4778728E+02  0.7816164E-02  0.1312668E+00
        -11   -1    0    0    0    0  0.00000000000E+00  0.00000000000E+00  0.45593999997E+02  0.45594000000E+02  0.51100000000E-03 0. -1.
         11   -1    0    0    0    0 -0.00000000000E+00 -0.00000000000E+00 -0.45593999997E+02  0.45594000000E+02  0.51100000000E-03 0.  1.
    9900012    2    1    2    0    0  0.11846196527E+02 -0.20594820182E+02  0.36320019331E+02  0.47787276565E+02  0.20000025171E+02 0.  0.
        -12    1    1    2    0    0 -0.11846196527E+02  0.20594820182E+02 -0.36320019331E+02  0.43400723435E+02  0.00000000000E+00 0.  1.
         11    1    3    3    0    0  0.99511714052E+01 -0.61114121993E+01  0.13584385804E+02  0.17913980834E+02  0.51100000000E-03 0. -1.
        -11    1    3    3    0    0 -0.48595626643E+01 -0.33049783283E+01  0.43088398186E+01  0.72872719094E+01  0.51100000000E-03 0.  1.
        -12    1    3    3    0    0  0.67545877857E+01 -0.11178429654E+02  0.18426793709E+02  0.22586023822E+02  0.00000000000E+00 0.  1.
</event>
<event>
 7    1  0.6622189E-010  0.4778727E+02  0.7816164E-02  0.1312668E+00
        -11   -1    0    0    0    0  0.00000000000E+00  0.00000000000E+00  0.45593999997E+02  0.45594000000E+02  0.51100000000E-03 0. -1.
         11   -1    0    0    0    0 -0.00000000000E+00 -0.00000000000E+00 -0.45593999997E+02  0.45594000000E+02  0.51100000000E-03 0.  1.
    9900012    2    1    2    0    0 -0.27340506960E+02 -0.32120174292E+02 -0.10218333338E+02  0.47787271279E+02  0.20000001068E+02 0.  0.
         12    1    1    2    0    0  0.27340506960E+02  0.32120174292E+02  0.10218333338E+02  0.43400728721E+02  0.00000000000E+00 0. -1.
         11    1    3    3    0    0 -0.50262461227E+00  0.89575949939E+00 -0.66196691668E+00  0.12219726026E+01  0.51100000000E-03 0. -1.
        -11    1    3    3    0    0 -0.17336369705E+02 -0.11318251998E+02  0.78629739951E+00  0.20718851481E+02  0.51100000000E-03 0.  1.
        -12    1    3    3    0    0 -0.95015126425E+01 -0.21697681793E+02 -0.10342663821E+02  0.25846447195E+02  0.00000000000E+00 0.  1.
</event>
<event>
 7    1  0.6622189E-010  0.4778727E+02  0.7816164E-02  0.1312668E+00
        -11   -1    0    0    0    0  0.00000000000E+00  0.00000000000E+00  0.45593999997E+02  0.45594000000E+02  0.51100000000E-03 0. -1.
         11   -1    0    0    0    0 -0.00000000000E+00 -0.00000000000E+00 -0.45593999997E+02  0.45594000000E+02  0.51100000000E-03 0.  1.
    9900012    2    1    2    0    0 -0.24028864325E+02 -0.67028642557E+01  0.35514903300E+02  0.47787273435E+02  0.20000010900E+02 0.  0.
        -12    1    1    2    0    0  0.24028864325E+02  0.67028642557E+01 -0.35514903300E+02  0.43400726565E+02  0.00000000000E+00 0.  1.
         11    1    3    3    0    0 -0.97207758863E+01  0.52158278815E+01  0.88985896032E+01  0.14173328526E+02  0.51100000000E-03 0. -1.
        -11    1    3    3    0    0 -0.12516398902E+02 -0.13224582000E+02  0.22561743235E+02  0.28992793391E+02  0.51100000000E-03 0.  1.
        -12    1    3    3    0    0 -0.17916895359E+01  0.13058898625E+01  0.40545704611E+01  0.46211515178E+01  0.00000000000E+00 0.  1.
</event>
<event>
 7    1  0.6622189E-010  0.4778728E+02  0.7816164E-02  0.1312668E+00
        -11   -1    0    0    0    0  0.00000000000E+00  0.00000000000E+00  0.45593999997E+02  0.45594000000E+02  0.51100000000E-03 0. -1.
         11   -1    0    0    0    0 -0.00000000000E+00 -0.00000000000E+00 -0.45593999997E+02  0.45594000000E+02  0.51100000000E-03 0.  1.
    9900012    2    1    2    0    0  0.27312519267E+01  0.27154508832E+02  0.33746046286E+02  0.47787277345E+02  0.20000028729E+02 0.  0.
        -12    1    1    2    0    0 -0.27312519267E+01 -0.27154508832E+02 -0.33746046286E+02  0.43400722655E+02  0.00000000000E+00 0.  1.
         11    1    3    3    0    0  0.83711650759E+00  0.19725928600E+02  0.26009321919E+02  0.32654216422E+02  0.51100000000E-03 0. -1.
        -11    1    3    3    0    0  0.26092212818E+01 -0.20529794020E+01  0.95759698036E+00  0.34553946751E+01  0.51100000000E-03 0.  1.
        -12    1    3    3    0    0 -0.71508586270E+00  0.94815596345E+01  0.67791273863E+01  0.11677666249E+02  0.00000000000E+00 0.  1.
</event>
<event>
 7    1  0.6622189E-010  0.4778727E+02  0.7816164E-02  0.1312668E+00
        -11   -1    0    0    0    0  0.00000000000E+00  0.00000000000E+00  0.45593999997E+02  0.45594000000E+02  0.51100000000E-03 0. -1.
         11   -1    0    0    0    0 -0.00000000000E+00 -0.00000000000E+00 -0.45593999997E+02  0.45594000000E+02  0.51100000000E-03 0.  1.
    9900012    2    1    2    0    0  0.11264708964E+02 -0.19763714394E+02  0.36961130081E+02  0.47787271762E+02  0.20000003272E+02 0.  0.
        -12    1    1    2    0    0 -0.11264708964E+02  0.19763714394E+02 -0.36961130081E+02  0.43400728238E+02  0.00000000000E+00 0.  1.
         11    1    3    3    0    0 -0.21805209740E+01 -0.32196654301E+01  0.11450069684E+00  0.38902477903E+01  0.51100000000E-03 0.  1.
        -11    1    3    3    0    0  0.87439049551E+01 -0.52249966616E+01  0.24342190620E+02  0.26387472566E+02  0.51100000000E-03 0. -1.
         12    1    3    3    0    0  0.47013249831E+01 -0.11319052302E+02  0.12504438764E+02  0.17509551406E+02  0.00000000000E+00 0. -1.
</event>
<event>
 7    1  0.6622189E-010  0.4778727E+02  0.7816164E-02  0.1312668E+00
        -11   -1    0    0    0    0  0.00000000000E+00  0.00000000000E+00  0.45593999997E+02  0.45594000000E+02  0.51100000000E-03 0. -1.
         11   -1    0    0    0    0 -0.00000000000E+00 -0.00000000000E+00 -0.45593999997E+02  0.45594000000E+02  0.51100000000E-03 0.  1.
    9900012    2    1    2    0    0  0.40487787977E+02  0.12175807027E+02 -0.98036937590E+01  0.47787266558E+02  0.19999979543E+02 0.  0.
        -12    1    1    2    0    0 -0.40487787977E+02 -0.12175807027E+02  0.98036937590E+01  0.43400733442E+02  0.00000000000E+00 0.  1.
         11    1    3    3    0    0  0.29149942546E+02  0.22801683017E+01 -0.14365458406E+01  0.29274254595E+02  0.51100000000E-03 0. -1.
        -11    1    3    3    0    0  0.10879589883E+02  0.70051872765E+01 -0.86623779233E+01  0.15571606094E+02  0.51100000000E-03 0.  1.
         12    1    3    3    0    0  0.45825554841E+00  0.28904514492E+01  0.29523000496E+00  0.29414058686E+01  0.00000000000E+00 0. -1.
</event>
<event>
 7    1  0.6622189E-010  0.4778727E+02  0.7816164E-02  0.1312668E+00
        -11   -1    0    0    0    0  0.00000000000E+00  0.00000000000E+00  0.45593999997E+02  0.45594000000E+02  0.51100000000E-03 0. -1.
         11   -1    0    0    0    0 -0.00000000000E+00 -0.00000000000E+00 -0.45593999997E+02  0.45594000000E+02  0.51100000000E-03 0.  1.
    9900012    2    1    2    0    0  0.41875288423E+02  0.11273885487E+02  0.17271455459E+01  0.47787270672E+02  0.19999998301E+02 0.  0.
        -12    1    1    2    0    0 -0.41875288423E+02 -0.11273885487E+02 -0.17271455459E+01  0.43400729328E+02  0.00000000000E+00 0.  1.
         11    1    3    3    0    0  0.24675908601E+02  0.74795674393E+01  0.74114047762E+01  0.26828591379E+02  0.51100000000E-03 0. -1.
        -11    1    3    3    0    0  0.69147495558E+01  0.25575078108E+01 -0.74149211830E+01  0.10456369544E+02  0.51100000000E-03 0.  1.
         12    1    3    3    0    0  0.10284630267E+02  0.12368102364E+01  0.17306619527E+01  0.10502309750E+02  0.00000000000E+00 0. -1.
</event>
<event>
 7    1  0.6622189E-010  0.4778728E+02  0.7816164E-02  0.1312668E+00
        -11   -1    0    0    0    0  0.00000000000E+00  0.00000000000E+00  0.45593999997E+02  0.45594000000E+02  0.51100000000E-03 0. -1.
         11   -1    0    0    0    0 -0.00000000000E+00 -0.00000000000E+00 -0.45593999997E+02  0.45594000000E+02  0.51100000000E-03 0.  1.
    9900012    2    1    2    0    0 -0.20592624099E+02  0.32456024948E+02 -0.20153724629E+02  0.47787281813E+02  0.20000049099E+02 0.  0.
         12    1    1    2    0    0  0.20592624099E+02 -0.32456024948E+02  0.20153724629E+02  0.43400718187E+02  0.00000000000E+00 0. -1.
         11    1    3    3    0    0 -0.14823296325E+02  0.11916442382E+02 -0.18279552994E+01  0.19106887079E+02  0.51100000000E-03 0. -1.
        -11    1    3    3    0    0 -0.59364762566E+01  0.11032383461E+02 -0.97375791404E+01  0.15867440970E+02  0.51100000000E-03 0.  1.
         12    1    3    3    0    0  0.16714848272E+00  0.95071991048E+01 -0.85881901894E+01  0.12812953764E+02  0.00000000000E+00 0. -1.
</event>
<event>
 7    1  0.6622189E-010  0.4778729E+02  0.7816164E-02  0.1312668E+00
        -11   -1    0    0    0    0  0.00000000000E+00  0.00000000000E+00  0.45593999997E+02  0.45594000000E+02  0.51100000000E-03 0. -1.
         11   -1    0    0    0    0 -0.00000000000E+00 -0.00000000000E+00 -0.45593999997E+02  0.45594000000E+02  0.51100000000E-03 0.  1.
    9900012    2    1    2    0    0  0.15579312194E+02 -0.12481288698E+01  0.40488877605E+02  0.47787285676E+02  0.20000066711E+02 0.  0.
        -12    1    1    2    0    0 -0.15579312194E+02  0.12481288698E+01 -0.40488877605E+02  0.43400714324E+02  0.00000000000E+00 0.  1.
         11    1    3    3    0    0  0.11517170072E+02  0.75620157887E+01  0.23173168468E+02  0.26959692624E+02  0.51100000000E-03 0. -1.
        -11    1    3    3    0    0 -0.11621651242E+01 -0.42221590841E+01  0.47083174397E+01  0.64300473156E+01  0.51100000000E-03 0.  1.
        -12    1    3    3    0    0  0.52243072461E+01 -0.45879855743E+01  0.12607391697E+02  0.14397545737E+02  0.00000000000E+00 0.  1.
</event>
<event>
 7    1  0.6622189E-010  0.4778732E+02  0.7816164E-02  0.1312668E+00
        -11   -1    0    0    0    0  0.00000000000E+00  0.00000000000E+00  0.45593999997E+02  0.45594000000E+02  0.51100000000E-03 0. -1.
         11   -1    0    0    0    0 -0.00000000000E+00 -0.00000000000E+00 -0.45593999997E+02  0.45594000000E+02  0.51100000000E-03 0.  1.
    9900012    2    1    2    0    0  0.12917262460E+02 -0.41426884492E+02 -0.75954694308E+00  0.47787316368E+02  0.20000206648E+02 0.  0.
        -12    1    1    2    0    0 -0.12917262460E+02  0.41426884492E+02  0.75954694308E+00  0.43400683632E+02  0.00000000000E+00 0.  1.
         11    1    3    3    0    0  0.61241936528E+01 -0.24216615980E+02 -0.25950728332E+01  0.25113435462E+02  0.51100000000E-03 0. -1.
        -11    1    3    3    0    0  0.40589791841E+01 -0.39370932140E+01  0.62430786176E+01  0.84233037390E+01  0.51100000000E-03 0.  1.
        -12    1    3    3    0    0  0.27340896226E+01 -0.13273175298E+02 -0.44075527275E+01  0.14250577167E+02  0.00000000000E+00 0.  1.
</event>
<event>
 7    1  0.6622189E-010  0.4778726E+02  0.7816164E-02  0.1312668E+00
        -11   -1    0    0    0    0  0.00000000000E+00  0.00000000000E+00  0.45593999997E+02  0.45594000000E+02  0.51100000000E-03 0. -1.
         11   -1    0    0    0    0 -0.00000000000E+00 -0.00000000000E+00 -0.45593999997E+02  0.45594000000E+02  0.51100000000E-03 0.  1.
    9900012    2    1    2    0    0 -0.25285567038E+02 -0.10219704862E+02 -0.33761254394E+02  0.47787256156E+02  0.19999932118E+02 0.  0.
         12    1    1    2    0    0  0.25285567038E+02  0.10219704862E+02  0.33761254394E+02  0.43400743844E+02  0.00000000000E+00 0. -1.
         11    1    3    3    0    0 -0.32449565637E+01 -0.41854584333E+01  0.12705910123E+01  0.54463021564E+01  0.51100000000E-03 0. -1.
        -11    1    3    3    0    0 -0.16090165913E+02 -0.69462125767E+01 -0.23306291647E+02  0.29160359031E+02  0.51100000000E-03 0.  1.
         12    1    3    3    0    0 -0.59504445620E+01  0.91196614832E+00 -0.11725553760E+02  0.13180594968E+02  0.00000000000E+00 0. -1.
</event>
<event>
 7    1  0.6622189E-010  0.4778727E+02  0.7816164E-02  0.1312668E+00
        -11   -1    0    0    0    0  0.00000000000E+00  0.00000000000E+00  0.45593999997E+02  0.45594000000E+02  0.51100000000E-03 0. -1.
         11   -1    0    0    0    0 -0.00000000000E+00 -0.00000000000E+00 -0.45593999997E+02  0.45594000000E+02  0.51100000000E-03 0.  1.
    9900012    2    1    2    0    0 -0.15027252605E+02  0.17375373839E+02  0.36822565619E+02  0.47787271024E+02  0.19999999905E+02 0.  0.
        -12    1    1    2    0    0  0.15027252605E+02 -0.17375373839E+02 -0.36822565619E+02  0.43400728976E+02  0.00000000000E+00 0.  1.
         11    1    3    3    0    0 -0.69910853719E+01  0.19308944938E+01  0.70235783597E+01  0.10096250862E+02  0.51100000000E-03 0. -1.
        -11    1    3    3    0    0 -0.23107410724E+00  0.13445474119E+02  0.24794123753E+02  0.28206076339E+02  0.51100000000E-03 0.  1.
        -12    1    3    3    0    0 -0.78050931258E+01  0.19990052263E+01  0.50048635065E+01  0.94849438225E+01  0.00000000000E+00 0.  1.
</event>
<event>
 7    1  0.6622189E-010  0.4778727E+02  0.7816164E-02  0.1312668E+00
        -11   -1    0    0    0    0  0.00000000000E+00  0.00000000000E+00  0.45593999997E+02  0.45594000000E+02  0.51100000000E-03 0. -1.
         11   -1    0    0    0    0 -0.00000000000E+00 -0.00000000000E+00 -0.45593999997E+02  0.45594000000E+02  0.51100000000E-03 0.  1.
    9900012    2    1    2    0    0 -0.70060491021E+01 -0.31972287436E+02  0.28501072237E+02  0.47787274124E+02  0.20000014041E+02 0.  0.
        -12    1    1    2    0    0  0.70060491021E+01  0.31972287436E+02 -0.28501072237E+02  0.43400725876E+02  0.00000000000E+00 0.  1.
         11    1    3    3    0    0 -0.28486275495E+01  0.11033513766E+01  0.62324245855E+01  0.69408342187E+01  0.51100000000E-03 0. -1.
        -11    1    3    3    0    0  0.30688725375E+00 -0.13374888997E+02  0.50377488161E+01  0.14295480015E+02  0.51100000000E-03 0.  1.
         12    1    3    3    0    0 -0.44643088063E+01 -0.19700749816E+02  0.17230898835E+02  0.26550959890E+02  0.00000000000E+00 0. -1.
</event>
<event>
 7    1  0.6622189E-010  0.4778727E+02  0.7816164E-02  0.1312668E+00
        -11   -1    0    0    0    0  0.00000000000E+00  0.00000000000E+00  0.45593999997E+02  0.45594000000E+02  0.51100000000E-03 0. -1.
         11   -1    0    0    0    0 -0.00000000000E+00 -0.00000000000E+00 -0.45593999997E+02  0.45594000000E+02  0.51100000000E-03 0.  1.
    9900012    2    1    2    0    0 -0.18206452283E+02  0.27499448305E+02 -0.28212203869E+02  0.47787274097E+02  0.20000013917E+02 0.  0.
         12    1    1    2    0    0  0.18206452283E+02 -0.27499448305E+02  0.28212203869E+02  0.43400725903E+02  0.00000000000E+00 0. -1.
         11    1    3    3    0    0 -0.54651796393E+01  0.10575372775E+02 -0.44830149204E+00  0.11912500674E+02  0.51100000000E-03 0. -1.
        -11    1    3    3    0    0 -0.54839447101E+01  0.90412361064E+01 -0.75383000452E+01  0.12986283831E+02  0.51100000000E-03 0.  1.
         12    1    3    3    0    0 -0.72573279336E+01  0.78828394231E+01 -0.20225602331E+02  0.22888489591E+02  0.00000000000E+00 0. -1.
</event>
<event>
 7    1  0.6622189E-010  0.4778728E+02  0.7816164E-02  0.1312668E+00
        -11   -1    0    0    0    0  0.00000000000E+00  0.00000000000E+00  0.45593999997E+02  0.45594000000E+02  0.51100000000E-03 0. -1.
         11   -1    0    0    0    0 -0.00000000000E+00 -0.00000000000E+00 -0.45593999997E+02  0.45594000000E+02  0.51100000000E-03 0.  1.
    9900012    2    1    2    0    0  0.87966342864E+01 -0.41651945517E+02 -0.84472956161E+01  0.47787284068E+02  0.20000059382E+02 0.  0.
         12    1    1    2    0    0 -0.87966342864E+01  0.41651945517E+02  0.84472956161E+01  0.43400715932E+02  0.00000000000E+00 0. -1.
         11    1    3    3    0    0  0.53732515193E+01 -0.22466120655E+02 -0.10100101191E+02  0.25211315981E+02  0.51100000000E-03 0. -1.
        -11    1    3    3    0    0  0.57276310140E+00  0.10893989256E+01  0.17030819008E+01  0.21012700472E+01  0.51100000000E-03 0.  1.
        -12    1    3    3    0    0  0.28506196657E+01 -0.20275223788E+02 -0.50276326306E-01  0.20474698040E+02  0.00000000000E+00 0.  1.
</event>
<event>
 7    1  0.6622189E-010  0.4778725E+02  0.7816164E-02  0.1312668E+00
        -11   -1    0    0    0    0  0.00000000000E+00  0.00000000000E+00  0.45593999997E+02  0.45594000000E+02  0.51100000000E-03 0. -1.
         11   -1    0    0    0    0 -0.00000000000E+00 -0.00000000000E+00 -0.45593999997E+02  0.45594000000E+02  0.51100000000E-03 0.  1.
    9900012    2    1    2    0    0 -0.27212158344E+02  0.21109365079E+02 -0.26410563637E+02  0.47787254299E+02  0.19999923649E+02 0.  0.
         12    1    1    2    0    0  0.27212158344E+02 -0.21109365079E+02  0.26410563637E+02  0.43400745701E+02  0.00000000000E+00 0. -1.
         11    1    3    3    0    0 -0.12403516863E+01  0.12462899810E+01  0.87838740293E+00  0.19655217407E+01  0.51100000000E-03 0. -1.
        -11    1    3    3    0    0 -0.11719516964E+02  0.18609973285E+02 -0.12738414910E+02  0.25415455893E+02  0.51100000000E-03 0.  1.
        -12    1    3    3    0    0 -0.14252289694E+02  0.12531018126E+01 -0.14550536130E+02  0.20406276665E+02  0.00000000000E+00 0.  1.
</event>
<event>
 7    1  0.6622189E-010  0.4778727E+02  0.7816164E-02  0.1312668E+00
        -11   -1    0    0    0    0  0.00000000000E+00  0.00000000000E+00  0.45593999997E+02  0.45594000000E+02  0.51100000000E-03 0. -1.
         11   -1    0    0    0    0 -0.00000000000E+00 -0.00000000000E+00 -0.45593999997E+02  0.45594000000E+02  0.51100000000E-03 0.  1.
    9900012    2    1    2    0    0  0.15807852786E+02 -0.83319922506E+01  0.39551396720E+02  0.47787270892E+02  0.19999999307E+02 0.  0.
        -12    1    1    2    0    0 -0.15807852786E+02  0.83319922506E+01 -0.39551396720E+02  0.43400729108E+02  0.00000000000E+00 0.  1.
         11    1    3    3    0    0  0.11627076831E+02 -0.81638419081E+01  0.29071814409E+02  0.32357497178E+02  0.51100000000E-03 0. -1.
        -11    1    3    3    0    0  0.66619025290E+01  0.26653757583E+01  0.48654849699E+01  0.86693781492E+01  0.51100000000E-03 0.  1.
        -12    1    3    3    0    0 -0.24811265742E+01 -0.28335261008E+01  0.56140973410E+01  0.67603955650E+01  0.00000000000E+00 0.  1.
</event>
<event>
 7    1  0.6622189E-010  0.4778727E+02  0.7816164E-02  0.1312668E+00
        -11   -1    0    0    0    0  0.00000000000E+00  0.00000000000E+00  0.45593999997E+02  0.45594000000E+02  0.51100000000E-03 0.  1.
         11   -1    0    0    0    0 -0.00000000000E+00 -0.00000000000E+00 -0.45593999997E+02  0.45594000000E+02  0.51100000000E-03 0. -1.
    9900012    2    1    2    0    0  0.57869658135E+01  0.42956149047E+02  0.22143955764E+01  0.47787271181E+02  0.20000000620E+02 0.  0.
        -12    1    1    2    0    0 -0.57869658135E+01 -0.42956149047E+02 -0.22143955764E+01  0.43400728819E+02  0.00000000000E+00 0.  1.
         11    1    3    3    0    0  0.65132133815E+01  0.17883432636E+02  0.45321108212E+01  0.19564742272E+02  0.51100000000E-03 0. -1.
        -11    1    3    3    0    0 -0.28156832547E+01  0.22435684314E+02 -0.58378558956E+01  0.23353127511E+02  0.51100000000E-03 0.  1.
        -12    1    3    3    0    0  0.20894356868E+01  0.26370320969E+01  0.35201406508E+01  0.48694013976E+01  0.00000000000E+00 0.  1.
</event>
<event>
 7    1  0.6622189E-010  0.4778727E+02  0.7816164E-02  0.1312668E+00
        -11   -1    0    0    0    0  0.00000000000E+00  0.00000000000E+00  0.45593999997E+02  0.45594000000E+02  0.51100000000E-03 0. -1.
         11   -1    0    0    0    0 -0.00000000000E+00 -0.00000000000E+00 -0.45593999997E+02  0.45594000000E+02  0.51100000000E-03 0.  1.
    9900012    2    1    2    0    0  0.16948525731E+02 -0.16125741853E+02 -0.36555859633E+02  0.47787274796E+02  0.20000017104E+02 0.  0.
         12    1    1    2    0    0 -0.16948525731E+02  0.16125741853E+02  0.36555859633E+02  0.43400725204E+02  0.00000000000E+00 0. -1.
         11    1    3    3    0    0  0.29175976600E+01  0.23826216923E+01  0.31454126790E+00  0.37799733735E+01  0.51100000000E-03 0. -1.
        -11    1    3    3    0    0  0.13537544056E+02 -0.17466442365E+02 -0.36703282928E+02  0.42842416901E+02  0.51100000000E-03 0.  1.
        -12    1    3    3    0    0  0.49338401501E+00 -0.10419211799E+01 -0.16711797277E+00  0.11648845214E+01  0.00000000000E+00 0.  1.
</event>
<event>
 7    1  0.6622189E-010  0.4778727E+02  0.7816164E-02  0.1312668E+00
        -11   -1    0    0    0    0  0.00000000000E+00  0.00000000000E+00  0.45593999997E+02  0.45594000000E+02  0.51100000000E-03 0. -1.
         11   -1    0    0    0    0 -0.00000000000E+00 -0.00000000000E+00 -0.45593999997E+02  0.45594000000E+02  0.51100000000E-03 0.  1.
    9900012    2    1    2    0    0 -0.11641178917E+02 -0.18745821397E+02 -0.37372459011E+02  0.47787267760E+02  0.19999985025E+02 0.  0.
         12    1    1    2    0    0  0.11641178917E+02  0.18745821397E+02  0.37372459011E+02  0.43400732240E+02  0.00000000000E+00 0. -1.
         11    1    3    3    0    0 -0.17139304841E+01  0.62601561818E+00 -0.20193138798E+01  0.27215954998E+01  0.51100000000E-03 0. -1.
        -11    1    3    3    0    0  0.36724432567E+01  0.66409089273E+00 -0.46737709990E+01  0.59809691355E+01  0.51100000000E-03 0.  1.
        -12    1    3    3    0    0 -0.13599691689E+02 -0.20035927908E+02 -0.30679374133E+02  0.39084703125E+02  0.00000000000E+00 0.  1.
</event>
<event>
 7    1  0.6622189E-010  0.4778722E+02  0.7816164E-02  0.1312668E+00
        -11   -1    0    0    0    0  0.00000000000E+00  0.00000000000E+00  0.45593999997E+02  0.45594000000E+02  0.51100000000E-03 0. -1.
         11   -1    0    0    0    0 -0.00000000000E+00 -0.00000000000E+00 -0.45593999997E+02  0.45594000000E+02  0.51100000000E-03 0.  1.
    9900012    2    1    2    0    0  0.22093130082E+02 -0.14857172561E+02 -0.34275153429E+02  0.47787215261E+02  0.19999745661E+02 0.  0.
         12    1    1    2    0    0 -0.22093130082E+02  0.14857172561E+02  0.34275153429E+02  0.43400784739E+02  0.00000000000E+00 0. -1.
         11    1    3    3    0    0  0.56442382626E+01 -0.55954129850E+01 -0.23793302459E+02  0.25085599738E+02  0.51100000000E-03 0.  1.
        -11    1    3    3    0    0  0.75182031568E+01 -0.22833678361E+01 -0.99243085975E+00  0.79197264255E+01  0.51100000000E-03 0. -1.
         12    1    3    3    0    0  0.89306886630E+01 -0.69783917404E+01 -0.94894201103E+01  0.14781889098E+02  0.00000000000E+00 0. -1.
</event>
<event>
 7    1  0.6622189E-010  0.4778727E+02  0.7816164E-02  0.1312668E+00
        -11   -1    0    0    0    0  0.00000000000E+00  0.00000000000E+00  0.45593999997E+02  0.45594000000E+02  0.51100000000E-03 0. -1.
         11   -1    0    0    0    0 -0.00000000000E+00 -0.00000000000E+00 -0.45593999997E+02  0.45594000000E+02  0.51100000000E-03 0.  1.
    9900012    2    1    2    0    0  0.36855443946E+02  0.82396721879E+00 -0.22904599046E+02  0.47787270423E+02  0.19999997165E+02 0.  0.
         12    1    1    2    0    0 -0.36855443946E+02 -0.82396721879E+00  0.22904599046E+02  0.43400729577E+02  0.00000000000E+00 0. -1.
         11    1    3    3    0    0  0.48336164811E+01  0.58776470931E+01  0.74524816554E+00  0.76463049068E+01  0.51100000000E-03 0. -1.
        -11    1    3    3    0    0  0.27647650989E+02 -0.46244312810E+01 -0.20147824520E+02  0.34521193534E+02  0.51100000000E-03 0.  1.
         12    1    3    3    0    0  0.43741764755E+01 -0.42924859338E+00 -0.35020226912E+01  0.56197719814E+01  0.00000000000E+00 0. -1.
</event>
<event>
 7    1  0.6622189E-010  0.4778727E+02  0.7816164E-02  0.1312668E+00
        -11   -1    0    0    0    0  0.00000000000E+00  0.00000000000E+00  0.45593999997E+02  0.45594000000E+02  0.51100000000E-03 0. -1.
         11   -1    0    0    0    0 -0.00000000000E+00 -0.00000000000E+00 -0.45593999997E+02  0.45594000000E+02  0.51100000000E-03 0.  1.
    9900012    2    1    2    0    0 -0.36855183329E+02  0.20914742520E+01 -0.22824204678E+02  0.47787272795E+02  0.20000007980E+02 0.  0.
         12    1    1    2    0    0  0.36855183329E+02 -0.20914742520E+01  0.22824204678E+02  0.43400727205E+02  0.00000000000E+00 0. -1.
         11    1    3    3    0    0 -0.44065854386E+01  0.27312160380E+01  0.30251192188E+01  0.60024064193E+01  0.51100000000E-03 0. -1.
        -11    1    3    3    0    0 -0.16246494503E+02 -0.13622298031E+00 -0.16078211343E+02  0.22857734371E+02  0.51100000000E-03 0.  1.
         12    1    3    3    0    0 -0.16202103387E+02 -0.50351880573E+00 -0.97711125540E+01  0.18927132004E+02  0.00000000000E+00 0. -1.
</event>
<event>
 7    1  0.6622189E-010  0.4778727E+02  0.7816164E-02  0.1312668E+00
        -11   -1    0    0    0    0  0.00000000000E+00  0.00000000000E+00  0.45593999997E+02  0.45594000000E+02  0.51100000000E-03 0. -1.
         11   -1    0    0    0    0 -0.00000000000E+00 -0.00000000000E+00 -0.45593999997E+02  0.45594000000E+02  0.51100000000E-03 0.  1.
    9900012    2    1    2    0    0  0.19465507601E+02  0.37936803041E+02  0.80942015543E+01  0.47787272933E+02  0.20000008610E+02 0.  0.
        -12    1    1    2    0    0 -0.19465507601E+02 -0.37936803041E+02 -0.80942015543E+01  0.43400727067E+02  0.00000000000E+00 0.  1.
         11    1    3    3    0    0  0.18321726529E+02  0.34394518528E+02  0.90082763993E+01  0.39997720082E+02  0.51100000000E-03 0. -1.
        -11    1    3    3    0    0 -0.24351212625E+01  0.27623641165E+01 -0.16797696732E+01  0.40474803880E+01  0.51100000000E-03 0.  1.
        -12    1    3    3    0    0  0.35789023350E+01  0.77992039621E+00  0.76569482817E+00  0.37420724629E+01  0.00000000000E+00 0.  1.
</event>
<event>
 7    1  0.6622189E-010  0.4778727E+02  0.7816164E-02  0.1312668E+00
        -11   -1    0    0    0    0  0.00000000000E+00  0.00000000000E+00  0.45593999997E+02  0.45594000000E+02  0.51100000000E-03 0.  1.
         11   -1    0    0    0    0 -0.00000000000E+00 -0.00000000000E+00 -0.45593999997E+02  0.45594000000E+02  0.51100000000E-03 0. -1.
    9900012    2    1    2    0    0  0.24559100189E+02 -0.75465801018E+01  0.34978894993E+02  0.47787269957E+02  0.19999995043E+02 0.  0.
        -12    1    1    2    0    0 -0.24559100189E+02  0.75465801018E+01 -0.34978894993E+02  0.43400730043E+02  0.00000000000E+00 0.  1.
         11    1    3    3    0    0  0.23335385842E+02 -0.56511237492E+01  0.24552325306E+02  0.34340822795E+02  0.51100000000E-03 0. -1.
        -11    1    3    3    0    0  0.33829433076E+01  0.20068778503E+01  0.59077037919E+01  0.70973818047E+01  0.51100000000E-03 0.  1.
         12    1    3    3    0    0 -0.21592289612E+01 -0.39023342029E+01  0.45188658952E+01  0.63490653577E+01  0.00000000000E+00 0. -1.
</event>
<event>
 7    1  0.7211429E-010  0.4778727E+02  0.7816164E-02  0.1312668E+00
        -11   -1    0    0    0    0  0.00000000000E+00  0.00000000000E+00  0.45593999997E+02  0.45594000000E+02  0.51100000000E-03 0. -1.
         11   -1    0    0    0    0 -0.00000000000E+00 -0.00000000000E+00 -0.45593999997E+02  0.45594000000E+02  0.51100000000E-03 0.  1.
    9900012    2    1    2    0    0  0.16971615654E+01  0.16454506846E+01  0.43336302423E+02  0.47787274510E+02  0.20000015803E+02 0.  0.
        -12    1    1    2    0    0 -0.16971615654E+01 -0.16454506846E+01 -0.43336302423E+02  0.43400725490E+02  0.00000000000E+00 0.  1.
         11    1    3    3    0    0  0.13627130546E+01  0.66015384493E+01  0.27570711268E+02  0.28382766195E+02  0.51100000000E-03 0. -1.
        -11    1    3    3    0    0  0.50609127605E+01 -0.35925768180E+01  0.70182865876E+01  0.93688736276E+01  0.51100000000E-03 0.  1.
         12    1    3    3    0    0 -0.47264642497E+01 -0.13635109468E+01  0.87473045669E+01  0.10035634688E+02  0.00000000000E+00 0. -1.
</event>
<event>
 7    1  0.7874441E-010  0.4778727E+02  0.7816164E-02  0.1312668E+00
        -11   -1    0    0    0    0  0.00000000000E+00  0.00000000000E+00  0.45593999997E+02  0.45594000000E+02  0.51100000000E-03 0. -1.
         11   -1    0    0    0    0 -0.00000000000E+00 -0.00000000000E+00 -0.45593999997E+02  0.45594000000E+02  0.51100000000E-03 0.  1.
    9900012    2    1    2    0    0  0.30940621068E+02 -0.21774293841E+01 -0.30357209832E+02  0.47787269366E+02  0.19999992347E+02 0.  0.
         12    1    1    2    0    0 -0.30940621068E+02  0.21774293841E+01  0.30357209832E+02  0.43400730634E+02  0.00000000000E+00 0. -1.
         11    1    3    3    0    0  0.95344217738E+00  0.15660812290E+01  0.88914993253E+00  0.20377071097E+01  0.51100000000E-03 0. -1.
        -11    1    3    3    0    0  0.21980628401E+02 -0.66411661276E+01 -0.15059579147E+02  0.27459862286E+02  0.51100000000E-03 0.  1.
        -12    1    3    3    0    0  0.80065504898E+01  0.28976555145E+01 -0.16186780618E+02  0.18289699970E+02  0.00000000000E+00 0.  1.
</event>
<event>
 7    1  0.6622189E-010  0.4778726E+02  0.7816164E-02  0.1312668E+00
        -11   -1    0    0    0    0  0.00000000000E+00  0.00000000000E+00  0.45593999997E+02  0.45594000000E+02  0.51100000000E-03 0. -1.
         11   -1    0    0    0    0 -0.00000000000E+00 -0.00000000000E+00 -0.45593999997E+02  0.45594000000E+02  0.51100000000E-03 0.  1.
    9900012    2    1    2    0    0  0.14045607228E+02 -0.25992387497E+02 -0.31792147130E+02  0.47787263723E+02  0.19999966620E+02 0.  0.
         12    1    1    2    0    0 -0.14045607228E+02  0.25992387497E+02  0.31792147130E+02  0.43400736277E+02  0.00000000000E+00 0. -1.
         11    1    3    3    0    0  0.15390379673E+02 -0.19361933129E+02 -0.27342199633E+02  0.36869284262E+02  0.51100000000E-03 0. -1.
        -11    1    3    3    0    0 -0.11114778013E+01 -0.80638182004E+01 -0.47647290922E+01  0.94320300283E+01  0.51100000000E-03 0.  1.
         12    1    3    3    0    0 -0.23329464284E+00  0.14333638316E+01  0.31478159561E+00  0.14859494329E+01  0.00000000000E+00 0. -1.
</event>
<event>
 7    1  0.7955114E-010  0.4778728E+02  0.7816164E-02  0.1312668E+00
        -11   -1    0    0    0    0  0.00000000000E+00  0.00000000000E+00  0.45593999997E+02  0.45594000000E+02  0.51100000000E-03 0. -1.
         11   -1    0    0    0    0 -0.00000000000E+00 -0.00000000000E+00 -0.45593999997E+02  0.45594000000E+02  0.51100000000E-03 0.  1.
    9900012    2    1    2    0    0 -0.18470753701E+02 -0.43603789154E+01  0.39031278486E+02  0.47787281725E+02  0.20000048696E+02 0.  0.
        -12    1    1    2    0    0  0.18470753701E+02  0.43603789154E+01 -0.39031278486E+02  0.43400718275E+02  0.00000000000E+00 0.  1.
         11    1    3    3    0    0 -0.18970045684E+02 -0.98517996255E+00  0.31270504690E+02  0.36587944417E+02  0.51100000000E-03 0. -1.
        -11    1    3    3    0    0 -0.12794998836E+01 -0.51835840005E+01  0.63517166119E+01  0.82976482947E+01  0.51100000000E-03 0.  1.
         12    1    3    3    0    0  0.17787918662E+01  0.18083850476E+01  0.14090571836E+01  0.29016890134E+01  0.00000000000E+00 0. -1.
</event>
<event>
 7    1  0.6622189E-010  0.4778727E+02  0.7816164E-02  0.1312668E+00
        -11   -1    0    0    0    0  0.00000000000E+00  0.00000000000E+00  0.45593999997E+02  0.45594000000E+02  0.51100000000E-03 0. -1.
         11   -1    0    0    0    0 -0.00000000000E+00 -0.00000000000E+00 -0.45593999997E+02  0.45594000000E+02  0.51100000000E-03 0.  1.
    9900012    2    1    2    0    0 -0.15765019134E+02  0.91276794212E+01 -0.39392546114E+02  0.47787273633E+02  0.20000011800E+02 0.  0.
         12    1    1    2    0    0  0.15765019134E+02 -0.91276794212E+01  0.39392546114E+02  0.43400726367E+02  0.00000000000E+00 0. -1.
         11    1    3    3    0    0  0.18602333166E+01  0.39654312616E+01 -0.74921824628E+01  0.86785892517E+01  0.51100000000E-03 0. -1.
        -11    1    3    3    0    0 -0.13673386263E+02 -0.19786914063E+01 -0.15327184463E+02  0.20634904783E+02  0.51100000000E-03 0.  1.
        -12    1    3    3    0    0 -0.39518661876E+01  0.71409395660E+01 -0.16573179187E+02  0.18473779598E+02  0.00000000000E+00 0.  1.
</event>
<event>
 7    1  0.6622189E-010  0.4778727E+02  0.7816164E-02  0.1312668E+00
        -11   -1    0    0    0    0  0.00000000000E+00  0.00000000000E+00  0.45593999997E+02  0.45594000000E+02  0.51100000000E-03 0. -1.
         11   -1    0    0    0    0 -0.00000000000E+00 -0.00000000000E+00 -0.45593999997E+02  0.45594000000E+02  0.51100000000E-03 0.  1.
    9900012    2    1    2    0    0 -0.13821327721E+02 -0.41546579453E+01 -0.40930830674E+02  0.47787272100E+02  0.20000004811E+02 0.  0.
         12    1    1    2    0    0  0.13821327721E+02  0.41546579453E+01  0.40930830674E+02  0.43400727900E+02  0.00000000000E+00 0. -1.
         11    1    3    3    0    0  0.46735140095E+01  0.12199720967E+00 -0.59716036400E+01  0.75839743414E+01  0.51100000000E-03 0. -1.
        -11    1    3    3    0    0 -0.96205219352E+01 -0.62729274411E-01 -0.13246860306E+02  0.16371856507E+02  0.51100000000E-03 0.  1.
         12    1    3    3    0    0 -0.88743197955E+01 -0.42139258806E+01 -0.21712366728E+02  0.23831441251E+02  0.00000000000E+00 0. -1.
</event>
<event>
 7    1  0.6622189E-010  0.4778727E+02  0.7816164E-02  0.1312668E+00
        -11   -1    0    0    0    0  0.00000000000E+00  0.00000000000E+00  0.45593999997E+02  0.45594000000E+02  0.51100000000E-03 0. -1.
         11   -1    0    0    0    0 -0.00000000000E+00 -0.00000000000E+00 -0.45593999997E+02  0.45594000000E+02  0.51100000000E-03 0.  1.
    9900012    2    1    2    0    0 -0.24083784621E+02 -0.35398250981E+02 -0.71104521848E+01  0.47787269771E+02  0.19999994194E+02 0.  0.
         12    1    1    2    0    0  0.24083784621E+02  0.35398250981E+02  0.71104521848E+01  0.43400730229E+02  0.00000000000E+00 0. -1.
         11    1    3    3    0    0 -0.98265833802E+01 -0.19799495794E+01 -0.23501846844E+01  0.10295887994E+02  0.51100000000E-03 0. -1.
        -11    1    3    3    0    0 -0.13963629375E+02 -0.29532785950E+02 -0.63570112408E+01  0.33280324269E+02  0.51100000000E-03 0.  1.
         12    1    3    3    0    0 -0.29357186490E+00 -0.38855154517E+01  0.15967437404E+01  0.42110575082E+01  0.00000000000E+00 0. -1.
</event>
<event>
 7    1  0.6622189E-010  0.4778726E+02  0.7816164E-02  0.1312668E+00
        -11   -1    0    0    0    0  0.00000000000E+00  0.00000000000E+00  0.45593999997E+02  0.45594000000E+02  0.51100000000E-03 0. -1.
         11   -1    0    0    0    0 -0.00000000000E+00 -0.00000000000E+00 -0.45593999997E+02  0.45594000000E+02  0.51100000000E-03 0.  1.
    9900012    2    1    2    0    0  0.34598057046E+02  0.21170129394E+02 -0.15440982890E+02  0.47787264032E+02  0.19999968030E+02 0.  0.
         12    1    1    2    0    0 -0.34598057046E+02 -0.21170129394E+02  0.15440982890E+02  0.43400735968E+02  0.00000000000E+00 0. -1.
         11    1    3    3    0    0 -0.16618855267E+01 -0.33772972696E-01 -0.23762437781E+01  0.28999204941E+01  0.51100000000E-03 0. -1.
        -11    1    3    3    0    0  0.28364528465E+02  0.12000978593E+02 -0.99801701602E+01  0.32375511717E+02  0.51100000000E-03 0.  1.
        -12    1    3    3    0    0  0.78954141071E+01  0.92029237737E+01 -0.30845689521E+01  0.12511831821E+02  0.00000000000E+00 0.  1.
</event>
<event>
 7    1  0.6622189E-010  0.4778725E+02  0.7816164E-02  0.1312668E+00
        -11   -1    0    0    0    0  0.00000000000E+00  0.00000000000E+00  0.45593999997E+02  0.45594000000E+02  0.51100000000E-03 0. -1.
         11   -1    0    0    0    0 -0.00000000000E+00 -0.00000000000E+00 -0.45593999997E+02  0.45594000000E+02  0.51100000000E-03 0.  1.
    9900012    2    1    2    0    0  0.65577075634E+01 -0.29714328489E+02 -0.30946406308E+02  0.47787252203E+02  0.19999914092E+02 0.  0.
         12    1    1    2    0    0 -0.65577075634E+01  0.29714328489E+02  0.30946406308E+02  0.43400747797E+02  0.00000000000E+00 0. -1.
         11    1    3    3    0    0 -0.58193345520E+01 -0.54009672872E+01 -0.73767965592E+01  0.10837538005E+02  0.51100000000E-03 0. -1.
        -11    1    3    3    0    0  0.72973390919E+01 -0.21301783068E+02 -0.19387241392E+02  0.29713334528E+02  0.51100000000E-03 0.  1.
         12    1    3    3    0    0  0.50797030235E+01 -0.30115781333E+01 -0.41823683560E+01  0.72363796698E+01  0.00000000000E+00 0. -1.
</event>
<event>
 7    1  0.6622189E-010  0.4778728E+02  0.7816164E-02  0.1312668E+00
        -11   -1    0    0    0    0  0.00000000000E+00  0.00000000000E+00  0.45593999997E+02  0.45594000000E+02  0.51100000000E-03 0. -1.
         11   -1    0    0    0    0 -0.00000000000E+00 -0.00000000000E+00 -0.45593999997E+02  0.45594000000E+02  0.51100000000E-03 0.  1.
    9900012    2    1    2    0    0  0.42501459214E+02 -0.31741245380E+01  0.81959529103E+01  0.47787277126E+02  0.20000027728E+02 0.  0.
        -12    1    1    2    0    0 -0.42501459214E+02  0.31741245380E+01 -0.81959529103E+01  0.43400722874E+02  0.00000000000E+00 0.  1.
         11    1    3    3    0    0  0.32851407770E+02  0.53925763117E+01  0.56461591417E+01  0.33766462430E+02  0.51100000000E-03 0. -1.
        -11    1    3    3    0    0  0.33127389156E+01 -0.61855968635E+01  0.13451895613E+01  0.71446051604E+01  0.51100000000E-03 0.  1.
         12    1    3    3    0    0  0.63373125288E+01 -0.23811039863E+01  0.12046042073E+01  0.68762095356E+01  0.00000000000E+00 0. -1.
</event>
<event>
 7    1  0.6622189E-010  0.4778727E+02  0.7816164E-02  0.1312668E+00
        -11   -1    0    0    0    0  0.00000000000E+00  0.00000000000E+00  0.45593999997E+02  0.45594000000E+02  0.51100000000E-03 0. -1.
         11   -1    0    0    0    0 -0.00000000000E+00 -0.00000000000E+00 -0.45593999997E+02  0.45594000000E+02  0.51100000000E-03 0.  1.
    9900012    2    1    2    0    0 -0.86721756893E+01  0.17223941616E+02 -0.38881259108E+02  0.47787272981E+02  0.20000008829E+02 0.  0.
         12    1    1    2    0    0  0.86721756893E+01 -0.17223941616E+02  0.38881259108E+02  0.43400727019E+02  0.00000000000E+00 0. -1.
         11    1    3    3    0    0 -0.25764170886E+01  0.13693693117E+01 -0.65580834867E+00  0.29905153699E+01  0.51100000000E-03 0. -1.
        -11    1    3    3    0    0 -0.98307422947E+01  0.56441950670E+01 -0.12534957698E+02  0.16900461436E+02  0.51100000000E-03 0.  1.
        -12    1    3    3    0    0  0.37349836939E+01  0.10210377237E+02 -0.25690493062E+02  0.27896296175E+02  0.00000000000E+00 0.  1.
</event>
<event>
 7    1  0.8397052E-010  0.4778728E+02  0.7816164E-02  0.1312668E+00
        -11   -1    0    0    0    0  0.00000000000E+00  0.00000000000E+00  0.45593999997E+02  0.45594000000E+02  0.51100000000E-03 0. -1.
         11   -1    0    0    0    0 -0.00000000000E+00 -0.00000000000E+00 -0.45593999997E+02  0.45594000000E+02  0.51100000000E-03 0.  1.
    9900012    2    1    2    0    0 -0.29880768225E+02  0.99541442901E+01 -0.29860966953E+02  0.47787278282E+02  0.20000032997E+02 0.  0.
         12    1    1    2    0    0  0.29880768225E+02 -0.99541442901E+01  0.29860966953E+02  0.43400721718E+02  0.00000000000E+00 0. -1.
         11    1    3    3    0    0  0.19361122103E+01  0.18870503659E+01 -0.21804522711E+01  0.34733070613E+01  0.51100000000E-03 0. -1.
        -11    1    3    3    0    0 -0.27422043944E+02  0.25441556736E+01 -0.21665790965E+02  0.35040658107E+02  0.51100000000E-03 0.  1.
        -12    1    3    3    0    0 -0.43948364914E+01  0.55229382506E+01 -0.60147237174E+01  0.92733131135E+01  0.00000000000E+00 0.  1.
</event>
<event>
 7    1  0.6622189E-010  0.4778727E+02  0.7816164E-02  0.1312668E+00
        -11   -1    0    0    0    0  0.00000000000E+00  0.00000000000E+00  0.45593999997E+02  0.45594000000E+02  0.51100000000E-03 0. -1.
         11   -1    0    0    0    0 -0.00000000000E+00 -0.00000000000E+00 -0.45593999997E+02  0.45594000000E+02  0.51100000000E-03 0.  1.
    9900012    2    1    2    0    0 -0.37213586227E+02 -0.20704234081E+02  0.83730034367E+01  0.47787268494E+02  0.19999988371E+02 0.  0.
        -12    1    1    2    0    0  0.37213586227E+02  0.20704234081E+02 -0.83730034367E+01  0.43400731506E+02  0.00000000000E+00 0.  1.
         11    1    3    3    0    0 -0.85095332594E+01 -0.26129487408E+01  0.90628661268E+00  0.89476819960E+01  0.51100000000E-03 0. -1.
        -11    1    3    3    0    0 -0.26362431482E+02 -0.21162264633E+02  0.47958551244E+01  0.34144098534E+02  0.51100000000E-03 0.  1.
        -12    1    3    3    0    0 -0.23416214848E+01  0.30709792933E+01  0.26708616996E+01  0.46954879636E+01  0.00000000000E+00 0.  1.
</event>
<event>
 7    1  0.6622189E-010  0.4778727E+02  0.7816164E-02  0.1312668E+00
        -11   -1    0    0    0    0  0.00000000000E+00  0.00000000000E+00  0.45593999997E+02  0.45594000000E+02  0.51100000000E-03 0. -1.
         11   -1    0    0    0    0 -0.00000000000E+00 -0.00000000000E+00 -0.45593999997E+02  0.45594000000E+02  0.51100000000E-03 0.  1.
    9900012    2    1    2    0    0  0.30450367824E+02  0.10406612379E+02  0.29122175980E+02  0.47787267107E+02  0.19999982047E+02 0.  0.
        -12    1    1    2    0    0 -0.30450367824E+02 -0.10406612379E+02 -0.29122175980E+02  0.43400732893E+02  0.00000000000E+00 0.  1.
         11    1    3    3    0    0  0.46084694322E+01  0.95299312990E+00 -0.24685060313E+00  0.47124433041E+01  0.51100000000E-03 0. -1.
        -11    1    3    3    0    0  0.23504782886E+02  0.10514533847E+02  0.30792512510E+02  0.40139868802E+02  0.51100000000E-03 0.  1.
        -12    1    3    3    0    0  0.23371155061E+01 -0.10609145984E+01 -0.14234859261E+01  0.29349550006E+01  0.00000000000E+00 0.  1.
</event>
<event>
 7    1  0.6622189E-010  0.4778729E+02  0.7816164E-02  0.1312668E+00
        -11   -1    0    0    0    0  0.00000000000E+00  0.00000000000E+00  0.45593999997E+02  0.45594000000E+02  0.51100000000E-03 0.  1.
         11   -1    0    0    0    0 -0.00000000000E+00 -0.00000000000E+00 -0.45593999997E+02  0.45594000000E+02  0.51100000000E-03 0. -1.
    9900012    2    1    2    0    0 -0.35733621181E+02 -0.80972598123E+01  0.23262946374E+02  0.47787286029E+02  0.20000068320E+02 0.  0.
        -12    1    1    2    0    0  0.35733621181E+02  0.80972598123E+01 -0.23262946374E+02  0.43400713971E+02  0.00000000000E+00 0.  1.
         11    1    3    3    0    0 -0.52009361263E+01 -0.75562539893E+01  0.48923634126E+01  0.10396246003E+02  0.51100000000E-03 0.  1.
        -11    1    3    3    0    0 -0.18163919394E+02  0.44062553616E+01  0.72846019330E+01  0.20060121626E+02  0.51100000000E-03 0. -1.
         12    1    3    3    0    0 -0.12368765661E+02 -0.49472611846E+01  0.11085981029E+02  0.17330918400E+02  0.00000000000E+00 0. -1.
</event>
<event>
 7    1  0.6622189E-010  0.4778727E+02  0.7816164E-02  0.1312668E+00
        -11   -1    0    0    0    0  0.00000000000E+00  0.00000000000E+00  0.45593999997E+02  0.45594000000E+02  0.51100000000E-03 0.  1.
         11   -1    0    0    0    0 -0.00000000000E+00 -0.00000000000E+00 -0.45593999997E+02  0.45594000000E+02  0.51100000000E-03 0. -1.
    9900012    2    1    2    0    0  0.14884893721E+02 -0.28377929718E+02 -0.29270397556E+02  0.47787272711E+02  0.20000007597E+02 0.  0.
        -12    1    1    2    0    0 -0.14884893721E+02  0.28377929718E+02  0.29270397556E+02  0.43400727289E+02  0.00000000000E+00 0.  1.
         11    1    3    3    0    0  0.97778389774E+01 -0.21657112959E+02 -0.25668698122E+02  0.34978832747E+02  0.51100000000E-03 0. -1.
        -11    1    3    3    0    0  0.24670908246E+01 -0.86611607154E+01 -0.24155996511E+01  0.93240208070E+01  0.51100000000E-03 0.  1.
         12    1    3    3    0    0  0.26399639192E+01  0.19403439568E+01 -0.11860997833E+01  0.34844191569E+01  0.00000000000E+00 0. -1.
</event>
<event>
 7    1  0.6622189E-010  0.4778728E+02  0.7816164E-02  0.1312668E+00
        -11   -1    0    0    0    0  0.00000000000E+00  0.00000000000E+00  0.45593999997E+02  0.45594000000E+02  0.51100000000E-03 0. -1.
         11   -1    0    0    0    0 -0.00000000000E+00 -0.00000000000E+00 -0.45593999997E+02  0.45594000000E+02  0.51100000000E-03 0.  1.
    9900012    2    1    2    0    0  0.33831845698E+02 -0.16300084779E+02 -0.21756284716E+02  0.47787280285E+02  0.20000042131E+02 0.  0.
         12    1    1    2    0    0 -0.33831845698E+02  0.16300084779E+02  0.21756284716E+02  0.43400719715E+02  0.00000000000E+00 0. -1.
         11    1    3    3    0    0  0.10172260528E+01  0.14944185752E+01  0.26801792643E+00  0.18275310095E+01  0.51100000000E-03 0. -1.
        -11    1    3    3    0    0  0.46644101095E+00 -0.29472333272E+01  0.14555374103E+01  0.33199911017E+01  0.51100000000E-03 0.  1.
        -12    1    3    3    0    0  0.32348178634E+02 -0.14847270028E+02 -0.23479840053E+02  0.42639758174E+02  0.00000000000E+00 0.  1.
</event>
<event>
 7    1  0.6622189E-010  0.4778727E+02  0.7816164E-02  0.1312668E+00
        -11   -1    0    0    0    0  0.00000000000E+00  0.00000000000E+00  0.45593999997E+02  0.45594000000E+02  0.51100000000E-03 0. -1.
         11   -1    0    0    0    0 -0.00000000000E+00 -0.00000000000E+00 -0.45593999997E+02  0.45594000000E+02  0.51100000000E-03 0.  1.
    9900012    2    1    2    0    0  0.31293252096E+02  0.10810005958E+02  0.28062415107E+02  0.47787274232E+02  0.20000014535E+02 0.  0.
        -12    1    1    2    0    0 -0.31293252096E+02 -0.10810005958E+02 -0.28062415107E+02  0.43400725768E+02  0.00000000000E+00 0.  1.
         11    1    3    3    0    0  0.83201787519E+01 -0.35298697818E+01  0.99901023854E+01  0.13471729699E+02  0.51100000000E-03 0. -1.
        -11    1    3    3    0    0  0.20425045060E+02  0.16153198616E+02  0.16288114831E+02  0.30714995951E+02  0.51100000000E-03 0.  1.
        -12    1    3    3    0    0  0.25480282840E+01 -0.18133228762E+01  0.17841978898E+01  0.36005485831E+01  0.00000000000E+00 0.  1.
</event>
<event>
 7    1  0.6622189E-010  0.4778727E+02  0.7816164E-02  0.1312668E+00
        -11   -1    0    0    0    0  0.00000000000E+00  0.00000000000E+00  0.45593999997E+02  0.45594000000E+02  0.51100000000E-03 0. -1.
         11   -1    0    0    0    0 -0.00000000000E+00 -0.00000000000E+00 -0.45593999997E+02  0.45594000000E+02  0.51100000000E-03 0.  1.
    9900012    2    1    2    0    0 -0.33354022500E+02  0.18056230091E+02  0.21097510057E+02  0.47787271981E+02  0.20000004268E+02 0.  0.
        -12    1    1    2    0    0  0.33354022500E+02 -0.18056230091E+02 -0.21097510057E+02  0.43400728019E+02  0.00000000000E+00 0.  1.
         11    1    3    3    0    0  0.39623921651E+00 -0.19721158938E+01 -0.33457351217E+00  0.20391631400E+01  0.51100000000E-03 0.  1.
        -11    1    3    3    0    0 -0.27317933031E+02  0.11553951502E+02  0.14207730576E+02  0.32888035344E+02  0.51100000000E-03 0. -1.
        -12    1    3    3    0    0 -0.64323286849E+01  0.84743944827E+01  0.72243529932E+01  0.12860073496E+02  0.00000000000E+00 0.  1.
</event>
<event>
 7    1  0.6622189E-010  0.4778728E+02  0.7816164E-02  0.1312668E+00
        -11   -1    0    0    0    0  0.00000000000E+00  0.00000000000E+00  0.45593999997E+02  0.45594000000E+02  0.51100000000E-03 0. -1.
         11   -1    0    0    0    0 -0.00000000000E+00 -0.00000000000E+00 -0.45593999997E+02  0.45594000000E+02  0.51100000000E-03 0.  1.
    9900012    2    1    2    0    0  0.12090621107E+02  0.23666514176E+02 -0.34312328025E+02  0.47787275738E+02  0.20000021398E+02 0.  0.
         12    1    1    2    0    0 -0.12090621107E+02 -0.23666514176E+02  0.34312328025E+02  0.43400724262E+02  0.00000000000E+00 0. -1.
         11    1    3    3    0    0 -0.17388281642E+01  0.56600329671E+01  0.29650014210E+00  0.59285250416E+01  0.51100000000E-03 0. -1.
        -11    1    3    3    0    0  0.59326211569E+01  0.12734602367E+02 -0.20398153802E+02  0.24767938349E+02  0.51100000000E-03 0.  1.
         12    1    3    3    0    0  0.78968281139E+01  0.52718788413E+01 -0.14210674365E+02  0.17090812347E+02  0.00000000000E+00 0. -1.
</event>
<event>
 7    1  0.6622189E-010  0.4778728E+02  0.7816164E-02  0.1312668E+00
        -11   -1    0    0    0    0  0.00000000000E+00  0.00000000000E+00  0.45593999997E+02  0.45594000000E+02  0.51100000000E-03 0. -1.
         11   -1    0    0    0    0 -0.00000000000E+00 -0.00000000000E+00 -0.45593999997E+02  0.45594000000E+02  0.51100000000E-03 0.  1.
    9900012    2    1    2    0    0 -0.17995801678E+02 -0.57452011611E+01 -0.39073857234E+02  0.47787279573E+02  0.20000038887E+02 0.  0.
         12    1    1    2    0    0  0.17995801678E+02  0.57452011611E+01  0.39073857234E+02  0.43400720427E+02  0.00000000000E+00 0. -1.
         11    1    3    3    0    0 -0.16756046762E+02 -0.28953064591E+01 -0.37120722567E+02  0.40830086294E+02  0.51100000000E-03 0.  1.
        -11    1    3    3    0    0 -0.19047046926E+01  0.65336589152E+00 -0.26456162875E+01  0.33247665717E+01  0.51100000000E-03 0. -1.
         12    1    3    3    0    0  0.66494977677E+00 -0.35032605935E+01  0.69248162093E+00  0.36324267077E+01  0.00000000000E+00 0. -1.
</event>
<event>
 7    1  0.6622189E-010  0.4778726E+02  0.7816164E-02  0.1312668E+00
        -11   -1    0    0    0    0  0.00000000000E+00  0.00000000000E+00  0.45593999997E+02  0.45594000000E+02  0.51100000000E-03 0. -1.
         11   -1    0    0    0    0 -0.00000000000E+00 -0.00000000000E+00 -0.45593999997E+02  0.45594000000E+02  0.51100000000E-03 0.  1.
    9900012    2    1    2    0    0 -0.34247470733E+02  0.19457714917E+01  0.26588507870E+02  0.47787262344E+02  0.19999960332E+02 0.  0.
        -12    1    1    2    0    0  0.34247470733E+02 -0.19457714917E+01 -0.26588507870E+02  0.43400737656E+02  0.00000000000E+00 0.  1.
         11    1    3    3    0    0 -0.99835945133E+01  0.49310411223E+01  0.16229069526E+02  0.19681718012E+02  0.51100000000E-03 0. -1.
        -11    1    3    3    0    0 -0.21243850461E+02 -0.26648790894E+00  0.58518268415E+01  0.22036698388E+02  0.51100000000E-03 0.  1.
         12    1    3    3    0    0 -0.30200257590E+01 -0.27187817217E+01  0.45076115020E+01  0.60688459436E+01  0.00000000000E+00 0. -1.
</event>
<event>
 7    1  0.6622189E-010  0.4778727E+02  0.7816164E-02  0.1312668E+00
        -11   -1    0    0    0    0  0.00000000000E+00  0.00000000000E+00  0.45593999997E+02  0.45594000000E+02  0.51100000000E-03 0.  1.
         11   -1    0    0    0    0 -0.00000000000E+00 -0.00000000000E+00 -0.45593999997E+02  0.45594000000E+02  0.51100000000E-03 0. -1.
    9900012    2    1    2    0    0  0.51823905263E+01  0.34455546457E+02 -0.25876271323E+02  0.47787271080E+02  0.20000000162E+02 0.  0.
         12    1    1    2    0    0 -0.51823905263E+01 -0.34455546457E+02  0.25876271323E+02  0.43400728920E+02  0.00000000000E+00 0. -1.
         11    1    3    3    0    0 -0.19450550338E+01 -0.53247339158E+00 -0.60663750049E+01  0.63927828806E+01  0.51100000000E-03 0. -1.
        -11    1    3    3    0    0  0.72197909363E+01  0.24219918189E+02 -0.16277668897E+02  0.30061475733E+02  0.51100000000E-03 0.  1.
         12    1    3    3    0    0 -0.92345376159E-01  0.10768101659E+02 -0.35322274215E+01  0.11333012467E+02  0.00000000000E+00 0. -1.
</event>
<event>
 7    1  0.6622189E-010  0.4778732E+02  0.7816164E-02  0.1312668E+00
        -11   -1    0    0    0    0  0.00000000000E+00  0.00000000000E+00  0.45593999997E+02  0.45594000000E+02  0.51100000000E-03 0. -1.
         11   -1    0    0    0    0 -0.00000000000E+00 -0.00000000000E+00 -0.45593999997E+02  0.45594000000E+02  0.51100000000E-03 0.  1.
    9900012    2    1    2    0    0 -0.22436478013E+02  0.30629588420E+02 -0.21025030472E+02  0.47787318683E+02  0.20000217203E+02 0.  0.
         12    1    1    2    0    0  0.22436478013E+02 -0.30629588420E+02  0.21025030472E+02  0.43400681317E+02  0.00000000000E+00 0. -1.
         11    1    3    3    0    0 -0.63548083934E+01  0.20509131139E+02 -0.10334306519E+02  0.23828678967E+02  0.51100000000E-03 0. -1.
        -11    1    3    3    0    0 -0.74020093568E+01  0.99800408782E+01 -0.83411714997E+01  0.14965497008E+02  0.51100000000E-03 0.  1.
         12    1    3    3    0    0 -0.86796602629E+01  0.14041640261E+00 -0.23495524533E+01  0.89931427086E+01  0.00000000000E+00 0. -1.
</event>
<event>
 7    1  0.6622189E-010  0.4778729E+02  0.7816164E-02  0.1312668E+00
        -11   -1    0    0    0    0  0.00000000000E+00  0.00000000000E+00  0.45593999997E+02  0.45594000000E+02  0.51100000000E-03 0. -1.
         11   -1    0    0    0    0 -0.00000000000E+00 -0.00000000000E+00 -0.45593999997E+02  0.45594000000E+02  0.51100000000E-03 0.  1.
    9900012    2    1    2    0    0  0.35945742061E+01 -0.15597525700E+02  0.40341267824E+02  0.47787289622E+02  0.20000084701E+02 0.  0.
        -12    1    1    2    0    0 -0.35945742061E+01  0.15597525700E+02 -0.40341267824E+02  0.43400710378E+02  0.00000000000E+00 0.  1.
         11    1    3    3    0    0  0.41632827424E+01 -0.22546119294E+01  0.16747545018E+02  0.17403920896E+02  0.51100000000E-03 0. -1.
        -11    1    3    3    0    0 -0.12689621205E+01 -0.14356221750E+02  0.24784444380E+02  0.28670194476E+02  0.51100000000E-03 0.  1.
        -12    1    3    3    0    0  0.70025358419E+00  0.10133079795E+01 -0.11907215741E+01  0.17131742499E+01  0.00000000000E+00 0.  1.
</event>
<event>
 7    1  0.6622189E-010  0.4778727E+02  0.7816164E-02  0.1312668E+00
        -11   -1    0    0    0    0  0.00000000000E+00  0.00000000000E+00  0.45593999997E+02  0.45594000000E+02  0.51100000000E-03 0. -1.
         11   -1    0    0    0    0 -0.00000000000E+00 -0.00000000000E+00 -0.45593999997E+02  0.45594000000E+02  0.51100000000E-03 0.  1.
    9900012    2    1    2    0    0  0.55830207904E+01  0.19613798904E+02  0.38311255616E+02  0.47787268031E+02  0.19999986259E+02 0.  0.
        -12    1    1    2    0    0 -0.55830207904E+01 -0.19613798904E+02 -0.38311255616E+02  0.43400731969E+02  0.00000000000E+00 0.  1.
         11    1    3    3    0    0  0.81952112945E+00  0.19660305355E+02  0.26088175361E+02  0.32677088540E+02  0.51100000000E-03 0. -1.
        -11    1    3    3    0    0  0.46646502605E+00  0.19708217296E+01  0.93382121651E+01  0.95553092369E+01  0.51100000000E-03 0.  1.
         12    1    3    3    0    0  0.42970346349E+01 -0.20173281806E+01  0.28848680905E+01  0.55548702543E+01  0.00000000000E+00 0. -1.
</event>
<event>
 7    1  0.6622189E-010  0.4778725E+02  0.7816164E-02  0.1312668E+00
        -11   -1    0    0    0    0  0.00000000000E+00  0.00000000000E+00  0.45593999997E+02  0.45594000000E+02  0.51100000000E-03 0. -1.
         11   -1    0    0    0    0 -0.00000000000E+00 -0.00000000000E+00 -0.45593999997E+02  0.45594000000E+02  0.51100000000E-03 0.  1.
    9900012    2    1    2    0    0 -0.19592240253E+02 -0.95927153835E+01  0.37519977244E+02  0.47787253936E+02  0.19999921994E+02 0.  0.
        -12    1    1    2    0    0  0.19592240253E+02  0.95927153835E+01 -0.37519977244E+02  0.43400746064E+02  0.00000000000E+00 0.  1.
         11    1    3    3    0    0 -0.12980064981E+02 -0.13419839163E+02  0.28056051320E+02  0.33700388514E+02  0.51100000000E-03 0. -1.
        -11    1    3    3    0    0 -0.63310140173E+01  0.36598240323E+01  0.10615063755E+02  0.12890136897E+02  0.51100000000E-03 0.  1.
        -12    1    3    3    0    0 -0.28116125429E+00  0.16729974722E+00 -0.11511378308E+01  0.11967285247E+01  0.00000000000E+00 0.  1.
</event>
<event>
 7    1  0.6622189E-010  0.4778727E+02  0.7816164E-02  0.1312668E+00
        -11   -1    0    0    0    0  0.00000000000E+00  0.00000000000E+00  0.45593999997E+02  0.45594000000E+02  0.51100000000E-03 0. -1.
         11   -1    0    0    0    0 -0.00000000000E+00 -0.00000000000E+00 -0.45593999997E+02  0.45594000000E+02  0.51100000000E-03 0.  1.
    9900012    2    1    2    0    0 -0.11143913346E+02 -0.19381487818E+02  0.37199388031E+02  0.47787270229E+02  0.19999996284E+02 0.  0.
        -12    1    1    2    0    0  0.11143913346E+02  0.19381487818E+02 -0.37199388031E+02  0.43400729771E+02  0.00000000000E+00 0.  1.
         11    1    3    3    0    0 -0.10423231806E+02 -0.15281640014E+02  0.19595864345E+02  0.26947545018E+02  0.51100000000E-03 0. -1.
        -11    1    3    3    0    0  0.32053330660E+01  0.15653491966E+01  0.28869113353E+01  0.45889797875E+01  0.51100000000E-03 0.  1.
        -12    1    3    3    0    0 -0.39260146059E+01 -0.56651970015E+01  0.14716612351E+02  0.16250745424E+02  0.00000000000E+00 0.  1.
</event>
<event>
 7    1  0.6622189E-010  0.4778727E+02  0.7816164E-02  0.1312668E+00
        -11   -1    0    0    0    0  0.00000000000E+00  0.00000000000E+00  0.45593999997E+02  0.45594000000E+02  0.51100000000E-03 0. -1.
         11   -1    0    0    0    0 -0.00000000000E+00 -0.00000000000E+00 -0.45593999997E+02  0.45594000000E+02  0.51100000000E-03 0.  1.
    9900012    2    1    2    0    0 -0.33868674990E+01  0.48807250840E+00  0.43265621753E+02  0.47787272911E+02  0.20000008510E+02 0.  0.
        -12    1    1    2    0    0  0.33868674990E+01 -0.48807250840E+00 -0.43265621753E+02  0.43400727089E+02  0.00000000000E+00 0.  1.
         11    1    3    3    0    0  0.16665024997E+00  0.46024552583E+01  0.17639595721E+01  0.49317258991E+01  0.51100000000E-03 0. -1.
        -11    1    3    3    0    0 -0.32572857337E+01 -0.97686908279E+00  0.41238830794E+01  0.53451469081E+01  0.51100000000E-03 0.  1.
         12    1    3    3    0    0 -0.29623201535E+00 -0.31375136671E+01  0.37377779101E+02  0.37510400104E+02  0.00000000000E+00 0. -1.
</event>
<event>
 7    1  0.6622189E-010  0.4778727E+02  0.7816164E-02  0.1312668E+00
        -11   -1    0    0    0    0  0.00000000000E+00  0.00000000000E+00  0.45593999997E+02  0.45594000000E+02  0.51100000000E-03 0. -1.
         11   -1    0    0    0    0 -0.00000000000E+00 -0.00000000000E+00 -0.45593999997E+02  0.45594000000E+02  0.51100000000E-03 0.  1.
    9900012    2    1    2    0    0  0.22822860332E+02  0.18829624531E+02 -0.31751942030E+02  0.47787268020E+02  0.19999986212E+02 0.  0.
         12    1    1    2    0    0 -0.22822860332E+02 -0.18829624531E+02  0.31751942030E+02  0.43400731980E+02  0.00000000000E+00 0. -1.
         11    1    3    3    0    0  0.86738777908E+00  0.65009280258E-01 -0.10467966885E+00  0.87609694670E+00  0.51100000000E-03 0. -1.
        -11    1    3    3    0    0  0.14419563426E+02  0.21915529362E+02 -0.21741562481E+02  0.34072126086E+02  0.51100000000E-03 0.  1.
        -12    1    3    3    0    0  0.75359091263E+01 -0.31509141110E+01 -0.99056998792E+01  0.12839044988E+02  0.00000000000E+00 0.  1.
</event>
<event>
 7    1  0.6622189E-010  0.4778727E+02  0.7816164E-02  0.1312668E+00
        -11   -1    0    0    0    0  0.00000000000E+00  0.00000000000E+00  0.45593999997E+02  0.45594000000E+02  0.51100000000E-03 0. -1.
         11   -1    0    0    0    0 -0.00000000000E+00 -0.00000000000E+00 -0.45593999997E+02  0.45594000000E+02  0.51100000000E-03 0.  1.
    9900012    2    1    2    0    0  0.32611927593E+02 -0.21418197447E+02  0.19009113395E+02  0.47787269646E+02  0.19999993623E+02 0.  0.
        -12    1    1    2    0    0 -0.32611927593E+02  0.21418197447E+02 -0.19009113395E+02  0.43400730354E+02  0.00000000000E+00 0.  1.
         11    1    3    3    0    0  0.17240188812E+02 -0.21116692422E+02  0.71660393585E+01  0.28186715478E+02  0.51100000000E-03 0. -1.
        -11    1    3    3    0    0  0.11024729887E+02  0.71796905147E+00  0.94295560452E+01  0.14525036183E+02  0.51100000000E-03 0.  1.
         12    1    3    3    0    0  0.43470088944E+01 -0.10194740766E+01  0.24135179909E+01  0.50755179848E+01  0.00000000000E+00 0. -1.
</event>
<event>
 7    1  0.6622189E-010  0.4778728E+02  0.7816164E-02  0.1312668E+00
        -11   -1    0    0    0    0  0.00000000000E+00  0.00000000000E+00  0.45593999997E+02  0.45594000000E+02  0.51100000000E-03 0. -1.
         11   -1    0    0    0    0 -0.00000000000E+00 -0.00000000000E+00 -0.45593999997E+02  0.45594000000E+02  0.51100000000E-03 0.  1.
    9900012    2    1    2    0    0 -0.29186873280E+02 -0.15307422399E+02  0.28238841319E+02  0.47787275220E+02  0.20000019039E+02 0.  0.
        -12    1    1    2    0    0  0.29186873280E+02  0.15307422399E+02 -0.28238841319E+02  0.43400724780E+02  0.00000000000E+00 0.  1.
         11    1    3    3    0    0 -0.57183617585E+01 -0.65089031578E+01  0.11691158438E+02  0.14551586423E+02  0.51100000000E-03 0. -1.
        -11    1    3    3    0    0 -0.24357584253E+02 -0.10791437043E+02  0.15282817273E+02  0.30713377023E+02  0.51100000000E-03 0.  1.
        -12    1    3    3    0    0  0.88907273099E+00  0.19929178017E+01  0.12648656073E+01  0.25223117749E+01  0.00000000000E+00 0.  1.
</event>
<event>
 7    1  0.6622189E-010  0.4778728E+02  0.7816164E-02  0.1312668E+00
        -11   -1    0    0    0    0  0.00000000000E+00  0.00000000000E+00  0.45593999997E+02  0.45594000000E+02  0.51100000000E-03 0. -1.
         11   -1    0    0    0    0 -0.00000000000E+00 -0.00000000000E+00 -0.45593999997E+02  0.45594000000E+02  0.51100000000E-03 0.  1.
    9900012    2    1    2    0    0  0.34269845485E+02 -0.23778071465E+02  0.11991817174E+02  0.47787277987E+02  0.20000031652E+02 0.  0.
        -12    1    1    2    0    0 -0.34269845485E+02  0.23778071465E+02 -0.11991817174E+02  0.43400722013E+02  0.00000000000E+00 0.  1.
         11    1    3    3    0    0  0.37440118784E+01 -0.34118936148E+01 -0.49408572063E+01  0.70760662220E+01  0.51100000000E-03 0.  1.
        -11    1    3    3    0    0  0.20834722516E+02 -0.15192480199E+02  0.96565091551E+01  0.27534438186E+02  0.51100000000E-03 0. -1.
        -12    1    3    3    0    0  0.96911110908E+01 -0.51736976513E+01  0.72761652249E+01  0.13176773579E+02  0.00000000000E+00 0.  1.
</event>
<event>
 7    1  0.6622189E-010  0.4778727E+02  0.7816164E-02  0.1312668E+00
        -11   -1    0    0    0    0  0.00000000000E+00  0.00000000000E+00  0.45593999997E+02  0.45594000000E+02  0.51100000000E-03 0. -1.
         11   -1    0    0    0    0 -0.00000000000E+00 -0.00000000000E+00 -0.45593999997E+02  0.45594000000E+02  0.51100000000E-03 0.  1.
    9900012    2    1    2    0    0  0.22434481268E+02 -0.20865520247E+02 -0.30739994843E+02  0.47787272266E+02  0.20000005568E+02 0.  0.
         12    1    1    2    0    0 -0.22434481268E+02  0.20865520247E+02  0.30739994843E+02  0.43400727734E+02  0.00000000000E+00 0. -1.
         11    1    3    3    0    0  0.71336403628E+01  0.26450079431E+01 -0.45927799097E+01  0.88869859573E+01  0.51100000000E-03 0. -1.
        -11    1    3    3    0    0  0.13810926038E+02 -0.23405977792E+02 -0.25518782415E+02  0.37279883726E+02  0.51100000000E-03 0.  1.
        -12    1    3    3    0    0  0.14899148674E+01 -0.10455039782E+00 -0.62843251790E+00  0.16204025818E+01  0.00000000000E+00 0.  1.
</event>
<event>
 7    1  0.6622189E-010  0.4778727E+02  0.7816164E-02  0.1312668E+00
        -11   -1    0    0    0    0  0.00000000000E+00  0.00000000000E+00  0.45593999997E+02  0.45594000000E+02  0.51100000000E-03 0. -1.
         11   -1    0    0    0    0 -0.00000000000E+00 -0.00000000000E+00 -0.45593999997E+02  0.45594000000E+02  0.51100000000E-03 0.  1.
    9900012    2    1    2    0    0  0.37014613632E+02  0.34226945638E+01  0.22401492435E+02  0.47787270470E+02  0.19999997381E+02 0.  0.
        -12    1    1    2    0    0 -0.37014613632E+02 -0.34226945638E+01 -0.22401492435E+02  0.43400729530E+02  0.00000000000E+00 0.  1.
         11    1    3    3    0    0  0.20276875960E+02 -0.23074277370E+01  0.10301342686E+02  0.22860305835E+02  0.51100000000E-03 0. -1.
        -11    1    3    3    0    0  0.98999455932E+01  0.80951748162E+01  0.27093204797E+01  0.13072153448E+02  0.51100000000E-03 0.  1.
        -12    1    3    3    0    0  0.68377920789E+01 -0.23650525154E+01  0.93908292692E+01  0.11854811187E+02  0.00000000000E+00 0.  1.
</event>
<event>
 7    1  0.6622189E-010  0.4778727E+02  0.7816164E-02  0.1312668E+00
        -11   -1    0    0    0    0  0.00000000000E+00  0.00000000000E+00  0.45593999997E+02  0.45594000000E+02  0.51100000000E-03 0. -1.
         11   -1    0    0    0    0 -0.00000000000E+00 -0.00000000000E+00 -0.45593999997E+02  0.45594000000E+02  0.51100000000E-03 0.  1.
    9900012    2    1    2    0    0  0.74950063436E+01  0.30529498389E+02 -0.29923200511E+02  0.47787270504E+02  0.19999997536E+02 0.  0.
         12    1    1    2    0    0 -0.74950063436E+01 -0.30529498389E+02  0.29923200511E+02  0.43400729496E+02  0.00000000000E+00 0. -1.
         11    1    3    3    0    0 -0.43250689551E+01 -0.79518689050E-01 -0.42975712054E+01  0.60976768703E+01  0.51100000000E-03 0. -1.
        -11    1    3    3    0    0  0.91679200555E+01  0.25591520720E+02 -0.21794986113E+02  0.34842475670E+02  0.51100000000E-03 0.  1.
         12    1    3    3    0    0  0.26521552432E+01  0.50174963582E+01 -0.38306431928E+01  0.68471179637E+01  0.00000000000E+00 0. -1.
</event>
<event>
 7    1  0.6622189E-010  0.4778727E+02  0.7816164E-02  0.1312668E+00
        -11   -1    0    0    0    0  0.00000000000E+00  0.00000000000E+00  0.45593999997E+02  0.45594000000E+02  0.51100000000E-03 0. -1.
         11   -1    0    0    0    0 -0.00000000000E+00 -0.00000000000E+00 -0.45593999997E+02  0.45594000000E+02  0.51100000000E-03 0.  1.
    9900012    2    1    2    0    0  0.56594375062E+00 -0.43226012456E+02 -0.38490166480E+01  0.47787269887E+02  0.19999994724E+02 0.  0.
        -12    1    1    2    0    0 -0.56594375062E+00  0.43226012456E+02  0.38490166480E+01  0.43400730113E+02  0.00000000000E+00 0.  1.
         11    1    3    3    0    0  0.22838720764E+01 -0.20526202362E+02 -0.11566093364E+02  0.23670985849E+02  0.51100000000E-03 0. -1.
        -11    1    3    3    0    0 -0.13749048682E+01 -0.11005629232E+02  0.28989205846E+01  0.11463768098E+02  0.51100000000E-03 0.  1.
         12    1    3    3    0    0 -0.34302345762E+00 -0.11694180862E+02  0.48181561318E+01  0.12652515941E+02  0.00000000000E+00 0. -1.
</event>
<event>
 7    1  0.6622189E-010  0.4778727E+02  0.7816164E-02  0.1312668E+00
        -11   -1    0    0    0    0  0.00000000000E+00  0.00000000000E+00  0.45593999997E+02  0.45594000000E+02  0.51100000000E-03 0. -1.
         11   -1    0    0    0    0 -0.00000000000E+00 -0.00000000000E+00 -0.45593999997E+02  0.45594000000E+02  0.51100000000E-03 0.  1.
    9900012    2    1    2    0    0  0.22841670768E+02  0.27265292930E+02 -0.24869358165E+02  0.47787273076E+02  0.20000009264E+02 0.  0.
         12    1    1    2    0    0 -0.22841670768E+02 -0.27265292930E+02  0.24869358165E+02  0.43400726924E+02  0.00000000000E+00 0. -1.
         11    1    3    3    0    0  0.39847878462E+01 -0.33141214363E+00 -0.15924142211E+00  0.40017154171E+01  0.51100000000E-03 0. -1.
        -11    1    3    3    0    0  0.11831923361E+02  0.23988274168E+02 -0.13202107956E+02  0.29828298020E+02  0.51100000000E-03 0.  1.
        -12    1    3    3    0    0  0.70249595609E+01  0.36084309047E+01 -0.11508008786E+02  0.13957259640E+02  0.00000000000E+00 0.  1.
</event>
<event>
 7    1  0.6622189E-010  0.4778727E+02  0.7816164E-02  0.1312668E+00
        -11   -1    0    0    0    0  0.00000000000E+00  0.00000000000E+00  0.45593999997E+02  0.45594000000E+02  0.51100000000E-03 0. -1.
         11   -1    0    0    0    0 -0.00000000000E+00 -0.00000000000E+00 -0.45593999997E+02  0.45594000000E+02  0.51100000000E-03 0.  1.
    9900012    2    1    2    0    0  0.54517572583E+00 -0.28324402416E+02 -0.32879392079E+02  0.47787269450E+02  0.19999992730E+02 0.  0.
         12    1    1    2    0    0 -0.54517572583E+00  0.28324402416E+02  0.32879392079E+02  0.43400730550E+02  0.00000000000E+00 0. -1.
         11    1    3    3    0    0  0.48580392067E+01 -0.32168014175E+01 -0.93952419530E+01  0.11055266976E+02  0.51100000000E-03 0. -1.
        -11    1    3    3    0    0 -0.35047709883E+01 -0.25500423815E+02 -0.18577977881E+02  0.31744232497E+02  0.51100000000E-03 0.  1.
        -12    1    3    3    0    0 -0.80809249258E+00  0.39282281659E+00 -0.49061722455E+01  0.49877699771E+01  0.00000000000E+00 0.  1.
</event>
<event>
 7    1  0.6622189E-010  0.4778727E+02  0.7816164E-02  0.1312668E+00
        -11   -1    0    0    0    0  0.00000000000E+00  0.00000000000E+00  0.45593999997E+02  0.45594000000E+02  0.51100000000E-03 0. -1.
         11   -1    0    0    0    0 -0.00000000000E+00 -0.00000000000E+00 -0.45593999997E+02  0.45594000000E+02  0.51100000000E-03 0.  1.
    9900012    2    1    2    0    0 -0.83584997605E+01  0.15860673955E+02 -0.39524649537E+02  0.47787269389E+02  0.19999992453E+02 0.  0.
         12    1    1    2    0    0  0.83584997605E+01 -0.15860673955E+02  0.39524649537E+02  0.43400730611E+02  0.00000000000E+00 0. -1.
         11    1    3    3    0    0  0.24755975244E+01 -0.11649736329E+00 -0.41631901843E+01  0.48450291547E+01  0.51100000000E-03 0. -1.
        -11    1    3    3    0    0 -0.33020308467E+01  0.12346238400E+02 -0.30957558170E+02  0.33491841073E+02  0.51100000000E-03 0.  1.
        -12    1    3    3    0    0 -0.75320664382E+01  0.36309329188E+01 -0.44039011822E+01  0.94503991616E+01  0.00000000000E+00 0.  1.
</event>
<event>
 7    1  0.6622189E-010  0.4778727E+02  0.7816164E-02  0.1312668E+00
        -11   -1    0    0    0    0  0.00000000000E+00  0.00000000000E+00  0.45593999997E+02  0.45594000000E+02  0.51100000000E-03 0. -1.
         11   -1    0    0    0    0 -0.00000000000E+00 -0.00000000000E+00 -0.45593999997E+02  0.45594000000E+02  0.51100000000E-03 0.  1.
    9900012    2    1    2    0    0 -0.26645510564E+02  0.27686855794E+02  0.20176179500E+02  0.47787269175E+02  0.19999991475E+02 0.  0.
        -12    1    1    2    0    0  0.26645510564E+02 -0.27686855794E+02 -0.20176179500E+02  0.43400730825E+02  0.00000000000E+00 0.  1.
         11    1    3    3    0    0 -0.99962165188E+01  0.12479879495E+01  0.90039172008E+01  0.13511193279E+02  0.51100000000E-03 0. -1.
        -11    1    3    3    0    0 -0.25370611297E+01  0.10377805088E+02  0.14223120559E+01  0.10777684791E+02  0.51100000000E-03 0.  1.
         12    1    3    3    0    0 -0.14112232915E+02  0.16061062757E+02  0.97499502432E+01  0.23498391104E+02  0.00000000000E+00 0. -1.
</event>
<event>
 7    1  0.6622189E-010  0.4778727E+02  0.7816164E-02  0.1312668E+00
        -11   -1    0    0    0    0  0.00000000000E+00  0.00000000000E+00  0.45593999997E+02  0.45594000000E+02  0.51100000000E-03 0. -1.
         11   -1    0    0    0    0 -0.00000000000E+00 -0.00000000000E+00 -0.45593999997E+02  0.45594000000E+02  0.51100000000E-03 0.  1.
    9900012    2    1    2    0    0 -0.17166302352E+02 -0.59469482913E+01  0.39415416413E+02  0.47787272110E+02  0.20000004857E+02 0.  0.
        -12    1    1    2    0    0  0.17166302352E+02  0.59469482913E+01 -0.39415416413E+02  0.43400727890E+02  0.00000000000E+00 0.  1.
         11    1    3    3    0    0 -0.41422015861E+01  0.28672250871E+01  0.45555748147E+01  0.67920597637E+01  0.51100000000E-03 0. -1.
        -11    1    3    3    0    0 -0.12356905263E+02 -0.91077047324E+01  0.16187723727E+02  0.22308872515E+02  0.51100000000E-03 0.  1.
        -12    1    3    3    0    0 -0.66719550300E+00  0.29353135403E+00  0.18672117871E+02  0.18686339831E+02  0.00000000000E+00 0.  1.
</event>
<event>
 7    1  0.6622189E-010  0.4778727E+02  0.7816164E-02  0.1312668E+00
        -11   -1    0    0    0    0  0.00000000000E+00  0.00000000000E+00  0.45593999997E+02  0.45594000000E+02  0.51100000000E-03 0. -1.
         11   -1    0    0    0    0 -0.00000000000E+00 -0.00000000000E+00 -0.45593999997E+02  0.45594000000E+02  0.51100000000E-03 0.  1.
    9900012    2    1    2    0    0 -0.29407615379E+02 -0.12934800162E+02  0.29180582070E+02  0.47787271118E+02  0.20000000337E+02 0.  0.
        -12    1    1    2    0    0  0.29407615379E+02  0.12934800162E+02 -0.29180582070E+02  0.43400728882E+02  0.00000000000E+00 0.  1.
         11    1    3    3    0    0 -0.10964268031E+02 -0.42348706945E+01  0.90499814523E+01  0.14834131852E+02  0.51100000000E-03 0. -1.
        -11    1    3    3    0    0 -0.12331959766E+02  0.15726524403E+01  0.43807127639E+01  0.13181089180E+02  0.51100000000E-03 0.  1.
        -12    1    3    3    0    0 -0.61113875814E+01 -0.10272581908E+02  0.15749887854E+02  0.19772050087E+02  0.00000000000E+00 0.  1.
</event>
<event>
 7    1  0.6622189E-010  0.4778727E+02  0.7816164E-02  0.1312668E+00
        -11   -1    0    0    0    0  0.00000000000E+00  0.00000000000E+00  0.45593999997E+02  0.45594000000E+02  0.51100000000E-03 0. -1.
         11   -1    0    0    0    0 -0.00000000000E+00 -0.00000000000E+00 -0.45593999997E+02  0.45594000000E+02  0.51100000000E-03 0.  1.
    9900012    2    1    2    0    0 -0.37497790006E+01  0.34626220807E+02  0.25895700597E+02  0.47787270521E+02  0.19999997614E+02 0.  0.
        -12    1    1    2    0    0  0.37497790006E+01 -0.34626220807E+02 -0.25895700597E+02  0.43400729479E+02  0.00000000000E+00 0.  1.
         11    1    3    3    0    0 -0.69063702215E+01  0.88964066709E+01  0.79348219567E+00  0.11290421407E+02  0.51100000000E-03 0. -1.
        -11    1    3    3    0    0  0.22977168908E+00  0.15320596599E+02  0.17605473739E+02  0.23339369765E+02  0.51100000000E-03 0.  1.
        -12    1    3    3    0    0  0.29268195318E+01  0.10409217537E+02  0.74967446621E+01  0.13157479350E+02  0.00000000000E+00 0.  1.
</event>
<event>
 7    1  0.6622189E-010  0.4778727E+02  0.7816164E-02  0.1312668E+00
        -11   -1    0    0    0    0  0.00000000000E+00  0.00000000000E+00  0.45593999997E+02  0.45594000000E+02  0.51100000000E-03 0. -1.
         11   -1    0    0    0    0 -0.00000000000E+00 -0.00000000000E+00 -0.45593999997E+02  0.45594000000E+02  0.51100000000E-03 0.  1.
    9900012    2    1    2    0    0 -0.30855779064E+01 -0.39264668999E+02  0.18231512752E+02  0.47787273280E+02  0.20000010193E+02 0.  0.
        -12    1    1    2    0    0  0.30855779064E+01  0.39264668999E+02 -0.18231512752E+02  0.43400726720E+02  0.00000000000E+00 0.  1.
         11    1    3    3    0    0  0.58004990638E-01 -0.29935462078E+02  0.10768236226E+02  0.31813364583E+02  0.51100000000E-03 0. -1.
        -11    1    3    3    0    0 -0.29983177764E+01 -0.11518872546E+02  0.59399565285E+01  0.13302534272E+02  0.51100000000E-03 0.  1.
         12    1    3    3    0    0 -0.14526512066E+00  0.21896656256E+01  0.15233199974E+01  0.26713744256E+01  0.00000000000E+00 0. -1.
</event>
<event>
 7    1  0.7301182E-010  0.4778727E+02  0.7816164E-02  0.1312668E+00
        -11   -1    0    0    0    0  0.00000000000E+00  0.00000000000E+00  0.45593999997E+02  0.45594000000E+02  0.51100000000E-03 0. -1.
         11   -1    0    0    0    0 -0.00000000000E+00 -0.00000000000E+00 -0.45593999997E+02  0.45594000000E+02  0.51100000000E-03 0.  1.
    9900012    2    1    2    0    0  0.50769686367E+01 -0.14237577917E+02  0.40683399140E+02  0.47787271883E+02  0.20000003822E+02 0.  0.
        -12    1    1    2    0    0 -0.50769686367E+01  0.14237577917E+02 -0.40683399140E+02  0.43400728117E+02  0.00000000000E+00 0.  1.
         11    1    3    3    0    0  0.50096128196E+01  0.25533937755E+01  0.48722381058E+01  0.74400769349E+01  0.51100000000E-03 0. -1.
        -11    1    3    3    0    0 -0.92925958678E+00 -0.14696123370E+00  0.11372031627E+00  0.94765687635E+00  0.51100000000E-03 0.  1.
         12    1    3    3    0    0  0.99661540383E+00 -0.16644010459E+02  0.35697440718E+02  0.39399538072E+02  0.00000000000E+00 0. -1.
</event>
<event>
 7    1  0.6622189E-010  0.4778727E+02  0.7816164E-02  0.1312668E+00
        -11   -1    0    0    0    0  0.00000000000E+00  0.00000000000E+00  0.45593999997E+02  0.45594000000E+02  0.51100000000E-03 0. -1.
         11   -1    0    0    0    0 -0.00000000000E+00 -0.00000000000E+00 -0.45593999997E+02  0.45594000000E+02  0.51100000000E-03 0.  1.
    9900012    2    1    2    0    0  0.19094424022E+02  0.15050718354E+01  0.38945611866E+02  0.47787274734E+02  0.20000016823E+02 0.  0.
        -12    1    1    2    0    0 -0.19094424022E+02 -0.15050718354E+01 -0.38945611866E+02  0.43400725266E+02  0.00000000000E+00 0.  1.
         11    1    3    3    0    0  0.94909576705E+01 -0.33715718403E+01  0.31703460728E+02  0.33264924418E+02  0.51100000000E-03 0. -1.
        -11    1    3    3    0    0  0.16635674938E+01  0.24024421058E+01 -0.71926788798E+00  0.30094071565E+01  0.51100000000E-03 0.  1.
        -12    1    3    3    0    0  0.79398988572E+01  0.24742015698E+01  0.79614190265E+01  0.11512943159E+02  0.00000000000E+00 0.  1.
</event>
<event>
 7    1  0.6622189E-010  0.4778727E+02  0.7816164E-02  0.1312668E+00
        -11   -1    0    0    0    0  0.00000000000E+00  0.00000000000E+00  0.45593999997E+02  0.45594000000E+02  0.51100000000E-03 0. -1.
         11   -1    0    0    0    0 -0.00000000000E+00 -0.00000000000E+00 -0.45593999997E+02  0.45594000000E+02  0.51100000000E-03 0.  1.
    9900012    2    1    2    0    0 -0.24899367901E+01  0.20549962754E+02 -0.38146064373E+02  0.47787274412E+02  0.20000015354E+02 0.  0.
         12    1    1    2    0    0  0.24899367901E+01 -0.20549962754E+02  0.38146064373E+02  0.43400725588E+02  0.00000000000E+00 0. -1.
         11    1    3    3    0    0 -0.10832412489E+02  0.88067284492E+01 -0.18822304668E+02  0.23434563781E+02  0.51100000000E-03 0. -1.
        -11    1    3    3    0    0  0.54703676316E+01  0.93678130053E+01 -0.16162077470E+02  0.19465189209E+02  0.51100000000E-03 0.  1.
         12    1    3    3    0    0  0.28721080672E+01  0.23754212997E+01 -0.31616822349E+01  0.48875214225E+01  0.00000000000E+00 0. -1.
</event>
<event>
 7    1  0.6622189E-010  0.4778727E+02  0.7816164E-02  0.1312668E+00
        -11   -1    0    0    0    0  0.00000000000E+00  0.00000000000E+00  0.45593999997E+02  0.45594000000E+02  0.51100000000E-03 0. -1.
         11   -1    0    0    0    0 -0.00000000000E+00 -0.00000000000E+00 -0.45593999997E+02  0.45594000000E+02  0.51100000000E-03 0.  1.
    9900012    2    1    2    0    0  0.29901175718E+02 -0.12933545835E+02 -0.28675190528E+02  0.47787268797E+02  0.19999989751E+02 0.  0.
         12    1    1    2    0    0 -0.29901175718E+02  0.12933545835E+02  0.28675190528E+02  0.43400731203E+02  0.00000000000E+00 0. -1.
         11    1    3    3    0    0  0.53628120680E+01  0.35627743464E+01 -0.25595917888E+01  0.69285369817E+01  0.51100000000E-03 0. -1.
        -11    1    3    3    0    0  0.29028950573E+01  0.12918992638E+01 -0.43498448802E+01  0.53867387318E+01  0.51100000000E-03 0.  1.
         12    1    3    3    0    0  0.21635468592E+02 -0.17788219445E+02 -0.21765753859E+02  0.35471993083E+02  0.00000000000E+00 0. -1.
</event>
<event>
 7    1  0.6622189E-010  0.4778727E+02  0.7816164E-02  0.1312668E+00
        -11   -1    0    0    0    0  0.00000000000E+00  0.00000000000E+00  0.45593999997E+02  0.45594000000E+02  0.51100000000E-03 0. -1.
         11   -1    0    0    0    0 -0.00000000000E+00 -0.00000000000E+00 -0.45593999997E+02  0.45594000000E+02  0.51100000000E-03 0.  1.
    9900012    2    1    2    0    0  0.40637265911E+02 -0.96054563725E+01 -0.11830942500E+02  0.47787269899E+02  0.19999994779E+02 0.  0.
         12    1    1    2    0    0 -0.40637265911E+02  0.96054563725E+01  0.11830942500E+02  0.43400730101E+02  0.00000000000E+00 0. -1.
         11    1    3    3    0    0  0.23272779437E+01  0.53580348077E+00 -0.47344215896E+01  0.53026461363E+01  0.51100000000E-03 0.  1.
        -11    1    3    3    0    0  0.12976882633E+02 -0.41916984576E+01  0.39754765152E+01  0.14204725714E+02  0.51100000000E-03 0. -1.
        -12    1    3    3    0    0  0.25333105335E+02 -0.59495613956E+01 -0.11071997425E+02  0.28279898049E+02  0.00000000000E+00 0.  1.
</event>
<event>
 7    1  0.6622189E-010  0.4778728E+02  0.7816164E-02  0.1312668E+00
        -11   -1    0    0    0    0  0.00000000000E+00  0.00000000000E+00  0.45593999997E+02  0.45594000000E+02  0.51100000000E-03 0. -1.
         11   -1    0    0    0    0 -0.00000000000E+00 -0.00000000000E+00 -0.45593999997E+02  0.45594000000E+02  0.51100000000E-03 0.  1.
    9900012    2    1    2    0    0  0.11345960202E+02  0.27025091639E+02 -0.32008378264E+02  0.47787278000E+02  0.20000031713E+02 0.  0.
         12    1    1    2    0    0 -0.11345960202E+02 -0.27025091639E+02  0.32008378264E+02  0.43400722000E+02  0.00000000000E+00 0. -1.
         11    1    3    3    0    0  0.51896993984E+01  0.20551845994E+02 -0.20827448840E+02  0.29716897198E+02  0.51100000000E-03 0.  1.
        -11    1    3    3    0    0  0.71366697490E+00 -0.11848975826E+00  0.21308226971E+01  0.22502813161E+01  0.51100000000E-03 0. -1.
        -12    1    3    3    0    0  0.54425938283E+01  0.65917354033E+01 -0.13311752121E+02  0.15820099486E+02  0.00000000000E+00 0.  1.
</event>
<event>
 7    1  0.6622189E-010  0.4778725E+02  0.7816164E-02  0.1312668E+00
        -11   -1    0    0    0    0  0.00000000000E+00  0.00000000000E+00  0.45593999997E+02  0.45594000000E+02  0.51100000000E-03 0. -1.
         11   -1    0    0    0    0 -0.00000000000E+00 -0.00000000000E+00 -0.45593999997E+02  0.45594000000E+02  0.51100000000E-03 0.  1.
    9900012    2    1    2    0    0  0.17248272947E+01  0.10907122959E+02  0.41972425914E+02  0.47787252339E+02  0.19999914713E+02 0.  0.
        -12    1    1    2    0    0 -0.17248272947E+01 -0.10907122959E+02 -0.41972425914E+02  0.43400747661E+02  0.00000000000E+00 0.  1.
         11    1    3    3    0    0  0.33965717328E+01 -0.32898804404E+01  0.25465091989E+02  0.25900403918E+02  0.51100000000E-03 0. -1.
        -11    1    3    3    0    0 -0.58774038311E+00  0.91130499840E+01  0.11304233878E+02  0.14531993071E+02  0.51100000000E-03 0.  1.
         12    1    3    3    0    0 -0.10840040550E+01  0.50839534153E+01  0.52031000466E+01  0.73548553498E+01  0.00000000000E+00 0. -1.
</event>
<event>
 7    1  0.6622189E-010  0.4778726E+02  0.7816164E-02  0.1312668E+00
        -11   -1    0    0    0    0  0.00000000000E+00  0.00000000000E+00  0.45593999997E+02  0.45594000000E+02  0.51100000000E-03 0. -1.
         11   -1    0    0    0    0 -0.00000000000E+00 -0.00000000000E+00 -0.45593999997E+02  0.45594000000E+02  0.51100000000E-03 0.  1.
    9900012    2    1    2    0    0  0.21285173836E+02 -0.25088443867E+02 -0.28304338043E+02  0.47787260456E+02  0.19999951724E+02 0.  0.
         12    1    1    2    0    0 -0.21285173836E+02  0.25088443867E+02  0.28304338043E+02  0.43400739544E+02  0.00000000000E+00 0. -1.
         11    1    3    3    0    0  0.14402268173E+02 -0.56999200657E+01 -0.12147490176E+02  0.19684408427E+02  0.51100000000E-03 0. -1.
        -11    1    3    3    0    0  0.32201669777E+01 -0.10202266279E+02 -0.14586718885E+02  0.18089446666E+02  0.51100000000E-03 0.  1.
         12    1    3    3    0    0  0.36627386853E+01 -0.91862575220E+01 -0.15701289811E+01  0.10013405363E+02  0.00000000000E+00 0. -1.
</event>
<event>
 7    1  0.6622189E-010  0.4778727E+02  0.7816164E-02  0.1312668E+00
        -11   -1    0    0    0    0  0.00000000000E+00  0.00000000000E+00  0.45593999997E+02  0.45594000000E+02  0.51100000000E-03 0. -1.
         11   -1    0    0    0    0 -0.00000000000E+00 -0.00000000000E+00 -0.45593999997E+02  0.45594000000E+02  0.51100000000E-03 0.  1.
    9900012    2    1    2    0    0  0.25084772975E+02 -0.12845993516E+02  0.33005420171E+02  0.47787272526E+02  0.20000006755E+02 0.  0.
        -12    1    1    2    0    0 -0.25084772975E+02  0.12845993516E+02 -0.33005420171E+02  0.43400727474E+02  0.00000000000E+00 0.  1.
         11    1    3    3    0    0  0.19457801261E+02 -0.45314643820E+01  0.22266078460E+02  0.29915187608E+02  0.51100000000E-03 0. -1.
        -11    1    3    3    0    0 -0.28156344278E+01 -0.28017602540E+01  0.45545631759E+01  0.60433189339E+01  0.51100000000E-03 0.  1.
         12    1    3    3    0    0  0.84426061411E+01 -0.55127688796E+01  0.61847785353E+01  0.11828765984E+02  0.00000000000E+00 0. -1.
</event>
<event>
 7    1  0.6622189E-010  0.4778727E+02  0.7816164E-02  0.1312668E+00
        -11   -1    0    0    0    0  0.00000000000E+00  0.00000000000E+00  0.45593999997E+02  0.45594000000E+02  0.51100000000E-03 0. -1.
         11   -1    0    0    0    0 -0.00000000000E+00 -0.00000000000E+00 -0.45593999997E+02  0.45594000000E+02  0.51100000000E-03 0.  1.
    9900012    2    1    2    0    0  0.38438415024E+02 -0.19546215992E+02  0.49048004288E+01  0.47787269863E+02  0.19999994616E+02 0.  0.
        -12    1    1    2    0    0 -0.38438415024E+02  0.19546215992E+02 -0.49048004288E+01  0.43400730137E+02  0.00000000000E+00 0.  1.
         11    1    3    3    0    0  0.20912384124E+01 -0.47839517892E+00  0.37835897716E+01  0.43494473058E+01  0.51100000000E-03 0. -1.
        -11    1    3    3    0    0  0.20532240086E+02 -0.17949860868E+02 -0.17387822363E+01  0.27327527368E+02  0.51100000000E-03 0.  1.
        -12    1    3    3    0    0  0.15814936526E+02 -0.11179599447E+01  0.28599928935E+01  0.16110295190E+02  0.00000000000E+00 0.  1.
</event>
<event>
 7    1  0.6622189E-010  0.4778726E+02  0.7816164E-02  0.1312668E+00
        -11   -1    0    0    0    0  0.00000000000E+00  0.00000000000E+00  0.45593999997E+02  0.45594000000E+02  0.51100000000E-03 0. -1.
         11   -1    0    0    0    0 -0.00000000000E+00 -0.00000000000E+00 -0.45593999997E+02  0.45594000000E+02  0.51100000000E-03 0.  1.
    9900012    2    1    2    0    0  0.10552723516E+02  0.98233866113E+01  0.40936113872E+02  0.47787259026E+02  0.19999945204E+02 0.  0.
        -12    1    1    2    0    0 -0.10552723516E+02 -0.98233866113E+01 -0.40936113872E+02  0.43400740974E+02  0.00000000000E+00 0.  1.
         11    1    3    3    0    0  0.35926598990E+01  0.75907417818E+01  0.27123859433E+02  0.28394195125E+02  0.51100000000E-03 0. -1.
        -11    1    3    3    0    0  0.20438011617E+00 -0.37444076173E+01  0.13011292641E+01  0.39692943025E+01  0.51100000000E-03 0.  1.
        -12    1    3    3    0    0  0.67556835010E+01  0.59770524468E+01  0.12511125174E+02  0.15423769599E+02  0.00000000000E+00 0.  1.
</event>
<event>
 7    1  0.6622189E-010  0.4778727E+02  0.7816164E-02  0.1312668E+00
        -11   -1    0    0    0    0  0.00000000000E+00  0.00000000000E+00  0.45593999997E+02  0.45594000000E+02  0.51100000000E-03 0. -1.
         11   -1    0    0    0    0 -0.00000000000E+00 -0.00000000000E+00 -0.45593999997E+02  0.45594000000E+02  0.51100000000E-03 0.  1.
    9900012    2    1    2    0    0  0.34105635139E+02  0.66100097616E+01 -0.26014160867E+02  0.47787272553E+02  0.20000006879E+02 0.  0.
         12    1    1    2    0    0 -0.34105635139E+02 -0.66100097616E+01  0.26014160867E+02  0.43400727447E+02  0.00000000000E+00 0. -1.
         11    1    3    3    0    0  0.29323761833E+01 -0.44000511263E+01 -0.93771747957E+01  0.10765253708E+02  0.51100000000E-03 0. -1.
        -11    1    3    3    0    0  0.24297025890E+02  0.85947142241E+01 -0.13392733648E+02  0.29044446879E+02  0.51100000000E-03 0.  1.
         12    1    3    3    0    0  0.68762330663E+01  0.24153466637E+01 -0.32442524229E+01  0.79775719659E+01  0.00000000000E+00 0. -1.
</event>
<event>
 7    1  0.6622189E-010  0.4778727E+02  0.7816164E-02  0.1312668E+00
        -11   -1    0    0    0    0  0.00000000000E+00  0.00000000000E+00  0.45593999997E+02  0.45594000000E+02  0.51100000000E-03 0. -1.
         11   -1    0    0    0    0 -0.00000000000E+00 -0.00000000000E+00 -0.45593999997E+02  0.45594000000E+02  0.51100000000E-03 0.  1.
    9900012    2    1    2    0    0 -0.84999251527E+01 -0.24224996553E+02  0.34993203464E+02  0.47787268736E+02  0.19999989473E+02 0.  0.
        -12    1    1    2    0    0  0.84999251527E+01  0.24224996553E+02 -0.34993203464E+02  0.43400731264E+02  0.00000000000E+00 0.  1.
         11    1    3    3    0    0 -0.53984191734E+01 -0.69869974808E+01  0.84017549712E+01  0.12188131531E+02  0.51100000000E-03 0. -1.
        -11    1    3    3    0    0 -0.85036737804E+01 -0.16000358449E+02  0.20714406095E+02  0.27521092973E+02  0.51100000000E-03 0.  1.
        -12    1    3    3    0    0  0.54021678011E+01 -0.12376406230E+01  0.58770423978E+01  0.80780442316E+01  0.00000000000E+00 0.  1.
</event>
<event>
 7    1  0.6622189E-010  0.4778727E+02  0.7816164E-02  0.1312668E+00
        -11   -1    0    0    0    0  0.00000000000E+00  0.00000000000E+00  0.45593999997E+02  0.45594000000E+02  0.51100000000E-03 0. -1.
         11   -1    0    0    0    0 -0.00000000000E+00 -0.00000000000E+00 -0.45593999997E+02  0.45594000000E+02  0.51100000000E-03 0.  1.
    9900012    2    1    2    0    0 -0.27454562109E+02 -0.56183785480E+01  0.33140670285E+02  0.47787272068E+02  0.20000004668E+02 0.  0.
        -12    1    1    2    0    0  0.27454562109E+02  0.56183785480E+01 -0.33140670285E+02  0.43400727932E+02  0.00000000000E+00 0.  1.
         11    1    3    3    0    0 -0.18744778891E+02 -0.37504811268E+01  0.33792431833E+02  0.38824751046E+02  0.51100000000E-03 0. -1.
        -11    1    3    3    0    0 -0.64811203856E+01 -0.10619600980E+01 -0.54723666295E+00  0.65903071953E+01  0.51100000000E-03 0.  1.
         12    1    3    3    0    0 -0.22286628323E+01 -0.80593732316E+00 -0.10452488507E+00  0.23722138269E+01  0.00000000000E+00 0. -1.
</event>
<event>
 7    1  0.6622189E-010  0.4778728E+02  0.7816164E-02  0.1312668E+00
        -11   -1    0    0    0    0  0.00000000000E+00  0.00000000000E+00  0.45593999997E+02  0.45594000000E+02  0.51100000000E-03 0. -1.
         11   -1    0    0    0    0 -0.00000000000E+00 -0.00000000000E+00 -0.45593999997E+02  0.45594000000E+02  0.51100000000E-03 0.  1.
    9900012    2    1    2    0    0  0.35617063975E+02  0.13682737692E+02  0.20684059969E+02  0.47787275423E+02  0.20000019965E+02 0.  0.
        -12    1    1    2    0    0 -0.35617063975E+02 -0.13682737692E+02 -0.20684059969E+02  0.43400724577E+02  0.00000000000E+00 0.  1.
         11    1    3    3    0    0  0.12596559825E+02  0.77477534849E+01  0.10180128624E+02  0.17953718905E+02  0.51100000000E-03 0. -1.
        -11    1    3    3    0    0  0.22498004924E+02  0.74763150969E+00  0.98784349102E+01  0.24582568112E+02  0.51100000000E-03 0.  1.
        -12    1    3    3    0    0  0.52249922687E+00  0.51873526977E+01  0.62549643490E+00  0.52509884063E+01  0.00000000000E+00 0.  1.
</event>
<event>
 7    1  0.6622189E-010  0.4778727E+02  0.7816164E-02  0.1312668E+00
        -11   -1    0    0    0    0  0.00000000000E+00  0.00000000000E+00  0.45593999997E+02  0.45594000000E+02  0.51100000000E-03 0. -1.
         11   -1    0    0    0    0 -0.00000000000E+00 -0.00000000000E+00 -0.45593999997E+02  0.45594000000E+02  0.51100000000E-03 0.  1.
    9900012    2    1    2    0    0 -0.27385040157E+01  0.10693539777E+02 -0.41973468514E+02  0.47787271247E+02  0.20000000925E+02 0.  0.
         12    1    1    2    0    0  0.27385040157E+01 -0.10693539777E+02  0.41973468514E+02  0.43400728753E+02  0.00000000000E+00 0. -1.
         11    1    3    3    0    0  0.55983409979E+01  0.18550323155E+01 -0.48672225066E+01  0.76467262283E+01  0.51100000000E-03 0. -1.
        -11    1    3    3    0    0 -0.68057871240E+01  0.84296379885E+01 -0.36998552374E+02  0.38552177799E+02  0.51100000000E-03 0.  1.
        -12    1    3    3    0    0 -0.15310578896E+01  0.40886947294E+00 -0.10769363255E+00  0.15883672200E+01  0.00000000000E+00 0.  1.
</event>
<event>
 7    1  0.6622189E-010  0.4778727E+02  0.7816164E-02  0.1312668E+00
        -11   -1    0    0    0    0  0.00000000000E+00  0.00000000000E+00  0.45593999997E+02  0.45594000000E+02  0.51100000000E-03 0. -1.
         11   -1    0    0    0    0 -0.00000000000E+00 -0.00000000000E+00 -0.45593999997E+02  0.45594000000E+02  0.51100000000E-03 0.  1.
    9900012    2    1    2    0    0  0.38518934941E+02 -0.68908291222E+01 -0.18773159026E+02  0.47787269881E+02  0.19999994696E+02 0.  0.
         12    1    1    2    0    0 -0.38518934941E+02  0.68908291222E+01  0.18773159026E+02  0.43400730119E+02  0.00000000000E+00 0. -1.
         11    1    3    3    0    0  0.49868615967E+01  0.57810796845E+01 -0.30429881088E+01  0.82188471086E+01  0.51100000000E-03 0. -1.
        -11    1    3    3    0    0  0.13973084700E+02 -0.50043477587E+01 -0.96295480707E+01  0.17692337009E+02  0.51100000000E-03 0.  1.
         12    1    3    3    0    0  0.19558988644E+02 -0.76675610480E+01 -0.61006228468E+01  0.21876085764E+02  0.00000000000E+00 0. -1.
</event>
<event>
 7    1  0.6622189E-010  0.4778727E+02  0.7816164E-02  0.1312668E+00
        -11   -1    0    0    0    0  0.00000000000E+00  0.00000000000E+00  0.45593999997E+02  0.45594000000E+02  0.51100000000E-03 0. -1.
         11   -1    0    0    0    0 -0.00000000000E+00 -0.00000000000E+00 -0.45593999997E+02  0.45594000000E+02  0.51100000000E-03 0.  1.
    9900012    2    1    2    0    0  0.32048278601E+02 -0.14328923972E+02 -0.25518875701E+02  0.47787271429E+02  0.20000001751E+02 0.  0.
         12    1    1    2    0    0 -0.32048278601E+02  0.14328923972E+02  0.25518875701E+02  0.43400728571E+02  0.00000000000E+00 0. -1.
         11    1    3    3    0    0  0.12924196192E+02 -0.64846463465E+01 -0.94278460698E+00  0.14490490969E+02  0.51100000000E-03 0. -1.
        -11    1    3    3    0    0  0.13453764430E+02 -0.21925276734E+01 -0.10915553272E+02  0.17463111361E+02  0.51100000000E-03 0.  1.
         12    1    3    3    0    0  0.56703179789E+01 -0.56517499523E+01 -0.13660537823E+02  0.15833669098E+02  0.00000000000E+00 0. -1.
</event>
<event>
 7    1  0.6622189E-010  0.4778728E+02  0.7816164E-02  0.1312668E+00
        -11   -1    0    0    0    0  0.00000000000E+00  0.00000000000E+00  0.45593999997E+02  0.45594000000E+02  0.51100000000E-03 0. -1.
         11   -1    0    0    0    0 -0.00000000000E+00 -0.00000000000E+00 -0.45593999997E+02  0.45594000000E+02  0.51100000000E-03 0.  1.
    9900012    2    1    2    0    0 -0.31345114319E+02 -0.22380604717E+02  0.20005373674E+02  0.47787278405E+02  0.20000033558E+02 0.  0.
        -12    1    1    2    0    0  0.31345114319E+02  0.22380604717E+02 -0.20005373674E+02  0.43400721595E+02  0.00000000000E+00 0.  1.
         11    1    3    3    0    0 -0.18072868718E+02 -0.11023583172E+02  0.19947731277E+02  0.29087109739E+02  0.51100000000E-03 0. -1.
        -11    1    3    3    0    0 -0.99726887154E+01 -0.11074321172E+02 -0.16149573273E+01  0.14990103304E+02  0.51100000000E-03 0.  1.
        -12    1    3    3    0    0 -0.32995568859E+01 -0.28270037264E+00  0.16725997243E+01  0.37100653609E+01  0.00000000000E+00 0.  1.
</event>
<event>
 7    1  0.6622189E-010  0.4778727E+02  0.7816164E-02  0.1312668E+00
        -11   -1    0    0    0    0  0.00000000000E+00  0.00000000000E+00  0.45593999997E+02  0.45594000000E+02  0.51100000000E-03 0. -1.
         11   -1    0    0    0    0 -0.00000000000E+00 -0.00000000000E+00 -0.45593999997E+02  0.45594000000E+02  0.51100000000E-03 0.  1.
    9900012    2    1    2    0    0  0.13853835323E+02 -0.15449506974E+02 -0.38118331078E+02  0.47787272090E+02  0.20000004769E+02 0.  0.
         12    1    1    2    0    0 -0.13853835323E+02  0.15449506974E+02  0.38118331078E+02  0.43400727910E+02  0.00000000000E+00 0. -1.
         11    1    3    3    0    0  0.57186838913E+01 -0.44649861772E+01 -0.24646868102E+02  0.25692558349E+02  0.51100000000E-03 0. -1.
        -11    1    3    3    0    0  0.64355810567E+01 -0.23187943509E+01 -0.10949808399E+02  0.12910918442E+02  0.51100000000E-03 0.  1.
         12    1    3    3    0    0  0.16995703745E+01 -0.86657264462E+01 -0.25216545772E+01  0.91837952996E+01  0.00000000000E+00 0. -1.
</event>
<event>
 7    1  0.6622189E-010  0.4778727E+02  0.7816164E-02  0.1312668E+00
        -11   -1    0    0    0    0  0.00000000000E+00  0.00000000000E+00  0.45593999997E+02  0.45594000000E+02  0.51100000000E-03 0.  1.
         11   -1    0    0    0    0 -0.00000000000E+00 -0.00000000000E+00 -0.45593999997E+02  0.45594000000E+02  0.51100000000E-03 0. -1.
    9900012    2    1    2    0    0 -0.31829554181E+02  0.29481722693E+02 -0.11535776418E+01  0.47787271508E+02  0.20000002111E+02 0.  0.
         12    1    1    2    0    0  0.31829554181E+02 -0.29481722693E+02  0.11535776418E+01  0.43400728492E+02  0.00000000000E+00 0. -1.
         11    1    3    3    0    0 -0.17675215434E+02  0.14991099586E+02 -0.51303330263E+01  0.23737451941E+02  0.51100000000E-03 0. -1.
        -11    1    3    3    0    0 -0.12165818327E+02  0.89178016061E+01  0.78234471786E+01  0.16992370261E+02  0.51100000000E-03 0.  1.
         12    1    3    3    0    0 -0.19885204193E+01  0.55728215017E+01 -0.38466917941E+01  0.70574493060E+01  0.00000000000E+00 0. -1.
</event>
<event>
 7    1  0.6622189E-010  0.4778726E+02  0.7816164E-02  0.1312668E+00
        -11   -1    0    0    0    0  0.00000000000E+00  0.00000000000E+00  0.45593999997E+02  0.45594000000E+02  0.51100000000E-03 0. -1.
         11   -1    0    0    0    0 -0.00000000000E+00 -0.00000000000E+00 -0.45593999997E+02  0.45594000000E+02  0.51100000000E-03 0.  1.
    9900012    2    1    2    0    0 -0.78278900914E+01 -0.15720661397E+02 -0.39688900791E+02  0.47787263785E+02  0.19999966901E+02 0.  0.
         12    1    1    2    0    0  0.78278900914E+01  0.15720661397E+02  0.39688900791E+02  0.43400736215E+02  0.00000000000E+00 0. -1.
         11    1    3    3    0    0 -0.91030247649E+00 -0.77304441777E+00 -0.82280371212E+01  0.83142554326E+01  0.51100000000E-03 0. -1.
        -11    1    3    3    0    0  0.53564508908E+01 -0.82857090014E+01 -0.12523965902E+02  0.15943470826E+02  0.51100000000E-03 0.  1.
        -12    1    3    3    0    0 -0.12274038506E+02 -0.66619079781E+01 -0.18936897768E+02  0.23529537527E+02  0.00000000000E+00 0.  1.
</event>
<event>
 7    1  0.6622189E-010  0.4778727E+02  0.7816164E-02  0.1312668E+00
        -11   -1    0    0    0    0  0.00000000000E+00  0.00000000000E+00  0.45593999997E+02  0.45594000000E+02  0.51100000000E-03 0. -1.
         11   -1    0    0    0    0 -0.00000000000E+00 -0.00000000000E+00 -0.45593999997E+02  0.45594000000E+02  0.51100000000E-03 0.  1.
    9900012    2    1    2    0    0 -0.82036340235E+01 -0.11606645741E+02 -0.41007434073E+02  0.47787268603E+02  0.19999988870E+02 0.  0.
         12    1    1    2    0    0  0.82036340235E+01  0.11606645741E+02  0.41007434073E+02  0.43400731397E+02  0.00000000000E+00 0. -1.
         11    1    3    3    0    0 -0.77528771191E+01 -0.12302907296E+02 -0.16908978420E+02  0.22302066788E+02  0.51100000000E-03 0. -1.
        -11    1    3    3    0    0  0.31302374967E+01 -0.15159326147E+01 -0.15823542965E+02  0.16201263862E+02  0.51100000000E-03 0.  1.
         12    1    3    3    0    0 -0.35809944010E+01  0.22121941699E+01 -0.82749126870E+01  0.92839379534E+01  0.00000000000E+00 0. -1.
</event>
<event>
 7    1  0.6622189E-010  0.4778727E+02  0.7816164E-02  0.1312668E+00
        -11   -1    0    0    0    0  0.00000000000E+00  0.00000000000E+00  0.45593999997E+02  0.45594000000E+02  0.51100000000E-03 0. -1.
         11   -1    0    0    0    0 -0.00000000000E+00 -0.00000000000E+00 -0.45593999997E+02  0.45594000000E+02  0.51100000000E-03 0.  1.
    9900012    2    1    2    0    0 -0.53461380371E+01 -0.37103183484E+02  0.21872268815E+02  0.47787267752E+02  0.19999984988E+02 0.  0.
        -12    1    1    2    0    0  0.53461380371E+01  0.37103183484E+02 -0.21872268815E+02  0.43400732248E+02  0.00000000000E+00 0.  1.
         11    1    3    3    0    0 -0.12583415014E+02 -0.21260344593E+02  0.12251088903E+02  0.27575963541E+02  0.51100000000E-03 0. -1.
        -11    1    3    3    0    0  0.54086386846E+01 -0.14190647036E+02  0.90603153396E+01  0.17683810394E+02  0.51100000000E-03 0.  1.
         12    1    3    3    0    0  0.18286382921E+01 -0.16521918548E+01  0.56086457239E+00  0.25274938174E+01  0.00000000000E+00 0. -1.
</event>
<event>
 7    1  0.6622189E-010  0.4778727E+02  0.7816164E-02  0.1312668E+00
        -11   -1    0    0    0    0  0.00000000000E+00  0.00000000000E+00  0.45593999997E+02  0.45594000000E+02  0.51100000000E-03 0. -1.
         11   -1    0    0    0    0 -0.00000000000E+00 -0.00000000000E+00 -0.45593999997E+02  0.45594000000E+02  0.51100000000E-03 0.  1.
    9900012    2    1    2    0    0  0.83636155052E+01 -0.32262171121E+02  0.27799737688E+02  0.47787272296E+02  0.20000005706E+02 0.  0.
        -12    1    1    2    0    0 -0.83636155052E+01  0.32262171121E+02 -0.27799737688E+02  0.43400727704E+02  0.00000000000E+00 0.  1.
         11    1    3    3    0    0  0.11767966499E+01 -0.49408457976E+01  0.83513304357E+01  0.97745346620E+01  0.51100000000E-03 0. -1.
        -11    1    3    3    0    0  0.28555781489E+01 -0.26532149057E+02  0.20299372262E+02  0.33528700760E+02  0.51100000000E-03 0.  1.
        -12    1    3    3    0    0  0.43312407064E+01 -0.78917626599E+00 -0.85096501035E+00  0.44840368737E+01  0.00000000000E+00 0.  1.
</event>
<event>
 7    1  0.6622189E-010  0.4778727E+02  0.7816164E-02  0.1312668E+00
        -11   -1    0    0    0    0  0.00000000000E+00  0.00000000000E+00  0.45593999997E+02  0.45594000000E+02  0.51100000000E-03 0. -1.
         11   -1    0    0    0    0 -0.00000000000E+00 -0.00000000000E+00 -0.45593999997E+02  0.45594000000E+02  0.51100000000E-03 0.  1.
    9900012    2    1    2    0    0 -0.18590823407E+02  0.57373473222E+01  0.38795456417E+02  0.47787270653E+02  0.19999998215E+02 0.  0.
        -12    1    1    2    0    0  0.18590823407E+02 -0.57373473222E+01 -0.38795456417E+02  0.43400729347E+02  0.00000000000E+00 0.  1.
         11    1    3    3    0    0 -0.99954037013E+01  0.90614340910E+01  0.29039671153E+02  0.32020621229E+02  0.51100000000E-03 0. -1.
        -11    1    3    3    0    0 -0.95171073764E+01 -0.28938075312E+01  0.54502752554E+01  0.11342616782E+02  0.51100000000E-03 0.  1.
        -12    1    3    3    0    0  0.92168767055E+00 -0.43027923759E+00  0.43055100084E+01  0.44240326419E+01  0.00000000000E+00 0.  1.
</event>
<event>
 7    1  0.6622189E-010  0.4778727E+02  0.7816164E-02  0.1312668E+00
        -11   -1    0    0    0    0  0.00000000000E+00  0.00000000000E+00  0.45593999997E+02  0.45594000000E+02  0.51100000000E-03 0.  1.
         11   -1    0    0    0    0 -0.00000000000E+00 -0.00000000000E+00 -0.45593999997E+02  0.45594000000E+02  0.51100000000E-03 0. -1.
    9900012    2    1    2    0    0  0.24552532011E+02  0.35499714646E+02  0.45350446860E+01  0.47787271914E+02  0.20000003964E+02 0.  0.
         12    1    1    2    0    0 -0.24552532011E+02 -0.35499714646E+02 -0.45350446860E+01  0.43400728086E+02  0.00000000000E+00 0. -1.
         11    1    3    3    0    0  0.14291094034E+02  0.25990545460E+02 -0.59681984825E+01  0.30254970094E+02  0.51100000000E-03 0. -1.
        -11    1    3    3    0    0  0.50702346163E+01  0.39128151097E+01  0.47566272496E+01  0.79776502931E+01  0.51100000000E-03 0.  1.
         12    1    3    3    0    0  0.51912033600E+01  0.55963540761E+01  0.57466159189E+01  0.95546515263E+01  0.00000000000E+00 0. -1.
</event>
<event>
 7    1  0.6622189E-010  0.4778727E+02  0.7816164E-02  0.1312668E+00
        -11   -1    0    0    0    0  0.00000000000E+00  0.00000000000E+00  0.45593999997E+02  0.45594000000E+02  0.51100000000E-03 0. -1.
         11   -1    0    0    0    0 -0.00000000000E+00 -0.00000000000E+00 -0.45593999997E+02  0.45594000000E+02  0.51100000000E-03 0.  1.
    9900012    2    1    2    0    0 -0.18157050417E+02 -0.17404780230E+02  0.35369737036E+02  0.47787272441E+02  0.20000006366E+02 0.  0.
        -12    1    1    2    0    0  0.18157050417E+02  0.17404780230E+02 -0.35369737036E+02  0.43400727559E+02  0.00000000000E+00 0.  1.
         11    1    3    3    0    0 -0.13919035209E+02 -0.41809904001E+01  0.11354391509E+02  0.18442950650E+02  0.51100000000E-03 0. -1.
        -11    1    3    3    0    0  0.23827684490E+01 -0.78021303891E+01  0.97899678153E+01  0.12743401986E+02  0.51100000000E-03 0.  1.
        -12    1    3    3    0    0 -0.66207836566E+01 -0.54216594404E+01  0.14225377712E+02  0.16600919805E+02  0.00000000000E+00 0.  1.
</event>
<event>
 7    1  0.6622189E-010  0.4778727E+02  0.7816164E-02  0.1312668E+00
        -11   -1    0    0    0    0  0.00000000000E+00  0.00000000000E+00  0.45593999997E+02  0.45594000000E+02  0.51100000000E-03 0. -1.
         11   -1    0    0    0    0 -0.00000000000E+00 -0.00000000000E+00 -0.45593999997E+02  0.45594000000E+02  0.51100000000E-03 0.  1.
    9900012    2    1    2    0    0 -0.27859252751E+02  0.28308445527E+01 -0.33158284949E+02  0.47787268376E+02  0.19999987832E+02 0.  0.
         12    1    1    2    0    0  0.27859252751E+02 -0.28308445527E+01  0.33158284949E+02  0.43400731624E+02  0.00000000000E+00 0. -1.
         11    1    3    3    0    0 -0.86308333701E+00  0.25161129809E+00  0.26856299854E+01  0.28321069492E+01  0.51100000000E-03 0. -1.
        -11    1    3    3    0    0 -0.24481127199E+02  0.22893872053E+01 -0.32889191519E+02  0.41064166882E+02  0.51100000000E-03 0.  1.
         12    1    3    3    0    0 -0.25150422156E+01  0.28984604931E+00 -0.29547234162E+01  0.38909945445E+01  0.00000000000E+00 0. -1.
</event>
<event>
 7    1  0.6622189E-010  0.4778726E+02  0.7816164E-02  0.1312668E+00
        -11   -1    0    0    0    0  0.00000000000E+00  0.00000000000E+00  0.45593999997E+02  0.45594000000E+02  0.51100000000E-03 0. -1.
         11   -1    0    0    0    0 -0.00000000000E+00 -0.00000000000E+00 -0.45593999997E+02  0.45594000000E+02  0.51100000000E-03 0.  1.
    9900012    2    1    2    0    0 -0.22375224573E+02 -0.33845149583E+02  0.15410359253E+02  0.47787262710E+02  0.19999962002E+02 0.  0.
        -12    1    1    2    0    0  0.22375224573E+02  0.33845149583E+02 -0.15410359253E+02  0.43400737290E+02  0.00000000000E+00 0.  1.
         11    1    3    3    0    0  0.61739195097E-01 -0.75581916721E+01 -0.17625196989E+01  0.77612208466E+01  0.51100000000E-03 0. -1.
        -11    1    3    3    0    0 -0.71344074326E+00  0.20582594728E+00 -0.99893497371E+00  0.12446820307E+01  0.51100000000E-03 0.  1.
         12    1    3    3    0    0 -0.21723523024E+02 -0.26492783858E+02  0.18171813926E+02  0.38781359833E+02  0.00000000000E+00 0. -1.
</event>
<event>
 7    1  0.6622189E-010  0.4778727E+02  0.7816164E-02  0.1312668E+00
        -11   -1    0    0    0    0  0.00000000000E+00  0.00000000000E+00  0.45593999997E+02  0.45594000000E+02  0.51100000000E-03 0. -1.
         11   -1    0    0    0    0 -0.00000000000E+00 -0.00000000000E+00 -0.45593999997E+02  0.45594000000E+02  0.51100000000E-03 0.  1.
    9900012    2    1    2    0    0 -0.17419582404E+02  0.26820961602E+02  0.29339691276E+02  0.47787270553E+02  0.19999997758E+02 0.  0.
        -12    1    1    2    0    0  0.17419582404E+02 -0.26820961602E+02 -0.29339691276E+02  0.43400729447E+02  0.00000000000E+00 0.  1.
         11    1    3    3    0    0 -0.50576842836E+01  0.22820712252E+02  0.17268099941E+02  0.29061182939E+02  0.51100000000E-03 0. -1.
        -11    1    3    3    0    0 -0.56802191933E+01 -0.62314048735E+00  0.74137964654E+01  0.93604258687E+01  0.51100000000E-03 0.  1.
         12    1    3    3    0    0 -0.66816789267E+01  0.46233898377E+01  0.46577948696E+01  0.93656617448E+01  0.00000000000E+00 0. -1.
</event>
<event>
 7    1  0.6622189E-010  0.4778727E+02  0.7816164E-02  0.1312668E+00
        -11   -1    0    0    0    0  0.00000000000E+00  0.00000000000E+00  0.45593999997E+02  0.45594000000E+02  0.51100000000E-03 0. -1.
         11   -1    0    0    0    0 -0.00000000000E+00 -0.00000000000E+00 -0.45593999997E+02  0.45594000000E+02  0.51100000000E-03 0.  1.
    9900012    2    1    2    0    0  0.20957305009E+02  0.36000541160E+02 -0.12180946108E+02  0.47787273680E+02  0.20000012015E+02 0.  0.
         12    1    1    2    0    0 -0.20957305009E+02 -0.36000541160E+02  0.12180946108E+02  0.43400726320E+02  0.00000000000E+00 0. -1.
         11    1    3    3    0    0  0.79390626742E+01  0.67036422016E+01  0.10042477431E+01  0.10439159387E+02  0.51100000000E-03 0. -1.
        -11    1    3    3    0    0  0.16159200167E+01  0.19432376736E+02 -0.10094494964E+02  0.21957397204E+02  0.51100000000E-03 0.  1.
        -12    1    3    3    0    0  0.11402322318E+02  0.98645222221E+01 -0.30906988874E+01  0.15390717089E+02  0.00000000000E+00 0.  1.
</event>
<event>
 7    1  0.6622189E-010  0.4778727E+02  0.7816164E-02  0.1312668E+00
        -11   -1    0    0    0    0  0.00000000000E+00  0.00000000000E+00  0.45593999997E+02  0.45594000000E+02  0.51100000000E-03 0. -1.
         11   -1    0    0    0    0 -0.00000000000E+00 -0.00000000000E+00 -0.45593999997E+02  0.45594000000E+02  0.51100000000E-03 0.  1.
    9900012    2    1    2    0    0 -0.88978113957E+01  0.95095462381E+01 -0.41400737055E+02  0.47787267909E+02  0.19999985705E+02 0.  0.
         12    1    1    2    0    0  0.88978113957E+01 -0.95095462381E+01  0.41400737055E+02  0.43400732091E+02  0.00000000000E+00 0. -1.
         11    1    3    3    0    0 -0.81699321049E+01 -0.39049950269E+01 -0.11090383175E+02  0.14317589741E+02  0.51100000000E-03 0. -1.
        -11    1    3    3    0    0  0.17325842085E+01  0.86742827083E+01 -0.19463444951E+02  0.21379212290E+02  0.51100000000E-03 0.  1.
         12    1    3    3    0    0 -0.24604634993E+01  0.47402585567E+01 -0.10846908930E+02  0.12090465878E+02  0.00000000000E+00 0. -1.
</event>
<event>
 7    1  0.6622189E-010  0.4778725E+02  0.7816164E-02  0.1312668E+00
        -11   -1    0    0    0    0  0.00000000000E+00  0.00000000000E+00  0.45593999997E+02  0.45594000000E+02  0.51100000000E-03 0. -1.
         11   -1    0    0    0    0 -0.00000000000E+00 -0.00000000000E+00 -0.45593999997E+02  0.45594000000E+02  0.51100000000E-03 0.  1.
    9900012    2    1    2    0    0  0.22623731083E+02 -0.16437222040E+02 -0.33190508180E+02  0.47787247590E+02  0.19999893062E+02 0.  0.
         12    1    1    2    0    0 -0.22623731083E+02  0.16437222040E+02  0.33190508180E+02  0.43400752410E+02  0.00000000000E+00 0. -1.
         11    1    3    3    0    0 -0.39655795159E-01  0.38597611672E+00 -0.85199225957E+01  0.85287532174E+01  0.51100000000E-03 0. -1.
        -11    1    3    3    0    0  0.40512731108E+01 -0.24209743928E+01 -0.11172827748E+02  0.12128726684E+02  0.51100000000E-03 0.  1.
         12    1    3    3    0    0  0.18612113768E+02 -0.14402223763E+02 -0.13497757836E+02  0.27129767688E+02  0.00000000000E+00 0. -1.
</event>
<event>
 7    1  0.6622189E-010  0.4778727E+02  0.7816164E-02  0.1312668E+00
        -11   -1    0    0    0    0  0.00000000000E+00  0.00000000000E+00  0.45593999997E+02  0.45594000000E+02  0.51100000000E-03 0. -1.
         11   -1    0    0    0    0 -0.00000000000E+00 -0.00000000000E+00 -0.45593999997E+02  0.45594000000E+02  0.51100000000E-03 0.  1.
    9900012    2    1    2    0    0  0.57954358946E+01  0.25744242277E+02  0.34456790143E+02  0.47787268733E+02  0.19999989459E+02 0.  0.
        -12    1    1    2    0    0 -0.57954358946E+01 -0.25744242277E+02 -0.34456790143E+02  0.43400731267E+02  0.00000000000E+00 0.  1.
         11    1    3    3    0    0  0.84336273939E+01  0.60557632323E+01  0.21925211717E+02  0.24259292002E+02  0.51100000000E-03 0. -1.
        -11    1    3    3    0    0 -0.23428874018E+01  0.13032911924E+02  0.80014007813E+01  0.15471532869E+02  0.51100000000E-03 0.  1.
         12    1    3    3    0    0 -0.29530409747E+00  0.66555671202E+01  0.45301776448E+01  0.80564438616E+01  0.00000000000E+00 0. -1.
</event>
<event>
 7    1  0.6622189E-010  0.4778727E+02  0.7816164E-02  0.1312668E+00
        -11   -1    0    0    0    0  0.00000000000E+00  0.00000000000E+00  0.45593999997E+02  0.45594000000E+02  0.51100000000E-03 0. -1.
         11   -1    0    0    0    0 -0.00000000000E+00 -0.00000000000E+00 -0.45593999997E+02  0.45594000000E+02  0.51100000000E-03 0.  1.
    9900012    2    1    2    0    0  0.26482980575E+02 -0.24201013711E+02 -0.24425108997E+02  0.47787271040E+02  0.19999999978E+02 0.  0.
         12    1    1    2    0    0 -0.26482980575E+02  0.24201013711E+02  0.24425108997E+02  0.43400728960E+02  0.00000000000E+00 0. -1.
         11    1    3    3    0    0  0.16398169165E+02 -0.23807447621E+02 -0.19151441911E+02  0.34676681527E+02  0.51100000000E-03 0. -1.
        -11    1    3    3    0    0  0.11584146090E+01 -0.23652463399E+01 -0.16604192320E+00  0.26389173606E+01  0.51100000000E-03 0.  1.
         12    1    3    3    0    0  0.89263968010E+01  0.19716802497E+01 -0.51076251619E+01  0.10471672152E+02  0.00000000000E+00 0. -1.
</event>
<event>
 7    1  0.6622189E-010  0.4778728E+02  0.7816164E-02  0.1312668E+00
        -11   -1    0    0    0    0  0.00000000000E+00  0.00000000000E+00  0.45593999997E+02  0.45594000000E+02  0.51100000000E-03 0. -1.
         11   -1    0    0    0    0 -0.00000000000E+00 -0.00000000000E+00 -0.45593999997E+02  0.45594000000E+02  0.51100000000E-03 0.  1.
    9900012    2    1    2    0    0  0.22738334296E+01 -0.79065998268E+01  0.42613827258E+02  0.47787275204E+02  0.20000018964E+02 0.  0.
        -12    1    1    2    0    0 -0.22738334296E+01  0.79065998268E+01 -0.42613827258E+02  0.43400724796E+02  0.00000000000E+00 0.  1.
         11    1    3    3    0    0  0.10544995524E+02 -0.54848414844E+01  0.23211980921E+02  0.26078275926E+02  0.51100000000E-03 0. -1.
        -11    1    3    3    0    0 -0.49642302429E+01 -0.33616056738E+01  0.14772408632E+02  0.15942648201E+02  0.51100000000E-03 0.  1.
         12    1    3    3    0    0 -0.33069318518E+01  0.93984733144E+00  0.46294377044E+01  0.57663510765E+01  0.00000000000E+00 0. -1.
</event>
<event>
 7    1  0.6622189E-010  0.4778724E+02  0.7816164E-02  0.1312668E+00
        -11   -1    0    0    0    0  0.00000000000E+00  0.00000000000E+00  0.45593999997E+02  0.45594000000E+02  0.51100000000E-03 0. -1.
         11   -1    0    0    0    0 -0.00000000000E+00 -0.00000000000E+00 -0.45593999997E+02  0.45594000000E+02  0.51100000000E-03 0.  1.
    9900012    2    1    2    0    0 -0.39609857179E+02 -0.14553474635E+02 -0.10143038815E+02  0.47787243715E+02  0.19999875393E+02 0.  0.
         12    1    1    2    0    0  0.39609857179E+02  0.14553474635E+02  0.10143038815E+02  0.43400756285E+02  0.00000000000E+00 0. -1.
         11    1    3    3    0    0 -0.63945786015E+00 -0.14802085635E+01  0.22365272147E+01  0.27571684732E+01  0.51100000000E-03 0. -1.
        -11    1    3    3    0    0 -0.37689152455E+02 -0.13338353384E+02 -0.14508747496E+02  0.42531019714E+02  0.51100000000E-03 0.  1.
        -12    1    3    3    0    0 -0.12812468646E+01  0.26508731272E+00  0.21291814666E+01  0.24990555274E+01  0.00000000000E+00 0.  1.
</event>
<event>
 7    1  0.6622189E-010  0.4778727E+02  0.7816164E-02  0.1312668E+00
        -11   -1    0    0    0    0  0.00000000000E+00  0.00000000000E+00  0.45593999997E+02  0.45594000000E+02  0.51100000000E-03 0.  1.
         11   -1    0    0    0    0 -0.00000000000E+00 -0.00000000000E+00 -0.45593999997E+02  0.45594000000E+02  0.51100000000E-03 0. -1.
    9900012    2    1    2    0    0  0.38101083294E+02  0.20754604515E+02 -0.10849105855E+01  0.47787272037E+02  0.20000004527E+02 0.  0.
         12    1    1    2    0    0 -0.38101083294E+02 -0.20754604515E+02  0.10849105855E+01  0.43400727963E+02  0.00000000000E+00 0. -1.
         11    1    3    3    0    0  0.34949977036E+01  0.67173586297E+01 -0.47156148548E+01  0.89204786659E+01  0.51100000000E-03 0. -1.
        -11    1    3    3    0    0  0.18973485194E+02  0.41388212269E+01  0.57244986794E+01  0.20245811096E+02  0.51100000000E-03 0.  1.
        -12    1    3    3    0    0  0.15632600396E+02  0.98984246580E+01 -0.20937944101E+01  0.18620982275E+02  0.00000000000E+00 0.  1.
</event>
<event>
 7    1  0.6622189E-010  0.4778727E+02  0.7816164E-02  0.1312668E+00
        -11   -1    0    0    0    0  0.00000000000E+00  0.00000000000E+00  0.45593999997E+02  0.45594000000E+02  0.51100000000E-03 0. -1.
         11   -1    0    0    0    0 -0.00000000000E+00 -0.00000000000E+00 -0.45593999997E+02  0.45594000000E+02  0.51100000000E-03 0.  1.
    9900012    2    1    2    0    0  0.42079994496E+02  0.21092678612E+01 -0.10413843578E+02  0.47787273212E+02  0.20000009881E+02 0.  0.
         12    1    1    2    0    0 -0.42079994496E+02 -0.21092678612E+01  0.10413843578E+02  0.43400726788E+02  0.00000000000E+00 0. -1.
         11    1    3    3    0    0  0.38730557816E+01  0.98060035904E+00 -0.44338129498E+01  0.59683193351E+01  0.51100000000E-03 0. -1.
        -11    1    3    3    0    0  0.15433577496E+02 -0.72547982851E+01 -0.12892930349E+01  0.17102329937E+02  0.51100000000E-03 0.  1.
        -12    1    3    3    0    0  0.22773361219E+02  0.83834657873E+01 -0.46907375930E+01  0.24716623940E+02  0.00000000000E+00 0.  1.
</event>
<event>
 7    1  0.6622189E-010  0.4778728E+02  0.7816164E-02  0.1312668E+00
        -11   -1    0    0    0    0  0.00000000000E+00  0.00000000000E+00  0.45593999997E+02  0.45594000000E+02  0.51100000000E-03 0. -1.
         11   -1    0    0    0    0 -0.00000000000E+00 -0.00000000000E+00 -0.45593999997E+02  0.45594000000E+02  0.51100000000E-03 0.  1.
    9900012    2    1    2    0    0 -0.26314910537E+02 -0.14517802188E+02  0.31311038356E+02  0.47787283187E+02  0.20000055361E+02 0.  0.
        -12    1    1    2    0    0  0.26314910537E+02  0.14517802188E+02 -0.31311038356E+02  0.43400716813E+02  0.00000000000E+00 0.  1.
         11    1    3    3    0    0 -0.11042816409E+02 -0.83498866274E+01  0.21449158519E+02  0.25529018829E+02  0.51100000000E-03 0. -1.
        -11    1    3    3    0    0 -0.32961615690E+01  0.17369997631E+00 -0.23215014791E+01  0.40353713769E+01  0.51100000000E-03 0.  1.
        -12    1    3    3    0    0 -0.11975932560E+02 -0.63416155366E+01  0.12183381316E+02  0.18222892981E+02  0.00000000000E+00 0.  1.
</event>
<event>
 7    1  0.6622189E-010  0.4778727E+02  0.7816164E-02  0.1312668E+00
        -11   -1    0    0    0    0  0.00000000000E+00  0.00000000000E+00  0.45593999997E+02  0.45594000000E+02  0.51100000000E-03 0. -1.
         11   -1    0    0    0    0 -0.00000000000E+00 -0.00000000000E+00 -0.45593999997E+02  0.45594000000E+02  0.51100000000E-03 0.  1.
    9900012    2    1    2    0    0  0.24064525684E+02 -0.34905541982E+02  0.92803656816E+01  0.47787269077E+02  0.19999991028E+02 0.  0.
        -12    1    1    2    0    0 -0.24064525684E+02  0.34905541982E+02 -0.92803656816E+01  0.43400730923E+02  0.00000000000E+00 0.  1.
         11    1    3    3    0    0  0.11798181025E+02 -0.18074080387E+02  0.50607664564E+01  0.22169366584E+02  0.51100000000E-03 0. -1.
        -11    1    3    3    0    0 -0.12179333653E+01  0.15555664690E-01 -0.26956488974E+01  0.29580613415E+01  0.51100000000E-03 0.  1.
        -12    1    3    3    0    0  0.13484278024E+02 -0.16847017260E+02  0.69152481227E+01  0.22659841151E+02  0.00000000000E+00 0.  1.
</event>
<event>
 7    1  0.6622189E-010  0.4778727E+02  0.7816164E-02  0.1312668E+00
        -11   -1    0    0    0    0  0.00000000000E+00  0.00000000000E+00  0.45593999997E+02  0.45594000000E+02  0.51100000000E-03 0. -1.
         11   -1    0    0    0    0 -0.00000000000E+00 -0.00000000000E+00 -0.45593999997E+02  0.45594000000E+02  0.51100000000E-03 0.  1.
    9900012    2    1    2    0    0  0.95853279969E+00  0.25583657553E+02 -0.35045414273E+02  0.47787269816E+02  0.19999994398E+02 0.  0.
         12    1    1    2    0    0 -0.95853279969E+00 -0.25583657553E+02  0.35045414273E+02  0.43400730184E+02  0.00000000000E+00 0. -1.
         11    1    3    3    0    0 -0.47031923827E+01  0.23625357361E+01 -0.11961889306E+02  0.13068603205E+02  0.51100000000E-03 0. -1.
        -11    1    3    3    0    0  0.74384996595E+01  0.21491212927E+02 -0.22832490830E+02  0.32226171786E+02  0.51100000000E-03 0.  1.
        -12    1    3    3    0    0 -0.17767744771E+01  0.17299088908E+01 -0.25103413743E+00  0.24924948247E+01  0.00000000000E+00 0.  1.
</event>
<event>
 7    1  0.6622189E-010  0.4778727E+02  0.7816164E-02  0.1312668E+00
        -11   -1    0    0    0    0  0.00000000000E+00  0.00000000000E+00  0.45593999997E+02  0.45594000000E+02  0.51100000000E-03 0. -1.
         11   -1    0    0    0    0 -0.00000000000E+00 -0.00000000000E+00 -0.45593999997E+02  0.45594000000E+02  0.51100000000E-03 0.  1.
    9900012    2    1    2    0    0 -0.16134027326E+02 -0.37882427145E+02  0.13720008563E+02  0.47787265454E+02  0.19999974512E+02 0.  0.
        -12    1    1    2    0    0  0.16134027326E+02  0.37882427145E+02 -0.13720008563E+02  0.43400734546E+02  0.00000000000E+00 0.  1.
         11    1    3    3    0    0  0.87739207901E+00 -0.21897767895E+02  0.70699666612E+01  0.23027515813E+02  0.51100000000E-03 0. -1.
        -11    1    3    3    0    0 -0.14900027532E+02 -0.14931872068E+02  0.45027356737E+01  0.21569567745E+02  0.51100000000E-03 0.  1.
         12    1    3    3    0    0 -0.21113918730E+01 -0.10527871814E+01  0.21473062281E+01  0.31901818957E+01  0.00000000000E+00 0. -1.
</event>
<event>
 7    1  0.6622189E-010  0.4778727E+02  0.7816164E-02  0.1312668E+00
        -11   -1    0    0    0    0  0.00000000000E+00  0.00000000000E+00  0.45593999997E+02  0.45594000000E+02  0.51100000000E-03 0. -1.
         11   -1    0    0    0    0 -0.00000000000E+00 -0.00000000000E+00 -0.45593999997E+02  0.45594000000E+02  0.51100000000E-03 0.  1.
    9900012    2    1    2    0    0  0.10043262306E+02  0.14959993879E+02  0.39483600093E+02  0.47787271770E+02  0.20000003307E+02 0.  0.
        -12    1    1    2    0    0 -0.10043262306E+02 -0.14959993879E+02 -0.39483600093E+02  0.43400728230E+02  0.00000000000E+00 0.  1.
         11    1    3    3    0    0  0.81620327635E+01 -0.17949283648E+01  0.76958080327E+01  0.11360722169E+02  0.51100000000E-03 0.  1.
        -11    1    3    3    0    0 -0.19109111299E+01  0.83317518102E+01  0.14945918590E+02  0.17217727850E+02  0.51100000000E-03 0. -1.
         12    1    3    3    0    0  0.37921406721E+01  0.84231704334E+01  0.16841873471E+02  0.19208821750E+02  0.00000000000E+00 0. -1.
</event>
<event>
 7    1  0.6622189E-010  0.4778727E+02  0.7816164E-02  0.1312668E+00
        -11   -1    0    0    0    0  0.00000000000E+00  0.00000000000E+00  0.45593999997E+02  0.45594000000E+02  0.51100000000E-03 0. -1.
         11   -1    0    0    0    0 -0.00000000000E+00 -0.00000000000E+00 -0.45593999997E+02  0.45594000000E+02  0.51100000000E-03 0.  1.
    9900012    2    1    2    0    0  0.13786266172E+02 -0.13858294202E+02 -0.38749321717E+02  0.47787269745E+02  0.19999994077E+02 0.  0.
         12    1    1    2    0    0 -0.13786266172E+02  0.13858294202E+02  0.38749321717E+02  0.43400730255E+02  0.00000000000E+00 0. -1.
         11    1    3    3    0    0 -0.39166477864E+00  0.14045404643E+01  0.10989447472E+01  0.18258737725E+01  0.51100000000E-03 0. -1.
        -11    1    3    3    0    0  0.11639501705E+02 -0.16380536379E+02 -0.34138030883E+02  0.39613193823E+02  0.51100000000E-03 0.  1.
         12    1    3    3    0    0  0.25384292453E+01  0.11177017126E+01 -0.57102355805E+01  0.63482021499E+01  0.00000000000E+00 0. -1.
</event>
<event>
 7    1  0.6622189E-010  0.4778725E+02  0.7816164E-02  0.1312668E+00
        -11   -1    0    0    0    0  0.00000000000E+00  0.00000000000E+00  0.45593999997E+02  0.45594000000E+02  0.51100000000E-03 0. -1.
         11   -1    0    0    0    0 -0.00000000000E+00 -0.00000000000E+00 -0.45593999997E+02  0.45594000000E+02  0.51100000000E-03 0.  1.
    9900012    2    1    2    0    0 -0.23149712847E+02  0.83449374716E+01  0.35750212188E+02  0.47787252797E+02  0.19999916803E+02 0.  0.
        -12    1    1    2    0    0  0.23149712847E+02 -0.83449374716E+01 -0.35750212188E+02  0.43400747203E+02  0.00000000000E+00 0.  1.
         11    1    3    3    0    0 -0.52904896127E+01 -0.66584547696E+00 -0.11673533711E+01  0.54585112160E+01  0.51100000000E-03 0.  1.
        -11    1    3    3    0    0 -0.99092977140E+01  0.77387403396E+01  0.20617855204E+02  0.24149083558E+02  0.51100000000E-03 0. -1.
         12    1    3    3    0    0 -0.79499255202E+01  0.12720426090E+01  0.16299710355E+02  0.18179658023E+02  0.00000000000E+00 0. -1.
</event>
<event>
 7    1  0.6622189E-010  0.4778727E+02  0.7816164E-02  0.1312668E+00
        -11   -1    0    0    0    0  0.00000000000E+00  0.00000000000E+00  0.45593999997E+02  0.45594000000E+02  0.51100000000E-03 0.  1.
         11   -1    0    0    0    0 -0.00000000000E+00 -0.00000000000E+00 -0.45593999997E+02  0.45594000000E+02  0.51100000000E-03 0. -1.
    9900012    2    1    2    0    0 -0.13434789109E+02  0.29485035084E+02 -0.28874940130E+02  0.47787273971E+02  0.20000013344E+02 0.  0.
         12    1    1    2    0    0  0.13434789109E+02 -0.29485035084E+02  0.28874940130E+02  0.43400726029E+02  0.00000000000E+00 0. -1.
         11    1    3    3    0    0 -0.59964328235E+01  0.71436456589E+01 -0.89790746916E+01  0.12946530905E+02  0.51100000000E-03 0. -1.
        -11    1    3    3    0    0 -0.43307097851E+01 -0.73948185985E+00 -0.29896297889E+00  0.44035508159E+01  0.51100000000E-03 0.  1.
        -12    1    3    3    0    0 -0.31076465001E+01  0.23080871285E+02 -0.19596902459E+02  0.30437192250E+02  0.00000000000E+00 0.  1.
</event>
<event>
 7    1  0.6622189E-010  0.4778725E+02  0.7816164E-02  0.1312668E+00
        -11   -1    0    0    0    0  0.00000000000E+00  0.00000000000E+00  0.45593999997E+02  0.45594000000E+02  0.51100000000E-03 0. -1.
         11   -1    0    0    0    0 -0.00000000000E+00 -0.00000000000E+00 -0.45593999997E+02  0.45594000000E+02  0.51100000000E-03 0.  1.
    9900012    2    1    2    0    0 -0.16034839978E+02 -0.21071355096E+02  0.34387594527E+02  0.47787253969E+02  0.19999922145E+02 0.  0.
        -12    1    1    2    0    0  0.16034839978E+02  0.21071355096E+02 -0.34387594527E+02  0.43400746031E+02  0.00000000000E+00 0.  1.
         11    1    3    3    0    0 -0.18923803762E+02 -0.17552212288E+02  0.30614782217E+02  0.40043169149E+02  0.51100000000E-03 0. -1.
        -11    1    3    3    0    0  0.39293257653E+01 -0.33980915249E+01  0.41309976689E+01  0.66371506675E+01  0.51100000000E-03 0.  1.
         12    1    3    3    0    0 -0.10403619819E+01 -0.12105128296E+00 -0.35818535892E+00  0.11069341524E+01  0.00000000000E+00 0. -1.
</event>
<event>
 7    1  0.6622189E-010  0.4778727E+02  0.7816164E-02  0.1312668E+00
        -11   -1    0    0    0    0  0.00000000000E+00  0.00000000000E+00  0.45593999997E+02  0.45594000000E+02  0.51100000000E-03 0. -1.
         11   -1    0    0    0    0 -0.00000000000E+00 -0.00000000000E+00 -0.45593999997E+02  0.45594000000E+02  0.51100000000E-03 0.  1.
    9900012    2    1    2    0    0  0.81259583063E+00 -0.26504547505E+02  0.34358000871E+02  0.47787267583E+02  0.19999984218E+02 0.  0.
        -12    1    1    2    0    0 -0.81259583063E+00  0.26504547505E+02 -0.34358000871E+02  0.43400732417E+02  0.00000000000E+00 0.  1.
         11    1    3    3    0    0  0.23287744646E+01 -0.10104585900E+02  0.25163253905E+02  0.27216083371E+02  0.51100000000E-03 0. -1.
        -11    1    3    3    0    0 -0.16930239966E+01 -0.15680036643E+02  0.10586131165E+02  0.18994632207E+02  0.51100000000E-03 0.  1.
         12    1    3    3    0    0  0.17684536262E+00 -0.71992496208E+00 -0.13913841989E+01  0.15765520043E+01  0.00000000000E+00 0. -1.
</event>
<event>
 7    1  0.6622189E-010  0.4778727E+02  0.7816164E-02  0.1312668E+00
        -11   -1    0    0    0    0  0.00000000000E+00  0.00000000000E+00  0.45593999997E+02  0.45594000000E+02  0.51100000000E-03 0. -1.
         11   -1    0    0    0    0 -0.00000000000E+00 -0.00000000000E+00 -0.45593999997E+02  0.45594000000E+02  0.51100000000E-03 0.  1.
    9900012    2    1    2    0    0 -0.35366122190E+01  0.14324044180E+02  0.40815894241E+02  0.47787273158E+02  0.20000009639E+02 0.  0.
        -12    1    1    2    0    0  0.35366122190E+01 -0.14324044180E+02 -0.40815894241E+02  0.43400726842E+02  0.00000000000E+00 0.  1.
         11    1    3    3    0    0  0.17600730147E+01  0.68461073316E+01  0.37195377223E+02  0.37861103122E+02  0.51100000000E-03 0. -1.
        -11    1    3    3    0    0 -0.28052592291E+01  0.44334224922E+01  0.14977602957E+01  0.54560059111E+01  0.51100000000E-03 0.  1.
        -12    1    3    3    0    0 -0.24914260045E+01  0.30445143566E+01  0.21227567225E+01  0.44701641252E+01  0.00000000000E+00 0.  1.
</event>
<event>
 7    1  0.6622189E-010  0.4778727E+02  0.7816164E-02  0.1312668E+00
        -11   -1    0    0    0    0  0.00000000000E+00  0.00000000000E+00  0.45593999997E+02  0.45594000000E+02  0.51100000000E-03 0. -1.
         11   -1    0    0    0    0 -0.00000000000E+00 -0.00000000000E+00 -0.45593999997E+02  0.45594000000E+02  0.51100000000E-03 0.  1.
    9900012    2    1    2    0    0 -0.14403696364E+02 -0.37217438023E+02  0.17059284534E+02  0.47787270159E+02  0.19999995961E+02 0.  0.
        -12    1    1    2    0    0  0.14403696364E+02  0.37217438023E+02 -0.17059284534E+02  0.43400729841E+02  0.00000000000E+00 0.  1.
         11    1    3    3    0    0 -0.33397243089E+00 -0.22535399992E+02  0.15212927652E+02  0.27191707529E+02  0.51100000000E-03 0. -1.
        -11    1    3    3    0    0 -0.67015736866E+01 -0.57099344222E+01 -0.20132604612E+00  0.88065301578E+01  0.51100000000E-03 0.  1.
         12    1    3    3    0    0 -0.73681502469E+01 -0.89721036093E+01  0.20476829281E+01  0.11789032471E+02  0.00000000000E+00 0. -1.
</event>
<event>
 7    1  0.6622189E-010  0.4778727E+02  0.7816164E-02  0.1312668E+00
        -11   -1    0    0    0    0  0.00000000000E+00  0.00000000000E+00  0.45593999997E+02  0.45594000000E+02  0.51100000000E-03 0. -1.
         11   -1    0    0    0    0 -0.00000000000E+00 -0.00000000000E+00 -0.45593999997E+02  0.45594000000E+02  0.51100000000E-03 0.  1.
    9900012    2    1    2    0    0 -0.28544891161E+02  0.19377424478E+02 -0.26331121437E+02  0.47787270203E+02  0.19999996163E+02 0.  0.
         12    1    1    2    0    0  0.28544891161E+02 -0.19377424478E+02  0.26331121437E+02  0.43400729797E+02  0.00000000000E+00 0. -1.
         11    1    3    3    0    0  0.25003874512E+01  0.47835000357E+00 -0.72834784244E+00  0.26478759361E+01  0.51100000000E-03 0. -1.
        -11    1    3    3    0    0 -0.20883324085E+02  0.83250202748E+01 -0.16363708918E+02  0.27806297079E+02  0.51100000000E-03 0.  1.
         12    1    3    3    0    0 -0.10161954527E+02  0.10574054200E+02 -0.92390646766E+01  0.17333097188E+02  0.00000000000E+00 0. -1.
</event>
<event>
 7    1  0.6622189E-010  0.4778726E+02  0.7816164E-02  0.1312668E+00
        -11   -1    0    0    0    0  0.00000000000E+00  0.00000000000E+00  0.45593999997E+02  0.45594000000E+02  0.51100000000E-03 0. -1.
         11   -1    0    0    0    0 -0.00000000000E+00 -0.00000000000E+00 -0.45593999997E+02  0.45594000000E+02  0.51100000000E-03 0.  1.
    9900012    2    1    2    0    0  0.10760759950E+02 -0.76112359251E+01  0.41350932473E+02  0.47787257110E+02  0.19999936468E+02 0.  0.
        -12    1    1    2    0    0 -0.10760759950E+02  0.76112359251E+01 -0.41350932473E+02  0.43400742890E+02  0.00000000000E+00 0.  1.
         11    1    3    3    0    0 -0.38237397574E+00 -0.15259131398E+00  0.14939986123E+02  0.14945657549E+02  0.51100000000E-03 0. -1.
        -11    1    3    3    0    0  0.12399260230E+02 -0.70431640065E+01  0.27597789866E+02  0.31064220885E+02  0.51100000000E-03 0.  1.
        -12    1    3    3    0    0 -0.12561263043E+01 -0.41548060465E+00 -0.11868435159E+01  0.17773786756E+01  0.00000000000E+00 0.  1.
</event>
<event>
 7    1  0.6798458E-010  0.4778727E+02  0.7816164E-02  0.1312668E+00
        -11   -1    0    0    0    0  0.00000000000E+00  0.00000000000E+00  0.45593999997E+02  0.45594000000E+02  0.51100000000E-03 0. -1.
         11   -1    0    0    0    0 -0.00000000000E+00 -0.00000000000E+00 -0.45593999997E+02  0.45594000000E+02  0.51100000000E-03 0.  1.
    9900012    2    1    2    0    0  0.15497972903E+02 -0.18123680899E+02 -0.36262491387E+02  0.47787271262E+02  0.20000000991E+02 0.  0.
         12    1    1    2    0    0 -0.15497972903E+02  0.18123680899E+02  0.36262491387E+02  0.43400728738E+02  0.00000000000E+00 0. -1.
         11    1    3    3    0    0  0.62547871115E-01  0.10325736101E+01 -0.12343377851E+01  0.16105000855E+01  0.51100000000E-03 0. -1.
        -11    1    3    3    0    0  0.48459677689E+01 -0.13774696425E+01  0.49868888445E+00  0.50625603303E+01  0.51100000000E-03 0.  1.
        -12    1    3    3    0    0  0.10589457263E+02 -0.17778784866E+02 -0.35526842486E+02  0.41114210846E+02  0.00000000000E+00 0.  1.
</event>
<event>
 7    1  0.6622189E-010  0.4778727E+02  0.7816164E-02  0.1312668E+00
        -11   -1    0    0    0    0  0.00000000000E+00  0.00000000000E+00  0.45593999997E+02  0.45594000000E+02  0.51100000000E-03 0.  1.
         11   -1    0    0    0    0 -0.00000000000E+00 -0.00000000000E+00 -0.45593999997E+02  0.45594000000E+02  0.51100000000E-03 0. -1.
    9900012    2    1    2    0    0  0.15396131368E+02  0.39046504065E+02 -0.11043228169E+02  0.47787271559E+02  0.20000002346E+02 0.  0.
        -12    1    1    2    0    0 -0.15396131368E+02 -0.39046504065E+02  0.11043228169E+02  0.43400728441E+02  0.00000000000E+00 0.  1.
         11    1    3    3    0    0  0.26233218189E+01  0.13954411583E+02 -0.49262334216E+01  0.15029144885E+02  0.51100000000E-03 0. -1.
        -11    1    3    3    0    0  0.14584121341E+02  0.24766803148E+02 -0.26889010466E+01  0.28867305426E+02  0.51100000000E-03 0.  1.
        -12    1    3    3    0    0 -0.18113117923E+01  0.32528933452E+00 -0.34280937008E+01  0.38908212477E+01  0.00000000000E+00 0.  1.
</event>
<event>
 7    1  0.6622189E-010  0.4778727E+02  0.7816164E-02  0.1312668E+00
        -11   -1    0    0    0    0  0.00000000000E+00  0.00000000000E+00  0.45593999997E+02  0.45594000000E+02  0.51100000000E-03 0. -1.
         11   -1    0    0    0    0 -0.00000000000E+00 -0.00000000000E+00 -0.45593999997E+02  0.45594000000E+02  0.51100000000E-03 0.  1.
    9900012    2    1    2    0    0  0.26195549404E+02  0.19184462298E+02  0.28798832864E+02  0.47787272166E+02  0.20000005112E+02 0.  0.
        -12    1    1    2    0    0 -0.26195549404E+02 -0.19184462298E+02 -0.28798832864E+02  0.43400727834E+02  0.00000000000E+00 0.  1.
         11    1    3    3    0    0  0.13611639968E+02  0.13202277555E+02  0.13143841300E+02  0.23072438962E+02  0.51100000000E-03 0. -1.
        -11    1    3    3    0    0  0.47940532913E+01 -0.41513633089E+01  0.50659742912E+01  0.81167025362E+01  0.51100000000E-03 0.  1.
        -12    1    3    3    0    0  0.77898561450E+01  0.10133548051E+02  0.10589017272E+02  0.16598130668E+02  0.00000000000E+00 0.  1.
</event>
<event>
 7    1  0.6622189E-010  0.4778733E+02  0.7816164E-02  0.1312667E+00
        -11   -1    0    0    0    0  0.00000000000E+00  0.00000000000E+00  0.45593999997E+02  0.45594000000E+02  0.51100000000E-03 0. -1.
         11   -1    0    0    0    0 -0.00000000000E+00 -0.00000000000E+00 -0.45593999997E+02  0.45594000000E+02  0.51100000000E-03 0.  1.
    9900012    2    1    2    0    0 -0.97631756152E+01 -0.37992286698E+02 -0.18571063810E+02  0.47787333443E+02  0.20000284496E+02 0.  0.
         12    1    1    2    0    0  0.97631756152E+01  0.37992286698E+02  0.18571063810E+02  0.43400666557E+02  0.00000000000E+00 0. -1.
         11    1    3    3    0    0 -0.38617542256E+01 -0.93580734120E+00 -0.18647161371E+01  0.43893106078E+01  0.51100000000E-03 0. -1.
        -11    1    3    3    0    0 -0.14290374387E+01 -0.33147610650E+02 -0.17319073831E+02  0.37426682440E+02  0.51100000000E-03 0.  1.
        -12    1    3    3    0    0 -0.44723839509E+01 -0.39088687061E+01  0.61272615872E+00  0.59713403949E+01  0.00000000000E+00 0.  1.
</event>
<event>
 7    1  0.6622189E-010  0.4778727E+02  0.7816164E-02  0.1312668E+00
        -11   -1    0    0    0    0  0.00000000000E+00  0.00000000000E+00  0.45593999997E+02  0.45594000000E+02  0.51100000000E-03 0. -1.
         11   -1    0    0    0    0 -0.00000000000E+00 -0.00000000000E+00 -0.45593999997E+02  0.45594000000E+02  0.51100000000E-03 0.  1.
    9900012    2    1    2    0    0 -0.32925055400E+02 -0.71497791713E+01 -0.27357723138E+02  0.47787266935E+02  0.19999981265E+02 0.  0.
         12    1    1    2    0    0  0.32925055400E+02  0.71497791713E+01  0.27357723138E+02  0.43400733065E+02  0.00000000000E+00 0. -1.
         11    1    3    3    0    0 -0.14296741697E+02 -0.49465270476E+01 -0.20981100714E+01  0.15273081520E+02  0.51100000000E-03 0. -1.
        -11    1    3    3    0    0 -0.12183484988E+02  0.85937881540E+00 -0.10445810275E+02  0.16071427782E+02  0.51100000000E-03 0.  1.
         12    1    3    3    0    0 -0.64448287148E+01 -0.30626309391E+01 -0.14813802791E+02  0.16442757633E+02  0.00000000000E+00 0. -1.
</event>
<event>
 7    1  0.6622189E-010  0.4778728E+02  0.7816164E-02  0.1312668E+00
        -11   -1    0    0    0    0  0.00000000000E+00  0.00000000000E+00  0.45593999997E+02  0.45594000000E+02  0.51100000000E-03 0.  1.
         11   -1    0    0    0    0 -0.00000000000E+00 -0.00000000000E+00 -0.45593999997E+02  0.45594000000E+02  0.51100000000E-03 0. -1.
    9900012    2    1    2    0    0 -0.36630691185E+02  0.19846043986E+02  0.12163448914E+02  0.47787280097E+02  0.20000041275E+02 0.  0.
        -12    1    1    2    0    0  0.36630691185E+02 -0.19846043986E+02 -0.12163448914E+02  0.43400719903E+02  0.00000000000E+00 0.  1.
         11    1    3    3    0    0 -0.17359848181E+02  0.10774633682E+02  0.14288354923E+02  0.24932190969E+02  0.51100000000E-03 0. -1.
        -11    1    3    3    0    0 -0.13027481885E+01 -0.13385405918E+00 -0.23213595612E+01  0.26652917711E+01  0.51100000000E-03 0.  1.
         12    1    3    3    0    0 -0.17968094816E+02  0.92052643635E+01  0.19645355163E+00  0.20189797357E+02  0.00000000000E+00 0. -1.
</event>
<event>
 7    1  0.6622189E-010  0.4778727E+02  0.7816164E-02  0.1312668E+00
        -11   -1    0    0    0    0  0.00000000000E+00  0.00000000000E+00  0.45593999997E+02  0.45594000000E+02  0.51100000000E-03 0. -1.
         11   -1    0    0    0    0 -0.00000000000E+00 -0.00000000000E+00 -0.45593999997E+02  0.45594000000E+02  0.51100000000E-03 0.  1.
    9900012    2    1    2    0    0  0.19425788116E+02 -0.22393646901E+02  0.31698368299E+02  0.47787271685E+02  0.20000002921E+02 0.  0.
        -12    1    1    2    0    0 -0.19425788116E+02  0.22393646901E+02 -0.31698368299E+02  0.43400728315E+02  0.00000000000E+00 0.  1.
         11    1    3    3    0    0  0.36889817384E+01 -0.81096469476E+01  0.19975521351E+02  0.21872274993E+02  0.51100000000E-03 0. -1.
        -11    1    3    3    0    0  0.75794166613E+00  0.12551047273E+01  0.12427457118E+01  0.19220251328E+01  0.51100000000E-03 0.  1.
         12    1    3    3    0    0  0.14978864712E+02 -0.15539104680E+02  0.10480101236E+02  0.23992971559E+02  0.00000000000E+00 0. -1.
</event>
<event>
 7    1  0.6622189E-010  0.4778727E+02  0.7816164E-02  0.1312668E+00
        -11   -1    0    0    0    0  0.00000000000E+00  0.00000000000E+00  0.45593999997E+02  0.45594000000E+02  0.51100000000E-03 0. -1.
         11   -1    0    0    0    0 -0.00000000000E+00 -0.00000000000E+00 -0.45593999997E+02  0.45594000000E+02  0.51100000000E-03 0.  1.
    9900012    2    1    2    0    0 -0.47878392163E+01  0.87472443406E+01  0.42239618838E+02  0.47787273192E+02  0.20000009792E+02 0.  0.
        -12    1    1    2    0    0  0.47878392163E+01 -0.87472443406E+01 -0.42239618838E+02  0.43400726808E+02  0.00000000000E+00 0.  1.
         11    1    3    3    0    0 -0.11055863512E+02  0.10897311268E+02  0.29016531235E+02  0.32908093169E+02  0.51100000000E-03 0. -1.
        -11    1    3    3    0    0  0.23001279889E+01 -0.86573238055E+00  0.32944286741E+01  0.41101510763E+01  0.51100000000E-03 0.  1.
         12    1    3    3    0    0  0.39678963067E+01 -0.12843345467E+01  0.99286589290E+01  0.10769028947E+02  0.00000000000E+00 0. -1.
</event>
<event>
 7    1  0.6622189E-010  0.4778727E+02  0.7816164E-02  0.1312668E+00
        -11   -1    0    0    0    0  0.00000000000E+00  0.00000000000E+00  0.45593999997E+02  0.45594000000E+02  0.51100000000E-03 0. -1.
         11   -1    0    0    0    0 -0.00000000000E+00 -0.00000000000E+00 -0.45593999997E+02  0.45594000000E+02  0.51100000000E-03 0.  1.
    9900012    2    1    2    0    0 -0.20184992067E+02 -0.23627674563E+02 -0.30297233180E+02  0.47787271338E+02  0.20000001337E+02 0.  0.
         12    1    1    2    0    0  0.20184992067E+02  0.23627674563E+02  0.30297233180E+02  0.43400728662E+02  0.00000000000E+00 0. -1.
         11    1    3    3    0    0  0.10536910424E+01 -0.43127734789E+01 -0.26780860955E+01  0.51848264473E+01  0.51100000000E-03 0. -1.
        -11    1    3    3    0    0 -0.20367034743E+02 -0.16779144924E+02 -0.29304901220E+02  0.39435175217E+02  0.51100000000E-03 0.  1.
        -12    1    3    3    0    0 -0.87164836647E+00 -0.25357561604E+01  0.16857541352E+01  0.31672696734E+01  0.00000000000E+00 0.  1.
</event>
<event>
 7    1  0.6622189E-010  0.4778727E+02  0.7816164E-02  0.1312668E+00
        -11   -1    0    0    0    0  0.00000000000E+00  0.00000000000E+00  0.45593999997E+02  0.45594000000E+02  0.51100000000E-03 0. -1.
         11   -1    0    0    0    0 -0.00000000000E+00 -0.00000000000E+00 -0.45593999997E+02  0.45594000000E+02  0.51100000000E-03 0.  1.
    9900012    2    1    2    0    0 -0.77351807739E+01 -0.28196985001E+02 -0.32073671111E+02  0.47787270014E+02  0.19999995303E+02 0.  0.
         12    1    1    2    0    0  0.77351807739E+01  0.28196985001E+02  0.32073671111E+02  0.43400729986E+02  0.00000000000E+00 0. -1.
         11    1    3    3    0    0 -0.13033123855E+02 -0.22466044841E+02 -0.18149828411E+02  0.31685986805E+02  0.51100000000E-03 0. -1.
        -11    1    3    3    0    0  0.33027109907E+01 -0.20223511946E+01 -0.68362433202E+01  0.78569731600E+01  0.51100000000E-03 0.  1.
         12    1    3    3    0    0  0.19952320907E+01 -0.37085889653E+01 -0.70875993806E+01  0.82443100493E+01  0.00000000000E+00 0. -1.
</event>
<event>
 7    1  0.6622189E-010  0.4778727E+02  0.7816164E-02  0.1312668E+00
        -11   -1    0    0    0    0  0.00000000000E+00  0.00000000000E+00  0.45593999997E+02  0.45594000000E+02  0.51100000000E-03 0. -1.
         11   -1    0    0    0    0 -0.00000000000E+00 -0.00000000000E+00 -0.45593999997E+02  0.45594000000E+02  0.51100000000E-03 0.  1.
    9900012    2    1    2    0    0 -0.58271850611E+01  0.13978753259E+02  0.40672614440E+02  0.47787271967E+02  0.20000004205E+02 0.  0.
        -12    1    1    2    0    0  0.58271850611E+01 -0.13978753259E+02 -0.40672614440E+02  0.43400728033E+02  0.00000000000E+00 0.  1.
         11    1    3    3    0    0  0.66520026568E+01  0.76440134826E+01  0.11982804862E+02  0.15692918597E+02  0.51100000000E-03 0. -1.
        -11    1    3    3    0    0 -0.75813077118E+00  0.17629477180E+00  0.43638914014E+00  0.89234402308E+00  0.51100000000E-03 0.  1.
         12    1    3    3    0    0 -0.11721056947E+02  0.61584450044E+01  0.28253420438E+02  0.31202009347E+02  0.00000000000E+00 0. -1.
</event>
<event>
 7    1  0.6622189E-010  0.4778727E+02  0.7816164E-02  0.1312668E+00
        -11   -1    0    0    0    0  0.00000000000E+00  0.00000000000E+00  0.45593999997E+02  0.45594000000E+02  0.51100000000E-03 0. -1.
         11   -1    0    0    0    0 -0.00000000000E+00 -0.00000000000E+00 -0.45593999997E+02  0.45594000000E+02  0.51100000000E-03 0.  1.
    9900012    2    1    2    0    0 -0.10705391493E+02 -0.12491535431E+02 -0.40161914733E+02  0.47787271210E+02  0.20000000756E+02 0.  0.
         12    1    1    2    0    0  0.10705391493E+02  0.12491535431E+02  0.40161914733E+02  0.43400728790E+02  0.00000000000E+00 0. -1.
         11    1    3    3    0    0 -0.12830591839E+01  0.93098474125E+00 -0.15926135753E+01  0.22470851607E+01  0.51100000000E-03 0. -1.
        -11    1    3    3    0    0 -0.80490905210E+01 -0.12399740462E+02 -0.12344355179E+02  0.19259400998E+02  0.51100000000E-03 0.  1.
        -12    1    3    3    0    0 -0.13732417883E+01 -0.10227797098E+01 -0.26224945979E+02  0.26280785052E+02  0.00000000000E+00 0.  1.
</event>
<event>
 7    1  0.6622189E-010  0.4778725E+02  0.7816164E-02  0.1312668E+00
        -11   -1    0    0    0    0  0.00000000000E+00  0.00000000000E+00  0.45593999997E+02  0.45594000000E+02  0.51100000000E-03 0. -1.
         11   -1    0    0    0    0 -0.00000000000E+00 -0.00000000000E+00 -0.45593999997E+02  0.45594000000E+02  0.51100000000E-03 0.  1.
    9900012    2    1    2    0    0 -0.31785495619E+01  0.42240357917E+02 -0.94484766711E+01  0.47787254319E+02  0.19999923743E+02 0.  0.
         12    1    1    2    0    0  0.31785495619E+01 -0.42240357917E+02  0.94484766711E+01  0.43400745681E+02  0.00000000000E+00 0. -1.
         11    1    3    3    0    0  0.29076843998E+01  0.91140617597E+01  0.53295353550E+01  0.10951013546E+02  0.51100000000E-03 0. -1.
        -11    1    3    3    0    0 -0.53339345408E+01  0.29938848356E+02 -0.13955275812E+02  0.33459456389E+02  0.51100000000E-03 0.  1.
        -12    1    3    3    0    0 -0.75229942097E+00  0.31874478005E+01 -0.82273621453E+00  0.33767843844E+01  0.00000000000E+00 0.  1.
</event>
<event>
 7    1  0.6622189E-010  0.4778729E+02  0.7816164E-02  0.1312668E+00
        -11   -1    0    0    0    0  0.00000000000E+00  0.00000000000E+00  0.45593999997E+02  0.45594000000E+02  0.51100000000E-03 0.  1.
         11   -1    0    0    0    0 -0.00000000000E+00 -0.00000000000E+00 -0.45593999997E+02  0.45594000000E+02  0.51100000000E-03 0. -1.
    9900012    2    1    2    0    0 -0.12295226502E+02  0.41622115226E+02 -0.22007951949E+00  0.47787291416E+02  0.20000092882E+02 0.  0.
        -12    1    1    2    0    0  0.12295226502E+02 -0.41622115226E+02  0.22007951949E+00  0.43400708584E+02  0.00000000000E+00 0.  1.
         11    1    3    3    0    0 -0.77029912548E+01  0.25886362532E+02  0.54668018960E+01  0.27555866211E+02  0.51100000000E-03 0. -1.
        -11    1    3    3    0    0 -0.15715459572E+01 -0.32561179676E+00 -0.33600442096E+01  0.37236644706E+01  0.51100000000E-03 0.  1.
         12    1    3    3    0    0 -0.30206892898E+01  0.16061364490E+02 -0.23268372059E+01  0.16507760734E+02  0.00000000000E+00 0. -1.
</event>
<event>
 7    1  0.6622189E-010  0.4778726E+02  0.7816164E-02  0.1312668E+00
        -11   -1    0    0    0    0  0.00000000000E+00  0.00000000000E+00  0.45593999997E+02  0.45594000000E+02  0.51100000000E-03 0. -1.
         11   -1    0    0    0    0 -0.00000000000E+00 -0.00000000000E+00 -0.45593999997E+02  0.45594000000E+02  0.51100000000E-03 0.  1.
    9900012    2    1    2    0    0 -0.17109320782E+02 -0.29726103490E+02  0.26594254180E+02  0.47787257590E+02  0.19999938654E+02 0.  0.
        -12    1    1    2    0    0  0.17109320782E+02  0.29726103490E+02 -0.26594254180E+02  0.43400742410E+02  0.00000000000E+00 0.  1.
         11    1    3    3    0    0 -0.41259881191E+00 -0.14370984251E+02  0.17681219333E+02  0.22788614339E+02  0.51100000000E-03 0. -1.
        -11    1    3    3    0    0 -0.47918272889E+01 -0.35440054550E+01  0.49969230509E+01  0.77775846938E+01  0.51100000000E-03 0.  1.
         12    1    3    3    0    0 -0.11904894682E+02 -0.11811113785E+02  0.39161117960E+01  0.17221058557E+02  0.00000000000E+00 0. -1.
</event>
<event>
 7    1  0.6622189E-010  0.4778727E+02  0.7816164E-02  0.1312668E+00
        -11   -1    0    0    0    0  0.00000000000E+00  0.00000000000E+00  0.45593999997E+02  0.45594000000E+02  0.51100000000E-03 0. -1.
         11   -1    0    0    0    0 -0.00000000000E+00 -0.00000000000E+00 -0.45593999997E+02  0.45594000000E+02  0.51100000000E-03 0.  1.
    9900012    2    1    2    0    0 -0.13133980821E+02 -0.32969458547E+02  0.24982722187E+02  0.47787273544E+02  0.20000011395E+02 0.  0.
        -12    1    1    2    0    0  0.13133980821E+02  0.32969458547E+02 -0.24982722187E+02  0.43400726456E+02  0.00000000000E+00 0.  1.
         11    1    3    3    0    0 -0.84452857849E+01 -0.28106412715E+02  0.24916181281E+02  0.38498173691E+02  0.51100000000E-03 0. -1.
        -11    1    3    3    0    0 -0.21182741767E+01  0.13729838120E+01  0.28639322699E+00  0.25405100624E+01  0.51100000000E-03 0.  1.
         12    1    3    3    0    0 -0.25704208590E+01 -0.62360296439E+01 -0.21985232086E+00  0.67485897901E+01  0.00000000000E+00 0. -1.
</event>
<event>
 7    1  0.6622189E-010  0.4778726E+02  0.7816164E-02  0.1312668E+00
        -11   -1    0    0    0    0  0.00000000000E+00  0.00000000000E+00  0.45593999997E+02  0.45594000000E+02  0.51100000000E-03 0. -1.
         11   -1    0    0    0    0 -0.00000000000E+00 -0.00000000000E+00 -0.45593999997E+02  0.45594000000E+02  0.51100000000E-03 0.  1.
    9900012    2    1    2    0    0 -0.26462813594E+02  0.66397315039E+01 -0.33752887641E+02  0.47787263118E+02  0.19999963862E+02 0.  0.
         12    1    1    2    0    0  0.26462813594E+02 -0.66397315039E+01  0.33752887641E+02  0.43400736882E+02  0.00000000000E+00 0. -1.
         11    1    3    3    0    0 -0.14979190547E+02  0.45334312467E+01 -0.30308901824E+02  0.34110961264E+02  0.51100000000E-03 0. -1.
        -11    1    3    3    0    0 -0.11835751049E+02  0.80989272590E+00 -0.28143153930E+01  0.12192674051E+02  0.51100000000E-03 0.  1.
         12    1    3    3    0    0  0.35212800183E+00  0.12964075313E+01 -0.62967042433E+00  0.14836278038E+01  0.00000000000E+00 0. -1.
</event>
<event>
 7    1  0.6622189E-010  0.4778727E+02  0.7816164E-02  0.1312668E+00
        -11   -1    0    0    0    0  0.00000000000E+00  0.00000000000E+00  0.45593999997E+02  0.45594000000E+02  0.51100000000E-03 0.  1.
         11   -1    0    0    0    0 -0.00000000000E+00 -0.00000000000E+00 -0.45593999997E+02  0.45594000000E+02  0.51100000000E-03 0. -1.
    9900012    2    1    2    0    0 -0.28224270154E+02  0.27269093215E+02  0.18531339443E+02  0.47787269453E+02  0.19999992744E+02 0.  0.
        -12    1    1    2    0    0  0.28224270154E+02 -0.27269093215E+02 -0.18531339443E+02  0.43400730547E+02  0.00000000000E+00 0.  1.
         11    1    3    3    0    0 -0.49014670292E+01  0.15862088057E+02  0.11272574654E+02  0.20067415284E+02  0.51100000000E-03 0. -1.
        -11    1    3    3    0    0 -0.13669875685E+02  0.35055437733E+01  0.53885251675E+01  0.15105977034E+02  0.51100000000E-03 0.  1.
         12    1    3    3    0    0 -0.96529274393E+01  0.79014613839E+01  0.18702396210E+01  0.12613877136E+02  0.00000000000E+00 0. -1.
</event>
<event>
 7    1  0.8416501E-010  0.4778731E+02  0.7816164E-02  0.1312668E+00
        -11   -1    0    0    0    0  0.00000000000E+00  0.00000000000E+00  0.45593999997E+02  0.45594000000E+02  0.51100000000E-03 0. -1.
         11   -1    0    0    0    0 -0.00000000000E+00 -0.00000000000E+00 -0.45593999997E+02  0.45594000000E+02  0.51100000000E-03 0.  1.
    9900012    2    1    2    0    0  0.12087859903E+02  0.32904445934E+02 -0.25589074971E+02  0.47787312481E+02  0.20000188923E+02 0.  0.
         12    1    1    2    0    0 -0.12087859903E+02 -0.32904445934E+02  0.25589074971E+02  0.43400687519E+02  0.00000000000E+00 0. -1.
         11    1    3    3    0    0  0.20698911000E+01  0.22925706149E+01  0.25980960627E+01  0.40361408056E+01  0.51100000000E-03 0. -1.
        -11    1    3    3    0    0  0.19879668946E+01  0.12745369694E+02 -0.16491178584E+02  0.20936939422E+02  0.51100000000E-03 0.  1.
        -12    1    3    3    0    0  0.80300019087E+01  0.17866505625E+02 -0.11695992450E+02  0.22814232253E+02  0.00000000000E+00 0.  1.
</event>
<event>
 7    1  0.6622189E-010  0.4778727E+02  0.7816164E-02  0.1312668E+00
        -11   -1    0    0    0    0  0.00000000000E+00  0.00000000000E+00  0.45593999997E+02  0.45594000000E+02  0.51100000000E-03 0. -1.
         11   -1    0    0    0    0 -0.00000000000E+00 -0.00000000000E+00 -0.45593999997E+02  0.45594000000E+02  0.51100000000E-03 0.  1.
    9900012    2    1    2    0    0  0.17041820596E+02 -0.22408886080E+02 -0.33030916290E+02  0.47787271256E+02  0.20000000964E+02 0.  0.
         12    1    1    2    0    0 -0.17041820596E+02  0.22408886080E+02  0.33030916290E+02  0.43400728744E+02  0.00000000000E+00 0. -1.
         11    1    3    3    0    0  0.69508503108E+01 -0.10295337775E+02 -0.19167882516E+01  0.12569104082E+02  0.51100000000E-03 0. -1.
        -11    1    3    3    0    0  0.94240403758E+01 -0.12338791026E+02 -0.30696639126E+02  0.34399737715E+02  0.51100000000E-03 0.  1.
         12    1    3    3    0    0  0.66692990907E+00  0.22524272176E+00 -0.41748891273E+00  0.81842945913E+00  0.00000000000E+00 0. -1.
</event>
<event>
 7    1  0.6622189E-010  0.4778728E+02  0.7816164E-02  0.1312668E+00
        -11   -1    0    0    0    0  0.00000000000E+00  0.00000000000E+00  0.45593999997E+02  0.45594000000E+02  0.51100000000E-03 0. -1.
         11   -1    0    0    0    0 -0.00000000000E+00 -0.00000000000E+00 -0.45593999997E+02  0.45594000000E+02  0.51100000000E-03 0.  1.
    9900012    2    1    2    0    0  0.77887589222E+01 -0.10756696018E+02 -0.41318899479E+02  0.47787277323E+02  0.20000028625E+02 0.  0.
         12    1    1    2    0    0 -0.77887589222E+01  0.10756696018E+02  0.41318899479E+02  0.43400722677E+02  0.00000000000E+00 0. -1.
         11    1    3    3    0    0  0.57520155804E+01 -0.37960398281E+01 -0.31037216787E+01  0.75583523426E+01  0.51100000000E-03 0. -1.
        -11    1    3    3    0    0 -0.22908605372E+01 -0.61285754999E+01 -0.31667714342E+02  0.32336536790E+02  0.51100000000E-03 0.  1.
        -12    1    3    3    0    0  0.43276038790E+01 -0.83208069003E+00 -0.65474634579E+01  0.78923881900E+01  0.00000000000E+00 0.  1.
</event>
<event>
 7    1  0.6622189E-010  0.4778727E+02  0.7816164E-02  0.1312668E+00
        -11   -1    0    0    0    0  0.00000000000E+00  0.00000000000E+00  0.45593999997E+02  0.45594000000E+02  0.51100000000E-03 0. -1.
         11   -1    0    0    0    0 -0.00000000000E+00 -0.00000000000E+00 -0.45593999997E+02  0.45594000000E+02  0.51100000000E-03 0.  1.
    9900012    2    1    2    0    0 -0.28267814922E+02  0.23671667664E+02 -0.22895539701E+02  0.47787274791E+02  0.20000017081E+02 0.  0.
         12    1    1    2    0    0  0.28267814922E+02 -0.23671667664E+02  0.22895539701E+02  0.43400725209E+02  0.00000000000E+00 0. -1.
         11    1    3    3    0    0  0.19539798920E+01  0.27904036087E+01 -0.32600249855E+01  0.47150983961E+01  0.51100000000E-03 0. -1.
        -11    1    3    3    0    0 -0.25313083524E+02  0.18530510385E+02 -0.20620587211E+02  0.37541185780E+02  0.51100000000E-03 0.  1.
        -12    1    3    3    0    0 -0.49087112905E+01  0.23507536705E+01  0.98507249537E+00  0.55309906142E+01  0.00000000000E+00 0.  1.
</event>
<event>
 7    1  0.6622189E-010  0.4778727E+02  0.7816164E-02  0.1312668E+00
        -11   -1    0    0    0    0  0.00000000000E+00  0.00000000000E+00  0.45593999997E+02  0.45594000000E+02  0.51100000000E-03 0.  1.
         11   -1    0    0    0    0 -0.00000000000E+00 -0.00000000000E+00 -0.45593999997E+02  0.45594000000E+02  0.51100000000E-03 0. -1.
    9900012    2    1    2    0    0 -0.24807318539E+02  0.19605129677E+01  0.35558072228E+02  0.47787272301E+02  0.20000005730E+02 0.  0.
        -12    1    1    2    0    0  0.24807318539E+02 -0.19605129677E+01 -0.35558072228E+02  0.43400727699E+02  0.00000000000E+00 0.  1.
         11    1    3    3    0    0 -0.53756810632E+01  0.75821173799E+01  0.16139274823E+02  0.18624248788E+02  0.51100000000E-03 0. -1.
        -11    1    3    3    0    0  0.41568056402E+00  0.30070934976E-01  0.23377220897E+01  0.23745819469E+01  0.51100000000E-03 0.  1.
         12    1    3    3    0    0 -0.19847318040E+02 -0.56516753471E+01  0.17081075316E+02  0.26788441566E+02  0.00000000000E+00 0. -1.
</event>
<event>
 7    1  0.6622189E-010  0.4778727E+02  0.7816164E-02  0.1312668E+00
        -11   -1    0    0    0    0  0.00000000000E+00  0.00000000000E+00  0.45593999997E+02  0.45594000000E+02  0.51100000000E-03 0. -1.
         11   -1    0    0    0    0 -0.00000000000E+00 -0.00000000000E+00 -0.45593999997E+02  0.45594000000E+02  0.51100000000E-03 0.  1.
    9900012    2    1    2    0    0 -0.33343007196E+02  0.16048869407E+02  0.22678204738E+02  0.47787270649E+02  0.19999998196E+02 0.  0.
        -12    1    1    2    0    0  0.33343007196E+02 -0.16048869407E+02 -0.22678204738E+02  0.43400729351E+02  0.00000000000E+00 0.  1.
         11    1    3    3    0    0 -0.70628921313E+01 -0.10483688361E+01  0.45669049645E+01  0.84758565166E+01  0.51100000000E-03 0. -1.
        -11    1    3    3    0    0 -0.14582911760E+02  0.13815098083E+02  0.18281584429E+02  0.27161269851E+02  0.51100000000E-03 0.  1.
        -12    1    3    3    0    0 -0.11697203305E+02  0.32821401597E+01 -0.17028465545E+00  0.12150144281E+02  0.00000000000E+00 0.  1.
</event>
<event>
 7    1  0.6622189E-010  0.4778727E+02  0.7816164E-02  0.1312668E+00
        -11   -1    0    0    0    0  0.00000000000E+00  0.00000000000E+00  0.45593999997E+02  0.45594000000E+02  0.51100000000E-03 0. -1.
         11   -1    0    0    0    0 -0.00000000000E+00 -0.00000000000E+00 -0.45593999997E+02  0.45594000000E+02  0.51100000000E-03 0.  1.
    9900012    2    1    2    0    0  0.12361234173E+02 -0.12022212505E+01  0.41585786484E+02  0.47787273235E+02  0.20000009989E+02 0.  0.
        -12    1    1    2    0    0 -0.12361234173E+02  0.12022212505E+01 -0.41585786484E+02  0.43400726765E+02  0.00000000000E+00 0.  1.
         11    1    3    3    0    0  0.24512026600E+01 -0.34084050049E+01  0.11084293472E+02  0.11852728850E+02  0.51100000000E-03 0. -1.
        -11    1    3    3    0    0  0.44850674537E+01 -0.33769363545E+01  0.13674157956E+01  0.57783523106E+01  0.51100000000E-03 0.  1.
        -12    1    3    3    0    0  0.54249640598E+01  0.55831201089E+01  0.29134077217E+02  0.30156192075E+02  0.00000000000E+00 0.  1.
</event>
<event>
 7    1  0.6622189E-010  0.4778726E+02  0.7816164E-02  0.1312668E+00
        -11   -1    0    0    0    0  0.00000000000E+00  0.00000000000E+00  0.45593999997E+02  0.45594000000E+02  0.51100000000E-03 0.  1.
         11   -1    0    0    0    0 -0.00000000000E+00 -0.00000000000E+00 -0.45593999997E+02  0.45594000000E+02  0.51100000000E-03 0. -1.
    9900012    2    1    2    0    0 -0.13060219765E+02 -0.40975691406E+02  0.58350082612E+01  0.47787263279E+02  0.19999964596E+02 0.  0.
        -12    1    1    2    0    0  0.13060219765E+02  0.40975691406E+02 -0.58350082612E+01  0.43400736721E+02  0.00000000000E+00 0.  1.
         11    1    3    3    0    0 -0.20516495240E+01 -0.11122309270E+02  0.62967258483E+00  0.11327467374E+02  0.51100000000E-03 0. -1.
        -11    1    3    3    0    0 -0.14221416360E+02 -0.17546249782E+02 -0.32932982080E+00  0.22588227533E+02  0.51100000000E-03 0.  1.
        -12    1    3    3    0    0  0.32128461190E+01 -0.12307132353E+02  0.55346654972E+01  0.13871568372E+02  0.00000000000E+00 0.  1.
</event>
<event>
 7    1  0.6622189E-010  0.4778727E+02  0.7816164E-02  0.1312668E+00
        -11   -1    0    0    0    0  0.00000000000E+00  0.00000000000E+00  0.45593999997E+02  0.45594000000E+02  0.51100000000E-03 0. -1.
         11   -1    0    0    0    0 -0.00000000000E+00 -0.00000000000E+00 -0.45593999997E+02  0.45594000000E+02  0.51100000000E-03 0.  1.
    9900012    2    1    2    0    0  0.20126438164E+02  0.11838078951E+02 -0.36584278009E+02  0.47787273925E+02  0.20000013132E+02 0.  0.
         12    1    1    2    0    0 -0.20126438164E+02 -0.11838078951E+02  0.36584278009E+02  0.43400726075E+02  0.00000000000E+00 0. -1.
         11    1    3    3    0    0  0.45634027603E+01  0.64943990913E+01 -0.79944364404E+00  0.79775293613E+01  0.51100000000E-03 0. -1.
        -11    1    3    3    0    0  0.14076653752E+02  0.33869901669E+01 -0.26410788888E+02  0.30118991570E+02  0.51100000000E-03 0.  1.
         12    1    3    3    0    0  0.14863816510E+01  0.19566896927E+01 -0.93740454776E+01  0.96907529935E+01  0.00000000000E+00 0. -1.
</event>
<event>
 7    1  0.6622189E-010  0.4778728E+02  0.7816164E-02  0.1312668E+00
        -11   -1    0    0    0    0  0.00000000000E+00  0.00000000000E+00  0.45593999997E+02  0.45594000000E+02  0.51100000000E-03 0. -1.
         11   -1    0    0    0    0 -0.00000000000E+00 -0.00000000000E+00 -0.45593999997E+02  0.45594000000E+02  0.51100000000E-03 0.  1.
    9900012    2    1    2    0    0  0.81699688655E+01  0.10956781028E+02  0.41192507716E+02  0.47787284180E+02  0.20000059892E+02 0.  0.
        -12    1    1    2    0    0 -0.81699688655E+01 -0.10956781028E+02 -0.41192507716E+02  0.43400715820E+02  0.00000000000E+00 0.  1.
         11    1    3    3    0    0  0.10053542479E+02 -0.20071297360E+01  0.23187098784E+02  0.25352393111E+02  0.51100000000E-03 0. -1.
        -11    1    3    3    0    0 -0.10593693765E+01  0.99647373558E+01  0.15421171208E+02  0.18391051513E+02  0.51100000000E-03 0.  1.
         12    1    3    3    0    0 -0.82420423659E+00  0.29991734077E+01  0.25842377233E+01  0.40438395571E+01  0.00000000000E+00 0. -1.
</event>
<event>
 7    1  0.6622189E-010  0.4778727E+02  0.7816164E-02  0.1312668E+00
        -11   -1    0    0    0    0  0.00000000000E+00  0.00000000000E+00  0.45593999997E+02  0.45594000000E+02  0.51100000000E-03 0. -1.
         11   -1    0    0    0    0 -0.00000000000E+00 -0.00000000000E+00 -0.45593999997E+02  0.45594000000E+02  0.51100000000E-03 0.  1.
    9900012    2    1    2    0    0 -0.23669236031E+02  0.18524574636E+02 -0.31308641289E+02  0.47787267067E+02  0.19999981865E+02 0.  0.
         12    1    1    2    0    0  0.23669236031E+02 -0.18524574636E+02  0.31308641289E+02  0.43400732933E+02  0.00000000000E+00 0. -1.
         11    1    3    3    0    0 -0.19048303558E+01 -0.56466015349E+00 -0.28436200140E+01  0.34689183931E+01  0.51100000000E-03 0.  1.
        -11    1    3    3    0    0 -0.26913377570E+01 -0.22010912299E+01  0.62767387973E+00  0.35329982005E+01  0.51100000000E-03 0. -1.
        -12    1    3    3    0    0 -0.19073067919E+02  0.21290326019E+02 -0.29092695155E+02  0.40785350473E+02  0.00000000000E+00 0.  1.
</event>
<event>
 7    1  0.6622189E-010  0.4778727E+02  0.7816164E-02  0.1312668E+00
        -11   -1    0    0    0    0  0.00000000000E+00  0.00000000000E+00  0.45593999997E+02  0.45594000000E+02  0.51100000000E-03 0. -1.
         11   -1    0    0    0    0 -0.00000000000E+00 -0.00000000000E+00 -0.45593999997E+02  0.45594000000E+02  0.51100000000E-03 0.  1.
    9900012    2    1    2    0    0 -0.13777142275E+02  0.37594594602E+02  0.16746937035E+02  0.47787273133E+02  0.20000009522E+02 0.  0.
        -12    1    1    2    0    0  0.13777142275E+02 -0.37594594602E+02 -0.16746937035E+02  0.43400726867E+02  0.00000000000E+00 0.  1.
         11    1    3    3    0    0  0.27633737794E+01  0.18216341075E+02  0.72693495694E+01  0.19806937174E+02  0.51100000000E-03 0. -1.
        -11    1    3    3    0    0 -0.57926721991E+01  0.24838450616E+01  0.23096843170E+01  0.67126134554E+01  0.51100000000E-03 0.  1.
         12    1    3    3    0    0 -0.10747843855E+02  0.16894408466E+02  0.71679031480E+01  0.21267722503E+02  0.00000000000E+00 0. -1.
</event>
<event>
 7    1  0.6622189E-010  0.4778727E+02  0.7816164E-02  0.1312668E+00
        -11   -1    0    0    0    0  0.00000000000E+00  0.00000000000E+00  0.45593999997E+02  0.45594000000E+02  0.51100000000E-03 0. -1.
         11   -1    0    0    0    0 -0.00000000000E+00 -0.00000000000E+00 -0.45593999997E+02  0.45594000000E+02  0.51100000000E-03 0.  1.
    9900012    2    1    2    0    0  0.12886997996E+02  0.25621665711E+02 -0.32574206571E+02  0.47787269535E+02  0.19999993117E+02 0.  0.
         12    1    1    2    0    0 -0.12886997996E+02 -0.25621665711E+02  0.32574206571E+02  0.43400730465E+02  0.00000000000E+00 0. -1.
         11    1    3    3    0    0  0.94118690773E+00  0.14986094448E+01  0.23515596371E+01  0.29430419724E+01  0.51100000000E-03 0. -1.
        -11    1    3    3    0    0  0.65225288359E+01  0.82331411404E+01 -0.18960206652E+02  0.21675272362E+02  0.51100000000E-03 0.  1.
         12    1    3    3    0    0  0.54232822521E+01  0.15889915126E+02 -0.15965559557E+02  0.23168955200E+02  0.00000000000E+00 0. -1.
</event>
<event>
 7    1  0.6622189E-010  0.4778727E+02  0.7816164E-02  0.1312668E+00
        -11   -1    0    0    0    0  0.00000000000E+00  0.00000000000E+00  0.45593999997E+02  0.45594000000E+02  0.51100000000E-03 0. -1.
         11   -1    0    0    0    0 -0.00000000000E+00 -0.00000000000E+00 -0.45593999997E+02  0.45594000000E+02  0.51100000000E-03 0.  1.
    9900012    2    1    2    0    0  0.83032781053E+01  0.17008940719E+01 -0.42565081869E+02  0.47787266568E+02  0.19999979589E+02 0.  0.
         12    1    1    2    0    0 -0.83032781053E+01 -0.17008940719E+01  0.42565081869E+02  0.43400733432E+02  0.00000000000E+00 0. -1.
         11    1    3    3    0    0  0.67474567434E+01 -0.16480123562E+01 -0.34845171138E+01  0.77708414607E+01  0.51100000000E-03 0. -1.
        -11    1    3    3    0    0 -0.31006340672E+01  0.14362125478E+01 -0.19618237618E+02  0.19913610562E+02  0.51100000000E-03 0.  1.
        -12    1    3    3    0    0  0.46564554292E+01  0.19126938804E+01 -0.19462327137E+02  0.20102814545E+02  0.00000000000E+00 0.  1.
</event>
<event>
 7    1  0.6622189E-010  0.4778727E+02  0.7816164E-02  0.1312668E+00
        -11   -1    0    0    0    0  0.00000000000E+00  0.00000000000E+00  0.45593999997E+02  0.45594000000E+02  0.51100000000E-03 0.  1.
         11   -1    0    0    0    0 -0.00000000000E+00 -0.00000000000E+00 -0.45593999997E+02  0.45594000000E+02  0.51100000000E-03 0. -1.
    9900012    2    1    2    0    0  0.19701765056E+02 -0.32099417971E+02  0.21565974102E+02  0.47787269368E+02  0.19999992357E+02 0.  0.
        -12    1    1    2    0    0 -0.19701765056E+02  0.32099417971E+02 -0.21565974102E+02  0.43400730632E+02  0.00000000000E+00 0.  1.
         11    1    3    3    0    0  0.15432303342E+02 -0.10444173760E+02  0.14636520508E+02  0.23695241818E+02  0.51100000000E-03 0. -1.
        -11    1    3    3    0    0 -0.18292997560E+01 -0.59480049902E+01  0.17542244295E+01  0.64654779074E+01  0.51100000000E-03 0.  1.
         12    1    3    3    0    0  0.60987614698E+01 -0.15707239220E+02  0.51752291652E+01  0.17626549643E+02  0.00000000000E+00 0. -1.
</event>
<event>
 7    1  0.6622189E-010  0.4778727E+02  0.7816164E-02  0.1312668E+00
        -11   -1    0    0    0    0  0.00000000000E+00  0.00000000000E+00  0.45593999997E+02  0.45594000000E+02  0.51100000000E-03 0. -1.
         11   -1    0    0    0    0 -0.00000000000E+00 -0.00000000000E+00 -0.45593999997E+02  0.45594000000E+02  0.51100000000E-03 0.  1.
    9900012    2    1    2    0    0 -0.74550663030E+01 -0.13402369290E+02  0.40600761616E+02  0.47787270052E+02  0.19999995476E+02 0.  0.
        -12    1    1    2    0    0  0.74550663030E+01  0.13402369290E+02 -0.40600761616E+02  0.43400729948E+02  0.00000000000E+00 0.  1.
         11    1    3    3    0    0 -0.39290520890E+00 -0.40844029987E+01  0.16049300462E+02  0.16565529510E+02  0.51100000000E-03 0. -1.
        -11    1    3    3    0    0 -0.29297165073E+00 -0.67092495310E-01 -0.21462355085E+01  0.21671780984E+01  0.51100000000E-03 0.  1.
        -12    1    3    3    0    0 -0.67691894433E+01 -0.92508737960E+01  0.26697696663E+02  0.29054562444E+02  0.00000000000E+00 0.  1.
</event>
<event>
 7    1  0.6622189E-010  0.4778727E+02  0.7816164E-02  0.1312668E+00
        -11   -1    0    0    0    0  0.00000000000E+00  0.00000000000E+00  0.45593999997E+02  0.45594000000E+02  0.51100000000E-03 0.  1.
         11   -1    0    0    0    0 -0.00000000000E+00 -0.00000000000E+00 -0.45593999997E+02  0.45594000000E+02  0.51100000000E-03 0. -1.
    9900012    2    1    2    0    0  0.16408083714E+02  0.40174195083E+02  0.65718253591E+00  0.47787273616E+02  0.20000011726E+02 0.  0.
        -12    1    1    2    0    0 -0.16408083714E+02 -0.40174195083E+02 -0.65718253591E+00  0.43400726384E+02  0.00000000000E+00 0.  1.
         11    1    3    3    0    0  0.40583508086E+01  0.31413289100E+02 -0.61330523260E+00  0.31680294931E+02  0.51100000000E-03 0. -1.
        -11    1    3    3    0    0  0.29709883677E+01  0.78580360619E+00 -0.16013769468E+01  0.34653524460E+01  0.51100000000E-03 0.  1.
         12    1    3    3    0    0  0.93787445377E+01  0.79751023773E+01  0.28718647153E+01  0.12641626239E+02  0.00000000000E+00 0. -1.
</event>
<event>
 7    1  0.6622189E-010  0.4778727E+02  0.7816164E-02  0.1312668E+00
        -11   -1    0    0    0    0  0.00000000000E+00  0.00000000000E+00  0.45593999997E+02  0.45594000000E+02  0.51100000000E-03 0. -1.
         11   -1    0    0    0    0 -0.00000000000E+00 -0.00000000000E+00 -0.45593999997E+02  0.45594000000E+02  0.51100000000E-03 0.  1.
    9900012    2    1    2    0    0 -0.22750398037E+02  0.23880077020E+02  0.28209652370E+02  0.47787272170E+02  0.20000005133E+02 0.  0.
        -12    1    1    2    0    0  0.22750398037E+02 -0.23880077020E+02 -0.28209652370E+02  0.43400727830E+02  0.00000000000E+00 0.  1.
         11    1    3    3    0    0 -0.62470896750E+01  0.14463674840E+02  0.16290028573E+02  0.22662503182E+02  0.51100000000E-03 0. -1.
        -11    1    3    3    0    0 -0.17713473699E+02  0.67366991443E+01  0.89949296687E+01  0.20977583890E+02  0.51100000000E-03 0.  1.
        -12    1    3    3    0    0  0.12101653370E+01  0.26797030361E+01  0.29246941275E+01  0.41471850988E+01  0.00000000000E+00 0.  1.
</event>
<event>
 7    1  0.6622189E-010  0.4778726E+02  0.7816164E-02  0.1312668E+00
        -11   -1    0    0    0    0  0.00000000000E+00  0.00000000000E+00  0.45593999997E+02  0.45594000000E+02  0.51100000000E-03 0. -1.
         11   -1    0    0    0    0 -0.00000000000E+00 -0.00000000000E+00 -0.45593999997E+02  0.45594000000E+02  0.51100000000E-03 0.  1.
    9900012    2    1    2    0    0  0.81270825412E+01  0.24637030194E+02 -0.34793550814E+02  0.47787263766E+02  0.19999966814E+02 0.  0.
         12    1    1    2    0    0 -0.81270825412E+01 -0.24637030194E+02  0.34793550814E+02  0.43400736234E+02  0.00000000000E+00 0. -1.
         11    1    3    3    0    0  0.16085590576E+01  0.17243212292E+02 -0.18767219249E+02  0.25536725534E+02  0.51100000000E-03 0.  1.
        -11    1    3    3    0    0 -0.30209885032E+00 -0.72219528542E+00  0.15431572235E+01  0.17303653439E+01  0.51100000000E-03 0. -1.
        -12    1    3    3    0    0  0.68206223339E+01  0.81160131880E+01 -0.17569488788E+02  0.20520172888E+02  0.00000000000E+00 0.  1.
</event>
<event>
 7    1  0.6622189E-010  0.4778727E+02  0.7816164E-02  0.1312668E+00
        -11   -1    0    0    0    0  0.00000000000E+00  0.00000000000E+00  0.45593999997E+02  0.45594000000E+02  0.51100000000E-03 0. -1.
         11   -1    0    0    0    0 -0.00000000000E+00 -0.00000000000E+00 -0.45593999997E+02  0.45594000000E+02  0.51100000000E-03 0.  1.
    9900012    2    1    2    0    0  0.66680994311E+00 -0.41336059073E+02  0.13210172282E+02  0.47787273429E+02  0.20000010874E+02 0.  0.
        -12    1    1    2    0    0 -0.66680994311E+00  0.41336059073E+02 -0.13210172282E+02  0.43400726571E+02  0.00000000000E+00 0.  1.
         11    1    3    3    0    0  0.47670797253E+01 -0.28299645306E+02  0.14267199364E+02  0.32049148998E+02  0.51100000000E-03 0. -1.
        -11    1    3    3    0    0 -0.46903283921E+01 -0.50037495694E+01 -0.29475782965E+01  0.74649118048E+01  0.51100000000E-03 0.  1.
        -12    1    3    3    0    0  0.59005860991E+00 -0.80326641972E+01  0.18905512137E+01  0.82732126263E+01  0.00000000000E+00 0.  1.
</event>
<event>
 7    1  0.6622189E-010  0.4778727E+02  0.7816164E-02  0.1312668E+00
        -11   -1    0    0    0    0  0.00000000000E+00  0.00000000000E+00  0.45593999997E+02  0.45594000000E+02  0.51100000000E-03 0. -1.
         11   -1    0    0    0    0 -0.00000000000E+00 -0.00000000000E+00 -0.45593999997E+02  0.45594000000E+02  0.51100000000E-03 0.  1.
    9900012    2    1    2    0    0 -0.23676503721E+02  0.35111735431E+02  0.94980258164E+01  0.47787270884E+02  0.19999999267E+02 0.  0.
        -12    1    1    2    0    0  0.23676503721E+02 -0.35111735431E+02 -0.94980258164E+01  0.43400729116E+02  0.00000000000E+00 0.  1.
         11    1    3    3    0    0 -0.12977586427E+02  0.10321345647E+02  0.65660133060E+01  0.17834249534E+02  0.51100000000E-03 0. -1.
        -11    1    3    3    0    0 -0.15903850556E+01  0.18536578866E+02  0.33145261298E+01  0.18897623248E+02  0.51100000000E-03 0.  1.
        -12    1    3    3    0    0 -0.91085322376E+01  0.62538109183E+01 -0.38251361942E+00  0.11055398102E+02  0.00000000000E+00 0.  1.
</event>
<event>
 7    1  0.6622189E-010  0.4778727E+02  0.7816164E-02  0.1312668E+00
        -11   -1    0    0    0    0  0.00000000000E+00  0.00000000000E+00  0.45593999997E+02  0.45594000000E+02  0.51100000000E-03 0. -1.
         11   -1    0    0    0    0 -0.00000000000E+00 -0.00000000000E+00 -0.45593999997E+02  0.45594000000E+02  0.51100000000E-03 0.  1.
    9900012    2    1    2    0    0  0.89055924935E+01 -0.19710221774E+02  0.37627396915E+02  0.47787269376E+02  0.19999992395E+02 0.  0.
        -12    1    1    2    0    0 -0.89055924935E+01  0.19710221774E+02 -0.37627396915E+02  0.43400730624E+02  0.00000000000E+00 0.  1.
         11    1    3    3    0    0  0.11895963136E+02 -0.47695597207E+01  0.17580937588E+02  0.21756654283E+02  0.51100000000E-03 0. -1.
        -11    1    3    3    0    0 -0.50396638340E+00 -0.12603266636E+02  0.12546418340E+02  0.17790697722E+02  0.51100000000E-03 0.  1.
        -12    1    3    3    0    0 -0.24864042591E+01 -0.23373954177E+01  0.75000409878E+01  0.82399173720E+01  0.00000000000E+00 0.  1.
</event>
<event>
 7    1  0.6622189E-010  0.4778732E+02  0.7816164E-02  0.1312668E+00
        -11   -1    0    0    0    0  0.00000000000E+00  0.00000000000E+00  0.45593999997E+02  0.45594000000E+02  0.51100000000E-03 0. -1.
         11   -1    0    0    0    0 -0.00000000000E+00 -0.00000000000E+00 -0.45593999997E+02  0.45594000000E+02  0.51100000000E-03 0.  1.
    9900012    2    1    2    0    0  0.18246316977E+02  0.17486252555E+02 -0.35283447942E+02  0.47787322467E+02  0.20000234456E+02 0.  0.
         12    1    1    2    0    0 -0.18246316977E+02 -0.17486252555E+02  0.35283447942E+02  0.43400677533E+02  0.00000000000E+00 0. -1.
         11    1    3    3    0    0  0.15447918819E+02  0.11442212870E+02 -0.14754531073E+02  0.24233419458E+02  0.51100000000E-03 0. -1.
        -11    1    3    3    0    0  0.41543079297E+01  0.20652588244E+01 -0.18129769596E+02  0.18713955067E+02  0.51100000000E-03 0.  1.
         12    1    3    3    0    0 -0.13559097715E+01  0.39787808608E+01 -0.23991472728E+01  0.48399479421E+01  0.00000000000E+00 0. -1.
</event>
<event>
 7    1  0.6622189E-010  0.4778727E+02  0.7816164E-02  0.1312668E+00
        -11   -1    0    0    0    0  0.00000000000E+00  0.00000000000E+00  0.45593999997E+02  0.45594000000E+02  0.51100000000E-03 0. -1.
         11   -1    0    0    0    0 -0.00000000000E+00 -0.00000000000E+00 -0.45593999997E+02  0.45594000000E+02  0.51100000000E-03 0.  1.
    9900012    2    1    2    0    0  0.23236597608E+02  0.12279497891E+02  0.34538353751E+02  0.47787269399E+02  0.19999992499E+02 0.  0.
        -12    1    1    2    0    0 -0.23236597608E+02 -0.12279497891E+02 -0.34538353751E+02  0.43400730601E+02  0.00000000000E+00 0.  1.
         11    1    3    3    0    0  0.15716009185E+02  0.76235133136E+01  0.31676040141E+02  0.36172951486E+02  0.51100000000E-03 0. -1.
        -11    1    3    3    0    0  0.10329254687E+01  0.40826825467E+00 -0.21226743482E+01  0.23956971096E+01  0.51100000000E-03 0.  1.
        -12    1    3    3    0    0  0.64876629551E+01  0.42477163231E+01  0.49849879572E+01  0.92186208032E+01  0.00000000000E+00 0.  1.
</event>
<event>
 7    1  0.6622189E-010  0.4778727E+02  0.7816164E-02  0.1312668E+00
        -11   -1    0    0    0    0  0.00000000000E+00  0.00000000000E+00  0.45593999997E+02  0.45594000000E+02  0.51100000000E-03 0. -1.
         11   -1    0    0    0    0 -0.00000000000E+00 -0.00000000000E+00 -0.45593999997E+02  0.45594000000E+02  0.51100000000E-03 0.  1.
    9900012    2    1    2    0    0  0.18630892615E+02 -0.10487224886E+02 -0.37769447646E+02  0.47787271654E+02  0.20000002781E+02 0.  0.
         12    1    1    2    0    0 -0.18630892615E+02  0.10487224886E+02  0.37769447646E+02  0.43400728346E+02  0.00000000000E+00 0. -1.
         11    1    3    3    0    0  0.17025983509E+02 -0.66998310650E+01 -0.26956981487E+02  0.32579912552E+02  0.51100000000E-03 0. -1.
        -11    1    3    3    0    0 -0.15542681680E+01 -0.47647705036E+01 -0.10793542863E+02  0.11900393073E+02  0.51100000000E-03 0.  1.
         12    1    3    3    0    0  0.31591772738E+01  0.97737668232E+00 -0.18923295718E-01  0.33069660291E+01  0.00000000000E+00 0. -1.
</event>
<event>
 7    1  0.6622189E-010  0.4778726E+02  0.7816164E-02  0.1312668E+00
        -11   -1    0    0    0    0  0.00000000000E+00  0.00000000000E+00  0.45593999997E+02  0.45594000000E+02  0.51100000000E-03 0. -1.
         11   -1    0    0    0    0 -0.00000000000E+00 -0.00000000000E+00 -0.45593999997E+02  0.45594000000E+02  0.51100000000E-03 0.  1.
    9900012    2    1    2    0    0 -0.14583030881E+02 -0.19157557401E+02  0.36110207488E+02  0.47787264060E+02  0.19999968156E+02 0.  0.
        -12    1    1    2    0    0  0.14583030881E+02  0.19157557401E+02 -0.36110207488E+02  0.43400735940E+02  0.00000000000E+00 0.  1.
         11    1    3    3    0    0  0.39813703151E+00 -0.29204637988E+01  0.29524955225E+01  0.41719122674E+01  0.51100000000E-03 0. -1.
        -11    1    3    3    0    0 -0.96138153021E+01 -0.19688597435E+02  0.24645109596E+02  0.32976472535E+02  0.51100000000E-03 0.  1.
        -12    1    3    3    0    0 -0.53673526105E+01  0.34515038322E+01  0.85126023701E+01  0.10638879258E+02  0.00000000000E+00 0.  1.
</event>
<event>
 7    1  0.6622189E-010  0.4778727E+02  0.7816164E-02  0.1312668E+00
        -11   -1    0    0    0    0  0.00000000000E+00  0.00000000000E+00  0.45593999997E+02  0.45594000000E+02  0.51100000000E-03 0. -1.
         11   -1    0    0    0    0 -0.00000000000E+00 -0.00000000000E+00 -0.45593999997E+02  0.45594000000E+02  0.51100000000E-03 0.  1.
    9900012    2    1    2    0    0  0.66262240410E+01  0.26278665476E+02  0.33899087680E+02  0.47787271322E+02  0.20000001265E+02 0.  0.
        -12    1    1    2    0    0 -0.66262240410E+01 -0.26278665476E+02 -0.33899087680E+02  0.43400728678E+02  0.00000000000E+00 0.  1.
         11    1    3    3    0    0  0.80817184258E+01  0.22653333847E+02  0.21978195812E+02  0.32581111069E+02  0.51100000000E-03 0. -1.
        -11    1    3    3    0    0  0.31866356319E+00 -0.27760243630E+01  0.33451618951E+01  0.43586656325E+01  0.51100000000E-03 0.  1.
         12    1    3    3    0    0 -0.17741579481E+01  0.64013559923E+01  0.85757299732E+01  0.10847494620E+02  0.00000000000E+00 0. -1.
</event>
<event>
 7    1  0.6622189E-010  0.4778727E+02  0.7816164E-02  0.1312668E+00
        -11   -1    0    0    0    0  0.00000000000E+00  0.00000000000E+00  0.45593999997E+02  0.45594000000E+02  0.51100000000E-03 0. -1.
         11   -1    0    0    0    0 -0.00000000000E+00 -0.00000000000E+00 -0.45593999997E+02  0.45594000000E+02  0.51100000000E-03 0.  1.
    9900012    2    1    2    0    0 -0.35662009273E+02 -0.16998496101E+02  0.17969295873E+02  0.47787269946E+02  0.19999994990E+02 0.  0.
        -12    1    1    2    0    0  0.35662009273E+02  0.16998496101E+02 -0.17969295873E+02  0.43400730054E+02  0.00000000000E+00 0.  1.
         11    1    3    3    0    0 -0.20248193473E+02 -0.14428866484E+02  0.15822620575E+02  0.29470949239E+02  0.51100000000E-03 0. -1.
        -11    1    3    3    0    0  0.18756144700E+00  0.17040154073E+01 -0.77009427024E+00  0.18793331932E+01  0.51100000000E-03 0.  1.
        -12    1    3    3    0    0 -0.15601377247E+02 -0.42736450242E+01  0.29167695683E+01  0.16436987514E+02  0.00000000000E+00 0.  1.
</event>
<event>
 7    1  0.6622189E-010  0.4778726E+02  0.7816164E-02  0.1312668E+00
        -11   -1    0    0    0    0  0.00000000000E+00  0.00000000000E+00  0.45593999997E+02  0.45594000000E+02  0.51100000000E-03 0. -1.
         11   -1    0    0    0    0 -0.00000000000E+00 -0.00000000000E+00 -0.45593999997E+02  0.45594000000E+02  0.51100000000E-03 0.  1.
    9900012    2    1    2    0    0 -0.14668118916E+02 -0.30067604806E+02  0.27647953056E+02  0.47787264067E+02  0.19999968188E+02 0.  0.
        -12    1    1    2    0    0  0.14668118916E+02  0.30067604806E+02 -0.27647953056E+02  0.43400735933E+02  0.00000000000E+00 0.  1.
         11    1    3    3    0    0  0.16880546816E+01 -0.81956974382E+01  0.58753292449E+00  0.83883359676E+01  0.51100000000E-03 0. -1.
        -11    1    3    3    0    0 -0.12372878938E+01 -0.70278336781E+00  0.52883235034E+01  0.54764177646E+01  0.51100000000E-03 0.  1.
         12    1    3    3    0    0 -0.15118885704E+02 -0.21169124000E+02  0.21772096628E+02  0.33922510335E+02  0.00000000000E+00 0. -1.
</event>
<event>
 7    1  0.6622189E-010  0.4778727E+02  0.7816164E-02  0.1312668E+00
        -11   -1    0    0    0    0  0.00000000000E+00  0.00000000000E+00  0.45593999997E+02  0.45594000000E+02  0.51100000000E-03 0. -1.
         11   -1    0    0    0    0 -0.00000000000E+00 -0.00000000000E+00 -0.45593999997E+02  0.45594000000E+02  0.51100000000E-03 0.  1.
    9900012    2    1    2    0    0  0.37249669901E+02  0.13364387828E+02  0.17817924319E+02  0.47787271932E+02  0.20000004048E+02 0.  0.
        -12    1    1    2    0    0 -0.37249669901E+02 -0.13364387828E+02 -0.17817924319E+02  0.43400728068E+02  0.00000000000E+00 0.  1.
         11    1    3    3    0    0  0.29664096848E+02  0.11965094827E+02  0.14368158937E+02  0.35065169720E+02  0.51100000000E-03 0. -1.
        -11    1    3    3    0    0  0.73692964844E+01 -0.25068280893E+01  0.40330281848E+01  0.87667573449E+01  0.51100000000E-03 0.  1.
         12    1    3    3    0    0  0.21627656903E+00  0.39061210899E+01 -0.58326280207E+00  0.39553448673E+01  0.00000000000E+00 0. -1.
</event>
<event>
 7    1  0.6622189E-010  0.4778727E+02  0.7816164E-02  0.1312668E+00
        -11   -1    0    0    0    0  0.00000000000E+00  0.00000000000E+00  0.45593999997E+02  0.45594000000E+02  0.51100000000E-03 0. -1.
         11   -1    0    0    0    0 -0.00000000000E+00 -0.00000000000E+00 -0.45593999997E+02  0.45594000000E+02  0.51100000000E-03 0.  1.
    9900012    2    1    2    0    0 -0.15536758891E+01  0.15501387483E+02  0.40508223304E+02  0.47787273302E+02  0.20000010294E+02 0.  0.
        -12    1    1    2    0    0  0.15536758891E+01 -0.15501387483E+02 -0.40508223304E+02  0.43400726698E+02  0.00000000000E+00 0.  1.
         11    1    3    3    0    0 -0.27047470715E+01  0.30226638289E+01  0.40654418171E+01  0.57428190615E+01  0.51100000000E-03 0. -1.
        -11    1    3    3    0    0 -0.52636106076E+00  0.90711414844E+01  0.49963390134E+01  0.10369477692E+02  0.51100000000E-03 0.  1.
        -12    1    3    3    0    0  0.16774322431E+01  0.34075821697E+01  0.31446442473E+02  0.31674976549E+02  0.00000000000E+00 0.  1.
</event>
<event>
 7    1  0.6622189E-010  0.4778727E+02  0.7816164E-02  0.1312668E+00
        -11   -1    0    0    0    0  0.00000000000E+00  0.00000000000E+00  0.45593999997E+02  0.45594000000E+02  0.51100000000E-03 0. -1.
         11   -1    0    0    0    0 -0.00000000000E+00 -0.00000000000E+00 -0.45593999997E+02  0.45594000000E+02  0.51100000000E-03 0.  1.
    9900012    2    1    2    0    0  0.31168738342E+02  0.26111434855E+02  0.15176511971E+02  0.47787265034E+02  0.19999972595E+02 0.  0.
        -12    1    1    2    0    0 -0.31168738342E+02 -0.26111434855E+02 -0.15176511971E+02  0.43400734966E+02  0.00000000000E+00 0.  1.
         11    1    3    3    0    0  0.36298290548E+01  0.29443762666E+01  0.20405753654E+01  0.50998979058E+01  0.51100000000E-03 0. -1.
        -11    1    3    3    0    0  0.13821929641E+02  0.16423606528E+00  0.49414756721E+01  0.14679608121E+02  0.51100000000E-03 0.  1.
        -12    1    3    3    0    0  0.13716979646E+02  0.23002822523E+02  0.81944609330E+01  0.28007759007E+02  0.00000000000E+00 0.  1.
</event>
<event>
 7    1  0.6622189E-010  0.4778727E+02  0.7816164E-02  0.1312668E+00
        -11   -1    0    0    0    0  0.00000000000E+00  0.00000000000E+00  0.45593999997E+02  0.45594000000E+02  0.51100000000E-03 0. -1.
         11   -1    0    0    0    0 -0.00000000000E+00 -0.00000000000E+00 -0.45593999997E+02  0.45594000000E+02  0.51100000000E-03 0.  1.
    9900012    2    1    2    0    0 -0.17435781360E+02 -0.53561711888E+01 -0.39381825561E+02  0.47787271597E+02  0.20000002519E+02 0.  0.
         12    1    1    2    0    0  0.17435781360E+02  0.53561711888E+01  0.39381825561E+02  0.43400728403E+02  0.00000000000E+00 0. -1.
         11    1    3    3    0    0 -0.51774214028E+01 -0.40948550751E+01 -0.28911448528E+02  0.29655444470E+02  0.51100000000E-03 0.  1.
        -11    1    3    3    0    0 -0.11124592701E+02 -0.37456760225E+01 -0.68289297397E+01  0.13580166910E+02  0.51100000000E-03 0. -1.
        -12    1    3    3    0    0 -0.11337672557E+01  0.24843599088E+01 -0.36414472924E+01  0.45516602169E+01  0.00000000000E+00 0.  1.
</event>
<event>
 7    1  0.7292381E-010  0.4778727E+02  0.7816164E-02  0.1312668E+00
        -11   -1    0    0    0    0  0.00000000000E+00  0.00000000000E+00  0.45593999997E+02  0.45594000000E+02  0.51100000000E-03 0. -1.
         11   -1    0    0    0    0 -0.00000000000E+00 -0.00000000000E+00 -0.45593999997E+02  0.45594000000E+02  0.51100000000E-03 0.  1.
    9900012    2    1    2    0    0  0.48494442008E+01  0.25564278708E+02 -0.34735773048E+02  0.47787269774E+02  0.19999994207E+02 0.  0.
         12    1    1    2    0    0 -0.48494442008E+01 -0.25564278708E+02  0.34735773048E+02  0.43400730226E+02  0.00000000000E+00 0. -1.
         11    1    3    3    0    0 -0.21786719908E+01 -0.69856074513E-03  0.52896899978E+00  0.22419680184E+01  0.51100000000E-03 0. -1.
        -11    1    3    3    0    0  0.74960734735E+01  0.19715065728E+02 -0.33181788550E+02  0.39318011468E+02  0.51100000000E-03 0.  1.
        -12    1    3    3    0    0 -0.46795728195E+00  0.58499115402E+01 -0.20829534985E+01  0.62272902873E+01  0.00000000000E+00 0.  1.
</event>
<event>
 7    1  0.7031099E-010  0.4778725E+02  0.7816164E-02  0.1312668E+00
        -11   -1    0    0    0    0  0.00000000000E+00  0.00000000000E+00  0.45593999997E+02  0.45594000000E+02  0.51100000000E-03 0. -1.
         11   -1    0    0    0    0 -0.00000000000E+00 -0.00000000000E+00 -0.45593999997E+02  0.45594000000E+02  0.51100000000E-03 0.  1.
    9900012    2    1    2    0    0  0.34390977837E+02 -0.13369498692E+02 -0.22850423761E+02  0.47787254408E+02  0.19999924150E+02 0.  0.
         12    1    1    2    0    0 -0.34390977837E+02  0.13369498692E+02  0.22850423761E+02  0.43400745592E+02  0.00000000000E+00 0. -1.
         11    1    3    3    0    0  0.61850460429E+01  0.19064658021E+01 -0.17769918406E+00  0.64746415861E+01  0.51100000000E-03 0. -1.
        -11    1    3    3    0    0  0.29393902461E+02 -0.13957842557E+02 -0.20310078846E+02  0.38357817635E+02  0.51100000000E-03 0.  1.
        -12    1    3    3    0    0 -0.11879706672E+01 -0.13181219372E+01 -0.23626457313E+01  0.29547951873E+01  0.00000000000E+00 0.  1.
</event>
<event>
 7    1  0.6622189E-010  0.4778727E+02  0.7816164E-02  0.1312668E+00
        -11   -1    0    0    0    0  0.00000000000E+00  0.00000000000E+00  0.45593999997E+02  0.45594000000E+02  0.51100000000E-03 0. -1.
         11   -1    0    0    0    0 -0.00000000000E+00 -0.00000000000E+00 -0.45593999997E+02  0.45594000000E+02  0.51100000000E-03 0.  1.
    9900012    2    1    2    0    0  0.33442097582E+02 -0.24710687001E+02 -0.12435085409E+02  0.47787270837E+02  0.19999999052E+02 0.  0.
         12    1    1    2    0    0 -0.33442097582E+02  0.24710687001E+02  0.12435085409E+02  0.43400729163E+02  0.00000000000E+00 0. -1.
         11    1    3    3    0    0 -0.92827660771E+00 -0.15749870610E+01  0.16485911284E+01  0.24617340784E+01  0.51100000000E-03 0. -1.
        -11    1    3    3    0    0  0.52558833856E+01 -0.83265271735E+01 -0.24248595538E+00  0.98495768759E+01  0.51100000000E-03 0.  1.
         12    1    3    3    0    0  0.29114490804E+02 -0.14809172767E+02 -0.13841190582E+02  0.35475959882E+02  0.00000000000E+00 0. -1.
</event>
<event>
 7    1  0.6622189E-010  0.4778726E+02  0.7816164E-02  0.1312668E+00
        -11   -1    0    0    0    0  0.00000000000E+00  0.00000000000E+00  0.45593999997E+02  0.45594000000E+02  0.51100000000E-03 0. -1.
         11   -1    0    0    0    0 -0.00000000000E+00 -0.00000000000E+00 -0.45593999997E+02  0.45594000000E+02  0.51100000000E-03 0.  1.
    9900012    2    1    2    0    0  0.27930597700E+02 -0.32426324073E+02  0.72138389382E+01  0.47787259765E+02  0.19999948571E+02 0.  0.
        -12    1    1    2    0    0 -0.27930597700E+02  0.32426324073E+02 -0.72138389382E+01  0.43400740235E+02  0.00000000000E+00 0.  1.
         11    1    3    3    0    0  0.16442684698E+02 -0.10301864176E+02  0.90469740274E+00  0.19424437269E+02  0.51100000000E-03 0. -1.
        -11    1    3    3    0    0  0.44066921692E+01 -0.19204269961E+02  0.26729802774E+01  0.19883856377E+02  0.51100000000E-03 0.  1.
        -12    1    3    3    0    0  0.70812208328E+01 -0.29201899366E+01  0.36361612581E+01  0.84789661188E+01  0.00000000000E+00 0.  1.
</event>
<event>
 7    1  0.6622189E-010  0.4778727E+02  0.7816164E-02  0.1312668E+00
        -11   -1    0    0    0    0  0.00000000000E+00  0.00000000000E+00  0.45593999997E+02  0.45594000000E+02  0.51100000000E-03 0. -1.
         11   -1    0    0    0    0 -0.00000000000E+00 -0.00000000000E+00 -0.45593999997E+02  0.45594000000E+02  0.51100000000E-03 0.  1.
    9900012    2    1    2    0    0  0.57561072841E+01 -0.26911437653E+02 -0.33559873524E+02  0.47787270069E+02  0.19999995553E+02 0.  0.
         12    1    1    2    0    0 -0.57561072841E+01  0.26911437653E+02  0.33559873524E+02  0.43400729931E+02  0.00000000000E+00 0. -1.
         11    1    3    3    0    0 -0.55562423319E+01 -0.80986649266E+01 -0.14149700728E+02  0.17224233899E+02  0.51100000000E-03 0. -1.
        -11    1    3    3    0    0 -0.12622852333E+01 -0.86103132453E+00 -0.47870484972E+00  0.16012175200E+01  0.51100000000E-03 0.  1.
         12    1    3    3    0    0  0.12574634849E+02 -0.17951741402E+02 -0.18931467946E+02  0.28961818651E+02  0.00000000000E+00 0. -1.
</event>
<event>
 7    1  0.6622189E-010  0.4778725E+02  0.7816164E-02  0.1312668E+00
        -11   -1    0    0    0    0  0.00000000000E+00  0.00000000000E+00  0.45593999997E+02  0.45594000000E+02  0.51100000000E-03 0. -1.
         11   -1    0    0    0    0 -0.00000000000E+00 -0.00000000000E+00 -0.45593999997E+02  0.45594000000E+02  0.51100000000E-03 0.  1.
    9900012    2    1    2    0    0 -0.25284386745E+02 -0.28006956444E+02  0.21446097976E+02  0.47787251841E+02  0.19999912446E+02 0.  0.
        -12    1    1    2    0    0  0.25284386745E+02  0.28006956444E+02 -0.21446097976E+02  0.43400748159E+02  0.00000000000E+00 0.  1.
         11    1    3    3    0    0 -0.52754247374E+01 -0.34568526913E+01  0.20769730139E+01  0.66403127826E+01  0.51100000000E-03 0. -1.
        -11    1    3    3    0    0 -0.27982004881E+01 -0.25077774761E+01 -0.34130119118E+01  0.50761722205E+01  0.51100000000E-03 0.  1.
        -12    1    3    3    0    0 -0.17210761519E+02 -0.22042326277E+02  0.22782136874E+02  0.36070766838E+02  0.00000000000E+00 0.  1.
</event>
<event>
 7    1  0.6622189E-010  0.4778726E+02  0.7816164E-02  0.1312668E+00
        -11   -1    0    0    0    0  0.00000000000E+00  0.00000000000E+00  0.45593999997E+02  0.45594000000E+02  0.51100000000E-03 0. -1.
         11   -1    0    0    0    0 -0.00000000000E+00 -0.00000000000E+00 -0.45593999997E+02  0.45594000000E+02  0.51100000000E-03 0.  1.
    9900012    2    1    2    0    0 -0.27397014414E+02 -0.77974352043E+01 -0.32744894742E+02  0.47787256617E+02  0.19999934218E+02 0.  0.
         12    1    1    2    0    0  0.27397014414E+02  0.77974352043E+01  0.32744894742E+02  0.43400743383E+02  0.00000000000E+00 0. -1.
         11    1    3    3    0    0 -0.23504530251E+02 -0.14550184293E+01 -0.19376093662E+02  0.30496114946E+02  0.51100000000E-03 0. -1.
        -11    1    3    3    0    0 -0.56546485898E+01 -0.35480440627E+01 -0.51437662490E+01  0.84274550625E+01  0.51100000000E-03 0.  1.
         12    1    3    3    0    0  0.17621644268E+01 -0.27943727124E+01 -0.82250348307E+01  0.88636866082E+01  0.00000000000E+00 0. -1.
</event>
<event>
 7    1  0.6622189E-010  0.4778727E+02  0.7816164E-02  0.1312668E+00
        -11   -1    0    0    0    0  0.00000000000E+00  0.00000000000E+00  0.45593999997E+02  0.45594000000E+02  0.51100000000E-03 0. -1.
         11   -1    0    0    0    0 -0.00000000000E+00 -0.00000000000E+00 -0.45593999997E+02  0.45594000000E+02  0.51100000000E-03 0.  1.
    9900012    2    1    2    0    0  0.13228485000E+02  0.41117863540E+02 -0.42369502032E+01  0.47787271152E+02  0.20000000492E+02 0.  0.
         12    1    1    2    0    0 -0.13228485000E+02 -0.41117863540E+02  0.42369502032E+01  0.43400728848E+02  0.00000000000E+00 0. -1.
         11    1    3    3    0    0  0.28980418656E+01  0.11085830131E+02 -0.69742482244E+01  0.13413963430E+02  0.51100000000E-03 0. -1.
        -11    1    3    3    0    0  0.34915665880E+01  0.12746733384E+02  0.74835247651E+01  0.15187935751E+02  0.51100000000E-03 0.  1.
        -12    1    3    3    0    0  0.68388765465E+01  0.17285300026E+02 -0.47462267439E+01  0.19185371972E+02  0.00000000000E+00 0.  1.
</event>
<event>
 7    1  0.6622189E-010  0.4778727E+02  0.7816164E-02  0.1312668E+00
        -11   -1    0    0    0    0  0.00000000000E+00  0.00000000000E+00  0.45593999997E+02  0.45594000000E+02  0.51100000000E-03 0. -1.
         11   -1    0    0    0    0 -0.00000000000E+00 -0.00000000000E+00 -0.45593999997E+02  0.45594000000E+02  0.51100000000E-03 0.  1.
    9900012    2    1    2    0    0 -0.29549660965E+01  0.15504207754E+02  0.40429088612E+02  0.47787268570E+02  0.19999988717E+02 0.  0.
        -12    1    1    2    0    0  0.29549660965E+01 -0.15504207754E+02 -0.40429088612E+02  0.43400731430E+02  0.00000000000E+00 0.  1.
         11    1    3    3    0    0 -0.44918990647E+01  0.71692273977E+01  0.21740528596E+02  0.23328642537E+02  0.51100000000E-03 0.  1.
        -11    1    3    3    0    0  0.59652607229E+01  0.85830292412E+01  0.89615821417E+01  0.13768176393E+02  0.51100000000E-03 0. -1.
         12    1    3    3    0    0 -0.44283277547E+01 -0.24804888492E+00  0.97269778736E+01  0.10690449640E+02  0.00000000000E+00 0. -1.
</event>
<event>
 7    1  0.6622189E-010  0.4778727E+02  0.7816164E-02  0.1312668E+00
        -11   -1    0    0    0    0  0.00000000000E+00  0.00000000000E+00  0.45593999997E+02  0.45594000000E+02  0.51100000000E-03 0. -1.
         11   -1    0    0    0    0 -0.00000000000E+00 -0.00000000000E+00 -0.45593999997E+02  0.45594000000E+02  0.51100000000E-03 0.  1.
    9900012    2    1    2    0    0  0.14385538530E+02 -0.27173346712E+02 -0.30631497987E+02  0.47787272365E+02  0.20000006020E+02 0.  0.
         12    1    1    2    0    0 -0.14385538530E+02  0.27173346712E+02  0.30631497987E+02  0.43400727635E+02  0.00000000000E+00 0. -1.
         11    1    3    3    0    0 -0.17921951912E+01 -0.10864742016E+02 -0.14736908008E+02  0.18396495334E+02  0.51100000000E-03 0. -1.
        -11    1    3    3    0    0  0.13616906073E+02 -0.12832754117E+02 -0.16603638529E+02  0.25015605568E+02  0.51100000000E-03 0.  1.
         12    1    3    3    0    0  0.25608276481E+01 -0.34758505791E+01  0.70904854961E+00  0.43751714637E+01  0.00000000000E+00 0. -1.
</event>
<event>
 7    1  0.6622189E-010  0.4778729E+02  0.7816164E-02  0.1312668E+00
        -11   -1    0    0    0    0  0.00000000000E+00  0.00000000000E+00  0.45593999997E+02  0.45594000000E+02  0.51100000000E-03 0. -1.
         11   -1    0    0    0    0 -0.00000000000E+00 -0.00000000000E+00 -0.45593999997E+02  0.45594000000E+02  0.51100000000E-03 0.  1.
    9900012    2    1    2    0    0  0.17730104227E+02  0.54974585965E+01  0.39230640743E+02  0.47787287794E+02  0.20000076368E+02 0.  0.
        -12    1    1    2    0    0 -0.17730104227E+02 -0.54974585965E+01 -0.39230640743E+02  0.43400712206E+02  0.00000000000E+00 0.  1.
         11    1    3    3    0    0  0.35616216795E+01  0.24200507620E+01  0.65886986681E+01  0.78710066115E+01  0.51100000000E-03 0. -1.
        -11    1    3    3    0    0  0.10611139283E+02  0.10307610346E+02  0.19109286230E+02  0.24166255987E+02  0.51100000000E-03 0.  1.
        -12    1    3    3    0    0  0.35573432639E+01 -0.72302025117E+01  0.13532655845E+02  0.15750025196E+02  0.00000000000E+00 0.  1.
</event>
<event>
 7    1  0.6622189E-010  0.4778727E+02  0.7816164E-02  0.1312668E+00
        -11   -1    0    0    0    0  0.00000000000E+00  0.00000000000E+00  0.45593999997E+02  0.45594000000E+02  0.51100000000E-03 0.  1.
         11   -1    0    0    0    0 -0.00000000000E+00 -0.00000000000E+00 -0.45593999997E+02  0.45594000000E+02  0.51100000000E-03 0. -1.
    9900012    2    1    2    0    0  0.41713561707E+02  0.11697682753E+02 -0.26012342898E+01  0.47787269223E+02  0.19999991697E+02 0.  0.
        -12    1    1    2    0    0 -0.41713561707E+02 -0.11697682753E+02  0.26012342898E+01  0.43400730777E+02  0.00000000000E+00 0.  1.
         11    1    3    3    0    0  0.82122610683E+01  0.58505206585E+01  0.17416600835E+01  0.10232458353E+02  0.51100000000E-03 0. -1.
        -11    1    3    3    0    0  0.22750688515E+01  0.16913517351E+01 -0.53308499421E+01  0.60377620306E+01  0.51100000000E-03 0.  1.
        -12    1    3    3    0    0  0.31226231788E+02  0.41558103592E+01  0.98795556884E+00  0.31517048840E+02  0.00000000000E+00 0.  1.
</event>
<event>
 7    1  0.6622189E-010  0.4778727E+02  0.7816164E-02  0.1312668E+00
        -11   -1    0    0    0    0  0.00000000000E+00  0.00000000000E+00  0.45593999997E+02  0.45594000000E+02  0.51100000000E-03 0. -1.
         11   -1    0    0    0    0 -0.00000000000E+00 -0.00000000000E+00 -0.45593999997E+02  0.45594000000E+02  0.51100000000E-03 0.  1.
    9900012    2    1    2    0    0 -0.18844121147E+01  0.38255397343E+02 -0.20410696029E+02  0.47787274807E+02  0.20000017154E+02 0.  0.
         12    1    1    2    0    0  0.18844121147E+01 -0.38255397343E+02  0.20410696029E+02  0.43400725193E+02  0.00000000000E+00 0. -1.
         11    1    3    3    0    0 -0.11084748846E+00  0.86101788788E+00  0.46563636952E+00  0.98511748471E+00  0.51100000000E-03 0. -1.
        -11    1    3    3    0    0 -0.19136374553E+00 -0.18366946466E+01 -0.33066395323E+01  0.37873384541E+01  0.51100000000E-03 0.  1.
        -12    1    3    3    0    0 -0.15822008807E+01  0.39231074102E+02 -0.17569692866E+02  0.43014818868E+02  0.00000000000E+00 0.  1.
</event>
<event>
 7    1  0.6622189E-010  0.4778728E+02  0.7816164E-02  0.1312668E+00
        -11   -1    0    0    0    0  0.00000000000E+00  0.00000000000E+00  0.45593999997E+02  0.45594000000E+02  0.51100000000E-03 0. -1.
         11   -1    0    0    0    0 -0.00000000000E+00 -0.00000000000E+00 -0.45593999997E+02  0.45594000000E+02  0.51100000000E-03 0.  1.
    9900012    2    1    2    0    0  0.19985677063E+02  0.36926104829E+02  0.10984459521E+02  0.47787275853E+02  0.20000021923E+02 0.  0.
        -12    1    1    2    0    0 -0.19985677063E+02 -0.36926104829E+02 -0.10984459521E+02  0.43400724147E+02  0.00000000000E+00 0.  1.
         11    1    3    3    0    0  0.12239896560E+02  0.20573215095E+02  0.62120481210E+01  0.24731797130E+02  0.51100000000E-03 0. -1.
        -11    1    3    3    0    0 -0.26117950983E+01 -0.24222950920E+00  0.19986042812E+01  0.32976610051E+01  0.51100000000E-03 0.  1.
        -12    1    3    3    0    0  0.10357575601E+02  0.16595119243E+02  0.27738071187E+01  0.19757817718E+02  0.00000000000E+00 0.  1.
</event>
<event>
 7    1  0.6622189E-010  0.4778727E+02  0.7816164E-02  0.1312668E+00
        -11   -1    0    0    0    0  0.00000000000E+00  0.00000000000E+00  0.45593999997E+02  0.45594000000E+02  0.51100000000E-03 0. -1.
         11   -1    0    0    0    0 -0.00000000000E+00 -0.00000000000E+00 -0.45593999997E+02  0.45594000000E+02  0.51100000000E-03 0.  1.
    9900012    2    1    2    0    0  0.13688473040E+02 -0.57863521818E+01 -0.40777041301E+02  0.47787271170E+02  0.20000000571E+02 0.  0.
         12    1    1    2    0    0 -0.13688473040E+02  0.57863521818E+01  0.40777041301E+02  0.43400728830E+02  0.00000000000E+00 0. -1.
         11    1    3    3    0    0  0.48334408922E+01  0.11453055060E+01 -0.19594395166E+02  0.20214207819E+02  0.51100000000E-03 0. -1.
        -11    1    3    3    0    0 -0.18266775648E+01  0.55560623198E+00  0.75255652066E+00  0.20522647950E+01  0.51100000000E-03 0.  1.
        -12    1    3    3    0    0  0.10681709713E+02 -0.74872639198E+01 -0.21935202655E+02  0.25520798556E+02  0.00000000000E+00 0.  1.
</event>
<event>
 7    1  0.6622189E-010  0.4778727E+02  0.7816164E-02  0.1312668E+00
        -11   -1    0    0    0    0  0.00000000000E+00  0.00000000000E+00  0.45593999997E+02  0.45594000000E+02  0.51100000000E-03 0. -1.
         11   -1    0    0    0    0 -0.00000000000E+00 -0.00000000000E+00 -0.45593999997E+02  0.45594000000E+02  0.51100000000E-03 0.  1.
    9900012    2    1    2    0    0 -0.28133915998E+02  0.72278929368E+01 -0.32246915819E+02  0.47787271371E+02  0.20000001488E+02 0.  0.
         12    1    1    2    0    0  0.28133915998E+02 -0.72278929368E+01  0.32246915819E+02  0.43400728629E+02  0.00000000000E+00 0. -1.
         11    1    3    3    0    0 -0.83269478745E+01  0.50404757722E+01 -0.36765121087E+01  0.10404864173E+02  0.51100000000E-03 0. -1.
        -11    1    3    3    0    0 -0.81700675614E+01 -0.56786345605E+01 -0.10097202912E+02  0.14175697561E+02  0.51100000000E-03 0.  1.
         12    1    3    3    0    0 -0.11636900562E+02  0.78660517250E+01 -0.18473200798E+02  0.23206709637E+02  0.00000000000E+00 0. -1.
</event>
<event>
 7    1  0.6622189E-010  0.4778727E+02  0.7816164E-02  0.1312668E+00
        -11   -1    0    0    0    0  0.00000000000E+00  0.00000000000E+00  0.45593999997E+02  0.45594000000E+02  0.51100000000E-03 0. -1.
         11   -1    0    0    0    0 -0.00000000000E+00 -0.00000000000E+00 -0.45593999997E+02  0.45594000000E+02  0.51100000000E-03 0.  1.
    9900012    2    1    2    0    0  0.16357094725E+02  0.48194508700E+01  0.39910418659E+02  0.47787272217E+02  0.20000005345E+02 0.  0.
        -12    1    1    2    0    0 -0.16357094725E+02 -0.48194508700E+01 -0.39910418659E+02  0.43400727783E+02  0.00000000000E+00 0.  1.
         11    1    3    3    0    0  0.10868724202E+02  0.35905703191E+01  0.27326595764E+02  0.29627085535E+02  0.51100000000E-03 0. -1.
        -11    1    3    3    0    0 -0.34862963145E+00  0.26541233141E+01 -0.13412373623E+01  0.29941327809E+01  0.51100000000E-03 0.  1.
        -12    1    3    3    0    0  0.58370001550E+01 -0.14252427632E+01  0.13925060258E+02  0.15166053901E+02  0.00000000000E+00 0.  1.
</event>
<event>
 7    1  0.8085600E-010  0.4778727E+02  0.7816164E-02  0.1312668E+00
        -11   -1    0    0    0    0  0.00000000000E+00  0.00000000000E+00  0.45593999997E+02  0.45594000000E+02  0.51100000000E-03 0. -1.
         11   -1    0    0    0    0 -0.00000000000E+00 -0.00000000000E+00 -0.45593999997E+02  0.45594000000E+02  0.51100000000E-03 0.  1.
    9900012    2    1    2    0    0  0.20888697086E+02 -0.13472889493E+02 -0.35577615236E+02  0.47787272781E+02  0.20000007918E+02 0.  0.
         12    1    1    2    0    0 -0.20888697086E+02  0.13472889493E+02  0.35577615236E+02  0.43400727219E+02  0.00000000000E+00 0. -1.
         11    1    3    3    0    0 -0.26348369489E+01 -0.14444151245E+01 -0.53758522248E+01  0.61586108988E+01  0.51100000000E-03 0. -1.
        -11    1    3    3    0    0  0.14574480812E+02 -0.12249381701E+02 -0.16139557241E+02  0.24958929288E+02  0.51100000000E-03 0.  1.
        -12    1    3    3    0    0  0.89490532229E+01  0.22090733291E+00 -0.14062205770E+02  0.16669732594E+02  0.00000000000E+00 0.  1.
</event>
<event>
 7    1  0.6622189E-010  0.4778727E+02  0.7816164E-02  0.1312668E+00
        -11   -1    0    0    0    0  0.00000000000E+00  0.00000000000E+00  0.45593999997E+02  0.45594000000E+02  0.51100000000E-03 0.  1.
         11   -1    0    0    0    0 -0.00000000000E+00 -0.00000000000E+00 -0.45593999997E+02  0.45594000000E+02  0.51100000000E-03 0. -1.
    9900012    2    1    2    0    0  0.37674262575E+02  0.17854885264E+02  0.12061349831E+02  0.47787272494E+02  0.20000006608E+02 0.  0.
        -12    1    1    2    0    0 -0.37674262575E+02 -0.17854885264E+02 -0.12061349831E+02  0.43400727506E+02  0.00000000000E+00 0.  1.
         11    1    3    3    0    0  0.30169783158E+02  0.17586174112E+02  0.12543873790E+02  0.37105769169E+02  0.51100000000E-03 0. -1.
        -11    1    3    3    0    0  0.23524329204E+01  0.36434464727E+01  0.74779205326E+00  0.44008903714E+01  0.51100000000E-03 0.  1.
         12    1    3    3    0    0  0.51520464964E+01 -0.33747353206E+01 -0.12303160120E+01  0.62806129537E+01  0.00000000000E+00 0. -1.
</event>
<event>
 7    1  0.6622189E-010  0.4778727E+02  0.7816164E-02  0.1312668E+00
        -11   -1    0    0    0    0  0.00000000000E+00  0.00000000000E+00  0.45593999997E+02  0.45594000000E+02  0.51100000000E-03 0. -1.
         11   -1    0    0    0    0 -0.00000000000E+00 -0.00000000000E+00 -0.45593999997E+02  0.45594000000E+02  0.51100000000E-03 0.  1.
    9900012    2    1    2    0    0 -0.20851873309E+02 -0.14647473031E+02 -0.35132240799E+02  0.47787269243E+02  0.19999991784E+02 0.  0.
         12    1    1    2    0    0  0.20851873309E+02  0.14647473031E+02  0.35132240799E+02  0.43400730757E+02  0.00000000000E+00 0. -1.
         11    1    3    3    0    0 -0.57397056296E+01 -0.11055822587E+02 -0.19672020471E+02  0.23284411598E+02  0.51100000000E-03 0. -1.
        -11    1    3    3    0    0 -0.55066134853E+01 -0.54907839149E+01 -0.11626940837E+02  0.13987753700E+02  0.51100000000E-03 0.  1.
         12    1    3    3    0    0 -0.96055541940E+01  0.18991334707E+01 -0.38332794917E+01  0.10515103945E+02  0.00000000000E+00 0. -1.
</event>
<event>
 7    1  0.6622189E-010  0.4778727E+02  0.7816164E-02  0.1312668E+00
        -11   -1    0    0    0    0  0.00000000000E+00  0.00000000000E+00  0.45593999997E+02  0.45594000000E+02  0.51100000000E-03 0. -1.
         11   -1    0    0    0    0 -0.00000000000E+00 -0.00000000000E+00 -0.45593999997E+02  0.45594000000E+02  0.51100000000E-03 0.  1.
    9900012    2    1    2    0    0  0.26766954730E+01 -0.95402237051E+01 -0.42254496584E+02  0.47787273640E+02  0.20000011833E+02 0.  0.
         12    1    1    2    0    0 -0.26766954730E+01  0.95402237051E+01  0.42254496584E+02  0.43400726360E+02  0.00000000000E+00 0. -1.
         11    1    3    3    0    0 -0.64999862915E+01 -0.19875383379E+01 -0.12905939912E+02  0.14586412023E+02  0.51100000000E-03 0. -1.
        -11    1    3    3    0    0  0.65027044912E+01 -0.78198179923E+01 -0.12384656984E+02  0.16025431289E+02  0.51100000000E-03 0.  1.
        -12    1    3    3    0    0  0.26739772733E+01  0.26713262514E+00 -0.16963899688E+02  0.17175430327E+02  0.00000000000E+00 0.  1.
</event>
<event>
 7    1  0.6622189E-010  0.4778727E+02  0.7816164E-02  0.1312668E+00
        -11   -1    0    0    0    0  0.00000000000E+00  0.00000000000E+00  0.45593999997E+02  0.45594000000E+02  0.51100000000E-03 0. -1.
         11   -1    0    0    0    0 -0.00000000000E+00 -0.00000000000E+00 -0.45593999997E+02  0.45594000000E+02  0.51100000000E-03 0.  1.
    9900012    2    1    2    0    0 -0.15920909163E+02 -0.14945760090E+02 -0.37506964588E+02  0.47787268603E+02  0.19999988867E+02 0.  0.
         12    1    1    2    0    0  0.15920909163E+02  0.14945760090E+02  0.37506964588E+02  0.43400731397E+02  0.00000000000E+00 0. -1.
         11    1    3    3    0    0 -0.52885757640E+01 -0.33066460401E+01  0.82292225456E+00  0.62912751445E+01  0.51100000000E-03 0. -1.
        -11    1    3    3    0    0 -0.94279612905E+01 -0.11121278884E+02 -0.34815112487E+02  0.37744686458E+02  0.51100000000E-03 0.  1.
         12    1    3    3    0    0 -0.12043721085E+01 -0.51783516523E+00 -0.35147743556E+01  0.37513069996E+01  0.00000000000E+00 0. -1.
</event>
<event>
 7    1  0.6622189E-010  0.4778731E+02  0.7816164E-02  0.1312668E+00
        -11   -1    0    0    0    0  0.00000000000E+00  0.00000000000E+00  0.45593999997E+02  0.45594000000E+02  0.51100000000E-03 0. -1.
         11   -1    0    0    0    0 -0.00000000000E+00 -0.00000000000E+00 -0.45593999997E+02  0.45594000000E+02  0.51100000000E-03 0.  1.
    9900012    2    1    2    0    0  0.26010083863E+02 -0.14204379020E+02  0.31706949677E+02  0.47787314478E+02  0.20000198032E+02 0.  0.
        -12    1    1    2    0    0 -0.26010083863E+02  0.14204379020E+02 -0.31706949677E+02  0.43400685522E+02  0.00000000000E+00 0.  1.
         11    1    3    3    0    0  0.52090192403E+01 -0.56903006118E+01  0.11124068204E+02  0.13537292793E+02  0.51100000000E-03 0. -1.
        -11    1    3    3    0    0  0.79091088127E+01 -0.10418699087E+02  0.51677084963E+01  0.14064441128E+02  0.51100000000E-03 0.  1.
        -12    1    3    3    0    0  0.12891955810E+02  0.19046206783E+01  0.15415172978E+02  0.20185580558E+02  0.00000000000E+00 0.  1.
</event>
<event>
 7    1  0.6622189E-010  0.4778728E+02  0.7816164E-02  0.1312668E+00
        -11   -1    0    0    0    0  0.00000000000E+00  0.00000000000E+00  0.45593999997E+02  0.45594000000E+02  0.51100000000E-03 0. -1.
         11   -1    0    0    0    0 -0.00000000000E+00 -0.00000000000E+00 -0.45593999997E+02  0.45594000000E+02  0.51100000000E-03 0.  1.
    9900012    2    1    2    0    0  0.20591580521E+02  0.26165723065E+02 -0.27838185065E+02  0.47787276509E+02  0.20000024915E+02 0.  0.
         12    1    1    2    0    0 -0.20591580521E+02 -0.26165723065E+02  0.27838185065E+02  0.43400723491E+02  0.00000000000E+00 0. -1.
         11    1    3    3    0    0  0.14355703673E+02  0.17639890303E+02 -0.12148104568E+02  0.25784266573E+02  0.51100000000E-03 0.  1.
        -11    1    3    3    0    0 -0.26918463541E+01 -0.44197813071E+00 -0.21772343617E+01  0.34902336869E+01  0.51100000000E-03 0. -1.
        -12    1    3    3    0    0  0.89277232018E+01  0.89678108924E+01 -0.13512846135E+02  0.18512776249E+02  0.00000000000E+00 0.  1.
</event>
<event>
 7    1  0.6622189E-010  0.4778727E+02  0.7816164E-02  0.1312668E+00
        -11   -1    0    0    0    0  0.00000000000E+00  0.00000000000E+00  0.45593999997E+02  0.45594000000E+02  0.51100000000E-03 0. -1.
         11   -1    0    0    0    0 -0.00000000000E+00 -0.00000000000E+00 -0.45593999997E+02  0.45594000000E+02  0.51100000000E-03 0.  1.
    9900012    2    1    2    0    0  0.16321894055E+01 -0.16579596760E+01 -0.43338322721E+02  0.47787273177E+02  0.20000009722E+02 0.  0.
         12    1    1    2    0    0 -0.16321894055E+01  0.16579596760E+01  0.43338322721E+02  0.43400726823E+02  0.00000000000E+00 0. -1.
         11    1    3    3    0    0  0.66257716745E+01  0.27476368374E+01 -0.17643165173E+02  0.19045514854E+02  0.51100000000E-03 0.  1.
        -11    1    3    3    0    0 -0.65623874372E+01 -0.68959577009E+01 -0.22309573651E+02  0.24255643431E+02  0.51100000000E-03 0. -1.
         12    1    3    3    0    0  0.15688051682E+01  0.24903611875E+01 -0.33855838967E+01  0.44861148917E+01  0.00000000000E+00 0. -1.
</event>
<event>
 7    1  0.6622189E-010  0.4778721E+02  0.7816164E-02  0.1312668E+00
        -11   -1    0    0    0    0  0.00000000000E+00  0.00000000000E+00  0.45593999997E+02  0.45594000000E+02  0.51100000000E-03 0. -1.
         11   -1    0    0    0    0 -0.00000000000E+00 -0.00000000000E+00 -0.45593999997E+02  0.45594000000E+02  0.51100000000E-03 0.  1.
    9900012    2    1    2    0    0  0.19984278827E+02 -0.16053934086E+02  0.35021828086E+02  0.47787209197E+02  0.19999718009E+02 0.  0.
        -12    1    1    2    0    0 -0.19984278827E+02  0.16053934086E+02 -0.35021828086E+02  0.43400790803E+02  0.00000000000E+00 0.  1.
         11    1    3    3    0    0  0.11315509700E+02 -0.81933934205E+01  0.22532911345E+02  0.26512347113E+02  0.51100000000E-03 0. -1.
        -11    1    3    3    0    0 -0.20743017590E+01 -0.59625742082E+01  0.46836869250E+01  0.78607851038E+01  0.51100000000E-03 0.  1.
        -12    1    3    3    0    0  0.10743070885E+02 -0.18979664568E+01  0.78052298168E+01  0.13414076980E+02  0.00000000000E+00 0.  1.
</event>
<event>
 7    1  0.6622189E-010  0.4778727E+02  0.7816164E-02  0.1312668E+00
        -11   -1    0    0    0    0  0.00000000000E+00  0.00000000000E+00  0.45593999997E+02  0.45594000000E+02  0.51100000000E-03 0. -1.
         11   -1    0    0    0    0 -0.00000000000E+00 -0.00000000000E+00 -0.45593999997E+02  0.45594000000E+02  0.51100000000E-03 0.  1.
    9900012    2    1    2    0    0  0.31606023090E+02 -0.26778782228E+02 -0.12945237774E+02  0.47787273575E+02  0.20000011539E+02 0.  0.
         12    1    1    2    0    0 -0.31606023090E+02  0.26778782228E+02  0.12945237774E+02  0.43400726425E+02  0.00000000000E+00 0. -1.
         11    1    3    3    0    0  0.19644239999E+01 -0.60872055044E+01  0.12707519465E+01  0.65213375373E+01  0.51100000000E-03 0. -1.
        -11    1    3    3    0    0  0.11910835398E+02 -0.55165212222E+01 -0.12065465620E+02  0.17829062431E+02  0.51100000000E-03 0.  1.
        -12    1    3    3    0    0  0.17730763692E+02 -0.15175055501E+02 -0.21505241001E+01  0.23436873607E+02  0.00000000000E+00 0.  1.
</event>
<event>
 7    1  0.6622189E-010  0.4778727E+02  0.7816164E-02  0.1312668E+00
        -11   -1    0    0    0    0  0.00000000000E+00  0.00000000000E+00  0.45593999997E+02  0.45594000000E+02  0.51100000000E-03 0. -1.
         11   -1    0    0    0    0 -0.00000000000E+00 -0.00000000000E+00 -0.45593999997E+02  0.45594000000E+02  0.51100000000E-03 0.  1.
    9900012    2    1    2    0    0 -0.80395913329E+01 -0.56588970155E+01 -0.42272514083E+02  0.47787267390E+02  0.19999983337E+02 0.  0.
         12    1    1    2    0    0  0.80395913329E+01  0.56588970155E+01  0.42272514083E+02  0.43400732610E+02  0.00000000000E+00 0. -1.
         11    1    3    3    0    0  0.46186754209E+01 -0.11565982263E+00 -0.36348062531E+01  0.58785505524E+01  0.51100000000E-03 0. -1.
        -11    1    3    3    0    0 -0.82315790733E+01 -0.76623598109E+01 -0.24937206586E+02  0.27355711003E+02  0.51100000000E-03 0.  1.
         12    1    3    3    0    0 -0.44266876805E+01  0.21191226180E+01 -0.13700501244E+02  0.14553005834E+02  0.00000000000E+00 0. -1.
</event>
<event>
 7    1  0.6622189E-010  0.4778727E+02  0.7816164E-02  0.1312668E+00
        -11   -1    0    0    0    0  0.00000000000E+00  0.00000000000E+00  0.45593999997E+02  0.45594000000E+02  0.51100000000E-03 0. -1.
         11   -1    0    0    0    0 -0.00000000000E+00 -0.00000000000E+00 -0.45593999997E+02  0.45594000000E+02  0.51100000000E-03 0.  1.
    9900012    2    1    2    0    0 -0.72698838729E+01  0.27820590728E+02 -0.32508261312E+02  0.47787268053E+02  0.19999986362E+02 0.  0.
         12    1    1    2    0    0  0.72698838729E+01 -0.27820590728E+02  0.32508261312E+02  0.43400731947E+02  0.00000000000E+00 0. -1.
         11    1    3    3    0    0 -0.36411820642E+01  0.30326710638E+01 -0.75042070578E+00  0.47977528180E+01  0.51100000000E-03 0. -1.
        -11    1    3    3    0    0  0.14715485764E+01  0.19601912475E+02 -0.29355927449E+02  0.35329462274E+02  0.51100000000E-03 0.  1.
        -12    1    3    3    0    0 -0.51002503852E+01  0.51860071895E+01 -0.24019131570E+01  0.76600529616E+01  0.00000000000E+00 0.  1.
</event>
<event>
 7    1  0.6622189E-010  0.4778727E+02  0.7816164E-02  0.1312668E+00
        -11   -1    0    0    0    0  0.00000000000E+00  0.00000000000E+00  0.45593999997E+02  0.45594000000E+02  0.51100000000E-03 0. -1.
         11   -1    0    0    0    0 -0.00000000000E+00 -0.00000000000E+00 -0.45593999997E+02  0.45594000000E+02  0.51100000000E-03 0.  1.
    9900012    2    1    2    0    0 -0.39618979080E+01 -0.97667428343E+01  0.42101514390E+02  0.47787269424E+02  0.19999992610E+02 0.  0.
        -12    1    1    2    0    0  0.39618979080E+01  0.97667428343E+01 -0.42101514390E+02  0.43400730576E+02  0.00000000000E+00 0.  1.
         11    1    3    3    0    0 -0.75137147353E+01 -0.48450928806E+01  0.31645033841E+02  0.32883719394E+02  0.51100000000E-03 0. -1.
        -11    1    3    3    0    0  0.23792518643E+01  0.70059129615E+00 -0.50268522421E+00  0.25306837602E+01  0.51100000000E-03 0.  1.
         12    1    3    3    0    0  0.11725649629E+01 -0.56222412499E+01  0.10959165773E+02  0.12372866269E+02  0.00000000000E+00 0. -1.
</event>
<event>
 7    1  0.6622189E-010  0.4778727E+02  0.7816164E-02  0.1312668E+00
        -11   -1    0    0    0    0  0.00000000000E+00  0.00000000000E+00  0.45593999997E+02  0.45594000000E+02  0.51100000000E-03 0.  1.
         11   -1    0    0    0    0 -0.00000000000E+00 -0.00000000000E+00 -0.45593999997E+02  0.45594000000E+02  0.51100000000E-03 0. -1.
    9900012    2    1    2    0    0 -0.25484072339E+02 -0.21137734225E+02  0.28060322966E+02  0.47787268714E+02  0.19999989377E+02 0.  0.
        -12    1    1    2    0    0  0.25484072339E+02  0.21137734225E+02 -0.28060322966E+02  0.43400731286E+02  0.00000000000E+00 0.  1.
         11    1    3    3    0    0 -0.14350627400E+02 -0.55695661603E+01  0.20408666813E+02  0.25563142517E+02  0.51100000000E-03 0. -1.
        -11    1    3    3    0    0 -0.42377933694E+01 -0.54665941288E+01  0.72013183192E+01  0.99850653381E+01  0.51100000000E-03 0.  1.
         12    1    3    3    0    0 -0.68956515699E+01 -0.10101573936E+02  0.45033783352E+00  0.12239060859E+02  0.00000000000E+00 0. -1.
</event>
<event>
 7    1  0.6622189E-010  0.4778724E+02  0.7816164E-02  0.1312668E+00
        -11   -1    0    0    0    0  0.00000000000E+00  0.00000000000E+00  0.45593999997E+02  0.45594000000E+02  0.51100000000E-03 0.  1.
         11   -1    0    0    0    0 -0.00000000000E+00 -0.00000000000E+00 -0.45593999997E+02  0.45594000000E+02  0.51100000000E-03 0. -1.
    9900012    2    1    2    0    0  0.39493904735E+02  0.17948826095E+02  0.13027784466E+01  0.47787238473E+02  0.19999851494E+02 0.  0.
        -12    1    1    2    0    0 -0.39493904735E+02 -0.17948826095E+02 -0.13027784466E+01  0.43400761527E+02  0.00000000000E+00 0.  1.
         11    1    3    3    0    0  0.23692212804E+02  0.65250720960E+01 -0.21043476248E+00  0.24575227292E+02  0.51100000000E-03 0. -1.
        -11    1    3    3    0    0 -0.93673517115E+00  0.51891264830E+01 -0.13120760696E+00  0.52746300472E+01  0.51100000000E-03 0.  1.
        -12    1    3    3    0    0  0.16738427103E+02  0.62346275161E+01  0.16444208161E+01  0.17937381134E+02  0.00000000000E+00 0.  1.
</event>
<event>
 7    1  0.6622189E-010  0.4778728E+02  0.7816164E-02  0.1312668E+00
        -11   -1    0    0    0    0  0.00000000000E+00  0.00000000000E+00  0.45593999997E+02  0.45594000000E+02  0.51100000000E-03 0. -1.
         11   -1    0    0    0    0 -0.00000000000E+00 -0.00000000000E+00 -0.45593999997E+02  0.45594000000E+02  0.51100000000E-03 0.  1.
    9900012    2    1    2    0    0  0.19551710730E+02  0.24827388038E+02  0.29748178503E+02  0.47787277500E+02  0.20000029434E+02 0.  0.
        -12    1    1    2    0    0 -0.19551710730E+02 -0.24827388038E+02 -0.29748178503E+02  0.43400722500E+02  0.00000000000E+00 0.  1.
         11    1    3    3    0    0  0.17791665858E+02  0.11471243531E+02  0.15560510704E+02  0.26272843313E+02  0.51100000000E-03 0. -1.
        -11    1    3    3    0    0 -0.28071716264E+01  0.41173749316E+01  0.81994378673E+01  0.95949867362E+01  0.51100000000E-03 0.  1.
         12    1    3    3    0    0  0.45672164992E+01  0.92387695750E+01  0.59882299318E+01  0.11919447451E+02  0.00000000000E+00 0. -1.
</event>
<event>
 7    1  0.6622189E-010  0.4778727E+02  0.7816164E-02  0.1312668E+00
        -11   -1    0    0    0    0  0.00000000000E+00  0.00000000000E+00  0.45593999997E+02  0.45594000000E+02  0.51100000000E-03 0. -1.
         11   -1    0    0    0    0 -0.00000000000E+00 -0.00000000000E+00 -0.45593999997E+02  0.45594000000E+02  0.51100000000E-03 0.  1.
    9900012    2    1    2    0    0  0.23508308936E+01  0.30735738478E+02 -0.30551776951E+02  0.47787273041E+02  0.20000009104E+02 0.  0.
         12    1    1    2    0    0 -0.23508308936E+01 -0.30735738478E+02  0.30551776951E+02  0.43400726959E+02  0.00000000000E+00 0. -1.
         11    1    3    3    0    0  0.75535328602E+00  0.90310029769E+01 -0.20653952959E+02  0.22554718940E+02  0.51100000000E-03 0. -1.
        -11    1    3    3    0    0  0.39680185236E+01  0.19581982468E+02 -0.79709573360E+01  0.21511284701E+02  0.51100000000E-03 0.  1.
        -12    1    3    3    0    0 -0.23725409160E+01  0.21227530335E+01 -0.19268666559E+01  0.37212694002E+01  0.00000000000E+00 0.  1.
</event>
<event>
 7    1  0.6622189E-010  0.4778727E+02  0.7816164E-02  0.1312668E+00
        -11   -1    0    0    0    0  0.00000000000E+00  0.00000000000E+00  0.45593999997E+02  0.45594000000E+02  0.51100000000E-03 0. -1.
         11   -1    0    0    0    0 -0.00000000000E+00 -0.00000000000E+00 -0.45593999997E+02  0.45594000000E+02  0.51100000000E-03 0.  1.
    9900012    2    1    2    0    0 -0.25623926656E+02  0.27844302186E+02  0.21254001157E+02  0.47787270206E+02  0.19999996176E+02 0.  0.
        -12    1    1    2    0    0  0.25623926656E+02 -0.27844302186E+02 -0.21254001157E+02  0.43400729794E+02  0.00000000000E+00 0.  1.
         11    1    3    3    0    0 -0.86125795937E+01  0.46567784535E+01 -0.43314802162E+00  0.98004964309E+01  0.51100000000E-03 0. -1.
        -11    1    3    3    0    0 -0.12403907478E+02  0.23361816068E+02  0.17187489397E+02  0.31544273058E+02  0.51100000000E-03 0.  1.
         12    1    3    3    0    0 -0.46074395843E+01 -0.17429233543E+00  0.44996597809E+01  0.64425007167E+01  0.00000000000E+00 0. -1.
</event>
<event>
 7    1  0.6622189E-010  0.4778726E+02  0.7816164E-02  0.1312668E+00
        -11   -1    0    0    0    0  0.00000000000E+00  0.00000000000E+00  0.45593999997E+02  0.45594000000E+02  0.51100000000E-03 0. -1.
         11   -1    0    0    0    0 -0.00000000000E+00 -0.00000000000E+00 -0.45593999997E+02  0.45594000000E+02  0.51100000000E-03 0.  1.
    9900012    2    1    2    0    0 -0.33364188718E+02 -0.27579368476E+02  0.31358091458E+01  0.47787263216E+02  0.19999964308E+02 0.  0.
        -12    1    1    2    0    0  0.33364188718E+02  0.27579368476E+02 -0.31358091458E+01  0.43400736784E+02  0.00000000000E+00 0.  1.
         11    1    3    3    0    0 -0.23040739226E+02 -0.92513773703E+01 -0.21613150846E+01  0.24922578729E+02  0.51100000000E-03 0. -1.
        -11    1    3    3    0    0  0.91051223505E+00 -0.36334189426E+01  0.87656185246E+00  0.38469633069E+01  0.51100000000E-03 0.  1.
         12    1    3    3    0    0 -0.11233961727E+02 -0.14694572163E+02  0.44205623779E+01  0.19017721180E+02  0.00000000000E+00 0. -1.
</event>
<event>
 7    1  0.6622189E-010  0.4778727E+02  0.7816164E-02  0.1312668E+00
        -11   -1    0    0    0    0  0.00000000000E+00  0.00000000000E+00  0.45593999997E+02  0.45594000000E+02  0.51100000000E-03 0. -1.
         11   -1    0    0    0    0 -0.00000000000E+00 -0.00000000000E+00 -0.45593999997E+02  0.45594000000E+02  0.51100000000E-03 0.  1.
    9900012    2    1    2    0    0  0.30496561160E+02 -0.22416117493E+02  0.21239128780E+02  0.47787272387E+02  0.20000006119E+02 0.  0.
        -12    1    1    2    0    0 -0.30496561160E+02  0.22416117493E+02 -0.21239128780E+02  0.43400727613E+02  0.00000000000E+00 0.  1.
         11    1    3    3    0    0  0.15658656061E+02 -0.92106253704E+01  0.11307611669E+02  0.21398392727E+02  0.51100000000E-03 0. -1.
        -11    1    3    3    0    0  0.26723380395E+01 -0.49264949438E+01 -0.33809110293E+01  0.65454031715E+01  0.51100000000E-03 0.  1.
        -12    1    3    3    0    0  0.12165567059E+02 -0.82789971787E+01  0.13312428140E+02  0.19843476488E+02  0.00000000000E+00 0.  1.
</event>
<event>
 7    1  0.6622189E-010  0.4778727E+02  0.7816164E-02  0.1312668E+00
        -11   -1    0    0    0    0  0.00000000000E+00  0.00000000000E+00  0.45593999997E+02  0.45594000000E+02  0.51100000000E-03 0.  1.
         11   -1    0    0    0    0 -0.00000000000E+00 -0.00000000000E+00 -0.45593999997E+02  0.45594000000E+02  0.51100000000E-03 0. -1.
    9900012    2    1    2    0    0  0.24256170468E+02  0.35964645027E+02  0.13437881661E+01  0.47787271154E+02  0.20000000501E+02 0.  0.
        -12    1    1    2    0    0 -0.24256170468E+02 -0.35964645027E+02 -0.13437881661E+01  0.43400728846E+02  0.00000000000E+00 0.  1.
         11    1    3    3    0    0  0.72306624818E+01  0.97749502354E+01  0.77526173329E+01  0.14419958662E+02  0.51100000000E-03 0. -1.
        -11    1    3    3    0    0  0.18211450738E+01 -0.30273501855E+00  0.75258380639E+00  0.19936400172E+01  0.51100000000E-03 0.  1.
         12    1    3    3    0    0  0.15204362912E+02  0.26492429811E+02 -0.71614129732E+01  0.31373672476E+02  0.00000000000E+00 0. -1.
</event>
<event>
 7    1  0.6622189E-010  0.4778726E+02  0.7816164E-02  0.1312668E+00
        -11   -1    0    0    0    0  0.00000000000E+00  0.00000000000E+00  0.45593999997E+02  0.45594000000E+02  0.51100000000E-03 0. -1.
         11   -1    0    0    0    0 -0.00000000000E+00 -0.00000000000E+00 -0.45593999997E+02  0.45594000000E+02  0.51100000000E-03 0.  1.
    9900012    2    1    2    0    0 -0.32308806571E+02  0.16556981883E+02  0.23783017897E+02  0.47787256097E+02  0.19999931846E+02 0.  0.
        -12    1    1    2    0    0  0.32308806571E+02 -0.16556981883E+02 -0.23783017897E+02  0.43400743903E+02  0.00000000000E+00 0.  1.
         11    1    3    3    0    0 -0.14864771773E+02 -0.80165736117E+00  0.10586532120E+02  0.18266875950E+02  0.51100000000E-03 0. -1.
        -11    1    3    3    0    0 -0.43727867405E+01  0.42694298900E-01  0.41018015218E+01  0.59956536480E+01  0.51100000000E-03 0.  1.
         12    1    3    3    0    0 -0.13071248057E+02  0.17315944946E+02  0.90946842553E+01  0.23524726498E+02  0.00000000000E+00 0. -1.
</event>
<event>
 7    1  0.6622189E-010  0.4778727E+02  0.7816164E-02  0.1312668E+00
        -11   -1    0    0    0    0  0.00000000000E+00  0.00000000000E+00  0.45593999997E+02  0.45594000000E+02  0.51100000000E-03 0.  1.
         11   -1    0    0    0    0 -0.00000000000E+00 -0.00000000000E+00 -0.45593999997E+02  0.45594000000E+02  0.51100000000E-03 0. -1.
    9900012    2    1    2    0    0 -0.42225379339E+02 -0.93302707160E+01  0.36860559040E+01  0.47787267056E+02  0.19999981816E+02 0.  0.
         12    1    1    2    0    0  0.42225379339E+02  0.93302707160E+01 -0.36860559040E+01  0.43400732944E+02  0.00000000000E+00 0. -1.
         11    1    3    3    0    0 -0.84133510295E+01  0.13373596573E+01  0.17925673307E+01  0.87055329701E+01  0.51100000000E-03 0. -1.
        -11    1    3    3    0    0 -0.30567996011E+02 -0.11513561716E+02  0.65789860845E+01  0.33320377274E+02  0.51100000000E-03 0.  1.
        -12    1    3    3    0    0 -0.32440322981E+01  0.84593134279E+00 -0.46854975112E+01  0.57613568120E+01  0.00000000000E+00 0.  1.
</event>
<event>
 7    1  0.6622189E-010  0.4778727E+02  0.7816164E-02  0.1312668E+00
        -11   -1    0    0    0    0  0.00000000000E+00  0.00000000000E+00  0.45593999997E+02  0.45594000000E+02  0.51100000000E-03 0. -1.
         11   -1    0    0    0    0 -0.00000000000E+00 -0.00000000000E+00 -0.45593999997E+02  0.45594000000E+02  0.51100000000E-03 0.  1.
    9900012    2    1    2    0    0 -0.12792572603E+02 -0.40498250631E+02 -0.89367080838E+01  0.47787274553E+02  0.20000015996E+02 0.  0.
        -12    1    1    2    0    0  0.12792572603E+02  0.40498250631E+02  0.89367080838E+01  0.43400725447E+02  0.00000000000E+00 0.  1.
         11    1    3    3    0    0  0.23030335800E+01 -0.14447002678E+01  0.17721525419E+01  0.32452499792E+01  0.51100000000E-03 0. -1.
        -11    1    3    3    0    0 -0.15689050438E+02 -0.35701549519E+02 -0.72048774233E+01  0.39656742184E+02  0.51100000000E-03 0.  1.
        -12    1    3    3    0    0  0.59344425474E+00 -0.33520008438E+01 -0.35039832024E+01  0.48852823893E+01  0.00000000000E+00 0.  1.
</event>
<event>
 7    1  0.6622189E-010  0.4778727E+02  0.7816164E-02  0.1312668E+00
        -11   -1    0    0    0    0  0.00000000000E+00  0.00000000000E+00  0.45593999997E+02  0.45594000000E+02  0.51100000000E-03 0. -1.
         11   -1    0    0    0    0 -0.00000000000E+00 -0.00000000000E+00 -0.45593999997E+02  0.45594000000E+02  0.51100000000E-03 0.  1.
    9900012    2    1    2    0    0 -0.26116624556E+02  0.20865988226E+01 -0.34600453739E+02  0.47787269916E+02  0.19999994857E+02 0.  0.
         12    1    1    2    0    0  0.26116624556E+02 -0.20865988226E+01  0.34600453739E+02  0.43400730084E+02  0.00000000000E+00 0. -1.
         11    1    3    3    0    0  0.79400609952E+00 -0.36772566457E+01 -0.89832467575E+01  0.97391675564E+01  0.51100000000E-03 0. -1.
        -11    1    3    3    0    0 -0.17098444166E+02  0.15205016021E+01 -0.18313962529E+02  0.25101194031E+02  0.51100000000E-03 0.  1.
         12    1    3    3    0    0 -0.98121864902E+01  0.42433538661E+01 -0.73032444525E+01  0.12946908329E+02  0.00000000000E+00 0. -1.
</event>
<event>
 7    1  0.6622189E-010  0.4778727E+02  0.7816164E-02  0.1312668E+00
        -11   -1    0    0    0    0  0.00000000000E+00  0.00000000000E+00  0.45593999997E+02  0.45594000000E+02  0.51100000000E-03 0. -1.
         11   -1    0    0    0    0 -0.00000000000E+00 -0.00000000000E+00 -0.45593999997E+02  0.45594000000E+02  0.51100000000E-03 0.  1.
    9900012    2    1    2    0    0 -0.18719996442E+02  0.69678123101E+01  0.38530959456E+02  0.47787268303E+02  0.19999987501E+02 0.  0.
        -12    1    1    2    0    0  0.18719996442E+02 -0.69678123101E+01 -0.38530959456E+02  0.43400731697E+02  0.00000000000E+00 0.  1.
         11    1    3    3    0    0 -0.21503333039E+02  0.36396892519E+01  0.25015903234E+02  0.33187890630E+02  0.51100000000E-03 0. -1.
        -11    1    3    3    0    0  0.24187314397E+01  0.24630460884E+01  0.52632020128E+01  0.62942953140E+01  0.51100000000E-03 0.  1.
        -12    1    3    3    0    0  0.36460515694E+00  0.86507696978E+00  0.82518542099E+01  0.83050823587E+01  0.00000000000E+00 0.  1.
</event>
<event>
 7    1  0.6622189E-010  0.4778727E+02  0.7816164E-02  0.1312668E+00
        -11   -1    0    0    0    0  0.00000000000E+00  0.00000000000E+00  0.45593999997E+02  0.45594000000E+02  0.51100000000E-03 0. -1.
         11   -1    0    0    0    0 -0.00000000000E+00 -0.00000000000E+00 -0.45593999997E+02  0.45594000000E+02  0.51100000000E-03 0.  1.
    9900012    2    1    2    0    0 -0.18132302115E+02 -0.11033235667E+01  0.39416062763E+02  0.47787266059E+02  0.19999977271E+02 0.  0.
        -12    1    1    2    0    0  0.18132302115E+02  0.11033235667E+01 -0.39416062763E+02  0.43400733941E+02  0.00000000000E+00 0.  1.
         11    1    3    3    0    0 -0.40332397806E+01 -0.17327387628E+01  0.46805211432E+01  0.64169062001E+01  0.51100000000E-03 0.  1.
        -11    1    3    3    0    0 -0.14189114782E+02 -0.57062417039E+01  0.29173744225E+02  0.32939330975E+02  0.51100000000E-03 0. -1.
        -12    1    3    3    0    0  0.90052447630E-01  0.63356569000E+01  0.55617973942E+01  0.84310288846E+01  0.00000000000E+00 0.  1.
</event>
<event>
 7    1  0.6622189E-010  0.4778727E+02  0.7816164E-02  0.1312668E+00
        -11   -1    0    0    0    0  0.00000000000E+00  0.00000000000E+00  0.45593999997E+02  0.45594000000E+02  0.51100000000E-03 0. -1.
         11   -1    0    0    0    0 -0.00000000000E+00 -0.00000000000E+00 -0.45593999997E+02  0.45594000000E+02  0.51100000000E-03 0.  1.
    9900012    2    1    2    0    0  0.27995086829E+02 -0.26301022075E+02 -0.20202839259E+02  0.47787270019E+02  0.19999995324E+02 0.  0.
         12    1    1    2    0    0 -0.27995086829E+02  0.26301022075E+02  0.20202839259E+02  0.43400729981E+02  0.00000000000E+00 0. -1.
         11    1    3    3    0    0  0.45548478272E+01  0.15943794886E+01 -0.13323839318E+01  0.50063891065E+01  0.51100000000E-03 0. -1.
        -11    1    3    3    0    0  0.11512748488E+02 -0.15905869640E+02 -0.16610416647E+02  0.25718592656E+02  0.51100000000E-03 0.  1.
        -12    1    3    3    0    0  0.11927490515E+02 -0.11989531923E+02 -0.22600386808E+01  0.17062288257E+02  0.00000000000E+00 0.  1.
</event>
<event>
 7    1  0.6622189E-010  0.4778727E+02  0.7816164E-02  0.1312668E+00
        -11   -1    0    0    0    0  0.00000000000E+00  0.00000000000E+00  0.45593999997E+02  0.45594000000E+02  0.51100000000E-03 0. -1.
         11   -1    0    0    0    0 -0.00000000000E+00 -0.00000000000E+00 -0.45593999997E+02  0.45594000000E+02  0.51100000000E-03 0.  1.
    9900012    2    1    2    0    0 -0.24103814459E+01 -0.56824545936E+01  0.42959547552E+02  0.47787274721E+02  0.20000016761E+02 0.  0.
        -12    1    1    2    0    0  0.24103814459E+01  0.56824545936E+01 -0.42959547552E+02  0.43400725279E+02  0.00000000000E+00 0.  1.
         11    1    3    3    0    0 -0.25916394638E+01 -0.10446259238E+02  0.27449255958E+02  0.29483937663E+02  0.51100000000E-03 0. -1.
        -11    1    3    3    0    0  0.33385761778E+01  0.28270269718E+01  0.13274639244E+02  0.13976917390E+02  0.51100000000E-03 0.  1.
         12    1    3    3    0    0 -0.31573181598E+01  0.19367776730E+01  0.22356523492E+01  0.43264196680E+01  0.00000000000E+00 0. -1.
</event>
<event>
 7    1  0.6622189E-010  0.4778724E+02  0.7816164E-02  0.1312668E+00
        -11   -1    0    0    0    0  0.00000000000E+00  0.00000000000E+00  0.45593999997E+02  0.45594000000E+02  0.51100000000E-03 0. -1.
         11   -1    0    0    0    0 -0.00000000000E+00 -0.00000000000E+00 -0.45593999997E+02  0.45594000000E+02  0.51100000000E-03 0.  1.
    9900012    2    1    2    0    0 -0.16890645482E+01  0.14719120041E+02 -0.40793633187E+02  0.47787240301E+02  0.19999859828E+02 0.  0.
         12    1    1    2    0    0  0.16890645482E+01 -0.14719120041E+02  0.40793633187E+02  0.43400759699E+02  0.00000000000E+00 0. -1.
         11    1    3    3    0    0 -0.53008782192E+01  0.13315681842E+02 -0.19868834032E+02  0.24498515442E+02  0.51100000000E-03 0. -1.
        -11    1    3    3    0    0  0.43239965005E+01  0.47400591086E+01 -0.16484133012E+02  0.17688746352E+02  0.51100000000E-03 0.  1.
         12    1    3    3    0    0 -0.71218282951E+00 -0.33366209098E+01 -0.44406661428E+01  0.55999785063E+01  0.00000000000E+00 0. -1.
</event>
<event>
 7    1  0.6622189E-010  0.4778727E+02  0.7816164E-02  0.1312668E+00
        -11   -1    0    0    0    0  0.00000000000E+00  0.00000000000E+00  0.45593999997E+02  0.45594000000E+02  0.51100000000E-03 0. -1.
         11   -1    0    0    0    0 -0.00000000000E+00 -0.00000000000E+00 -0.45593999997E+02  0.45594000000E+02  0.51100000000E-03 0.  1.
    9900012    2    1    2    0    0  0.63338970287E+00  0.39115137446E+02 -0.18794377283E+02  0.47787265243E+02  0.19999973550E+02 0.  0.
         12    1    1    2    0    0 -0.63338970287E+00 -0.39115137446E+02  0.18794377283E+02  0.43400734757E+02  0.00000000000E+00 0. -1.
         11    1    3    3    0    0 -0.98211769400E+00  0.97126533315E+01 -0.78036011589E+01  0.12497855064E+02  0.51100000000E-03 0. -1.
        -11    1    3    3    0    0  0.18787583315E+01 -0.32163775623E+00 -0.44669793415E+01  0.48566540347E+01  0.51100000000E-03 0.  1.
        -12    1    3    3    0    0 -0.26325093467E+00  0.29724121871E+02 -0.65237967830E+01  0.30432756144E+02  0.00000000000E+00 0.  1.
</event>
<event>
 7    1  0.6622189E-010  0.4778727E+02  0.7816164E-02  0.1312668E+00
        -11   -1    0    0    0    0  0.00000000000E+00  0.00000000000E+00  0.45593999997E+02  0.45594000000E+02  0.51100000000E-03 0. -1.
         11   -1    0    0    0    0 -0.00000000000E+00 -0.00000000000E+00 -0.45593999997E+02  0.45594000000E+02  0.51100000000E-03 0.  1.
    9900012    2    1    2    0    0 -0.10391539300E+01  0.15597196364E+02 -0.40487908533E+02  0.47787272901E+02  0.20000008465E+02 0.  0.
         12    1    1    2    0    0  0.10391539300E+01 -0.15597196364E+02  0.40487908533E+02  0.43400727099E+02  0.00000000000E+00 0. -1.
         11    1    3    3    0    0 -0.56198891115E+01  0.11643749845E+02 -0.10863584609E+02  0.16887200328E+02  0.51100000000E-03 0. -1.
        -11    1    3    3    0    0  0.36660021063E+01 -0.34943534426E+00 -0.19746820150E+02  0.20087274151E+02  0.51100000000E-03 0.  1.
        -12    1    3    3    0    0  0.91473307518E+00  0.43028818628E+01 -0.98775037740E+01  0.10812798423E+02  0.00000000000E+00 0.  1.
</event>
<event>
 7    1  0.6622189E-010  0.4778727E+02  0.7816164E-02  0.1312668E+00
        -11   -1    0    0    0    0  0.00000000000E+00  0.00000000000E+00  0.45593999997E+02  0.45594000000E+02  0.51100000000E-03 0. -1.
         11   -1    0    0    0    0 -0.00000000000E+00 -0.00000000000E+00 -0.45593999997E+02  0.45594000000E+02  0.51100000000E-03 0.  1.
    9900012    2    1    2    0    0 -0.16099028461E+02 -0.18234212348E+01 -0.40263130748E+02  0.47787270974E+02  0.19999999677E+02 0.  0.
         12    1    1    2    0    0  0.16099028461E+02  0.18234212348E+01  0.40263130748E+02  0.43400729026E+02  0.00000000000E+00 0. -1.
         11    1    3    3    0    0  0.10197095429E+00  0.70637589333E+00 -0.38229688558E+00  0.80963951734E+00  0.51100000000E-03 0. -1.
        -11    1    3    3    0    0  0.66951090632E+00  0.39173264732E+01 -0.98660716759E+00  0.40947631819E+01  0.51100000000E-03 0.  1.
        -12    1    3    3    0    0 -0.16870510321E+02 -0.64471236013E+01 -0.38894226695E+02  0.42882868274E+02  0.00000000000E+00 0.  1.
</event>
<event>
 7    1  0.6622189E-010  0.4778727E+02  0.7816164E-02  0.1312668E+00
        -11   -1    0    0    0    0  0.00000000000E+00  0.00000000000E+00  0.45593999997E+02  0.45594000000E+02  0.51100000000E-03 0. -1.
         11   -1    0    0    0    0 -0.00000000000E+00 -0.00000000000E+00 -0.45593999997E+02  0.45594000000E+02  0.51100000000E-03 0.  1.
    9900012    2    1    2    0    0 -0.10456285477E+02 -0.10580084412E+01  0.42109027268E+02  0.47787268840E+02  0.19999989947E+02 0.  0.
        -12    1    1    2    0    0  0.10456285477E+02  0.10580084412E+01 -0.42109027268E+02  0.43400731160E+02  0.00000000000E+00 0.  1.
         11    1    3    3    0    0 -0.84873969184E+00 -0.51312828465E+01  0.70009833891E+01  0.87214787388E+01  0.51100000000E-03 0. -1.
        -11    1    3    3    0    0 -0.18474091057E+00  0.45198577259E+01  0.24310889973E+02  0.24728174511E+02  0.51100000000E-03 0.  1.
        -12    1    3    3    0    0 -0.94228048743E+01 -0.44658332068E+00  0.10797153905E+02  0.14337615590E+02  0.00000000000E+00 0.  1.
</event>
<event>
 7    1  0.6622189E-010  0.4778727E+02  0.7816164E-02  0.1312668E+00
        -11   -1    0    0    0    0  0.00000000000E+00  0.00000000000E+00  0.45593999997E+02  0.45594000000E+02  0.51100000000E-03 0. -1.
         11   -1    0    0    0    0 -0.00000000000E+00 -0.00000000000E+00 -0.45593999997E+02  0.45594000000E+02  0.51100000000E-03 0.  1.
    9900012    2    1    2    0    0 -0.83296790260E+01  0.13511014284E+02  0.40394209026E+02  0.47787272097E+02  0.20000004800E+02 0.  0.
        -12    1    1    2    0    0  0.83296790260E+01 -0.13511014284E+02 -0.40394209026E+02  0.43400727903E+02  0.00000000000E+00 0.  1.
         11    1    3    3    0    0 -0.45666320214E+01  0.45894238943E+01  0.92444691744E+01  0.11286148603E+02  0.51100000000E-03 0. -1.
        -11    1    3    3    0    0 -0.63190834916E+01 -0.21319173312E+01  0.62561207350E+01  0.91441202197E+01  0.51100000000E-03 0.  1.
        -12    1    3    3    0    0  0.25560364870E+01  0.11053507721E+02  0.24893619116E+02  0.27357003275E+02  0.00000000000E+00 0.  1.
</event>
<event>
 7    1  0.6622189E-010  0.4778727E+02  0.7816164E-02  0.1312668E+00
        -11   -1    0    0    0    0  0.00000000000E+00  0.00000000000E+00  0.45593999997E+02  0.45594000000E+02  0.51100000000E-03 0. -1.
         11   -1    0    0    0    0 -0.00000000000E+00 -0.00000000000E+00 -0.45593999997E+02  0.45594000000E+02  0.51100000000E-03 0.  1.
    9900012    2    1    2    0    0  0.13624200237E+02 -0.36144443011E+02  0.19788474569E+02  0.47787270531E+02  0.19999997657E+02 0.  0.
        -12    1    1    2    0    0 -0.13624200237E+02  0.36144443011E+02 -0.19788474569E+02  0.43400729469E+02  0.00000000000E+00 0.  1.
         11    1    3    3    0    0  0.89210428215E-01 -0.10150470669E+02 -0.14468703873E+01  0.10253460269E+02  0.51100000000E-03 0.  1.
        -11    1    3    3    0    0  0.12437063946E+02 -0.15314952420E+02  0.16821055652E+02  0.25926361887E+02  0.51100000000E-03 0. -1.
         12    1    3    3    0    0  0.10979258632E+01 -0.10679019922E+02  0.44142893050E+01  0.11607448374E+02  0.00000000000E+00 0. -1.
</event>
<event>
 7    1  0.6622189E-010  0.4778727E+02  0.7816164E-02  0.1312668E+00
        -11   -1    0    0    0    0  0.00000000000E+00  0.00000000000E+00  0.45593999997E+02  0.45594000000E+02  0.51100000000E-03 0. -1.
         11   -1    0    0    0    0 -0.00000000000E+00 -0.00000000000E+00 -0.45593999997E+02  0.45594000000E+02  0.51100000000E-03 0.  1.
    9900012    2    1    2    0    0  0.30639102389E+02  0.27809243596E+02  0.13096352237E+02  0.47787273433E+02  0.20000010892E+02 0.  0.
        -12    1    1    2    0    0 -0.30639102389E+02 -0.27809243596E+02 -0.13096352237E+02  0.43400726567E+02  0.00000000000E+00 0.  1.
         11    1    3    3    0    0  0.28008073764E+00  0.99374489741E+01  0.36793708950E+01  0.10600429603E+02  0.51100000000E-03 0. -1.
        -11    1    3    3    0    0  0.29946663737E+02  0.16152437277E+02  0.80830458382E+01  0.34971982061E+02  0.51100000000E-03 0.  1.
        -12    1    3    3    0    0  0.41235791457E+00  0.17193573447E+01  0.13339355036E+01  0.22148617691E+01  0.00000000000E+00 0.  1.
</event>
<event>
 7    1  0.6622189E-010  0.4778727E+02  0.7816164E-02  0.1312668E+00
        -11   -1    0    0    0    0  0.00000000000E+00  0.00000000000E+00  0.45593999997E+02  0.45594000000E+02  0.51100000000E-03 0. -1.
         11   -1    0    0    0    0 -0.00000000000E+00 -0.00000000000E+00 -0.45593999997E+02  0.45594000000E+02  0.51100000000E-03 0.  1.
    9900012    2    1    2    0    0 -0.17640140833E+02  0.19577417366E+02 -0.34484393467E+02  0.47787271526E+02  0.20000002195E+02 0.  0.
         12    1    1    2    0    0  0.17640140833E+02 -0.19577417366E+02  0.34484393467E+02  0.43400728474E+02  0.00000000000E+00 0. -1.
         11    1    3    3    0    0 -0.49274844147E+01  0.60198357771E+01 -0.22506201721E+02  0.23812762159E+02  0.51100000000E-03 0. -1.
        -11    1    3    3    0    0 -0.13511956191E+02  0.10615461955E+02 -0.11942238036E+02  0.20925535649E+02  0.51100000000E-03 0.  1.
         12    1    3    3    0    0  0.79929977325E+00  0.29421196332E+01 -0.35953709205E-01  0.30489737180E+01  0.00000000000E+00 0. -1.
</event>
<event>
 7    1  0.6622189E-010  0.4778727E+02  0.7816164E-02  0.1312668E+00
        -11   -1    0    0    0    0  0.00000000000E+00  0.00000000000E+00  0.45593999997E+02  0.45594000000E+02  0.51100000000E-03 0. -1.
         11   -1    0    0    0    0 -0.00000000000E+00 -0.00000000000E+00 -0.45593999997E+02  0.45594000000E+02  0.51100000000E-03 0.  1.
    9900012    2    1    2    0    0  0.10461215689E+02 -0.24445391632E+00  0.42120383834E+02  0.47787268143E+02  0.19999986770E+02 0.  0.
        -12    1    1    2    0    0 -0.10461215689E+02  0.24445391632E+00 -0.42120383834E+02  0.43400731857E+02  0.00000000000E+00 0.  1.
         11    1    3    3    0    0  0.10114909084E+02  0.16368834068E+01  0.31300182173E+02  0.32934665284E+02  0.51100000000E-03 0. -1.
        -11    1    3    3    0    0  0.13581290617E+01 -0.69908949231E+00 -0.16715164155E+01  0.22643339097E+01  0.51100000000E-03 0.  1.
         12    1    3    3    0    0 -0.10118224572E+01 -0.11822478308E+01  0.12491718077E+02  0.12588268949E+02  0.00000000000E+00 0. -1.
</event>
<event>
 7    1  0.6622189E-010  0.4778727E+02  0.7816164E-02  0.1312668E+00
        -11   -1    0    0    0    0  0.00000000000E+00  0.00000000000E+00  0.45593999997E+02  0.45594000000E+02  0.51100000000E-03 0. -1.
         11   -1    0    0    0    0 -0.00000000000E+00 -0.00000000000E+00 -0.45593999997E+02  0.45594000000E+02  0.51100000000E-03 0.  1.
    9900012    2    1    2    0    0  0.35769402718E+02  0.22097717443E+00  0.24578945746E+02  0.47787267567E+02  0.19999984145E+02 0.  0.
        -12    1    1    2    0    0 -0.35769402718E+02 -0.22097717443E+00 -0.24578945746E+02  0.43400732433E+02  0.00000000000E+00 0.  1.
         11    1    3    3    0    0  0.13411205633E+01 -0.41769603456E+01  0.60309900518E+01  0.74577773739E+01  0.51100000000E-03 0. -1.
        -11    1    3    3    0    0  0.28662979552E+02  0.37525786487E+01  0.11280717645E+02  0.31030675696E+02  0.51100000000E-03 0.  1.
         12    1    3    3    0    0  0.57653026030E+01  0.64535887130E+00  0.72672380500E+01  0.92988144971E+01  0.00000000000E+00 0. -1.
</event>
<event>
 7    1  0.6622189E-010  0.4778727E+02  0.7816164E-02  0.1312668E+00
        -11   -1    0    0    0    0  0.00000000000E+00  0.00000000000E+00  0.45593999997E+02  0.45594000000E+02  0.51100000000E-03 0. -1.
         11   -1    0    0    0    0 -0.00000000000E+00 -0.00000000000E+00 -0.45593999997E+02  0.45594000000E+02  0.51100000000E-03 0.  1.
    9900012    2    1    2    0    0 -0.23033641142E+02  0.15992862677E+02  0.33125567407E+02  0.47787268475E+02  0.19999988286E+02 0.  0.
        -12    1    1    2    0    0  0.23033641142E+02 -0.15992862677E+02 -0.33125567407E+02  0.43400731525E+02  0.00000000000E+00 0.  1.
         11    1    3    3    0    0 -0.15162557621E+02  0.17408667729E+02  0.15075298498E+02  0.27572259443E+02  0.51100000000E-03 0. -1.
        -11    1    3    3    0    0 -0.15155830624E+01 -0.10372419761E+01  0.87731433199E+01  0.89633089264E+01  0.51100000000E-03 0.  1.
         12    1    3    3    0    0 -0.63555004586E+01 -0.37856307592E+00  0.92771255891E+01  0.11251700106E+02  0.00000000000E+00 0. -1.
</event>
<event>
 7    1  0.6622189E-010  0.4778727E+02  0.7816164E-02  0.1312668E+00
        -11   -1    0    0    0    0  0.00000000000E+00  0.00000000000E+00  0.45593999997E+02  0.45594000000E+02  0.51100000000E-03 0. -1.
         11   -1    0    0    0    0 -0.00000000000E+00 -0.00000000000E+00 -0.45593999997E+02  0.45594000000E+02  0.51100000000E-03 0.  1.
    9900012    2    1    2    0    0  0.28772112201E+02  0.18383931598E+02 -0.26792170497E+02  0.47787265197E+02  0.19999973338E+02 0.  0.
         12    1    1    2    0    0 -0.28772112201E+02 -0.18383931598E+02  0.26792170497E+02  0.43400734803E+02  0.00000000000E+00 0. -1.
         11    1    3    3    0    0  0.15576370970E+02  0.15075155091E+02 -0.89370168464E+01  0.23446831427E+02  0.51100000000E-03 0. -1.
        -11    1    3    3    0    0  0.11509525987E+02  0.48600287287E+01 -0.18145780723E+02  0.22030851686E+02  0.51100000000E-03 0.  1.
         12    1    3    3    0    0  0.16862152440E+01 -0.15512522217E+01  0.29062707227E+00  0.23095820833E+01  0.00000000000E+00 0. -1.
</event>
<event>
 7    1  0.1024570E-009  0.4778727E+02  0.7816164E-02  0.1312668E+00
        -11   -1    0    0    0    0  0.00000000000E+00  0.00000000000E+00  0.45593999997E+02  0.45594000000E+02  0.51100000000E-03 0. -1.
         11   -1    0    0    0    0 -0.00000000000E+00 -0.00000000000E+00 -0.45593999997E+02  0.45594000000E+02  0.51100000000E-03 0.  1.
    9900012    2    1    2    0    0  0.62746744811E+01 -0.66382555863E+01 -0.42428594071E+02  0.47787267611E+02  0.19999984345E+02 0.  0.
         12    1    1    2    0    0 -0.62746744811E+01  0.66382555863E+01  0.42428594071E+02  0.43400732389E+02  0.00000000000E+00 0. -1.
         11    1    3    3    0    0  0.17806390274E+01 -0.26075846027E+01 -0.28003695790E+00  0.31699516977E+01  0.51100000000E-03 0. -1.
        -11    1    3    3    0    0 -0.35048448562E+01  0.15943113662E+01 -0.20558748090E+02  0.20916211164E+02  0.51100000000E-03 0.  1.
        -12    1    3    3    0    0  0.79988803099E+01 -0.56249823498E+01 -0.21589809023E+02  0.23701104749E+02  0.00000000000E+00 0.  1.
</event>
<event>
 7    1  0.6622189E-010  0.4778727E+02  0.7816164E-02  0.1312668E+00
        -11   -1    0    0    0    0  0.00000000000E+00  0.00000000000E+00  0.45593999997E+02  0.45594000000E+02  0.51100000000E-03 0. -1.
         11   -1    0    0    0    0 -0.00000000000E+00 -0.00000000000E+00 -0.45593999997E+02  0.45594000000E+02  0.51100000000E-03 0.  1.
    9900012    2    1    2    0    0 -0.13376449622E+02  0.16466008305E+02 -0.37862442840E+02  0.47787269456E+02  0.19999992758E+02 0.  0.
         12    1    1    2    0    0  0.13376449622E+02 -0.16466008305E+02  0.37862442840E+02  0.43400730544E+02  0.00000000000E+00 0. -1.
         11    1    3    3    0    0 -0.12009570873E+02  0.87233205161E+01 -0.97904068989E+01  0.17781399857E+02  0.51100000000E-03 0. -1.
        -11    1    3    3    0    0  0.20003332623E+01  0.25582213395E+01 -0.17158120118E+02  0.17462729335E+02  0.51100000000E-03 0.  1.
         12    1    3    3    0    0 -0.33672120113E+01  0.51844664494E+01 -0.10913915822E+02  0.12543140264E+02  0.00000000000E+00 0. -1.
</event>
<event>
 7    1  0.6622189E-010  0.4778727E+02  0.7816164E-02  0.1312668E+00
        -11   -1    0    0    0    0  0.00000000000E+00  0.00000000000E+00  0.45593999997E+02  0.45594000000E+02  0.51100000000E-03 0. -1.
         11   -1    0    0    0    0 -0.00000000000E+00 -0.00000000000E+00 -0.45593999997E+02  0.45594000000E+02  0.51100000000E-03 0.  1.
    9900012    2    1    2    0    0  0.13977140589E+02  0.92857425142E+01  0.40025463971E+02  0.47787271444E+02  0.20000001821E+02 0.  0.
        -12    1    1    2    0    0 -0.13977140589E+02 -0.92857425142E+01 -0.40025463971E+02  0.43400728556E+02  0.00000000000E+00 0.  1.
         11    1    3    3    0    0  0.91501878319E+01  0.96420363639E+01  0.20425214258E+02  0.24369739029E+02  0.51100000000E-03 0. -1.
        -11    1    3    3    0    0  0.11452001505E+01 -0.52667518583E+01  0.41798704724E+01  0.68206653597E+01  0.51100000000E-03 0.  1.
        -12    1    3    3    0    0  0.36817526071E+01  0.49104580086E+01  0.15420379241E+02  0.16596867055E+02  0.00000000000E+00 0.  1.
</event>
<event>
 7    1  0.6622189E-010  0.4778728E+02  0.7816164E-02  0.1312668E+00
        -11   -1    0    0    0    0  0.00000000000E+00  0.00000000000E+00  0.45593999997E+02  0.45594000000E+02  0.51100000000E-03 0. -1.
         11   -1    0    0    0    0 -0.00000000000E+00 -0.00000000000E+00 -0.45593999997E+02  0.45594000000E+02  0.51100000000E-03 0.  1.
    9900012    2    1    2    0    0 -0.40028671715E+02  0.90788465567E+01 -0.14103294458E+02  0.47787275022E+02  0.20000018136E+02 0.  0.
         12    1    1    2    0    0  0.40028671715E+02 -0.90788465567E+01  0.14103294458E+02  0.43400724978E+02  0.00000000000E+00 0. -1.
         11    1    3    3    0    0 -0.23084222354E+02  0.11944816997E+02 -0.12441279533E+02  0.28815714661E+02  0.51100000000E-03 0. -1.
        -11    1    3    3    0    0 -0.10655213810E+02  0.21281881341E+01 -0.10921977448E+01  0.10920424087E+02  0.51100000000E-03 0.  1.
         12    1    3    3    0    0 -0.62892355512E+01 -0.49941585743E+01 -0.56981718075E+00  0.80511362740E+01  0.00000000000E+00 0. -1.
</event>
<event>
 7    1  0.6622189E-010  0.4778727E+02  0.7816164E-02  0.1312668E+00
        -11   -1    0    0    0    0  0.00000000000E+00  0.00000000000E+00  0.45593999997E+02  0.45594000000E+02  0.51100000000E-03 0. -1.
         11   -1    0    0    0    0 -0.00000000000E+00 -0.00000000000E+00 -0.45593999997E+02  0.45594000000E+02  0.51100000000E-03 0.  1.
    9900012    2    1    2    0    0  0.53807212561E+01 -0.31758316436E+02 -0.29087461483E+02  0.47787271439E+02  0.20000001800E+02 0.  0.
         12    1    1    2    0    0 -0.53807212561E+01  0.31758316436E+02  0.29087461483E+02  0.43400728561E+02  0.00000000000E+00 0. -1.
         11    1    3    3    0    0  0.94421987311E+00 -0.21754697404E+02 -0.77274110989E+01  0.23105654998E+02  0.51100000000E-03 0. -1.
        -11    1    3    3    0    0  0.40511964712E+01 -0.23123129027E+01 -0.82023847016E+01  0.94360001517E+01  0.51100000000E-03 0.  1.
        -12    1    3    3    0    0  0.38530491176E+00 -0.76913061289E+01 -0.13157665682E+02  0.15245616290E+02  0.00000000000E+00 0.  1.
</event>
<event>
 7    1  0.6622189E-010  0.4778727E+02  0.7816164E-02  0.1312668E+00
        -11   -1    0    0    0    0  0.00000000000E+00  0.00000000000E+00  0.45593999997E+02  0.45594000000E+02  0.51100000000E-03 0.  1.
         11   -1    0    0    0    0 -0.00000000000E+00 -0.00000000000E+00 -0.45593999997E+02  0.45594000000E+02  0.51100000000E-03 0. -1.
    9900012    2    1    2    0    0  0.38598932611E+02  0.18803132636E+02 -0.63393780034E+01  0.47787272942E+02  0.20000008654E+02 0.  0.
         12    1    1    2    0    0 -0.38598932611E+02 -0.18803132636E+02  0.63393780034E+01  0.43400727058E+02  0.00000000000E+00 0. -1.
         11    1    3    3    0    0  0.19577972072E+01  0.39255411344E+01 -0.59909556685E+01  0.74252537455E+01  0.51100000000E-03 0. -1.
        -11    1    3    3    0    0  0.23376223650E+02  0.84485087180E+01  0.35653871658E+01  0.25110498155E+02  0.51100000000E-03 0.  1.
         12    1    3    3    0    0  0.13264911754E+02  0.64290827832E+01 -0.39138095008E+01  0.15251521042E+02  0.00000000000E+00 0. -1.
</event>
<event>
 7    1  0.6622189E-010  0.4778727E+02  0.7816164E-02  0.1312668E+00
        -11   -1    0    0    0    0  0.00000000000E+00  0.00000000000E+00  0.45593999997E+02  0.45594000000E+02  0.51100000000E-03 0. -1.
         11   -1    0    0    0    0 -0.00000000000E+00 -0.00000000000E+00 -0.45593999997E+02  0.45594000000E+02  0.51100000000E-03 0.  1.
    9900012    2    1    2    0    0 -0.83299699349E+01  0.25669440701E+02 -0.33989920774E+02  0.47787270752E+02  0.19999998666E+02 0.  0.
         12    1    1    2    0    0  0.83299699349E+01 -0.25669440701E+02  0.33989920774E+02  0.43400729248E+02  0.00000000000E+00 0. -1.
         11    1    3    3    0    0  0.61369002489E+00 -0.11600690024E+00  0.16604457140E-01  0.62477917433E+00  0.51100000000E-03 0. -1.
        -11    1    3    3    0    0 -0.97762369955E+01  0.91347047400E+01 -0.24644154399E+02  0.28041968312E+02  0.51100000000E-03 0.  1.
        -12    1    3    3    0    0  0.83257703578E+00  0.16650742862E+02 -0.93623708321E+01  0.19120523266E+02  0.00000000000E+00 0.  1.
</event>
<event>
 7    1  0.6622189E-010  0.4778728E+02  0.7816164E-02  0.1312668E+00
        -11   -1    0    0    0    0  0.00000000000E+00  0.00000000000E+00  0.45593999997E+02  0.45594000000E+02  0.51100000000E-03 0.  1.
         11   -1    0    0    0    0 -0.00000000000E+00 -0.00000000000E+00 -0.45593999997E+02  0.45594000000E+02  0.51100000000E-03 0. -1.
    9900012    2    1    2    0    0  0.38417150811E+02  0.16617386293E+02 -0.11472041787E+02  0.47787277121E+02  0.20000027705E+02 0.  0.
        -12    1    1    2    0    0 -0.38417150811E+02 -0.16617386293E+02  0.11472041787E+02  0.43400722879E+02  0.00000000000E+00 0.  1.
         11    1    3    3    0    0  0.57460690641E+01 -0.12889151494E+01 -0.27702197876E+01  0.65078975011E+01  0.51100000000E-03 0.  1.
        -11    1    3    3    0    0  0.29430043581E+02  0.97942139775E+01 -0.37632672905E+01  0.31244459887E+02  0.51100000000E-03 0. -1.
        -12    1    3    3    0    0  0.32410381655E+01  0.81120874653E+01 -0.49385547092E+01  0.10034919733E+02  0.00000000000E+00 0.  1.
</event>
<event>
 7    1  0.6622189E-010  0.4778727E+02  0.7816164E-02  0.1312668E+00
        -11   -1    0    0    0    0  0.00000000000E+00  0.00000000000E+00  0.45593999997E+02  0.45594000000E+02  0.51100000000E-03 0. -1.
         11   -1    0    0    0    0 -0.00000000000E+00 -0.00000000000E+00 -0.45593999997E+02  0.45594000000E+02  0.51100000000E-03 0.  1.
    9900012    2    1    2    0    0  0.16390034292E+02 -0.29796845419E+02  0.26965491156E+02  0.47787274957E+02  0.20000017839E+02 0.  0.
        -12    1    1    2    0    0 -0.16390034292E+02  0.29796845419E+02 -0.26965491156E+02  0.43400725043E+02  0.00000000000E+00 0.  1.
         11    1    3    3    0    0  0.55684613382E+01 -0.26951511840E+02  0.18352155696E+02  0.33078593850E+02  0.51100000000E-03 0. -1.
        -11    1    3    3    0    0  0.36569912143E+01 -0.89005377293E+00  0.64950443874E+00  0.38193764854E+01  0.51100000000E-03 0.  1.
         12    1    3    3    0    0  0.71645817393E+01 -0.19552798060E+01  0.79638310210E+01  0.10889304622E+02  0.00000000000E+00 0. -1.
</event>
<event>
 7    1  0.6622189E-010  0.4778727E+02  0.7816164E-02  0.1312668E+00
        -11   -1    0    0    0    0  0.00000000000E+00  0.00000000000E+00  0.45593999997E+02  0.45594000000E+02  0.51100000000E-03 0. -1.
         11   -1    0    0    0    0 -0.00000000000E+00 -0.00000000000E+00 -0.45593999997E+02  0.45594000000E+02  0.51100000000E-03 0.  1.
    9900012    2    1    2    0    0  0.67989068881E+01 -0.29847415673E+02 -0.30765725604E+02  0.47787271560E+02  0.20000002348E+02 0.  0.
         12    1    1    2    0    0 -0.67989068881E+01  0.29847415673E+02  0.30765725604E+02  0.43400728440E+02  0.00000000000E+00 0. -1.
         11    1    3    3    0    0  0.94950225725E+01 -0.75410990695E+01 -0.98257935733E+01  0.15606724462E+02  0.51100000000E-03 0. -1.
        -11    1    3    3    0    0 -0.10789243849E+01 -0.21563184236E+02 -0.15836108504E+02  0.26775311857E+02  0.51100000000E-03 0.  1.
        -12    1    3    3    0    0 -0.16171912996E+01 -0.74313236755E+00 -0.51038235268E+01  0.54052352408E+01  0.00000000000E+00 0.  1.
</event>
<event>
 7    1  0.6622189E-010  0.4778727E+02  0.7816164E-02  0.1312668E+00
        -11   -1    0    0    0    0  0.00000000000E+00  0.00000000000E+00  0.45593999997E+02  0.45594000000E+02  0.51100000000E-03 0. -1.
         11   -1    0    0    0    0 -0.00000000000E+00 -0.00000000000E+00 -0.45593999997E+02  0.45594000000E+02  0.51100000000E-03 0.  1.
    9900012    2    1    2    0    0  0.12629526780E+02  0.25812939269E+02 -0.32524002831E+02  0.47787267972E+02  0.19999985993E+02 0.  0.
         12    1    1    2    0    0 -0.12629526780E+02 -0.25812939269E+02  0.32524002831E+02  0.43400732028E+02  0.00000000000E+00 0. -1.
         11    1    3    3    0    0  0.11414252017E+02  0.15416198555E+02 -0.13741447267E+02  0.23596010261E+02  0.51100000000E-03 0. -1.
        -11    1    3    3    0    0 -0.37149105892E+01  0.61187620674E+01 -0.44144880622E+01  0.84099652220E+01  0.51100000000E-03 0.  1.
        -12    1    3    3    0    0  0.49301853522E+01  0.42779786468E+01 -0.14368067501E+02  0.15781292489E+02  0.00000000000E+00 0.  1.
</event>
<event>
 7    1  0.6622189E-010  0.4778729E+02  0.7816164E-02  0.1312668E+00
        -11   -1    0    0    0    0  0.00000000000E+00  0.00000000000E+00  0.45593999997E+02  0.45594000000E+02  0.51100000000E-03 0. -1.
         11   -1    0    0    0    0 -0.00000000000E+00 -0.00000000000E+00 -0.45593999997E+02  0.45594000000E+02  0.51100000000E-03 0.  1.
    9900012    2    1    2    0    0  0.38638518001E+02  0.70093131031E+01 -0.18481241245E+02  0.47787287777E+02  0.20000076291E+02 0.  0.
         12    1    1    2    0    0 -0.38638518001E+02 -0.70093131031E+01  0.18481241245E+02  0.43400712223E+02  0.00000000000E+00 0. -1.
         11    1    3    3    0    0  0.17315846657E+02  0.58472739722E+01 -0.14551664661E+02  0.23361937056E+02  0.51100000000E-03 0. -1.
        -11    1    3    3    0    0  0.18248840085E+02  0.17043560838E+01  0.12577392990E+01  0.18371360933E+02  0.51100000000E-03 0.  1.
         12    1    3    3    0    0  0.30738312589E+01 -0.54231695282E+00 -0.51873158831E+01  0.60539897883E+01  0.00000000000E+00 0. -1.
</event>
<event>
 7    1  0.6622189E-010  0.4778727E+02  0.7816164E-02  0.1312668E+00
        -11   -1    0    0    0    0  0.00000000000E+00  0.00000000000E+00  0.45593999997E+02  0.45594000000E+02  0.51100000000E-03 0. -1.
         11   -1    0    0    0    0 -0.00000000000E+00 -0.00000000000E+00 -0.45593999997E+02  0.45594000000E+02  0.51100000000E-03 0.  1.
    9900012    2    1    2    0    0 -0.30591996326E+02  0.19677679401E+01  0.30722646453E+02  0.47787270110E+02  0.19999995741E+02 0.  0.
        -12    1    1    2    0    0  0.30591996326E+02 -0.19677679401E+01 -0.30722646453E+02  0.43400729890E+02  0.00000000000E+00 0.  1.
         11    1    3    3    0    0 -0.16063319046E+02 -0.32471527193E+01  0.85859152822E+01  0.18501139453E+02  0.51100000000E-03 0. -1.
        -11    1    3    3    0    0 -0.15671729194E+02  0.59875501994E+01  0.22289965825E+02  0.27897964622E+02  0.51100000000E-03 0.  1.
        -12    1    3    3    0    0  0.11430519132E+01 -0.77262954001E+00 -0.15323465467E+00  0.13881660354E+01  0.00000000000E+00 0.  1.
</event>
<event>
 7    1  0.6622189E-010  0.4778727E+02  0.7816164E-02  0.1312668E+00
        -11   -1    0    0    0    0  0.00000000000E+00  0.00000000000E+00  0.45593999997E+02  0.45594000000E+02  0.51100000000E-03 0. -1.
         11   -1    0    0    0    0 -0.00000000000E+00 -0.00000000000E+00 -0.45593999997E+02  0.45594000000E+02  0.51100000000E-03 0.  1.
    9900012    2    1    2    0    0  0.32339572141E+02 -0.13018959373E+02 -0.25851148946E+02  0.47787272688E+02  0.20000007492E+02 0.  0.
         12    1    1    2    0    0 -0.32339572141E+02  0.13018959373E+02  0.25851148946E+02  0.43400727312E+02  0.00000000000E+00 0. -1.
         11    1    3    3    0    0  0.93886053362E+01  0.31542623374E+01 -0.63187402233E+01  0.11748266226E+02  0.51100000000E-03 0. -1.
        -11    1    3    3    0    0  0.11065555466E+02 -0.11374703456E+02 -0.49479755555E+01  0.16622661004E+02  0.51100000000E-03 0.  1.
        -12    1    3    3    0    0  0.11885411338E+02 -0.47985182541E+01 -0.14584433167E+02  0.19416345458E+02  0.00000000000E+00 0.  1.
</event>
<event>
 7    1  0.6622189E-010  0.4778729E+02  0.7816164E-02  0.1312668E+00
        -11   -1    0    0    0    0  0.00000000000E+00  0.00000000000E+00  0.45593999997E+02  0.45594000000E+02  0.51100000000E-03 0. -1.
         11   -1    0    0    0    0 -0.00000000000E+00 -0.00000000000E+00 -0.45593999997E+02  0.45594000000E+02  0.51100000000E-03 0.  1.
    9900012    2    1    2    0    0 -0.13761981975E+02 -0.11027160392E+01 -0.41146240364E+02  0.47787294630E+02  0.20000107534E+02 0.  0.
         12    1    1    2    0    0  0.13761981975E+02  0.11027160392E+01  0.41146240364E+02  0.43400705370E+02  0.00000000000E+00 0. -1.
         11    1    3    3    0    0  0.94348038368E+00 -0.67593237748E+01 -0.10044087606E+02  0.12143405998E+02  0.51100000000E-03 0. -1.
        -11    1    3    3    0    0 -0.53484538879E+01  0.34635689523E+01 -0.19841980906E+02  0.20840021003E+02  0.51100000000E-03 0.  1.
         12    1    3    3    0    0 -0.93570084705E+01  0.21930387833E+01 -0.11260171852E+02  0.14803867629E+02  0.00000000000E+00 0. -1.
</event>
<event>
 7    1  0.6622189E-010  0.4778727E+02  0.7816164E-02  0.1312668E+00
        -11   -1    0    0    0    0  0.00000000000E+00  0.00000000000E+00  0.45593999997E+02  0.45594000000E+02  0.51100000000E-03 0. -1.
         11   -1    0    0    0    0 -0.00000000000E+00 -0.00000000000E+00 -0.45593999997E+02  0.45594000000E+02  0.51100000000E-03 0.  1.
    9900012    2    1    2    0    0  0.97807688328E+01  0.37272900691E+02 -0.19967241299E+02  0.47787270859E+02  0.19999999156E+02 0.  0.
         12    1    1    2    0    0 -0.97807688328E+01 -0.37272900691E+02  0.19967241299E+02  0.43400729141E+02  0.00000000000E+00 0. -1.
         11    1    3    3    0    0  0.83505879135E+01  0.60870910535E+01 -0.23574135136E+01  0.10599169530E+02  0.51100000000E-03 0.  1.
        -11    1    3    3    0    0 -0.27656431625E+01  0.19980580874E+02 -0.14450192050E+02  0.24812908832E+02  0.51100000000E-03 0. -1.
         12    1    3    3    0    0  0.41958240818E+01  0.11205228763E+02 -0.31596357349E+01  0.12375192497E+02  0.00000000000E+00 0. -1.
</event>
<event>
 7    1  0.6622189E-010  0.4778727E+02  0.7816164E-02  0.1312668E+00
        -11   -1    0    0    0    0  0.00000000000E+00  0.00000000000E+00  0.45593999997E+02  0.45594000000E+02  0.51100000000E-03 0. -1.
         11   -1    0    0    0    0 -0.00000000000E+00 -0.00000000000E+00 -0.45593999997E+02  0.45594000000E+02  0.51100000000E-03 0.  1.
    9900012    2    1    2    0    0 -0.13793577240E+02 -0.95415832358E+01  0.40028972271E+02  0.47787271840E+02  0.20000003629E+02 0.  0.
        -12    1    1    2    0    0  0.13793577240E+02  0.95415832358E+01 -0.40028972271E+02  0.43400728160E+02  0.00000000000E+00 0.  1.
         11    1    3    3    0    0 -0.13374505239E+02 -0.29497349028E+01  0.26193974885E+02  0.29558461511E+02  0.51100000000E-03 0. -1.
        -11    1    3    3    0    0 -0.16319998145E+01 -0.85910903407E+01  0.13149930474E+02  0.15792116019E+02  0.51100000000E-03 0.  1.
         12    1    3    3    0    0  0.12129278134E+01  0.19992420077E+01  0.68506691210E+00  0.24366943099E+01  0.00000000000E+00 0. -1.
</event>
<event>
 7    1  0.6622189E-010  0.4778725E+02  0.7816164E-02  0.1312668E+00
        -11   -1    0    0    0    0  0.00000000000E+00  0.00000000000E+00  0.45593999997E+02  0.45594000000E+02  0.51100000000E-03 0. -1.
         11   -1    0    0    0    0 -0.00000000000E+00 -0.00000000000E+00 -0.45593999997E+02  0.45594000000E+02  0.51100000000E-03 0.  1.
    9900012    2    1    2    0    0  0.60682007320E+01 -0.50456616837E+01  0.42677199260E+02  0.47787250023E+02  0.19999904154E+02 0.  0.
        -12    1    1    2    0    0 -0.60682007320E+01  0.50456616837E+01 -0.42677199260E+02  0.43400749977E+02  0.00000000000E+00 0.  1.
         11    1    3    3    0    0  0.33940005742E+01 -0.26503911767E+01  0.12461810831E+02  0.13184860361E+02  0.51100000000E-03 0. -1.
        -11    1    3    3    0    0  0.66739898973E+01 -0.11207500962E+01  0.29594954644E+02  0.30358846529E+02  0.51100000000E-03 0.  1.
        -12    1    3    3    0    0 -0.39997897395E+01 -0.12745204108E+01  0.62043378423E+00  0.42435431326E+01  0.00000000000E+00 0.  1.
</event>
<event>
 7    1  0.6622189E-010  0.4778728E+02  0.7816164E-02  0.1312668E+00
        -11   -1    0    0    0    0  0.00000000000E+00  0.00000000000E+00  0.45593999997E+02  0.45594000000E+02  0.51100000000E-03 0. -1.
         11   -1    0    0    0    0 -0.00000000000E+00 -0.00000000000E+00 -0.45593999997E+02  0.45594000000E+02  0.51100000000E-03 0.  1.
    9900012    2    1    2    0    0  0.13594024708E+02  0.98159796896E+01  0.40030886470E+02  0.47787276082E+02  0.20000022969E+02 0.  0.
        -12    1    1    2    0    0 -0.13594024708E+02 -0.98159796896E+01 -0.40030886470E+02  0.43400723918E+02  0.00000000000E+00 0.  1.
         11    1    3    3    0    0  0.25026621582E+01 -0.41402621195E+01  0.11327693834E+02  0.12317537747E+02  0.51100000000E-03 0. -1.
        -11    1    3    3    0    0  0.68093667118E+01  0.14887586639E+02  0.21265066647E+02  0.26836742923E+02  0.51100000000E-03 0.  1.
        -12    1    3    3    0    0  0.42819958379E+01 -0.93134483038E+00  0.74381259891E+01  0.86329954117E+01  0.00000000000E+00 0.  1.
</event>
<event>
 7    1  0.6622189E-010  0.4778725E+02  0.7816164E-02  0.1312668E+00
        -11   -1    0    0    0    0  0.00000000000E+00  0.00000000000E+00  0.45593999997E+02  0.45594000000E+02  0.51100000000E-03 0. -1.
         11   -1    0    0    0    0 -0.00000000000E+00 -0.00000000000E+00 -0.45593999997E+02  0.45594000000E+02  0.51100000000E-03 0.  1.
    9900012    2    1    2    0    0  0.37959754327E+01 -0.10754718614E+02  0.41875429910E+02  0.47787250789E+02  0.19999907648E+02 0.  0.
        -12    1    1    2    0    0 -0.37959754327E+01  0.10754718614E+02 -0.41875429910E+02  0.43400749211E+02  0.00000000000E+00 0.  1.
         11    1    3    3    0    0  0.17186473633E+01 -0.12732681825E+01  0.83605288525E+01  0.86297974240E+01  0.51100000000E-03 0. -1.
        -11    1    3    3    0    0  0.48846990332E+01 -0.83946065002E+01  0.34615452700E+02  0.35952180307E+02  0.51100000000E-03 0.  1.
        -12    1    3    3    0    0 -0.28073709637E+01 -0.10868439311E+01 -0.11005516429E+01  0.32052730581E+01  0.00000000000E+00 0.  1.
</event>
<event>
 7    1  0.6622189E-010  0.4778727E+02  0.7816164E-02  0.1312668E+00
        -11   -1    0    0    0    0  0.00000000000E+00  0.00000000000E+00  0.45593999997E+02  0.45594000000E+02  0.51100000000E-03 0. -1.
         11   -1    0    0    0    0 -0.00000000000E+00 -0.00000000000E+00 -0.45593999997E+02  0.45594000000E+02  0.51100000000E-03 0.  1.
    9900012    2    1    2    0    0 -0.28036035306E+02 -0.27056512621E+02 -0.19119343439E+02  0.47787269080E+02  0.19999991041E+02 0.  0.
         12    1    1    2    0    0  0.28036035306E+02  0.27056512621E+02  0.19119343439E+02  0.43400730920E+02  0.00000000000E+00 0. -1.
         11    1    3    3    0    0 -0.10865673110E+02 -0.13610524007E+02 -0.24046407765E+00  0.17417434918E+02  0.51100000000E-03 0. -1.
        -11    1    3    3    0    0 -0.67566013810E+01 -0.10712009360E+02 -0.12795370180E+02  0.18003341497E+02  0.51100000000E-03 0.  1.
         12    1    3    3    0    0 -0.10413760815E+02 -0.27339792542E+01 -0.60835091814E+01  0.12366492665E+02  0.00000000000E+00 0. -1.
</event>
<event>
 7    1  0.6622189E-010  0.4778729E+02  0.7816164E-02  0.1312668E+00
        -11   -1    0    0    0    0  0.00000000000E+00  0.00000000000E+00  0.45593999997E+02  0.45594000000E+02  0.51100000000E-03 0. -1.
         11   -1    0    0    0    0 -0.00000000000E+00 -0.00000000000E+00 -0.45593999997E+02  0.45594000000E+02  0.51100000000E-03 0.  1.
    9900012    2    1    2    0    0  0.28320066368E+01  0.41542026907E+02  0.12241779922E+02  0.47787292209E+02  0.20000096496E+02 0.  0.
        -12    1    1    2    0    0 -0.28320066368E+01 -0.41542026907E+02 -0.12241779922E+02  0.43400707791E+02  0.00000000000E+00 0.  1.
         11    1    3    3    0    0 -0.27671532015E+00  0.24635478698E+02  0.55491139397E+01  0.25254228316E+02  0.51100000000E-03 0. -1.
        -11    1    3    3    0    0  0.23943688070E+00  0.61399264386E+01  0.92462865463E+01  0.11101794533E+02  0.51100000000E-03 0.  1.
        -12    1    3    3    0    0  0.28692850763E+01  0.10766621770E+02 -0.25536205642E+01  0.11431269360E+02  0.00000000000E+00 0.  1.
</event>
<event>
 7    1  0.6622189E-010  0.4778727E+02  0.7816164E-02  0.1312668E+00
        -11   -1    0    0    0    0  0.00000000000E+00  0.00000000000E+00  0.45593999997E+02  0.45594000000E+02  0.51100000000E-03 0. -1.
         11   -1    0    0    0    0 -0.00000000000E+00 -0.00000000000E+00 -0.45593999997E+02  0.45594000000E+02  0.51100000000E-03 0.  1.
    9900012    2    1    2    0    0  0.23625896760E+02 -0.26943231125E+02  0.24484739280E+02  0.47787272370E+02  0.20000006046E+02 0.  0.
        -12    1    1    2    0    0 -0.23625896760E+02  0.26943231125E+02 -0.24484739280E+02  0.43400727630E+02  0.00000000000E+00 0.  1.
         11    1    3    3    0    0  0.54779448085E+01  0.11990929145E+01 -0.45676530967E+00  0.56262187970E+01  0.51100000000E-03 0.  1.
        -11    1    3    3    0    0  0.16139575914E+02 -0.27464347991E+02  0.23051365884E+02  0.39321009532E+02  0.51100000000E-03 0. -1.
         12    1    3    3    0    0  0.20083760372E+01 -0.67797604886E+00  0.18901387063E+01  0.28400440417E+01  0.00000000000E+00 0. -1.
</event>
<event>
 7    1  0.6622189E-010  0.4778727E+02  0.7816164E-02  0.1312668E+00
        -11   -1    0    0    0    0  0.00000000000E+00  0.00000000000E+00  0.45593999997E+02  0.45594000000E+02  0.51100000000E-03 0. -1.
         11   -1    0    0    0    0 -0.00000000000E+00 -0.00000000000E+00 -0.45593999997E+02  0.45594000000E+02  0.51100000000E-03 0.  1.
    9900012    2    1    2    0    0 -0.10753949247E+02 -0.16771598398E+02  0.38557613428E+02  0.47787268549E+02  0.19999988623E+02 0.  0.
        -12    1    1    2    0    0  0.10753949247E+02  0.16771598398E+02 -0.38557613428E+02  0.43400731451E+02  0.00000000000E+00 0.  1.
         11    1    3    3    0    0 -0.93607911730E+01 -0.16410566857E+02  0.29950027427E+02  0.35410948294E+02  0.51100000000E-03 0. -1.
        -11    1    3    3    0    0  0.36885666496E+01  0.39903227224E+00  0.30057410338E+01  0.47748539356E+01  0.51100000000E-03 0.  1.
        -12    1    3    3    0    0 -0.50817247235E+01 -0.76006381239E+00  0.56018449671E+01  0.76014663190E+01  0.00000000000E+00 0.  1.
</event>
<event>
 7    1  0.6622189E-010  0.4778727E+02  0.7816164E-02  0.1312668E+00
        -11   -1    0    0    0    0  0.00000000000E+00  0.00000000000E+00  0.45593999997E+02  0.45594000000E+02  0.51100000000E-03 0. -1.
         11   -1    0    0    0    0 -0.00000000000E+00 -0.00000000000E+00 -0.45593999997E+02  0.45594000000E+02  0.51100000000E-03 0.  1.
    9900012    2    1    2    0    0 -0.15400557148E+02  0.11585048631E+02  0.38887437902E+02  0.47787270297E+02  0.19999996591E+02 0.  0.
        -12    1    1    2    0    0  0.15400557148E+02 -0.11585048631E+02 -0.38887437902E+02  0.43400729703E+02  0.00000000000E+00 0.  1.
         11    1    3    3    0    0 -0.15224499350E+02  0.19007088789E+01  0.30536417937E+02  0.34174126110E+02  0.51100000000E-03 0. -1.
        -11    1    3    3    0    0  0.17339249702E+01  0.34673567962E+01  0.49075311279E+01  0.62540323782E+01  0.51100000000E-03 0.  1.
         12    1    3    3    0    0 -0.19099827679E+01  0.62169829555E+01  0.34434888368E+01  0.73591118086E+01  0.00000000000E+00 0. -1.
</event>
<event>
 7    1  0.6622189E-010  0.4778727E+02  0.7816164E-02  0.1312668E+00
        -11   -1    0    0    0    0  0.00000000000E+00  0.00000000000E+00  0.45593999997E+02  0.45594000000E+02  0.51100000000E-03 0. -1.
         11   -1    0    0    0    0 -0.00000000000E+00 -0.00000000000E+00 -0.45593999997E+02  0.45594000000E+02  0.51100000000E-03 0.  1.
    9900012    2    1    2    0    0 -0.73334722382E+01  0.20583868394E+02  0.37498635189E+02  0.47787273115E+02  0.20000009439E+02 0.  0.
        -12    1    1    2    0    0  0.73334722382E+01 -0.20583868394E+02 -0.37498635189E+02  0.43400726885E+02  0.00000000000E+00 0.  1.
         11    1    3    3    0    0  0.17693329498E+01  0.11159385630E+02  0.23272200042E+02  0.25870015883E+02  0.51100000000E-03 0. -1.
        -11    1    3    3    0    0 -0.92963139004E+01  0.71349966552E+01  0.55962296265E+01  0.12986431985E+02  0.51100000000E-03 0.  1.
        -12    1    3    3    0    0  0.19350871240E+00  0.22894861084E+01  0.86302055209E+01  0.89308252472E+01  0.00000000000E+00 0.  1.
</event>
<event>
 7    1  0.6622189E-010  0.4778728E+02  0.7816164E-02  0.1312668E+00
        -11   -1    0    0    0    0  0.00000000000E+00  0.00000000000E+00  0.45593999997E+02  0.45594000000E+02  0.51100000000E-03 0. -1.
         11   -1    0    0    0    0 -0.00000000000E+00 -0.00000000000E+00 -0.45593999997E+02  0.45594000000E+02  0.51100000000E-03 0.  1.
    9900012    2    1    2    0    0 -0.39752263318E+01 -0.17135392594E+02  0.39676172988E+02  0.47787276426E+02  0.20000024538E+02 0.  0.
        -12    1    1    2    0    0  0.39752263318E+01  0.17135392594E+02 -0.39676172988E+02  0.43400723574E+02  0.00000000000E+00 0.  1.
         11    1    3    3    0    0 -0.37493357875E+01 -0.79116816170E+01  0.10146913893E+02  0.13401943392E+02  0.51100000000E-03 0. -1.
        -11    1    3    3    0    0 -0.38739788111E+01 -0.61734522563E+01  0.28633387915E+02  0.29546406353E+02  0.51100000000E-03 0.  1.
        -12    1    3    3    0    0  0.36480882668E+01 -0.30502587202E+01  0.89587117965E+00  0.48389266819E+01  0.00000000000E+00 0.  1.
</event>
<event>
 7    1  0.6622189E-010  0.4778727E+02  0.7816164E-02  0.1312668E+00
        -11   -1    0    0    0    0  0.00000000000E+00  0.00000000000E+00  0.45593999997E+02  0.45594000000E+02  0.51100000000E-03 0. -1.
         11   -1    0    0    0    0 -0.00000000000E+00 -0.00000000000E+00 -0.45593999997E+02  0.45594000000E+02  0.51100000000E-03 0.  1.
    9900012    2    1    2    0    0 -0.23837760980E+02 -0.89606870403E+01  0.35143853803E+02  0.47787271654E+02  0.20000002781E+02 0.  0.
        -12    1    1    2    0    0  0.23837760980E+02  0.89606870403E+01 -0.35143853803E+02  0.43400728346E+02  0.00000000000E+00 0.  1.
         11    1    3    3    0    0 -0.17776497150E+02  0.68004060707E+00  0.11339224597E+02  0.21096073589E+02  0.51100000000E-03 0.  1.
        -11    1    3    3    0    0 -0.50212596348E+01 -0.67011092201E+01  0.20517201728E+02  0.22160177800E+02  0.51100000000E-03 0. -1.
         12    1    3    3    0    0 -0.10400041956E+01 -0.29396184273E+01  0.32874274781E+01  0.45310202658E+01  0.00000000000E+00 0. -1.
</event>
<event>
 7    1  0.6622189E-010  0.4778727E+02  0.7816164E-02  0.1312668E+00
        -11   -1    0    0    0    0  0.00000000000E+00  0.00000000000E+00  0.45593999997E+02  0.45594000000E+02  0.51100000000E-03 0. -1.
         11   -1    0    0    0    0 -0.00000000000E+00 -0.00000000000E+00 -0.45593999997E+02  0.45594000000E+02  0.51100000000E-03 0.  1.
    9900012    2    1    2    0    0 -0.23925826387E+02 -0.32671859057E+02 -0.15611790333E+02  0.47787267979E+02  0.19999986023E+02 0.  0.
         12    1    1    2    0    0  0.23925826387E+02  0.32671859057E+02  0.15611790333E+02  0.43400732021E+02  0.00000000000E+00 0. -1.
         11    1    3    3    0    0 -0.46987973759E+01 -0.17482140295E+01  0.39174454442E+01  0.63624938619E+01  0.51100000000E-03 0. -1.
        -11    1    3    3    0    0 -0.13307480861E+02 -0.19584002413E+02 -0.11506113223E+02  0.26325137020E+02  0.51100000000E-03 0.  1.
         12    1    3    3    0    0 -0.59195481501E+01 -0.11339642615E+02 -0.80231225540E+01  0.15099637097E+02  0.00000000000E+00 0. -1.
</event>
<event>
 7    1  0.6622189E-010  0.4778727E+02  0.7816164E-02  0.1312668E+00
        -11   -1    0    0    0    0  0.00000000000E+00  0.00000000000E+00  0.45593999997E+02  0.45594000000E+02  0.51100000000E-03 0. -1.
         11   -1    0    0    0    0 -0.00000000000E+00 -0.00000000000E+00 -0.45593999997E+02  0.45594000000E+02  0.51100000000E-03 0.  1.
    9900012    2    1    2    0    0 -0.13240034712E+02  0.18767315848E+02 -0.36825434437E+02  0.47787270918E+02  0.19999999425E+02 0.  0.
         12    1    1    2    0    0  0.13240034712E+02 -0.18767315848E+02  0.36825434437E+02  0.43400729082E+02  0.00000000000E+00 0. -1.
         11    1    3    3    0    0 -0.16538447703E+02  0.16299685526E+02 -0.35463077430E+02  0.42389029969E+02  0.51100000000E-03 0. -1.
        -11    1    3    3    0    0  0.30204075456E+01  0.31531697948E+01 -0.73404282455E+00  0.44276585940E+01  0.51100000000E-03 0.  1.
         12    1    3    3    0    0  0.27800544510E+00 -0.68553947246E+00 -0.62831418303E+00  0.97058235529E+00  0.00000000000E+00 0. -1.
</event>
<event>
 7    1  0.6622189E-010  0.4778727E+02  0.7816164E-02  0.1312668E+00
        -11   -1    0    0    0    0  0.00000000000E+00  0.00000000000E+00  0.45593999997E+02  0.45594000000E+02  0.51100000000E-03 0. -1.
         11   -1    0    0    0    0 -0.00000000000E+00 -0.00000000000E+00 -0.45593999997E+02  0.45594000000E+02  0.51100000000E-03 0.  1.
    9900012    2    1    2    0    0  0.73932797973E+01  0.18354330965E+02 -0.38627465110E+02  0.47787272907E+02  0.20000008494E+02 0.  0.
         12    1    1    2    0    0 -0.73932797973E+01 -0.18354330965E+02  0.38627465110E+02  0.43400727093E+02  0.00000000000E+00 0. -1.
         11    1    3    3    0    0  0.81809249861E+01 -0.12303810970E+01 -0.10749441701E+02  0.13564360229E+02  0.51100000000E-03 0. -1.
        -11    1    3    3    0    0 -0.15108101908E+01  0.17006563857E+02 -0.22823500591E+02  0.28502946184E+02  0.51100000000E-03 0.  1.
         12    1    3    3    0    0  0.72316500201E+00  0.25781482049E+01 -0.50545228181E+01  0.57199664952E+01  0.00000000000E+00 0. -1.
</event>
<event>
 7    1  0.6622189E-010  0.4778727E+02  0.7816164E-02  0.1312668E+00
        -11   -1    0    0    0    0  0.00000000000E+00  0.00000000000E+00  0.45593999997E+02  0.45594000000E+02  0.51100000000E-03 0. -1.
         11   -1    0    0    0    0 -0.00000000000E+00 -0.00000000000E+00 -0.45593999997E+02  0.45594000000E+02  0.51100000000E-03 0.  1.
    9900012    2    1    2    0    0 -0.89104557062E+01 -0.19814694153E+02  0.37571333707E+02  0.47787269110E+02  0.19999991180E+02 0.  0.
        -12    1    1    2    0    0  0.89104557062E+01  0.19814694153E+02 -0.37571333707E+02  0.43400730890E+02  0.00000000000E+00 0.  1.
         11    1    3    3    0    0 -0.35286691762E+01 -0.39592047667E+01  0.10643680832E+02  0.11891793408E+02  0.51100000000E-03 0. -1.
        -11    1    3    3    0    0 -0.85070507421E+01 -0.68150650075E+01  0.50401372196E+01  0.12009080183E+02  0.51100000000E-03 0.  1.
        -12    1    3    3    0    0  0.31252642122E+01 -0.90404243785E+01  0.21887515655E+02  0.23886395519E+02  0.00000000000E+00 0.  1.
</event>
<event>
 7    1  0.6622189E-010  0.4778727E+02  0.7816164E-02  0.1312668E+00
        -11   -1    0    0    0    0  0.00000000000E+00  0.00000000000E+00  0.45593999997E+02  0.45594000000E+02  0.51100000000E-03 0.  1.
         11   -1    0    0    0    0 -0.00000000000E+00 -0.00000000000E+00 -0.45593999997E+02  0.45594000000E+02  0.51100000000E-03 0. -1.
    9900012    2    1    2    0    0 -0.33879229016E+02 -0.27124745095E+02  0.26357711287E+00  0.47787269268E+02  0.19999991899E+02 0.  0.
        -12    1    1    2    0    0  0.33879229016E+02  0.27124745095E+02 -0.26357711287E+00  0.43400730732E+02  0.00000000000E+00 0.  1.
         11    1    3    3    0    0 -0.19788424717E+02 -0.14447701663E+02 -0.45874274153E+01  0.24927140363E+02  0.51100000000E-03 0. -1.
        -11    1    3    3    0    0 -0.47139621129E+01 -0.77733619316E+01  0.76866861609E+01  0.11905113982E+02  0.51100000000E-03 0.  1.
         12    1    3    3    0    0 -0.93768421855E+01 -0.49036815010E+01 -0.28356816327E+01  0.10955014923E+02  0.00000000000E+00 0. -1.
</event>
<event>
 7    1  0.6622189E-010  0.4778733E+02  0.7816164E-02  0.1312668E+00
        -11   -1    0    0    0    0  0.00000000000E+00  0.00000000000E+00  0.45593999997E+02  0.45594000000E+02  0.51100000000E-03 0. -1.
         11   -1    0    0    0    0 -0.00000000000E+00 -0.00000000000E+00 -0.45593999997E+02  0.45594000000E+02  0.51100000000E-03 0.  1.
    9900012    2    1    2    0    0 -0.72489819215E+01 -0.38051521394E+01  0.42621492035E+02  0.47787325985E+02  0.20000250493E+02 0.  0.
        -12    1    1    2    0    0  0.72489819215E+01  0.38051521394E+01 -0.42621492035E+02  0.43400674015E+02  0.00000000000E+00 0.  1.
         11    1    3    3    0    0 -0.34143982004E+01  0.35519395442E+01  0.48589379565E+01  0.69198025928E+01  0.51100000000E-03 0. -1.
        -11    1    3    3    0    0  0.79066391913E+00 -0.84112840898E+01  0.12023003843E+02  0.14694470768E+02  0.51100000000E-03 0.  1.
        -12    1    3    3    0    0 -0.46252476402E+01  0.10541924062E+01  0.25739550235E+02  0.26173052624E+02  0.00000000000E+00 0.  1.
</event>
<event>
 7    1  0.6622189E-010  0.4778727E+02  0.7816164E-02  0.1312668E+00
        -11   -1    0    0    0    0  0.00000000000E+00  0.00000000000E+00  0.45593999997E+02  0.45594000000E+02  0.51100000000E-03 0. -1.
         11   -1    0    0    0    0 -0.00000000000E+00 -0.00000000000E+00 -0.45593999997E+02  0.45594000000E+02  0.51100000000E-03 0.  1.
    9900012    2    1    2    0    0  0.18019683655E+02 -0.19711132883E+02  0.34210899944E+02  0.47787269205E+02  0.19999991614E+02 0.  0.
        -12    1    1    2    0    0 -0.18019683655E+02  0.19711132883E+02 -0.34210899944E+02  0.43400730795E+02  0.00000000000E+00 0.  1.
         11    1    3    3    0    0  0.73751598625E+01 -0.10887375950E+02  0.71306226955E+01  0.14959068098E+02  0.51100000000E-03 0. -1.
        -11    1    3    3    0    0  0.81526866967E+01 -0.68948582499E+01  0.76276214528E+01  0.13121965552E+02  0.51100000000E-03 0.  1.
         12    1    3    3    0    0  0.24918370957E+01 -0.19288986824E+01  0.19452655796E+02  0.19706235555E+02  0.00000000000E+00 0. -1.
</event>
<event>
 7    1  0.6622189E-010  0.4778727E+02  0.7816164E-02  0.1312668E+00
        -11   -1    0    0    0    0  0.00000000000E+00  0.00000000000E+00  0.45593999997E+02  0.45594000000E+02  0.51100000000E-03 0. -1.
         11   -1    0    0    0    0 -0.00000000000E+00 -0.00000000000E+00 -0.45593999997E+02  0.45594000000E+02  0.51100000000E-03 0.  1.
    9900012    2    1    2    0    0  0.73302172852E+01  0.22455977868E+02 -0.36409064418E+02  0.47787274208E+02  0.20000014424E+02 0.  0.
         12    1    1    2    0    0 -0.73302172852E+01 -0.22455977868E+02  0.36409064418E+02  0.43400725792E+02  0.00000000000E+00 0. -1.
         11    1    3    3    0    0  0.51512098528E+01  0.15156942221E+01 -0.86164657438E+01  0.10152624001E+02  0.51100000000E-03 0. -1.
        -11    1    3    3    0    0  0.50459192208E+01  0.20718430560E+02 -0.27419085394E+02  0.34735009856E+02  0.51100000000E-03 0.  1.
        -12    1    3    3    0    0 -0.28669117883E+01  0.22185308642E+00 -0.37351328060E+00  0.28996403510E+01  0.00000000000E+00 0.  1.
</event>
<event>
 7    1  0.6622189E-010  0.4778727E+02  0.7816164E-02  0.1312668E+00
        -11   -1    0    0    0    0  0.00000000000E+00  0.00000000000E+00  0.45593999997E+02  0.45594000000E+02  0.51100000000E-03 0. -1.
         11   -1    0    0    0    0 -0.00000000000E+00 -0.00000000000E+00 -0.45593999997E+02  0.45594000000E+02  0.51100000000E-03 0.  1.
    9900012    2    1    2    0    0 -0.18433983735E+02  0.80700116466E+01 -0.38453694624E+02  0.47787268733E+02  0.19999989460E+02 0.  0.
         12    1    1    2    0    0  0.18433983735E+02 -0.80700116466E+01  0.38453694624E+02  0.43400731267E+02  0.00000000000E+00 0. -1.
         11    1    3    3    0    0 -0.32248101516E+01 -0.10632171257E+01 -0.11193277701E+02  0.11696978119E+02  0.51100000000E-03 0. -1.
        -11    1    3    3    0    0 -0.94626491775E+01  0.12669623542E+02 -0.13611732224E+02  0.20864811155E+02  0.51100000000E-03 0.  1.
        -12    1    3    3    0    0 -0.57465244057E+01 -0.35363947698E+01 -0.13648684699E+02  0.15225479458E+02  0.00000000000E+00 0.  1.
</event>
<event>
 7    1  0.6622189E-010  0.4778727E+02  0.7816164E-02  0.1312668E+00
        -11   -1    0    0    0    0  0.00000000000E+00  0.00000000000E+00  0.45593999997E+02  0.45594000000E+02  0.51100000000E-03 0. -1.
         11   -1    0    0    0    0 -0.00000000000E+00 -0.00000000000E+00 -0.45593999997E+02  0.45594000000E+02  0.51100000000E-03 0.  1.
    9900012    2    1    2    0    0 -0.95680569023E+01 -0.31570866694E+01 -0.42215024768E+02  0.47787271604E+02  0.20000002552E+02 0.  0.
         12    1    1    2    0    0  0.95680569023E+01  0.31570866694E+01  0.42215024768E+02  0.43400728396E+02  0.00000000000E+00 0. -1.
         11    1    3    3    0    0 -0.81313208201E+00  0.41487078484E+01 -0.54581845037E+01  0.69039654498E+01  0.51100000000E-03 0. -1.
        -11    1    3    3    0    0 -0.12071538076E+02 -0.30111067722E+01 -0.24453980350E+02  0.27436944997E+02  0.51100000000E-03 0.  1.
        -12    1    3    3    0    0  0.33166132559E+01 -0.42946877456E+01 -0.12302859914E+02  0.13446361158E+02  0.00000000000E+00 0.  1.
</event>
<event>
 7    1  0.6622189E-010  0.4778727E+02  0.7816164E-02  0.1312668E+00
        -11   -1    0    0    0    0  0.00000000000E+00  0.00000000000E+00  0.45593999997E+02  0.45594000000E+02  0.51100000000E-03 0. -1.
         11   -1    0    0    0    0 -0.00000000000E+00 -0.00000000000E+00 -0.45593999997E+02  0.45594000000E+02  0.51100000000E-03 0.  1.
    9900012    2    1    2    0    0  0.22920161967E+02 -0.13306159078E+02 -0.34369105782E+02  0.47787272745E+02  0.20000007755E+02 0.  0.
         12    1    1    2    0    0 -0.22920161967E+02  0.13306159078E+02  0.34369105782E+02  0.43400727255E+02  0.00000000000E+00 0. -1.
         11    1    3    3    0    0 -0.84763214274E-01 -0.24578086041E+01  0.17874371771E+01  0.30402203637E+01  0.51100000000E-03 0. -1.
        -11    1    3    3    0    0  0.12125278494E+02 -0.41111247747E+01 -0.23426013972E+02  0.26696476478E+02  0.51100000000E-03 0.  1.
         12    1    3    3    0    0  0.10879646687E+02 -0.67372256988E+01 -0.12730528988E+02  0.18050575904E+02  0.00000000000E+00 0. -1.
</event>
<event>
 7    1  0.6622189E-010  0.4778727E+02  0.7816164E-02  0.1312668E+00
        -11   -1    0    0    0    0  0.00000000000E+00  0.00000000000E+00  0.45593999997E+02  0.45594000000E+02  0.51100000000E-03 0. -1.
         11   -1    0    0    0    0 -0.00000000000E+00 -0.00000000000E+00 -0.45593999997E+02  0.45594000000E+02  0.51100000000E-03 0.  1.
    9900012    2    1    2    0    0 -0.21934762772E+02  0.20663380542E+02 -0.31233220258E+02  0.47787272345E+02  0.20000005930E+02 0.  0.
         12    1    1    2    0    0  0.21934762772E+02 -0.20663380542E+02  0.31233220258E+02  0.43400727655E+02  0.00000000000E+00 0. -1.
         11    1    3    3    0    0 -0.18986817017E+01 -0.94833670563E+00 -0.82127963013E+01  0.84825914707E+01  0.51100000000E-03 0. -1.
        -11    1    3    3    0    0 -0.14104804495E+02  0.21703827085E+02 -0.19490421404E+02  0.32401823201E+02  0.51100000000E-03 0.  1.
        -12    1    3    3    0    0 -0.59312765753E+01 -0.92109837428E-01 -0.35300025529E+01  0.69028576733E+01  0.00000000000E+00 0.  1.
</event>
<event>
 7    1  0.6622189E-010  0.4778727E+02  0.7816164E-02  0.1312668E+00
        -11   -1    0    0    0    0  0.00000000000E+00  0.00000000000E+00  0.45593999997E+02  0.45594000000E+02  0.51100000000E-03 0.  1.
         11   -1    0    0    0    0 -0.00000000000E+00 -0.00000000000E+00 -0.45593999997E+02  0.45594000000E+02  0.51100000000E-03 0. -1.
    9900012    2    1    2    0    0  0.26381431355E+02 -0.31112571889E+02 -0.14820636440E+02  0.47787270578E+02  0.19999997873E+02 0.  0.
         12    1    1    2    0    0 -0.26381431355E+02  0.31112571889E+02  0.14820636440E+02  0.43400729422E+02  0.00000000000E+00 0. -1.
         11    1    3    3    0    0  0.10514671007E+02 -0.32834033370E+01 -0.54548926415E+01  0.12292066460E+02  0.51100000000E-03 0. -1.
        -11    1    3    3    0    0  0.16726484588E+02 -0.27048381582E+02 -0.65784280387E+01  0.32475620835E+02  0.51100000000E-03 0.  1.
         12    1    3    3    0    0 -0.85972424031E+00 -0.78078697031E+00 -0.27873157594E+01  0.30195832833E+01  0.00000000000E+00 0. -1.
</event>
<event>
 7    1  0.6622189E-010  0.4778727E+02  0.7816164E-02  0.1312668E+00
        -11   -1    0    0    0    0  0.00000000000E+00  0.00000000000E+00  0.45593999997E+02  0.45594000000E+02  0.51100000000E-03 0. -1.
         11   -1    0    0    0    0 -0.00000000000E+00 -0.00000000000E+00 -0.45593999997E+02  0.45594000000E+02  0.51100000000E-03 0.  1.
    9900012    2    1    2    0    0  0.18619467272E+02  0.25683401775E+02  0.29619272645E+02  0.47787274197E+02  0.20000014374E+02 0.  0.
        -12    1    1    2    0    0 -0.18619467272E+02 -0.25683401775E+02 -0.29619272645E+02  0.43400725803E+02  0.00000000000E+00 0.  1.
         11    1    3    3    0    0  0.56611646485E+01  0.13893105260E+02  0.17888468490E+02  0.23346615689E+02  0.51100000000E-03 0. -1.
        -11    1    3    3    0    0  0.12940678091E+02  0.38689744802E+01  0.69753102596E+01  0.15201482377E+02  0.51100000000E-03 0.  1.
        -12    1    3    3    0    0  0.17624533194E-01  0.79213220342E+01  0.47554938951E+01  0.92391761310E+01  0.00000000000E+00 0.  1.
</event>
<event>
 7    1  0.6622189E-010  0.4778727E+02  0.7816164E-02  0.1312668E+00
        -11   -1    0    0    0    0  0.00000000000E+00  0.00000000000E+00  0.45593999997E+02  0.45594000000E+02  0.51100000000E-03 0.  1.
         11   -1    0    0    0    0 -0.00000000000E+00 -0.00000000000E+00 -0.45593999997E+02  0.45594000000E+02  0.51100000000E-03 0. -1.
    9900012    2    1    2    0    0 -0.28043223321E+01 -0.22207724855E+02 -0.37183011098E+02  0.47787267502E+02  0.19999983850E+02 0.  0.
         12    1    1    2    0    0  0.28043223321E+01  0.22207724855E+02  0.37183011098E+02  0.43400732498E+02  0.00000000000E+00 0. -1.
         11    1    3    3    0    0 -0.24743274059E+01  0.25972390716E+01 -0.58997687678E+01  0.69047243740E+01  0.51100000000E-03 0. -1.
        -11    1    3    3    0    0 -0.20905711108E+01 -0.46904258149E+01 -0.24689512554E+01  0.56979208890E+01  0.51100000000E-03 0.  1.
         12    1    3    3    0    0  0.17605761846E+01 -0.20114538112E+02 -0.28814291075E+02  0.35184622239E+02  0.00000000000E+00 0. -1.
</event>
<event>
 7    1  0.6622189E-010  0.4778727E+02  0.7816164E-02  0.1312668E+00
        -11   -1    0    0    0    0  0.00000000000E+00  0.00000000000E+00  0.45593999997E+02  0.45594000000E+02  0.51100000000E-03 0.  1.
         11   -1    0    0    0    0 -0.00000000000E+00 -0.00000000000E+00 -0.45593999997E+02  0.45594000000E+02  0.51100000000E-03 0. -1.
    9900012    2    1    2    0    0 -0.37940128161E+02 -0.27707096955E+01 -0.20892421292E+02  0.47787269309E+02  0.19999992087E+02 0.  0.
         12    1    1    2    0    0  0.37940128161E+02  0.27707096955E+01  0.20892421292E+02  0.43400730691E+02  0.00000000000E+00 0. -1.
         11    1    3    3    0    0  0.26398784866E-01  0.13254374359E+01  0.13939347430E+01  0.19236776293E+01  0.51100000000E-03 0. -1.
        -11    1    3    3    0    0 -0.38629470196E+02 -0.29336433603E+01 -0.21679484125E+02  0.44394169247E+02  0.51100000000E-03 0.  1.
        -12    1    3    3    0    0  0.66294324967E+00 -0.11625037712E+01 -0.60687190998E+00  0.14694224326E+01  0.00000000000E+00 0.  1.
</event>
<event>
 7    1  0.6622189E-010  0.4778728E+02  0.7816164E-02  0.1312668E+00
        -11   -1    0    0    0    0  0.00000000000E+00  0.00000000000E+00  0.45593999997E+02  0.45594000000E+02  0.51100000000E-03 0. -1.
         11   -1    0    0    0    0 -0.00000000000E+00 -0.00000000000E+00 -0.45593999997E+02  0.45594000000E+02  0.51100000000E-03 0.  1.
    9900012    2    1    2    0    0 -0.35407649242E+01 -0.19117928486E+02  0.38801940479E+02  0.47787276610E+02  0.20000025374E+02 0.  0.
        -12    1    1    2    0    0  0.35407649242E+01  0.19117928486E+02 -0.38801940479E+02  0.43400723390E+02  0.00000000000E+00 0.  1.
         11    1    3    3    0    0 -0.43060211275E+01 -0.78048183462E+01  0.25359290254E+02  0.26880301520E+02  0.51100000000E-03 0. -1.
        -11    1    3    3    0    0  0.83853086619E+00 -0.52808448547E+01 -0.83065637230E+00  0.54111409760E+01  0.51100000000E-03 0.  1.
        -12    1    3    3    0    0 -0.73274662877E-01 -0.60322652847E+01  0.14273306598E+02  0.15495834114E+02  0.00000000000E+00 0.  1.
</event>
<event>
 7    1  0.6622189E-010  0.4778726E+02  0.7816164E-02  0.1312668E+00
        -11   -1    0    0    0    0  0.00000000000E+00  0.00000000000E+00  0.45593999997E+02  0.45594000000E+02  0.51100000000E-03 0. -1.
         11   -1    0    0    0    0 -0.00000000000E+00 -0.00000000000E+00 -0.45593999997E+02  0.45594000000E+02  0.51100000000E-03 0.  1.
    9900012    2    1    2    0    0  0.32130031082E+02  0.18126728492E+02  0.22862780199E+02  0.47787263813E+02  0.19999967028E+02 0.  0.
        -12    1    1    2    0    0 -0.32130031082E+02 -0.18126728492E+02 -0.22862780199E+02  0.43400736187E+02  0.00000000000E+00 0.  1.
         11    1    3    3    0    0  0.89439017676E+01 -0.12609970579E+01  0.12770727814E+02  0.15642090064E+02  0.51100000000E-03 0. -1.
        -11    1    3    3    0    0  0.21489384323E+02  0.18843013337E+02  0.10233596829E+02  0.30357524512E+02  0.51100000000E-03 0.  1.
        -12    1    3    3    0    0  0.16967449918E+01  0.54471221273E+00 -0.14154444446E+00  0.17876492362E+01  0.00000000000E+00 0.  1.
</event>
<event>
 7    1  0.6622189E-010  0.4778727E+02  0.7816164E-02  0.1312668E+00
        -11   -1    0    0    0    0  0.00000000000E+00  0.00000000000E+00  0.45593999997E+02  0.45594000000E+02  0.51100000000E-03 0. -1.
         11   -1    0    0    0    0 -0.00000000000E+00 -0.00000000000E+00 -0.45593999997E+02  0.45594000000E+02  0.51100000000E-03 0.  1.
    9900012    2    1    2    0    0  0.16313244038E+02  0.28064111697E+02 -0.28808113846E+02  0.47787265908E+02  0.19999976580E+02 0.  0.
         12    1    1    2    0    0 -0.16313244038E+02 -0.28064111697E+02  0.28808113846E+02  0.43400734092E+02  0.00000000000E+00 0. -1.
         11    1    3    3    0    0  0.86953080366E+01  0.32857514452E+01 -0.14027629144E+02  0.16827920967E+02  0.51100000000E-03 0. -1.
        -11    1    3    3    0    0  0.29669235677E+01  0.29964435604E+01 -0.52480752436E+01  0.67322807050E+01  0.51100000000E-03 0.  1.
         12    1    3    3    0    0  0.46510124334E+01  0.21781916691E+02 -0.95324094587E+01  0.24227064236E+02  0.00000000000E+00 0. -1.
</event>
<event>
 7    1  0.6622189E-010  0.4778728E+02  0.7816164E-02  0.1312668E+00
        -11   -1    0    0    0    0  0.00000000000E+00  0.00000000000E+00  0.45593999997E+02  0.45594000000E+02  0.51100000000E-03 0. -1.
         11   -1    0    0    0    0 -0.00000000000E+00 -0.00000000000E+00 -0.45593999997E+02  0.45594000000E+02  0.51100000000E-03 0.  1.
    9900012    2    1    2    0    0 -0.11277363138E+01 -0.34023937160E+02 -0.26920663774E+02  0.47787283104E+02  0.20000054986E+02 0.  0.
         12    1    1    2    0    0  0.11277363138E+01  0.34023937160E+02  0.26920663774E+02  0.43400716896E+02  0.00000000000E+00 0. -1.
         11    1    3    3    0    0  0.80845787360E+01 -0.78130985781E+01 -0.89521958190E+01  0.14371733819E+02  0.51100000000E-03 0. -1.
        -11    1    3    3    0    0 -0.75475862644E+01 -0.15417613801E+02 -0.12245283607E+02  0.21085915788E+02  0.51100000000E-03 0.  1.
         12    1    3    3    0    0 -0.16647287854E+01 -0.10793224781E+02 -0.57231843471E+01  0.12329633497E+02  0.00000000000E+00 0. -1.
</event>
<event>
 7    1  0.6622189E-010  0.4778728E+02  0.7816164E-02  0.1312668E+00
        -11   -1    0    0    0    0  0.00000000000E+00  0.00000000000E+00  0.45593999997E+02  0.45594000000E+02  0.51100000000E-03 0. -1.
         11   -1    0    0    0    0 -0.00000000000E+00 -0.00000000000E+00 -0.45593999997E+02  0.45594000000E+02  0.51100000000E-03 0.  1.
    9900012    2    1    2    0    0  0.22886625777E+02  0.15482981941E+02 -0.33467927198E+02  0.47787279727E+02  0.20000039587E+02 0.  0.
         12    1    1    2    0    0 -0.22886625777E+02 -0.15482981941E+02  0.33467927198E+02  0.43400720273E+02  0.00000000000E+00 0. -1.
         11    1    3    3    0    0  0.13864642788E+02  0.14645302705E+02 -0.17323987394E+02  0.26586345188E+02  0.51100000000E-03 0. -1.
        -11    1    3    3    0    0 -0.15672057832E+01 -0.20356033175E+01 -0.46387974341E+01  0.53026650591E+01  0.51100000000E-03 0.  1.
        -12    1    3    3    0    0  0.10589188773E+02  0.28732825536E+01 -0.11505142370E+02  0.15898269480E+02  0.00000000000E+00 0.  1.
</event>
<event>
 7    1  0.6622189E-010  0.4778727E+02  0.7816164E-02  0.1312668E+00
        -11   -1    0    0    0    0  0.00000000000E+00  0.00000000000E+00  0.45593999997E+02  0.45594000000E+02  0.51100000000E-03 0. -1.
         11   -1    0    0    0    0 -0.00000000000E+00 -0.00000000000E+00 -0.45593999997E+02  0.45594000000E+02  0.51100000000E-03 0.  1.
    9900012    2    1    2    0    0  0.17662730133E+02  0.93764988418E+01 -0.38519249892E+02  0.47787269839E+02  0.19999994502E+02 0.  0.
         12    1    1    2    0    0 -0.17662730133E+02 -0.93764988418E+01  0.38519249892E+02  0.43400730161E+02  0.00000000000E+00 0. -1.
         11    1    3    3    0    0 -0.33752653253E+01  0.44536944635E+01 -0.61249301682E+01  0.82911145340E+01  0.51100000000E-03 0. -1.
        -11    1    3    3    0    0  0.13275290877E+02  0.61157034545E+01 -0.22999908332E+02  0.27251256120E+02  0.51100000000E-03 0.  1.
        -12    1    3    3    0    0  0.77627045810E+01 -0.11928990761E+01 -0.93944113926E+01  0.12244899184E+02  0.00000000000E+00 0.  1.
</event>
<event>
 7    1  0.6622189E-010  0.4778730E+02  0.7816164E-02  0.1312668E+00
        -11   -1    0    0    0    0  0.00000000000E+00  0.00000000000E+00  0.45593999997E+02  0.45594000000E+02  0.51100000000E-03 0. -1.
         11   -1    0    0    0    0 -0.00000000000E+00 -0.00000000000E+00 -0.45593999997E+02  0.45594000000E+02  0.51100000000E-03 0.  1.
    9900012    2    1    2    0    0 -0.12659022100E+02  0.34992535609E+01 -0.41365743945E+02  0.47787304290E+02  0.20000151579E+02 0.  0.
         12    1    1    2    0    0  0.12659022100E+02 -0.34992535609E+01  0.41365743945E+02  0.43400695710E+02  0.00000000000E+00 0. -1.
         11    1    3    3    0    0 -0.39767887529E+01  0.10022668929E+02 -0.27448888517E+02  0.29490849807E+02  0.51100000000E-03 0. -1.
        -11    1    3    3    0    0 -0.80664886899E+01 -0.55649021674E+01 -0.14070516259E+02  0.17146889047E+02  0.51100000000E-03 0.  1.
         12    1    3    3    0    0 -0.61574465764E+00 -0.95851320105E+00  0.15366083207E+00  0.11495654359E+01  0.00000000000E+00 0. -1.
</event>
<event>
 7    1  0.6622189E-010  0.4778727E+02  0.7816164E-02  0.1312668E+00
        -11   -1    0    0    0    0  0.00000000000E+00  0.00000000000E+00  0.45593999997E+02  0.45594000000E+02  0.51100000000E-03 0. -1.
         11   -1    0    0    0    0 -0.00000000000E+00 -0.00000000000E+00 -0.45593999997E+02  0.45594000000E+02  0.51100000000E-03 0.  1.
    9900012    2    1    2    0    0 -0.38553095936E+02 -0.18000589138E+02  0.85592632062E+01  0.47787269566E+02  0.19999993260E+02 0.  0.
        -12    1    1    2    0    0  0.38553095936E+02  0.18000589138E+02 -0.85592632062E+01  0.43400730434E+02  0.00000000000E+00 0.  1.
         11    1    3    3    0    0 -0.59217497810E+01  0.47614871008E+00  0.27832802023E+01  0.65605249034E+01  0.51100000000E-03 0. -1.
        -11    1    3    3    0    0 -0.96860454824E+01  0.13937046873E+01 -0.17818090995E+01  0.99466946154E+01  0.51100000000E-03 0.  1.
        -12    1    3    3    0    0 -0.22945300673E+02 -0.19870442535E+02  0.75577921033E+01  0.31280050047E+02  0.00000000000E+00 0.  1.
</event>
<event>
 7    1  0.6960704E-010  0.4778728E+02  0.7816164E-02  0.1312668E+00
        -11   -1    0    0    0    0  0.00000000000E+00  0.00000000000E+00  0.45593999997E+02  0.45594000000E+02  0.51100000000E-03 0. -1.
         11   -1    0    0    0    0 -0.00000000000E+00 -0.00000000000E+00 -0.45593999997E+02  0.45594000000E+02  0.51100000000E-03 0.  1.
    9900012    2    1    2    0    0 -0.23369973490E+02 -0.19083126232E+02 -0.31197776712E+02  0.47787278353E+02  0.20000033323E+02 0.  0.
         12    1    1    2    0    0  0.23369973490E+02  0.19083126232E+02  0.31197776712E+02  0.43400721647E+02  0.00000000000E+00 0. -1.
         11    1    3    3    0    0  0.19531641517E+00 -0.54159158648E+01 -0.92043438233E+01  0.10681303227E+02  0.51100000000E-03 0. -1.
        -11    1    3    3    0    0 -0.22250757467E+02 -0.78674808159E+01 -0.19664108420E+02  0.30719222361E+02  0.51100000000E-03 0.  1.
        -12    1    3    3    0    0 -0.13145324379E+01 -0.57997295509E+01 -0.23293244690E+01  0.63867527646E+01  0.00000000000E+00 0.  1.
</event>
<event>
 7    1  0.6622189E-010  0.4778727E+02  0.7816164E-02  0.1312668E+00
        -11   -1    0    0    0    0  0.00000000000E+00  0.00000000000E+00  0.45593999997E+02  0.45594000000E+02  0.51100000000E-03 0. -1.
         11   -1    0    0    0    0 -0.00000000000E+00 -0.00000000000E+00 -0.45593999997E+02  0.45594000000E+02  0.51100000000E-03 0.  1.
    9900012    2    1    2    0    0 -0.25989574996E+02 -0.75558771753E+01  0.33927480721E+02  0.47787271475E+02  0.20000001965E+02 0.  0.
        -12    1    1    2    0    0  0.25989574996E+02  0.75558771753E+01 -0.33927480721E+02  0.43400728525E+02  0.00000000000E+00 0.  1.
         11    1    3    3    0    0 -0.86083326548E+01 -0.73195613125E+00  0.23737497744E+02  0.25260798687E+02  0.51100000000E-03 0. -1.
        -11    1    3    3    0    0 -0.10756025745E+02 -0.51421364527E+00  0.40338741786E+01  0.11499071556E+02  0.51100000000E-03 0.  1.
         12    1    3    3    0    0 -0.66252165967E+01 -0.63097073988E+01  0.61561087986E+01  0.11027401233E+02  0.00000000000E+00 0. -1.
</event>
<event>
 7    1  0.6622189E-010  0.4778727E+02  0.7816164E-02  0.1312668E+00
        -11   -1    0    0    0    0  0.00000000000E+00  0.00000000000E+00  0.45593999997E+02  0.45594000000E+02  0.51100000000E-03 0. -1.
         11   -1    0    0    0    0 -0.00000000000E+00 -0.00000000000E+00 -0.45593999997E+02  0.45594000000E+02  0.51100000000E-03 0.  1.
    9900012    2    1    2    0    0 -0.48280502870E+01  0.41821144233E+02 -0.10550146659E+02  0.47787265340E+02  0.19999973991E+02 0.  0.
         12    1    1    2    0    0  0.48280502870E+01 -0.41821144233E+02  0.10550146659E+02  0.43400734660E+02  0.00000000000E+00 0. -1.
         11    1    3    3    0    0  0.10497556300E+01  0.24814856199E+02 -0.41384188155E+00  0.24840497990E+02  0.51100000000E-03 0. -1.
        -11    1    3    3    0    0 -0.56306194330E+01  0.14632833505E+02 -0.12141160593E+02  0.19830064861E+02  0.51100000000E-03 0.  1.
         12    1    3    3    0    0 -0.24718648407E+00  0.23734545289E+01  0.20048558161E+01  0.31167024885E+01  0.00000000000E+00 0. -1.
</event>
<event>
 7    1  0.6622189E-010  0.4778727E+02  0.7816164E-02  0.1312668E+00
        -11   -1    0    0    0    0  0.00000000000E+00  0.00000000000E+00  0.45593999997E+02  0.45594000000E+02  0.51100000000E-03 0. -1.
         11   -1    0    0    0    0 -0.00000000000E+00 -0.00000000000E+00 -0.45593999997E+02  0.45594000000E+02  0.51100000000E-03 0.  1.
    9900012    2    1    2    0    0  0.97629234262E+01 -0.61418274221E+01  0.41840011104E+02  0.47787271353E+02  0.20000001405E+02 0.  0.
        -12    1    1    2    0    0 -0.97629234262E+01  0.61418274221E+01 -0.41840011104E+02  0.43400728647E+02  0.00000000000E+00 0.  1.
         11    1    3    3    0    0 -0.34220401304E+00 -0.90692390507E+01  0.25550160255E+02  0.27114182448E+02  0.51100000000E-03 0. -1.
        -11    1    3    3    0    0  0.39843673292E+01  0.48303370868E+01  0.70710648254E+01  0.94449614828E+01  0.51100000000E-03 0.  1.
         12    1    3    3    0    0  0.61207601101E+01 -0.19029254582E+01  0.92187860245E+01  0.11228127421E+02  0.00000000000E+00 0. -1.
</event>
<event>
 7    1  0.6622189E-010  0.4778727E+02  0.7816164E-02  0.1312668E+00
        -11   -1    0    0    0    0  0.00000000000E+00  0.00000000000E+00  0.45593999997E+02  0.45594000000E+02  0.51100000000E-03 0. -1.
         11   -1    0    0    0    0 -0.00000000000E+00 -0.00000000000E+00 -0.45593999997E+02  0.45594000000E+02  0.51100000000E-03 0.  1.
    9900012    2    1    2    0    0 -0.32340962329E+02 -0.23032942386E+02  0.17526242613E+02  0.47787268906E+02  0.19999990252E+02 0.  0.
        -12    1    1    2    0    0  0.32340962329E+02  0.23032942386E+02 -0.17526242613E+02  0.43400731094E+02  0.00000000000E+00 0.  1.
         11    1    3    3    0    0 -0.18533122248E+02 -0.94175405346E+01  0.16147139271E+02  0.26322932908E+02  0.51100000000E-03 0. -1.
        -11    1    3    3    0    0  0.58680074551E+00 -0.34739165463E+00  0.17562984476E+01  0.18840383687E+01  0.51100000000E-03 0.  1.
         12    1    3    3    0    0 -0.14394640827E+02 -0.13268010197E+02 -0.37719510634E+00  0.19580297630E+02  0.00000000000E+00 0. -1.
</event>
<event>
 7    1  0.6622189E-010  0.4778727E+02  0.7816164E-02  0.1312668E+00
        -11   -1    0    0    0    0  0.00000000000E+00  0.00000000000E+00  0.45593999997E+02  0.45594000000E+02  0.51100000000E-03 0. -1.
         11   -1    0    0    0    0 -0.00000000000E+00 -0.00000000000E+00 -0.45593999997E+02  0.45594000000E+02  0.51100000000E-03 0.  1.
    9900012    2    1    2    0    0 -0.18106818264E+02  0.74320876862E+01  0.38736681219E+02  0.47787271125E+02  0.20000000368E+02 0.  0.
        -12    1    1    2    0    0  0.18106818264E+02 -0.74320876862E+01 -0.38736681219E+02  0.43400728875E+02  0.00000000000E+00 0.  1.
         11    1    3    3    0    0 -0.82395858473E+01  0.43010287882E+00  0.21254749366E+02  0.22800002945E+02  0.51100000000E-03 0. -1.
        -11    1    3    3    0    0  0.11263827369E+01  0.28210488467E+01 -0.89673408056E+00  0.31672049093E+01  0.51100000000E-03 0.  1.
        -12    1    3    3    0    0 -0.10993615153E+02  0.41809359606E+01  0.18378665934E+02  0.21820063271E+02  0.00000000000E+00 0.  1.
</event>
<event>
 7    1  0.6622189E-010  0.4778727E+02  0.7816164E-02  0.1312668E+00
        -11   -1    0    0    0    0  0.00000000000E+00  0.00000000000E+00  0.45593999997E+02  0.45594000000E+02  0.51100000000E-03 0. -1.
         11   -1    0    0    0    0 -0.00000000000E+00 -0.00000000000E+00 -0.45593999997E+02  0.45594000000E+02  0.51100000000E-03 0.  1.
    9900012    2    1    2    0    0 -0.11521330755E+02  0.32734048855E+02  0.26064626077E+02  0.47787265567E+02  0.19999975026E+02 0.  0.
        -12    1    1    2    0    0  0.11521330755E+02 -0.32734048855E+02 -0.26064626077E+02  0.43400734433E+02  0.00000000000E+00 0.  1.
         11    1    3    3    0    0 -0.78080231319E+01  0.79640196898E+01  0.16974809586E+02  0.20310957525E+02  0.51100000000E-03 0. -1.
        -11    1    3    3    0    0  0.16734438950E+01  0.87394777124E+01  0.18937217602E+01  0.90975308475E+01  0.51100000000E-03 0.  1.
         12    1    3    3    0    0 -0.53867515176E+01  0.16030551453E+02  0.71960947312E+01  0.18378777195E+02  0.00000000000E+00 0. -1.
</event>
<event>
 7    1  0.6622189E-010  0.4778728E+02  0.7816164E-02  0.1312668E+00
        -11   -1    0    0    0    0  0.00000000000E+00  0.00000000000E+00  0.45593999997E+02  0.45594000000E+02  0.51100000000E-03 0. -1.
         11   -1    0    0    0    0 -0.00000000000E+00 -0.00000000000E+00 -0.45593999997E+02  0.45594000000E+02  0.51100000000E-03 0.  1.
    9900012    2    1    2    0    0 -0.16335795398E+02 -0.32270888060E+02 -0.23986538454E+02  0.47787280484E+02  0.20000043040E+02 0.  0.
         12    1    1    2    0    0  0.16335795398E+02  0.32270888060E+02  0.23986538454E+02  0.43400719516E+02  0.00000000000E+00 0. -1.
         11    1    3    3    0    0 -0.16458792572E+02 -0.25466116512E+02 -0.11971863693E+02  0.32599700362E+02  0.51100000000E-03 0.  1.
        -11    1    3    3    0    0 -0.10105013520E+00  0.37172786303E+00 -0.54354148045E+01  0.54490482740E+01  0.51100000000E-03 0. -1.
         12    1    3    3    0    0  0.22404730946E+00 -0.71764994114E+01 -0.65792599558E+01  0.97385318485E+01  0.00000000000E+00 0. -1.
</event>
<event>
 7    1  0.6622189E-010  0.4778728E+02  0.7816164E-02  0.1312668E+00
        -11   -1    0    0    0    0  0.00000000000E+00  0.00000000000E+00  0.45593999997E+02  0.45594000000E+02  0.51100000000E-03 0. -1.
         11   -1    0    0    0    0 -0.00000000000E+00 -0.00000000000E+00 -0.45593999997E+02  0.45594000000E+02  0.51100000000E-03 0.  1.
    9900012    2    1    2    0    0  0.20475665522E+02  0.15306886187E+02  0.35072337779E+02  0.47787279722E+02  0.20000039565E+02 0.  0.
        -12    1    1    2    0    0 -0.20475665522E+02 -0.15306886187E+02 -0.35072337779E+02  0.43400720278E+02  0.00000000000E+00 0.  1.
         11    1    3    3    0    0  0.89565689723E+01  0.43916100803E+01  0.21352952872E+02  0.23568092062E+02  0.51100000000E-03 0. -1.
        -11    1    3    3    0    0  0.27219330520E+01  0.57520514928E+01 -0.86451193136E+00  0.64220243737E+01  0.51100000000E-03 0.  1.
        -12    1    3    3    0    0  0.87971634981E+01  0.51632246137E+01  0.14583896839E+02  0.17797163286E+02  0.00000000000E+00 0.  1.
</event>
<event>
 7    1  0.1013929E-009  0.4778726E+02  0.7816164E-02  0.1312668E+00
        -11   -1    0    0    0    0  0.00000000000E+00  0.00000000000E+00  0.45593999997E+02  0.45594000000E+02  0.51100000000E-03 0. -1.
         11   -1    0    0    0    0 -0.00000000000E+00 -0.00000000000E+00 -0.45593999997E+02  0.45594000000E+02  0.51100000000E-03 0.  1.
    9900012    2    1    2    0    0 -0.17867621794E+02 -0.19956913895E+02 -0.34148116752E+02  0.47787260392E+02  0.19999951432E+02 0.  0.
         12    1    1    2    0    0  0.17867621794E+02  0.19956913895E+02  0.34148116752E+02  0.43400739608E+02  0.00000000000E+00 0. -1.
         11    1    3    3    0    0 -0.13405212864E+01  0.23339177148E+01 -0.89394707180E+00  0.28360731385E+01  0.51100000000E-03 0. -1.
        -11    1    3    3    0    0 -0.14092562516E+02 -0.15988029109E+02 -0.16715298967E+02  0.27085394826E+02  0.51100000000E-03 0.  1.
        -12    1    3    3    0    0 -0.24345379913E+01 -0.63028025010E+01 -0.16538870714E+02  0.17865792428E+02  0.00000000000E+00 0.  1.
</event>
<event>
 7    1  0.6622189E-010  0.4778727E+02  0.7816164E-02  0.1312668E+00
        -11   -1    0    0    0    0  0.00000000000E+00  0.00000000000E+00  0.45593999997E+02  0.45594000000E+02  0.51100000000E-03 0. -1.
         11   -1    0    0    0    0 -0.00000000000E+00 -0.00000000000E+00 -0.45593999997E+02  0.45594000000E+02  0.51100000000E-03 0.  1.
    9900012    2    1    2    0    0 -0.25181868406E+02 -0.33926993653E+02  0.99224866061E+01  0.47787272642E+02  0.20000007284E+02 0.  0.
        -12    1    1    2    0    0  0.25181868406E+02  0.33926993653E+02 -0.99224866061E+01  0.43400727358E+02  0.00000000000E+00 0.  1.
         11    1    3    3    0    0 -0.18614048347E+02 -0.17173398412E+02  0.42549020402E+01  0.25680977406E+02  0.51100000000E-03 0. -1.
        -11    1    3    3    0    0  0.27611386245E+01 -0.26788292802E+01  0.32741983629E+01  0.50517707783E+01  0.51100000000E-03 0.  1.
        -12    1    3    3    0    0 -0.93289586833E+01 -0.14074765961E+02  0.23933862031E+01  0.17054524458E+02  0.00000000000E+00 0.  1.
</event>
<event>
 7    1  0.6622189E-010  0.4778723E+02  0.7816164E-02  0.1312668E+00
        -11   -1    0    0    0    0  0.00000000000E+00  0.00000000000E+00  0.45593999997E+02  0.45594000000E+02  0.51100000000E-03 0. -1.
         11   -1    0    0    0    0 -0.00000000000E+00 -0.00000000000E+00 -0.45593999997E+02  0.45594000000E+02  0.51100000000E-03 0.  1.
    9900012    2    1    2    0    0  0.11032245142E+02 -0.31224933511E+02 -0.28052086424E+02  0.47787234357E+02  0.19999832727E+02 0.  0.
         12    1    1    2    0    0 -0.11032245142E+02  0.31224933511E+02  0.28052086424E+02  0.43400765643E+02  0.00000000000E+00 0. -1.
         11    1    3    3    0    0  0.67229050273E+01 -0.26952011905E+02 -0.14648024477E+02  0.31403391840E+02  0.51100000000E-03 0. -1.
        -11    1    3    3    0    0  0.25493020223E+01 -0.60859455962E+01 -0.76694525575E+01  0.10117221822E+02  0.51100000000E-03 0.  1.
         12    1    3    3    0    0  0.17600380926E+01  0.18130239907E+01 -0.57346093898E+01  0.62666206948E+01  0.00000000000E+00 0. -1.
</event>
<event>
 7    1  0.6622189E-010  0.4778727E+02  0.7816164E-02  0.1312668E+00
        -11   -1    0    0    0    0  0.00000000000E+00  0.00000000000E+00  0.45593999997E+02  0.45594000000E+02  0.51100000000E-03 0. -1.
         11   -1    0    0    0    0 -0.00000000000E+00 -0.00000000000E+00 -0.45593999997E+02  0.45594000000E+02  0.51100000000E-03 0.  1.
    9900012    2    1    2    0    0  0.12249536267E+01 -0.36229704706E+02 -0.23864858704E+02  0.47787268492E+02  0.19999988364E+02 0.  0.
         12    1    1    2    0    0 -0.12249536267E+01  0.36229704706E+02  0.23864858704E+02  0.43400731508E+02  0.00000000000E+00 0. -1.
         11    1    3    3    0    0 -0.57931333252E+01 -0.12392776795E+02 -0.34239650547E+01  0.14101944808E+02  0.51100000000E-03 0. -1.
        -11    1    3    3    0    0  0.87670563217E+01 -0.15578776040E+02 -0.10861037548E+02  0.20917018821E+02  0.51100000000E-03 0.  1.
        -12    1    3    3    0    0 -0.17489693699E+01 -0.82581518705E+01 -0.95798561015E+01  0.12768304864E+02  0.00000000000E+00 0.  1.
</event>
<event>
 7    1  0.6622189E-010  0.4778729E+02  0.7816164E-02  0.1312668E+00
        -11   -1    0    0    0    0  0.00000000000E+00  0.00000000000E+00  0.45593999997E+02  0.45594000000E+02  0.51100000000E-03 0. -1.
         11   -1    0    0    0    0 -0.00000000000E+00 -0.00000000000E+00 -0.45593999997E+02  0.45594000000E+02  0.51100000000E-03 0.  1.
    9900012    2    1    2    0    0  0.18884675154E+02  0.47901738399E+01  0.38782018127E+02  0.47787289739E+02  0.20000085237E+02 0.  0.
        -12    1    1    2    0    0 -0.18884675154E+02 -0.47901738399E+01 -0.38782018127E+02  0.43400710261E+02  0.00000000000E+00 0.  1.
         11    1    3    3    0    0  0.10679290106E+02  0.63046909845E+01  0.35740407347E+02  0.37830848301E+02  0.51100000000E-03 0. -1.
        -11    1    3    3    0    0  0.48575974515E+01 -0.29824809066E+01  0.10581536058E+01  0.57975110758E+01  0.51100000000E-03 0.  1.
         12    1    3    3    0    0  0.33477875962E+01  0.14679637620E+01  0.19834571746E+01  0.41589303624E+01  0.00000000000E+00 0. -1.
</event>
<event>
 7    1  0.6622189E-010  0.4778727E+02  0.7816164E-02  0.1312668E+00
        -11   -1    0    0    0    0  0.00000000000E+00  0.00000000000E+00  0.45593999997E+02  0.45594000000E+02  0.51100000000E-03 0. -1.
         11   -1    0    0    0    0 -0.00000000000E+00 -0.00000000000E+00 -0.45593999997E+02  0.45594000000E+02  0.51100000000E-03 0.  1.
    9900012    2    1    2    0    0 -0.75923398583E+01  0.70641921161E+01 -0.42143527402E+02  0.47787270321E+02  0.19999996701E+02 0.  0.
         12    1    1    2    0    0  0.75923398583E+01 -0.70641921161E+01  0.42143527402E+02  0.43400729679E+02  0.00000000000E+00 0. -1.
         11    1    3    3    0    0 -0.23823611535E+01  0.60126140723E+01 -0.33500868268E+01  0.72835605755E+01  0.51100000000E-03 0. -1.
        -11    1    3    3    0    0 -0.80691367726E+01  0.21226242432E+01 -0.31729186705E+02  0.32807892208E+02  0.51100000000E-03 0.  1.
         12    1    3    3    0    0  0.28591580678E+01 -0.10710461994E+01 -0.70642538705E+01  0.76958175371E+01  0.00000000000E+00 0. -1.
</event>
<event>
 7    1  0.6622189E-010  0.4778727E+02  0.7816164E-02  0.1312668E+00
        -11   -1    0    0    0    0  0.00000000000E+00  0.00000000000E+00  0.45593999997E+02  0.45594000000E+02  0.51100000000E-03 0. -1.
         11   -1    0    0    0    0 -0.00000000000E+00 -0.00000000000E+00 -0.45593999997E+02  0.45594000000E+02  0.51100000000E-03 0.  1.
    9900012    2    1    2    0    0 -0.27877930304E+02  0.90296152806E+01  0.32014221716E+02  0.47787270257E+02  0.19999996409E+02 0.  0.
        -12    1    1    2    0    0  0.27877930304E+02 -0.90296152806E+01 -0.32014221716E+02  0.43400729743E+02  0.00000000000E+00 0.  1.
         11    1    3    3    0    0 -0.38687084093E+00  0.25270476135E+01  0.21560715040E+01  0.33442911476E+01  0.51100000000E-03 0. -1.
        -11    1    3    3    0    0 -0.15089986059E+02  0.56041479051E+01  0.53526226635E+01  0.16963629406E+02  0.51100000000E-03 0.  1.
        -12    1    3    3    0    0 -0.12401073404E+02  0.89841976191E+00  0.24505527549E+02  0.27479349703E+02  0.00000000000E+00 0.  1.
</event>
<event>
 7    1  0.6622189E-010  0.4778727E+02  0.7816164E-02  0.1312668E+00
        -11   -1    0    0    0    0  0.00000000000E+00  0.00000000000E+00  0.45593999997E+02  0.45594000000E+02  0.51100000000E-03 0. -1.
         11   -1    0    0    0    0 -0.00000000000E+00 -0.00000000000E+00 -0.45593999997E+02  0.45594000000E+02  0.51100000000E-03 0.  1.
    9900012    2    1    2    0    0 -0.65413687602E-01 -0.11759820327E+02 -0.41777091466E+02  0.47787273918E+02  0.20000013101E+02 0.  0.
         12    1    1    2    0    0  0.65413687602E-01  0.11759820327E+02  0.41777091466E+02  0.43400726082E+02  0.00000000000E+00 0. -1.
         11    1    3    3    0    0 -0.45097608907E+01 -0.31358487689E+01 -0.20269367399E+01  0.58549093589E+01  0.51100000000E-03 0. -1.
        -11    1    3    3    0    0 -0.12454691603E+01 -0.64313346848E+01 -0.27221540728E+02  0.27998670310E+02  0.51100000000E-03 0.  1.
         12    1    3    3    0    0  0.56898163634E+01 -0.21926368731E+01 -0.12528613998E+02  0.13933694249E+02  0.00000000000E+00 0. -1.
</event>
<event>
 7    1  0.6622189E-010  0.4778727E+02  0.7816164E-02  0.1312668E+00
        -11   -1    0    0    0    0  0.00000000000E+00  0.00000000000E+00  0.45593999997E+02  0.45594000000E+02  0.51100000000E-03 0. -1.
         11   -1    0    0    0    0 -0.00000000000E+00 -0.00000000000E+00 -0.45593999997E+02  0.45594000000E+02  0.51100000000E-03 0.  1.
    9900012    2    1    2    0    0 -0.98927714139E+01 -0.24067328051E+02  0.34734994802E+02  0.47787273397E+02  0.20000010727E+02 0.  0.
        -12    1    1    2    0    0  0.98927714139E+01  0.24067328051E+02 -0.34734994802E+02  0.43400726603E+02  0.00000000000E+00 0.  1.
         11    1    3    3    0    0 -0.21574321316E+01 -0.85376237047E+01  0.21353400134E+02  0.23097905305E+02  0.51100000000E-03 0. -1.
        -11    1    3    3    0    0 -0.76714077782E+01 -0.16340556720E+02  0.88850492871E+01  0.20119850703E+02  0.51100000000E-03 0.  1.
        -12    1    3    3    0    0 -0.63931504131E-01  0.81085237359E+00  0.44965453813E+01  0.45695173897E+01  0.00000000000E+00 0.  1.
</event>
<event>
 7    1  0.6622189E-010  0.4778727E+02  0.7816164E-02  0.1312668E+00
        -11   -1    0    0    0    0  0.00000000000E+00  0.00000000000E+00  0.45593999997E+02  0.45594000000E+02  0.51100000000E-03 0.  1.
         11   -1    0    0    0    0 -0.00000000000E+00 -0.00000000000E+00 -0.45593999997E+02  0.45594000000E+02  0.51100000000E-03 0. -1.
    9900012    2    1    2    0    0  0.14593521747E+02 -0.31154674702E+02  0.26458246610E+02  0.47787269056E+02  0.19999990936E+02 0.  0.
        -12    1    1    2    0    0 -0.14593521747E+02  0.31154674702E+02 -0.26458246610E+02  0.43400730944E+02  0.00000000000E+00 0.  1.
         11    1    3    3    0    0  0.81674990236E+01 -0.10725076740E+02  0.91444510493E+01  0.16289760484E+02  0.51100000000E-03 0. -1.
        -11    1    3    3    0    0  0.44680845711E+01 -0.93305051098E+01 -0.56751167893E+00  0.10360703408E+02  0.51100000000E-03 0.  1.
        -12    1    3    3    0    0  0.19579381518E+01 -0.11099092853E+02  0.17881307240E+02  0.21136805165E+02  0.00000000000E+00 0.  1.
</event>
<event>
 7    1  0.6622189E-010  0.4778727E+02  0.7816164E-02  0.1312668E+00
        -11   -1    0    0    0    0  0.00000000000E+00  0.00000000000E+00  0.45593999997E+02  0.45594000000E+02  0.51100000000E-03 0. -1.
         11   -1    0    0    0    0 -0.00000000000E+00 -0.00000000000E+00 -0.45593999997E+02  0.45594000000E+02  0.51100000000E-03 0.  1.
    9900012    2    1    2    0    0  0.72797310971E+01 -0.10775704939E+02  0.41406677244E+02  0.47787271641E+02  0.20000002718E+02 0.  0.
        -12    1    1    2    0    0 -0.72797310971E+01  0.10775704939E+02 -0.41406677244E+02  0.43400728359E+02  0.00000000000E+00 0.  1.
         11    1    3    3    0    0 -0.21806116833E+01 -0.10647106562E+02  0.18245011071E+02  0.21236675227E+02  0.51100000000E-03 0. -1.
        -11    1    3    3    0    0  0.12192396740E+01  0.36214803207E+01  0.54128446174E+01  0.66257491809E+01  0.51100000000E-03 0.  1.
         12    1    3    3    0    0  0.82411031064E+01 -0.37500786970E+01  0.17748821555E+02  0.19924847233E+02  0.00000000000E+00 0. -1.
</event>
<event>
 7    1  0.6622189E-010  0.4778727E+02  0.7816164E-02  0.1312668E+00
        -11   -1    0    0    0    0  0.00000000000E+00  0.00000000000E+00  0.45593999997E+02  0.45594000000E+02  0.51100000000E-03 0. -1.
         11   -1    0    0    0    0 -0.00000000000E+00 -0.00000000000E+00 -0.45593999997E+02  0.45594000000E+02  0.51100000000E-03 0.  1.
    9900012    2    1    2    0    0  0.61746950970E+01 -0.35922041955E+02 -0.23560624682E+02  0.47787274278E+02  0.20000014745E+02 0.  0.
         12    1    1    2    0    0 -0.61746950970E+01  0.35922041955E+02  0.23560624682E+02  0.43400725722E+02  0.00000000000E+00 0. -1.
         11    1    3    3    0    0 -0.66625008459E+01 -0.82827290820E+01 -0.42139868094E+01  0.11434605531E+02  0.51100000000E-03 0. -1.
        -11    1    3    3    0    0  0.62170841790E+01 -0.17398794743E+02 -0.10160039231E+02  0.21085459247E+02  0.51100000000E-03 0.  1.
         12    1    3    3    0    0  0.66201117639E+01 -0.10240518130E+02 -0.91865986410E+01  0.15267209500E+02  0.00000000000E+00 0. -1.
</event>
<event>
 7    1  0.6622189E-010  0.4778724E+02  0.7816164E-02  0.1312668E+00
        -11   -1    0    0    0    0  0.00000000000E+00  0.00000000000E+00  0.45593999997E+02  0.45594000000E+02  0.51100000000E-03 0. -1.
         11   -1    0    0    0    0 -0.00000000000E+00 -0.00000000000E+00 -0.45593999997E+02  0.45594000000E+02  0.51100000000E-03 0.  1.
    9900012    2    1    2    0    0  0.74466710798E+01 -0.28127264541E+02 -0.32202957220E+02  0.47787235324E+02  0.19999837136E+02 0.  0.
         12    1    1    2    0    0 -0.74466710798E+01  0.28127264541E+02  0.32202957220E+02  0.43400764676E+02  0.00000000000E+00 0. -1.
         11    1    3    3    0    0 -0.22430449598E+01 -0.77084827321E+01 -0.11492132444E+01  0.81100337894E+01  0.51100000000E-03 0. -1.
        -11    1    3    3    0    0  0.10700419514E+02 -0.11752152534E+02 -0.18512400057E+02  0.24399201280E+02  0.51100000000E-03 0.  1.
        -12    1    3    3    0    0 -0.10107034749E+01 -0.86666292752E+01 -0.12541343918E+02  0.15278000255E+02  0.00000000000E+00 0.  1.
</event>
<event>
 7    1  0.6622189E-010  0.4778727E+02  0.7816164E-02  0.1312668E+00
        -11   -1    0    0    0    0  0.00000000000E+00  0.00000000000E+00  0.45593999997E+02  0.45594000000E+02  0.51100000000E-03 0. -1.
         11   -1    0    0    0    0 -0.00000000000E+00 -0.00000000000E+00 -0.45593999997E+02  0.45594000000E+02  0.51100000000E-03 0.  1.
    9900012    2    1    2    0    0 -0.89442956283E+01  0.21901148911E+02 -0.36386296373E+02  0.47787270609E+02  0.19999998014E+02 0.  0.
         12    1    1    2    0    0  0.89442956283E+01 -0.21901148911E+02  0.36386296373E+02  0.43400729391E+02  0.00000000000E+00 0. -1.
         11    1    3    3    0    0  0.28165680280E+01  0.20820848570E+01 -0.62670873395E+01  0.71794510090E+01  0.51100000000E-03 0. -1.
        -11    1    3    3    0    0 -0.12359368902E+01  0.89546794155E+01 -0.21202009109E+02  0.23048622821E+02  0.51100000000E-03 0.  1.
        -12    1    3    3    0    0 -0.10524926766E+02  0.10864384639E+02 -0.89171999248E+01  0.17559196779E+02  0.00000000000E+00 0.  1.
</event>
<event>
 7    1  0.6622189E-010  0.4778728E+02  0.7816164E-02  0.1312668E+00
        -11   -1    0    0    0    0  0.00000000000E+00  0.00000000000E+00  0.45593999997E+02  0.45594000000E+02  0.51100000000E-03 0. -1.
         11   -1    0    0    0    0 -0.00000000000E+00 -0.00000000000E+00 -0.45593999997E+02  0.45594000000E+02  0.51100000000E-03 0.  1.
    9900012    2    1    2    0    0  0.37313096740E+02 -0.33537913788E+01  0.21911359236E+02  0.47787276866E+02  0.20000026544E+02 0.  0.
        -12    1    1    2    0    0 -0.37313096740E+02  0.33537913788E+01 -0.21911359236E+02  0.43400723134E+02  0.00000000000E+00 0.  1.
         11    1    3    3    0    0  0.26057109982E+02  0.43617836261E+00  0.56643394684E+01  0.26669232723E+02  0.51100000000E-03 0. -1.
        -11    1    3    3    0    0  0.32256364010E+01  0.16139971715E+01  0.28860761571E+01  0.46194320979E+01  0.51100000000E-03 0.  1.
         12    1    3    3    0    0  0.80303503576E+01 -0.54039669129E+01  0.13360943610E+02  0.16498612045E+02  0.00000000000E+00 0. -1.
</event>
<event>
 7    1  0.6622189E-010  0.4778727E+02  0.7816164E-02  0.1312668E+00
        -11   -1    0    0    0    0  0.00000000000E+00  0.00000000000E+00  0.45593999997E+02  0.45594000000E+02  0.51100000000E-03 0. -1.
         11   -1    0    0    0    0 -0.00000000000E+00 -0.00000000000E+00 -0.45593999997E+02  0.45594000000E+02  0.51100000000E-03 0.  1.
    9900012    2    1    2    0    0 -0.14319770512E+02  0.20101572597E+01  0.40920987581E+02  0.47787265164E+02  0.19999973189E+02 0.  0.
        -12    1    1    2    0    0  0.14319770512E+02 -0.20101572597E+01 -0.40920987581E+02  0.43400734836E+02  0.00000000000E+00 0.  1.
         11    1    3    3    0    0 -0.19036324443E+01  0.86230314072E+01  0.25127053674E+02  0.26633612480E+02  0.51100000000E-03 0. -1.
        -11    1    3    3    0    0 -0.97737448358E+01 -0.51323534938E+01  0.12599013869E+02  0.16751187756E+02  0.51100000000E-03 0.  1.
         12    1    3    3    0    0 -0.26423932319E+01 -0.14805206537E+01  0.31949200376E+01  0.44024649283E+01  0.00000000000E+00 0. -1.
</event>
<event>
 7    1  0.6622189E-010  0.4778727E+02  0.7816164E-02  0.1312668E+00
        -11   -1    0    0    0    0  0.00000000000E+00  0.00000000000E+00  0.45593999997E+02  0.45594000000E+02  0.51100000000E-03 0. -1.
         11   -1    0    0    0    0 -0.00000000000E+00 -0.00000000000E+00 -0.45593999997E+02  0.45594000000E+02  0.51100000000E-03 0.  1.
    9900012    2    1    2    0    0 -0.10234082954E+02  0.13714270454E+02 -0.39884910655E+02  0.47787265375E+02  0.19999974153E+02 0.  0.
         12    1    1    2    0    0  0.10234082954E+02 -0.13714270454E+02  0.39884910655E+02  0.43400734625E+02  0.00000000000E+00 0. -1.
         11    1    3    3    0    0  0.18921772243E+01 -0.35383025820E+01 -0.96467723478E+01  0.10447972856E+02  0.51100000000E-03 0. -1.
        -11    1    3    3    0    0 -0.84822508605E+01  0.14214235907E+02 -0.19360590007E+02  0.25472053858E+02  0.51100000000E-03 0.  1.
         12    1    3    3    0    0 -0.36440093176E+01  0.30383371294E+01 -0.10877548300E+02  0.11867238661E+02  0.00000000000E+00 0. -1.
</event>
<event>
 7    1  0.6622189E-010  0.4778727E+02  0.7816164E-02  0.1312668E+00
        -11   -1    0    0    0    0  0.00000000000E+00  0.00000000000E+00  0.45593999997E+02  0.45594000000E+02  0.51100000000E-03 0. -1.
         11   -1    0    0    0    0 -0.00000000000E+00 -0.00000000000E+00 -0.45593999997E+02  0.45594000000E+02  0.51100000000E-03 0.  1.
    9900012    2    1    2    0    0  0.27581874873E+02 -0.15002690470E+02 -0.29963030027E+02  0.47787266006E+02  0.19999977026E+02 0.  0.
         12    1    1    2    0    0 -0.27581874873E+02  0.15002690470E+02  0.29963030027E+02  0.43400733994E+02  0.00000000000E+00 0. -1.
         11    1    3    3    0    0  0.70760133762E+01 -0.58430639799E+01 -0.38960113032E+01  0.99694667013E+01  0.51100000000E-03 0. -1.
        -11    1    3    3    0    0  0.97644422126E+01  0.11503519692E+01 -0.18876753614E+02  0.21283784171E+02  0.51100000000E-03 0.  1.
        -12    1    3    3    0    0  0.10741419284E+02 -0.10309978459E+02 -0.71902651095E+01  0.16534015133E+02  0.00000000000E+00 0.  1.
</event>
<event>
 7    1  0.6622189E-010  0.4778727E+02  0.7816164E-02  0.1312668E+00
        -11   -1    0    0    0    0  0.00000000000E+00  0.00000000000E+00  0.45593999997E+02  0.45594000000E+02  0.51100000000E-03 0. -1.
         11   -1    0    0    0    0 -0.00000000000E+00 -0.00000000000E+00 -0.45593999997E+02  0.45594000000E+02  0.51100000000E-03 0.  1.
    9900012    2    1    2    0    0 -0.26933499915E+01 -0.38231231764E+02 -0.20365226414E+02  0.47787266558E+02  0.19999979547E+02 0.  0.
         12    1    1    2    0    0  0.26933499915E+01  0.38231231764E+02  0.20365226414E+02  0.43400733442E+02  0.00000000000E+00 0. -1.
         11    1    3    3    0    0 -0.83091603762E+01 -0.12323437124E+02 -0.68965089619E+01  0.16385087269E+02  0.51100000000E-03 0. -1.
        -11    1    3    3    0    0  0.35026038307E+01 -0.26016353809E+02 -0.12464334685E+02  0.29059912913E+02  0.51100000000E-03 0.  1.
         12    1    3    3    0    0  0.21132065540E+01  0.10855916903E+00 -0.10043827667E+01  0.23422663758E+01  0.00000000000E+00 0. -1.
</event>
<event>
 7    1  0.6622189E-010  0.4778726E+02  0.7816164E-02  0.1312668E+00
        -11   -1    0    0    0    0  0.00000000000E+00  0.00000000000E+00  0.45593999997E+02  0.45594000000E+02  0.51100000000E-03 0. -1.
         11   -1    0    0    0    0 -0.00000000000E+00 -0.00000000000E+00 -0.45593999997E+02  0.45594000000E+02  0.51100000000E-03 0.  1.
    9900012    2    1    2    0    0 -0.30183738162E+02 -0.17479560561E+02  0.25826952444E+02  0.47787256234E+02  0.19999932474E+02 0.  0.
        -12    1    1    2    0    0  0.30183738162E+02  0.17479560561E+02 -0.25826952444E+02  0.43400743766E+02  0.00000000000E+00 0.  1.
         11    1    3    3    0    0 -0.29650982661E+01  0.15365032216E+01  0.97233605002E+01  0.10280874941E+02  0.51100000000E-03 0. -1.
        -11    1    3    3    0    0 -0.26083160561E+02 -0.17385642874E+02  0.16583035068E+02  0.35462499846E+02  0.51100000000E-03 0.  1.
        -12    1    3    3    0    0 -0.11354793357E+01 -0.16304209085E+01 -0.47944312444E+00  0.20438814472E+01  0.00000000000E+00 0.  1.
</event>
<event>
 7    1  0.6622189E-010  0.4778727E+02  0.7816164E-02  0.1312668E+00
        -11   -1    0    0    0    0  0.00000000000E+00  0.00000000000E+00  0.45593999997E+02  0.45594000000E+02  0.51100000000E-03 0. -1.
         11   -1    0    0    0    0 -0.00000000000E+00 -0.00000000000E+00 -0.45593999997E+02  0.45594000000E+02  0.51100000000E-03 0.  1.
    9900012    2    1    2    0    0 -0.24431975310E+02 -0.25812449939E+02 -0.24908216264E+02  0.47787271586E+02  0.20000002468E+02 0.  0.
         12    1    1    2    0    0  0.24431975310E+02  0.25812449939E+02  0.24908216264E+02  0.43400728414E+02  0.00000000000E+00 0. -1.
         11    1    3    3    0    0 -0.25354551294E+02 -0.27833090026E+02 -0.23348962442E+02  0.44302462901E+02  0.51100000000E-03 0. -1.
        -11    1    3    3    0    0  0.12874349829E+00  0.10099425062E+01 -0.18996827476E+01  0.21553082278E+01  0.51100000000E-03 0.  1.
         12    1    3    3    0    0  0.79383248561E+00  0.10106975799E+01  0.34042892522E+00  0.13295004574E+01  0.00000000000E+00 0. -1.
</event>
<event>
 7    1  0.6622189E-010  0.4778727E+02  0.7816164E-02  0.1312668E+00
        -11   -1    0    0    0    0  0.00000000000E+00  0.00000000000E+00  0.45593999997E+02  0.45594000000E+02  0.51100000000E-03 0. -1.
         11   -1    0    0    0    0 -0.00000000000E+00 -0.00000000000E+00 -0.45593999997E+02  0.45594000000E+02  0.51100000000E-03 0.  1.
    9900012    2    1    2    0    0  0.26011682861E+02 -0.30718818026E+02  0.16228673110E+02  0.47787271238E+02  0.20000000884E+02 0.  0.
        -12    1    1    2    0    0 -0.26011682861E+02  0.30718818026E+02 -0.16228673110E+02  0.43400728762E+02  0.00000000000E+00 0.  1.
         11    1    3    3    0    0  0.13457738370E+02 -0.24033885828E+02  0.98211549751E+01  0.29243691206E+02  0.51100000000E-03 0. -1.
        -11    1    3    3    0    0  0.45186375096E+00 -0.39153814038E+01 -0.10268011991E+01  0.40729244224E+01  0.51100000000E-03 0.  1.
         12    1    3    3    0    0  0.12102080740E+02 -0.27695507938E+01  0.74343193339E+01  0.14470655610E+02  0.00000000000E+00 0. -1.
</event>
<event>
 7    1  0.6622189E-010  0.4778727E+02  0.7816164E-02  0.1312668E+00
        -11   -1    0    0    0    0  0.00000000000E+00  0.00000000000E+00  0.45593999997E+02  0.45594000000E+02  0.51100000000E-03 0.  1.
         11   -1    0    0    0    0 -0.00000000000E+00 -0.00000000000E+00 -0.45593999997E+02  0.45594000000E+02  0.51100000000E-03 0. -1.
    9900012    2    1    2    0    0  0.43137813991E+02  0.46864140431E+01 -0.88881334251E+00  0.47787268881E+02  0.19999990137E+02 0.  0.
        -12    1    1    2    0    0 -0.43137813991E+02 -0.46864140431E+01  0.88881334251E+00  0.43400731119E+02  0.00000000000E+00 0.  1.
         11    1    3    3    0    0  0.20449684071E+02 -0.52533022605E+01 -0.60481138874E+01  0.21962842373E+02  0.51100000000E-03 0. -1.
        -11    1    3    3    0    0  0.12640910811E+02  0.82430842376E+01  0.25359804097E+01  0.15302688025E+02  0.51100000000E-03 0.  1.
         12    1    3    3    0    0  0.10047219109E+02  0.16966320660E+01  0.26233201352E+01  0.10521738484E+02  0.00000000000E+00 0. -1.
</event>
<event>
 7    1  0.6622189E-010  0.4778727E+02  0.7816164E-02  0.1312668E+00
        -11   -1    0    0    0    0  0.00000000000E+00  0.00000000000E+00  0.45593999997E+02  0.45594000000E+02  0.51100000000E-03 0.  1.
         11   -1    0    0    0    0 -0.00000000000E+00 -0.00000000000E+00 -0.45593999997E+02  0.45594000000E+02  0.51100000000E-03 0. -1.
    9900012    2    1    2    0    0 -0.34147910966E+02 -0.11479857603E+01 -0.26762390816E+02  0.47787271241E+02  0.20000000895E+02 0.  0.
         12    1    1    2    0    0  0.34147910966E+02  0.11479857603E+01  0.26762390816E+02  0.43400728759E+02  0.00000000000E+00 0. -1.
         11    1    3    3    0    0 -0.21148391588E+02  0.22781348279E+01 -0.19239080037E+02  0.28680769968E+02  0.51100000000E-03 0. -1.
        -11    1    3    3    0    0  0.17816134508E+01  0.10765353991E+01 -0.54306797054E+00  0.21512782329E+01  0.51100000000E-03 0.  1.
         12    1    3    3    0    0 -0.14781132829E+02 -0.45026559873E+01 -0.69802428083E+01  0.16955223040E+02  0.00000000000E+00 0. -1.
</event>
<event>
 7    1  0.6735227E-010  0.4778728E+02  0.7816164E-02  0.1312668E+00
        -11   -1    0    0    0    0  0.00000000000E+00  0.00000000000E+00  0.45593999997E+02  0.45594000000E+02  0.51100000000E-03 0. -1.
         11   -1    0    0    0    0 -0.00000000000E+00 -0.00000000000E+00 -0.45593999997E+02  0.45594000000E+02  0.51100000000E-03 0.  1.
    9900012    2    1    2    0    0  0.96638167728E+01 -0.18311389934E+02  0.38143499679E+02  0.47787275078E+02  0.20000018392E+02 0.  0.
        -12    1    1    2    0    0 -0.96638167728E+01  0.18311389934E+02 -0.38143499679E+02  0.43400724922E+02  0.00000000000E+00 0.  1.
         11    1    3    3    0    0  0.20484578981E+01 -0.35720601181E+01  0.11809615959E+02  0.12506910994E+02  0.51100000000E-03 0. -1.
        -11    1    3    3    0    0  0.89404184336E+01 -0.16696273823E+02  0.26853644738E+02  0.32860536778E+02  0.51100000000E-03 0.  1.
        -12    1    3    3    0    0 -0.13250595589E+01  0.19569440066E+01 -0.51976101791E+00  0.24198273070E+01  0.00000000000E+00 0.  1.
</event>
<event>
 7    1  0.6622189E-010  0.4778727E+02  0.7816164E-02  0.1312668E+00
        -11   -1    0    0    0    0  0.00000000000E+00  0.00000000000E+00  0.45593999997E+02  0.45594000000E+02  0.51100000000E-03 0. -1.
         11   -1    0    0    0    0 -0.00000000000E+00 -0.00000000000E+00 -0.45593999997E+02  0.45594000000E+02  0.51100000000E-03 0.  1.
    9900012    2    1    2    0    0  0.78507033786E+01  0.10300960689E+02  0.41423179842E+02  0.47787272323E+02  0.20000005831E+02 0.  0.
        -12    1    1    2    0    0 -0.78507033786E+01 -0.10300960689E+02 -0.41423179842E+02  0.43400727677E+02  0.00000000000E+00 0.  1.
         11    1    3    3    0    0  0.91834883492E+01 -0.77420602008E+00  0.11056909034E+02  0.14394133905E+02  0.51100000000E-03 0. -1.
        -11    1    3    3    0    0 -0.35262391160E+01  0.41291047809E+01  0.66598782071E+01  0.85928951227E+01  0.51100000000E-03 0.  1.
         12    1    3    3    0    0  0.21934541454E+01  0.69460619281E+01  0.23706392600E+02  0.24800243296E+02  0.00000000000E+00 0. -1.
</event>
<event>
 7    1  0.6622189E-010  0.4778727E+02  0.7816164E-02  0.1312668E+00
        -11   -1    0    0    0    0  0.00000000000E+00  0.00000000000E+00  0.45593999997E+02  0.45594000000E+02  0.51100000000E-03 0. -1.
         11   -1    0    0    0    0 -0.00000000000E+00 -0.00000000000E+00 -0.45593999997E+02  0.45594000000E+02  0.51100000000E-03 0.  1.
    9900012    2    1    2    0    0 -0.27163555479E+02 -0.12475667745E+02 -0.31466204642E+02  0.47787273433E+02  0.20000010890E+02 0.  0.
         12    1    1    2    0    0  0.27163555479E+02  0.12475667745E+02  0.31466204642E+02  0.43400726567E+02  0.00000000000E+00 0. -1.
         11    1    3    3    0    0 -0.18936950458E+02 -0.77956539869E+00 -0.19297241943E+02  0.27048093495E+02  0.51100000000E-03 0. -1.
        -11    1    3    3    0    0 -0.97211617766E+01 -0.11540120950E+02 -0.10004708805E+02  0.18104407650E+02  0.51100000000E-03 0.  1.
        -12    1    3    3    0    0  0.14945567552E+01 -0.15598139665E+00 -0.21642538951E+01  0.26347722886E+01  0.00000000000E+00 0.  1.
</event>
<event>
 7    1  0.7783200E-010  0.4778728E+02  0.7816164E-02  0.1312668E+00
        -11   -1    0    0    0    0  0.00000000000E+00  0.00000000000E+00  0.45593999997E+02  0.45594000000E+02  0.51100000000E-03 0. -1.
         11   -1    0    0    0    0 -0.00000000000E+00 -0.00000000000E+00 -0.45593999997E+02  0.45594000000E+02  0.51100000000E-03 0.  1.
    9900012    2    1    2    0    0 -0.11103365264E+02 -0.29175239112E+01  0.41854822908E+02  0.47787275736E+02  0.20000021390E+02 0.  0.
        -12    1    1    2    0    0  0.11103365264E+02  0.29175239112E+01 -0.41854822908E+02  0.43400724264E+02  0.00000000000E+00 0.  1.
         11    1    3    3    0    0 -0.40699904569E+01 -0.19909855335E+01  0.14140769966E+02  0.14848913132E+02  0.51100000000E-03 0. -1.
        -11    1    3    3    0    0 -0.81672682226E+01  0.61825495601E+01  0.19418873697E+02  0.21954973132E+02  0.51100000000E-03 0.  1.
        -12    1    3    3    0    0  0.11338934153E+01 -0.71090879378E+01  0.82951792452E+01  0.10983389472E+02  0.00000000000E+00 0.  1.
</event>
<event>
 7    1  0.1077532E-009  0.4778727E+02  0.7816164E-02  0.1312668E+00
        -11   -1    0    0    0    0  0.00000000000E+00  0.00000000000E+00  0.45593999997E+02  0.45594000000E+02  0.51100000000E-03 0. -1.
         11   -1    0    0    0    0 -0.00000000000E+00 -0.00000000000E+00 -0.45593999997E+02  0.45594000000E+02  0.51100000000E-03 0.  1.
    9900012    2    1    2    0    0  0.19292893386E+02 -0.13566399567E+02 -0.36432958375E+02  0.47787269725E+02  0.19999993985E+02 0.  0.
         12    1    1    2    0    0 -0.19292893386E+02  0.13566399567E+02  0.36432958375E+02  0.43400730275E+02  0.00000000000E+00 0. -1.
         11    1    3    3    0    0 -0.16269151119E+00  0.20494890125E+01  0.38307736880E+00  0.20913207003E+01  0.51100000000E-03 0. -1.
        -11    1    3    3    0    0  0.12655737846E+02 -0.15632862229E+02 -0.29536177526E+02  0.35734295362E+02  0.51100000000E-03 0.  1.
        -12    1    3    3    0    0  0.67998470516E+01  0.16973649596E-01 -0.72798582175E+01  0.99616536628E+01  0.00000000000E+00 0.  1.
</event>
<event>
 7    1  0.6622189E-010  0.4778726E+02  0.7816164E-02  0.1312668E+00
        -11   -1    0    0    0    0  0.00000000000E+00  0.00000000000E+00  0.45593999997E+02  0.45594000000E+02  0.51100000000E-03 0. -1.
         11   -1    0    0    0    0 -0.00000000000E+00 -0.00000000000E+00 -0.45593999997E+02  0.45594000000E+02  0.51100000000E-03 0.  1.
    9900012    2    1    2    0    0 -0.19826687828E+02  0.65968064084E+00 -0.38601698411E+02  0.47787264419E+02  0.19999969790E+02 0.  0.
         12    1    1    2    0    0  0.19826687828E+02 -0.65968064084E+00  0.38601698411E+02  0.43400735581E+02  0.00000000000E+00 0. -1.
         11    1    3    3    0    0 -0.11082279511E+02  0.23220975759E+01 -0.81403417121E+01  0.13945401384E+02  0.51100000000E-03 0. -1.
        -11    1    3    3    0    0 -0.78463379628E+01 -0.18768745046E+01 -0.80004712051E+01  0.11362007617E+02  0.51100000000E-03 0.  1.
         12    1    3    3    0    0 -0.89807035442E+00  0.21445756953E+00 -0.22460885494E+02  0.22479855417E+02  0.00000000000E+00 0. -1.
</event>
<event>
 7    1  0.6622189E-010  0.4778729E+02  0.7816164E-02  0.1312668E+00
        -11   -1    0    0    0    0  0.00000000000E+00  0.00000000000E+00  0.45593999997E+02  0.45594000000E+02  0.51100000000E-03 0. -1.
         11   -1    0    0    0    0 -0.00000000000E+00 -0.00000000000E+00 -0.45593999997E+02  0.45594000000E+02  0.51100000000E-03 0.  1.
    9900012    2    1    2    0    0 -0.33995992689E+02 -0.25960211625E+02 -0.73458681618E+01  0.47787287038E+02  0.20000072922E+02 0.  0.
         12    1    1    2    0    0  0.33995992689E+02  0.25960211625E+02  0.73458681618E+01  0.43400712962E+02  0.00000000000E+00 0. -1.
         11    1    3    3    0    0 -0.15388449203E+02 -0.21606589207E+02 -0.15739327894E+01  0.26573037664E+02  0.51100000000E-03 0. -1.
        -11    1    3    3    0    0 -0.10982009910E+02 -0.13258434608E+01  0.20456471576E+00  0.11063645399E+02  0.51100000000E-03 0.  1.
         12    1    3    3    0    0 -0.76255335767E+01 -0.30277789573E+01 -0.59765000881E+01  0.10150603974E+02  0.00000000000E+00 0. -1.
</event>
<event>
 7    1  0.6622189E-010  0.4778727E+02  0.7816164E-02  0.1312668E+00
        -11   -1    0    0    0    0  0.00000000000E+00  0.00000000000E+00  0.45593999997E+02  0.45594000000E+02  0.51100000000E-03 0. -1.
         11   -1    0    0    0    0 -0.00000000000E+00 -0.00000000000E+00 -0.45593999997E+02  0.45594000000E+02  0.51100000000E-03 0.  1.
    9900012    2    1    2    0    0 -0.41925060334E+01 -0.10347690586E+02 -0.41940093538E+02  0.47787271281E+02  0.20000001081E+02 0.  0.
         12    1    1    2    0    0  0.41925060334E+01  0.10347690586E+02  0.41940093538E+02  0.43400728719E+02  0.00000000000E+00 0. -1.
         11    1    3    3    0    0 -0.16059762048E+01 -0.84718985136E+01 -0.78732308938E+01  0.11676471597E+02  0.51100000000E-03 0. -1.
        -11    1    3    3    0    0 -0.56885113849E+01  0.27234001029E+01 -0.15534291303E+02  0.16765747119E+02  0.51100000000E-03 0.  1.
        -12    1    3    3    0    0  0.31019815563E+01 -0.45991921757E+01 -0.18532571341E+02  0.19345052565E+02  0.00000000000E+00 0.  1.
</event>
<event>
 7    1  0.6622189E-010  0.4778727E+02  0.7816164E-02  0.1312668E+00
        -11   -1    0    0    0    0  0.00000000000E+00  0.00000000000E+00  0.45593999997E+02  0.45594000000E+02  0.51100000000E-03 0. -1.
         11   -1    0    0    0    0 -0.00000000000E+00 -0.00000000000E+00 -0.45593999997E+02  0.45594000000E+02  0.51100000000E-03 0.  1.
    9900012    2    1    2    0    0 -0.10256429659E+02 -0.41423507606E+02 -0.79070842622E+01  0.47787270591E+02  0.19999997932E+02 0.  0.
         12    1    1    2    0    0  0.10256429659E+02  0.41423507606E+02  0.79070842622E+01  0.43400729409E+02  0.00000000000E+00 0. -1.
         11    1    3    3    0    0 -0.10244791938E+02 -0.33923165374E+02 -0.93255335222E+01  0.36642904997E+02  0.51100000000E-03 0.  1.
        -11    1    3    3    0    0  0.10075758360E+01 -0.38089025831E+01  0.46775284907E+01  0.61157355236E+01  0.51100000000E-03 0. -1.
        -12    1    3    3    0    0 -0.10192135565E+01 -0.36914396488E+01 -0.32590792307E+01  0.50286300705E+01  0.00000000000E+00 0.  1.
</event>
<event>
 7    1  0.1115933E-009  0.4778727E+02  0.7816164E-02  0.1312668E+00
        -11   -1    0    0    0    0  0.00000000000E+00  0.00000000000E+00  0.45593999997E+02  0.45594000000E+02  0.51100000000E-03 0. -1.
         11   -1    0    0    0    0 -0.00000000000E+00 -0.00000000000E+00 -0.45593999997E+02  0.45594000000E+02  0.51100000000E-03 0.  1.
    9900012    2    1    2    0    0  0.20382073865E+02 -0.67834449606E+01 -0.37711789112E+02  0.47787273063E+02  0.20000009206E+02 0.  0.
         12    1    1    2    0    0 -0.20382073865E+02  0.67834449606E+01  0.37711789112E+02  0.43400726937E+02  0.00000000000E+00 0. -1.
         11    1    3    3    0    0  0.26663301641E+00 -0.28240739165E+01  0.82952893263E+00  0.29554365435E+01  0.51100000000E-03 0. -1.
        -11    1    3    3    0    0  0.17872963540E+02 -0.55788950145E+01 -0.26313223281E+02  0.32294776900E+02  0.51100000000E-03 0.  1.
        -12    1    3    3    0    0  0.22424773080E+01  0.16195239705E+01 -0.12228094764E+02  0.12537059620E+02  0.00000000000E+00 0.  1.
</event>
<event>
 7    1  0.6622189E-010  0.4778727E+02  0.7816164E-02  0.1312668E+00
        -11   -1    0    0    0    0  0.00000000000E+00  0.00000000000E+00  0.45593999997E+02  0.45594000000E+02  0.51100000000E-03 0. -1.
         11   -1    0    0    0    0 -0.00000000000E+00 -0.00000000000E+00 -0.45593999997E+02  0.45594000000E+02  0.51100000000E-03 0.  1.
    9900012    2    1    2    0    0  0.38976881602E+01  0.28700899916E+02  0.32321663192E+02  0.47787267973E+02  0.19999985998E+02 0.  0.
        -12    1    1    2    0    0 -0.38976881602E+01 -0.28700899916E+02 -0.32321663192E+02  0.43400732027E+02  0.00000000000E+00 0.  1.
         11    1    3    3    0    0 -0.38653807112E+01  0.98367945514E+00  0.53381997511E+01  0.66637204441E+01  0.51100000000E-03 0.  1.
        -11    1    3    3    0    0  0.41871989110E+01  0.25684130754E+02  0.26216357583E+02  0.36939201567E+02  0.51100000000E-03 0. -1.
        -12    1    3    3    0    0  0.35758699604E+01  0.20330897069E+01  0.76710585830E+00  0.41843459618E+01  0.00000000000E+00 0.  1.
</event>
<event>
 7    1  0.6622189E-010  0.4778728E+02  0.7816164E-02  0.1312668E+00
        -11   -1    0    0    0    0  0.00000000000E+00  0.00000000000E+00  0.45593999997E+02  0.45594000000E+02  0.51100000000E-03 0. -1.
         11   -1    0    0    0    0 -0.00000000000E+00 -0.00000000000E+00 -0.45593999997E+02  0.45594000000E+02  0.51100000000E-03 0.  1.
    9900012    2    1    2    0    0 -0.54581755584E+01  0.27009331916E+02 -0.33530988261E+02  0.47787275758E+02  0.20000021490E+02 0.  0.
         12    1    1    2    0    0  0.54581755584E+01 -0.27009331916E+02  0.33530988261E+02  0.43400724242E+02  0.00000000000E+00 0. -1.
         11    1    3    3    0    0 -0.20383868574E+01  0.13885330020E+01  0.10117911283E+01  0.26658519138E+01  0.51100000000E-03 0. -1.
        -11    1    3    3    0    0 -0.26771591795E+00  0.25083884560E+02 -0.33299177381E+02  0.41690624257E+02  0.51100000000E-03 0.  1.
        -12    1    3    3    0    0 -0.31520727831E+01  0.53691435493E+00 -0.12436020084E+01  0.34307995875E+01  0.00000000000E+00 0.  1.
</event>
<event>
 7    1  0.6622189E-010  0.4778727E+02  0.7816164E-02  0.1312668E+00
        -11   -1    0    0    0    0  0.00000000000E+00  0.00000000000E+00  0.45593999997E+02  0.45594000000E+02  0.51100000000E-03 0. -1.
         11   -1    0    0    0    0 -0.00000000000E+00 -0.00000000000E+00 -0.45593999997E+02  0.45594000000E+02  0.51100000000E-03 0.  1.
    9900012    2    1    2    0    0  0.30737727600E+02 -0.22037976264E+02 -0.21287154647E+02  0.47787271333E+02  0.20000001315E+02 0.  0.
         12    1    1    2    0    0 -0.30737727600E+02  0.22037976264E+02  0.21287154647E+02  0.43400728667E+02  0.00000000000E+00 0. -1.
         11    1    3    3    0    0  0.83637562105E+01 -0.11117419413E+02 -0.23160209314E+01  0.14103665679E+02  0.51100000000E-03 0. -1.
        -11    1    3    3    0    0  0.10322273424E+02 -0.56486823718E+01 -0.16552673941E+02  0.20308814737E+02  0.51100000000E-03 0.  1.
        -12    1    3    3    0    0  0.12051697966E+02 -0.52718744793E+01 -0.24184597753E+01  0.13374790917E+02  0.00000000000E+00 0.  1.
</event>
<event>
 7    1  0.6622189E-010  0.4778726E+02  0.7816164E-02  0.1312668E+00
        -11   -1    0    0    0    0  0.00000000000E+00  0.00000000000E+00  0.45593999997E+02  0.45594000000E+02  0.51100000000E-03 0. -1.
         11   -1    0    0    0    0 -0.00000000000E+00 -0.00000000000E+00 -0.45593999997E+02  0.45594000000E+02  0.51100000000E-03 0.  1.
    9900012    2    1    2    0    0  0.15001646925E+02  0.13852186136E+02 -0.38297408282E+02  0.47787263229E+02  0.19999964364E+02 0.  0.
         12    1    1    2    0    0 -0.15001646925E+02 -0.13852186136E+02  0.38297408282E+02  0.43400736771E+02  0.00000000000E+00 0. -1.
         11    1    3    3    0    0  0.69364676198E-01  0.15457007111E+01 -0.14424755316E+02  0.14507500416E+02  0.51100000000E-03 0. -1.
        -11    1    3    3    0    0  0.14424774552E+02  0.13789499396E+02 -0.16952117746E+02  0.26183939940E+02  0.51100000000E-03 0.  1.
        -12    1    3    3    0    0  0.50750769642E+00 -0.14830139705E+01 -0.69205352200E+01  0.70958228719E+01  0.00000000000E+00 0.  1.
</event>
<event>
 7    1  0.6622189E-010  0.4778726E+02  0.7816164E-02  0.1312668E+00
        -11   -1    0    0    0    0  0.00000000000E+00  0.00000000000E+00  0.45593999997E+02  0.45594000000E+02  0.51100000000E-03 0. -1.
         11   -1    0    0    0    0 -0.00000000000E+00 -0.00000000000E+00 -0.45593999997E+02  0.45594000000E+02  0.51100000000E-03 0.  1.
    9900012    2    1    2    0    0 -0.33066051354E+02  0.11356060355E+02 -0.25715763156E+02  0.47787258835E+02  0.19999944333E+02 0.  0.
         12    1    1    2    0    0  0.33066051354E+02 -0.11356060355E+02  0.25715763156E+02  0.43400741165E+02  0.00000000000E+00 0. -1.
         11    1    3    3    0    0 -0.44537869371E+01  0.86404575326E+01 -0.11835270874E+02  0.15315592100E+02  0.51100000000E-03 0. -1.
        -11    1    3    3    0    0 -0.14706881557E+02 -0.16051002492E+01 -0.69728313689E+01  0.16355093687E+02  0.51100000000E-03 0.  1.
         12    1    3    3    0    0 -0.13905382860E+02  0.43207030719E+01 -0.69076609133E+01  0.16116573048E+02  0.00000000000E+00 0. -1.
</event>
<event>
 7    1  0.6622189E-010  0.4778727E+02  0.7816164E-02  0.1312668E+00
        -11   -1    0    0    0    0  0.00000000000E+00  0.00000000000E+00  0.45593999997E+02  0.45594000000E+02  0.51100000000E-03 0. -1.
         11   -1    0    0    0    0 -0.00000000000E+00 -0.00000000000E+00 -0.45593999997E+02  0.45594000000E+02  0.51100000000E-03 0.  1.
    9900012    2    1    2    0    0 -0.81517549368E+01 -0.22340150171E+02 -0.36305506439E+02  0.47787271711E+02  0.20000003041E+02 0.  0.
         12    1    1    2    0    0  0.81517549368E+01  0.22340150171E+02  0.36305506439E+02  0.43400728289E+02  0.00000000000E+00 0. -1.
         11    1    3    3    0    0  0.15222695166E+00  0.41613160349E+00 -0.12343267231E+00  0.45997221867E+00  0.51100000000E-03 0. -1.
        -11    1    3    3    0    0 -0.68076898008E+01 -0.50733109665E+01 -0.24877562301E+02  0.26286426742E+02  0.51100000000E-03 0.  1.
        -12    1    3    3    0    0 -0.14962920876E+01 -0.17682970808E+02 -0.11304511465E+02  0.21040872750E+02  0.00000000000E+00 0.  1.
</event>
<event>
 7    1  0.6622189E-010  0.4778728E+02  0.7816164E-02  0.1312668E+00
        -11   -1    0    0    0    0  0.00000000000E+00  0.00000000000E+00  0.45593999997E+02  0.45594000000E+02  0.51100000000E-03 0. -1.
         11   -1    0    0    0    0 -0.00000000000E+00 -0.00000000000E+00 -0.45593999997E+02  0.45594000000E+02  0.51100000000E-03 0.  1.
    9900012    2    1    2    0    0 -0.44957780122E+01 -0.24057564233E+02 -0.35841935091E+02  0.47787277336E+02  0.20000028684E+02 0.  0.
         12    1    1    2    0    0  0.44957780122E+01  0.24057564233E+02  0.35841935091E+02  0.43400722664E+02  0.00000000000E+00 0. -1.
         11    1    3    3    0    0 -0.78284976327E+01 -0.85542065884E+01 -0.13189076875E+02  0.17561650680E+02  0.51100000000E-03 0. -1.
        -11    1    3    3    0    0  0.60019980702E+01 -0.98157330367E+01 -0.20636676966E+02  0.23627209576E+02  0.51100000000E-03 0.  1.
        -12    1    3    3    0    0 -0.26692784497E+01 -0.56876246076E+01 -0.20161812496E+01  0.65984170791E+01  0.00000000000E+00 0.  1.
</event>
<event>
 7    1  0.6837950E-010  0.4778727E+02  0.7816164E-02  0.1312668E+00
        -11   -1    0    0    0    0  0.00000000000E+00  0.00000000000E+00  0.45593999997E+02  0.45594000000E+02  0.51100000000E-03 0. -1.
         11   -1    0    0    0    0 -0.00000000000E+00 -0.00000000000E+00 -0.45593999997E+02  0.45594000000E+02  0.51100000000E-03 0.  1.
    9900012    2    1    2    0    0 -0.22184761028E+02 -0.14734385721E+02 -0.34268901701E+02  0.47787269957E+02  0.19999995043E+02 0.  0.
         12    1    1    2    0    0  0.22184761028E+02  0.14734385721E+02  0.34268901701E+02  0.43400730043E+02  0.00000000000E+00 0. -1.
         11    1    3    3    0    0 -0.64595703660E+01  0.21539080385E+01 -0.41136219150E+01  0.79553286967E+01  0.51100000000E-03 0. -1.
        -11    1    3    3    0    0 -0.59398395282E+01 -0.11241507192E+02 -0.81679496805E+01  0.15111868839E+02  0.51100000000E-03 0.  1.
        -12    1    3    3    0    0 -0.97853511334E+01 -0.56467865678E+01 -0.21987330106E+02  0.24720072421E+02  0.00000000000E+00 0.  1.
</event>
<event>
 7    1  0.6622189E-010  0.4778728E+02  0.7816164E-02  0.1312668E+00
        -11   -1    0    0    0    0  0.00000000000E+00  0.00000000000E+00  0.45593999997E+02  0.45594000000E+02  0.51100000000E-03 0. -1.
         11   -1    0    0    0    0 -0.00000000000E+00 -0.00000000000E+00 -0.45593999997E+02  0.45594000000E+02  0.51100000000E-03 0.  1.
    9900012    2    1    2    0    0 -0.68784796146E+01  0.68672005872E+01 -0.42298356466E+02  0.47787275520E+02  0.20000020405E+02 0.  0.
         12    1    1    2    0    0  0.68784796146E+01 -0.68672005872E+01  0.42298356466E+02  0.43400724480E+02  0.00000000000E+00 0. -1.
         11    1    3    3    0    0  0.74788140666E+00  0.23469489880E+01 -0.25970050362E+00  0.24768812575E+01  0.51100000000E-03 0. -1.
        -11    1    3    3    0    0 -0.22479063042E+01  0.14412269076E+01 -0.37582425186E+02  0.37677166837E+02  0.51100000000E-03 0.  1.
        -12    1    3    3    0    0 -0.53784547171E+01  0.30790246916E+01 -0.44562307759E+01  0.76332274251E+01  0.00000000000E+00 0.  1.
</event>
<event>
 7    1  0.6622189E-010  0.4778728E+02  0.7816164E-02  0.1312668E+00
        -11   -1    0    0    0    0  0.00000000000E+00  0.00000000000E+00  0.45593999997E+02  0.45594000000E+02  0.51100000000E-03 0. -1.
         11   -1    0    0    0    0 -0.00000000000E+00 -0.00000000000E+00 -0.45593999997E+02  0.45594000000E+02  0.51100000000E-03 0.  1.
    9900012    2    1    2    0    0 -0.23203227293E+02  0.33971012743E+02 -0.13827631326E+02  0.47787275908E+02  0.20000022174E+02 0.  0.
         12    1    1    2    0    0  0.23203227293E+02 -0.33971012743E+02  0.13827631326E+02  0.43400724092E+02  0.00000000000E+00 0. -1.
         11    1    3    3    0    0 -0.28861108353E+01 -0.22898137990E+01 -0.17205604826E+01  0.40661052154E+01  0.51100000000E-03 0. -1.
        -11    1    3    3    0    0 -0.16681674742E+02  0.29021574622E+02 -0.12176152297E+02  0.35620061072E+02  0.51100000000E-03 0.  1.
         12    1    3    3    0    0 -0.36354417158E+01  0.72392519200E+01  0.69081454050E-01  0.81011096202E+01  0.00000000000E+00 0. -1.
</event>
<event>
 7    1  0.6622189E-010  0.4778728E+02  0.7816164E-02  0.1312668E+00
        -11   -1    0    0    0    0  0.00000000000E+00  0.00000000000E+00  0.45593999997E+02  0.45594000000E+02  0.51100000000E-03 0. -1.
         11   -1    0    0    0    0 -0.00000000000E+00 -0.00000000000E+00 -0.45593999997E+02  0.45594000000E+02  0.51100000000E-03 0.  1.
    9900012    2    1    2    0    0 -0.12785643459E+02  0.79693841974E+01 -0.40701832416E+02  0.47787275062E+02  0.20000018318E+02 0.  0.
         12    1    1    2    0    0  0.12785643459E+02 -0.79693841974E+01  0.40701832416E+02  0.43400724938E+02  0.00000000000E+00 0. -1.
         11    1    3    3    0    0  0.17030916077E+01  0.77486525949E+00 -0.35972130012E+00  0.19053442915E+01  0.51100000000E-03 0. -1.
        -11    1    3    3    0    0 -0.40521864693E+01  0.10214680571E+02 -0.19997521537E+02  0.22817992512E+02  0.51100000000E-03 0.  1.
        -12    1    3    3    0    0 -0.10436548597E+02 -0.30201616334E+01 -0.20344589578E+02  0.23063938259E+02  0.00000000000E+00 0.  1.
</event>
<event>
 7    1  0.6622189E-010  0.4778727E+02  0.7816164E-02  0.1312668E+00
        -11   -1    0    0    0    0  0.00000000000E+00  0.00000000000E+00  0.45593999997E+02  0.45594000000E+02  0.51100000000E-03 0. -1.
         11   -1    0    0    0    0 -0.00000000000E+00 -0.00000000000E+00 -0.45593999997E+02  0.45594000000E+02  0.51100000000E-03 0.  1.
    9900012    2    1    2    0    0  0.22269857870E+02 -0.77356490190E+01 -0.36439494190E+02  0.47787267609E+02  0.19999984335E+02 0.  0.
         12    1    1    2    0    0 -0.22269857870E+02  0.77356490190E+01  0.36439494190E+02  0.43400732391E+02  0.00000000000E+00 0. -1.
         11    1    3    3    0    0  0.96053426761E+01 -0.45638992974E+01 -0.26854632230E+01  0.10968295114E+02  0.51100000000E-03 0. -1.
        -11    1    3    3    0    0  0.14437340953E+01  0.11925077061E+01 -0.10154980142E+02  0.10326183453E+02  0.51100000000E-03 0.  1.
         12    1    3    3    0    0  0.11220781098E+02 -0.43642574277E+01 -0.23599050825E+02  0.26492789041E+02  0.00000000000E+00 0. -1.
</event>
<event>
 7    1  0.6622189E-010  0.4778727E+02  0.7816164E-02  0.1312668E+00
        -11   -1    0    0    0    0  0.00000000000E+00  0.00000000000E+00  0.45593999997E+02  0.45594000000E+02  0.51100000000E-03 0.  1.
         11   -1    0    0    0    0 -0.00000000000E+00 -0.00000000000E+00 -0.45593999997E+02  0.45594000000E+02  0.51100000000E-03 0. -1.
    9900012    2    1    2    0    0 -0.29326141452E+02 -0.31822034683E+02  0.33103872997E+01  0.47787272726E+02  0.20000007667E+02 0.  0.
        -12    1    1    2    0    0  0.29326141452E+02  0.31822034683E+02 -0.33103872997E+01  0.43400727274E+02  0.00000000000E+00 0.  1.
         11    1    3    3    0    0 -0.49714833451E+01 -0.58227176526E+01  0.32269139038E+01  0.83085895985E+01  0.51100000000E-03 0. -1.
        -11    1    3    3    0    0 -0.14840394564E+02 -0.17044796136E+02  0.82639853647E+01  0.24063579129E+02  0.51100000000E-03 0.  1.
        -12    1    3    3    0    0 -0.95142635429E+01 -0.89545208943E+01 -0.81805119688E+01  0.15415103998E+02  0.00000000000E+00 0.  1.
</event>
<event>
 7    1  0.6622189E-010  0.4778732E+02  0.7816164E-02  0.1312668E+00
        -11   -1    0    0    0    0  0.00000000000E+00  0.00000000000E+00  0.45593999997E+02  0.45594000000E+02  0.51100000000E-03 0. -1.
         11   -1    0    0    0    0 -0.00000000000E+00 -0.00000000000E+00 -0.45593999997E+02  0.45594000000E+02  0.51100000000E-03 0.  1.
    9900012    2    1    2    0    0 -0.21519600201E+02 -0.35569653401E+02 -0.12462976507E+02  0.47787317755E+02  0.20000212973E+02 0.  0.
         12    1    1    2    0    0  0.21519600201E+02  0.35569653401E+02  0.12462976507E+02  0.43400682245E+02  0.00000000000E+00 0. -1.
         11    1    3    3    0    0 -0.16711408673E+02 -0.12031832995E+02 -0.57993562775E+00  0.20600303654E+02  0.51100000000E-03 0. -1.
        -11    1    3    3    0    0 -0.49351174876E+01 -0.18670590337E+02 -0.11042927786E+02  0.22246181302E+02  0.51100000000E-03 0.  1.
         12    1    3    3    0    0  0.12692595923E+00 -0.48672300691E+01 -0.84011309285E+00  0.49408327995E+01  0.00000000000E+00 0. -1.
</event>
<event>
 7    1  0.6622189E-010  0.4778729E+02  0.7816164E-02  0.1312668E+00
        -11   -1    0    0    0    0  0.00000000000E+00  0.00000000000E+00  0.45593999997E+02  0.45594000000E+02  0.51100000000E-03 0. -1.
         11   -1    0    0    0    0 -0.00000000000E+00 -0.00000000000E+00 -0.45593999997E+02  0.45594000000E+02  0.51100000000E-03 0.  1.
    9900012    2    1    2    0    0  0.38533077312E+02  0.20836277334E+00  0.19969475034E+02  0.47787292686E+02  0.20000098674E+02 0.  0.
        -12    1    1    2    0    0 -0.38533077312E+02 -0.20836277334E+00 -0.19969475034E+02  0.43400707314E+02  0.00000000000E+00 0.  1.
         11    1    3    3    0    0  0.12200086135E+02 -0.40512985390E+01  0.11149669890E+02  0.17016764101E+02  0.51100000000E-03 0. -1.
        -11    1    3    3    0    0  0.22317437707E+02  0.77144071201E+01  0.94543323219E+01  0.25435496908E+02  0.51100000000E-03 0.  1.
        -12    1    3    3    0    0  0.40155534697E+01 -0.34547458077E+01 -0.63452717736E+00  0.53350316777E+01  0.00000000000E+00 0.  1.
</event>
<event>
 7    1  0.6622189E-010  0.4778727E+02  0.7816164E-02  0.1312668E+00
        -11   -1    0    0    0    0  0.00000000000E+00  0.00000000000E+00  0.45593999997E+02  0.45594000000E+02  0.51100000000E-03 0. -1.
         11   -1    0    0    0    0 -0.00000000000E+00 -0.00000000000E+00 -0.45593999997E+02  0.45594000000E+02  0.51100000000E-03 0.  1.
    9900012    2    1    2    0    0  0.37262837684E+02  0.14696491565E+02 -0.16706814310E+02  0.47787267506E+02  0.19999983868E+02 0.  0.
         12    1    1    2    0    0 -0.37262837684E+02 -0.14696491565E+02  0.16706814310E+02  0.43400732494E+02  0.00000000000E+00 0. -1.
         11    1    3    3    0    0  0.18609062133E+02  0.16149886079E+02 -0.46228691195E+01  0.25069641661E+02  0.51100000000E-03 0.  1.
        -11    1    3    3    0    0  0.15857568273E+02 -0.58946230665E+00 -0.82221390852E+01  0.17872143373E+02  0.51100000000E-03 0. -1.
        -12    1    3    3    0    0  0.27962072776E+01 -0.86393220663E+00 -0.38618061055E+01  0.48454824727E+01  0.00000000000E+00 0.  1.
</event>
<event>
 7    1  0.6622189E-010  0.4778727E+02  0.7816164E-02  0.1312668E+00
        -11   -1    0    0    0    0  0.00000000000E+00  0.00000000000E+00  0.45593999997E+02  0.45594000000E+02  0.51100000000E-03 0.  1.
         11   -1    0    0    0    0 -0.00000000000E+00 -0.00000000000E+00 -0.45593999997E+02  0.45594000000E+02  0.51100000000E-03 0. -1.
    9900012    2    1    2    0    0 -0.31165296597E+02 -0.29458266146E+02 -0.66751830340E+01  0.47787271609E+02  0.20000002576E+02 0.  0.
         12    1    1    2    0    0  0.31165296597E+02  0.29458266146E+02  0.66751830340E+01  0.43400728391E+02  0.00000000000E+00 0. -1.
         11    1    3    3    0    0 -0.13820766542E+00 -0.26084990738E+01  0.26152090357E+01  0.36963072570E+01  0.51100000000E-03 0. -1.
        -11    1    3    3    0    0 -0.17576916487E+02 -0.19788080616E+02 -0.11278542072E+02  0.28770151880E+02  0.51100000000E-03 0.  1.
        -12    1    3    3    0    0 -0.13450172444E+02 -0.70616864568E+01  0.19881500028E+01  0.15320812473E+02  0.00000000000E+00 0.  1.
</event>
<event>
 7    1  0.6622189E-010  0.4778727E+02  0.7816164E-02  0.1312668E+00
        -11   -1    0    0    0    0  0.00000000000E+00  0.00000000000E+00  0.45593999997E+02  0.45594000000E+02  0.51100000000E-03 0. -1.
         11   -1    0    0    0    0 -0.00000000000E+00 -0.00000000000E+00 -0.45593999997E+02  0.45594000000E+02  0.51100000000E-03 0.  1.
    9900012    2    1    2    0    0 -0.22710482178E+02 -0.12983064825E+02 -0.34630868946E+02  0.47787273543E+02  0.20000011394E+02 0.  0.
         12    1    1    2    0    0  0.22710482178E+02  0.12983064825E+02  0.34630868946E+02  0.43400726457E+02  0.00000000000E+00 0. -1.
         11    1    3    3    0    0 -0.60150915409E+00  0.45888269749E+01 -0.53885332014E+01  0.71031990393E+01  0.51100000000E-03 0. -1.
        -11    1    3    3    0    0 -0.13596662125E+02 -0.99915887694E+01 -0.16814561510E+02  0.23820800702E+02  0.51100000000E-03 0.  1.
         12    1    3    3    0    0 -0.85123108997E+01 -0.75803030309E+01 -0.12427774234E+02  0.16863273802E+02  0.00000000000E+00 0. -1.
</event>
<event>
 7    1  0.6622189E-010  0.4778727E+02  0.7816164E-02  0.1312668E+00
        -11   -1    0    0    0    0  0.00000000000E+00  0.00000000000E+00  0.45593999997E+02  0.45594000000E+02  0.51100000000E-03 0. -1.
         11   -1    0    0    0    0 -0.00000000000E+00 -0.00000000000E+00 -0.45593999997E+02  0.45594000000E+02  0.51100000000E-03 0.  1.
    9900012    2    1    2    0    0 -0.33652299998E+02  0.26804645618E+02 -0.57146151722E+01  0.47787272489E+02  0.20000006588E+02 0.  0.
         12    1    1    2    0    0  0.33652299998E+02 -0.26804645618E+02  0.57146151722E+01  0.43400727511E+02  0.00000000000E+00 0. -1.
         11    1    3    3    0    0 -0.11009363572E+02  0.28509906085E+01 -0.18961599480E+01  0.11529512414E+02  0.51100000000E-03 0. -1.
        -11    1    3    3    0    0 -0.10809163084E+02  0.21023127760E+02 -0.59099234622E+00  0.23646546886E+02  0.51100000000E-03 0.  1.
        -12    1    3    3    0    0 -0.11833773343E+02  0.29305272497E+01 -0.32274628780E+01  0.12611213190E+02  0.00000000000E+00 0.  1.
</event>
<event>
 7    1  0.6622189E-010  0.4778729E+02  0.7816164E-02  0.1312668E+00
        -11   -1    0    0    0    0  0.00000000000E+00  0.00000000000E+00  0.45593999997E+02  0.45594000000E+02  0.51100000000E-03 0. -1.
         11   -1    0    0    0    0 -0.00000000000E+00 -0.00000000000E+00 -0.45593999997E+02  0.45594000000E+02  0.51100000000E-03 0.  1.
    9900012    2    1    2    0    0  0.93593046150E+01 -0.24030771183E+02  0.34907694427E+02  0.47787289444E+02  0.20000083893E+02 0.  0.
        -12    1    1    2    0    0 -0.93593046150E+01  0.24030771183E+02 -0.34907694427E+02  0.43400710556E+02  0.00000000000E+00 0.  1.
         11    1    3    3    0    0 -0.40765949013E+01 -0.14453671828E+02  0.15352851686E+02  0.21476436168E+02  0.51100000000E-03 0. -1.
        -11    1    3    3    0    0  0.21869022468E+01 -0.29605213705E+01  0.13693553049E+01  0.39271315784E+01  0.51100000000E-03 0.  1.
         12    1    3    3    0    0  0.11248997270E+02 -0.66165779844E+01  0.18185487436E+02  0.22383721698E+02  0.00000000000E+00 0. -1.
</event>
<event>
 7    1  0.8306432E-010  0.4778727E+02  0.7816164E-02  0.1312668E+00
        -11   -1    0    0    0    0  0.00000000000E+00  0.00000000000E+00  0.45593999997E+02  0.45594000000E+02  0.51100000000E-03 0. -1.
         11   -1    0    0    0    0 -0.00000000000E+00 -0.00000000000E+00 -0.45593999997E+02  0.45594000000E+02  0.51100000000E-03 0.  1.
    9900012    2    1    2    0    0 -0.62398144571E+01  0.28099338144E+02 -0.32482536961E+02  0.47787270790E+02  0.19999998838E+02 0.  0.
         12    1    1    2    0    0  0.62398144571E+01 -0.28099338144E+02  0.32482536961E+02  0.43400729210E+02  0.00000000000E+00 0. -1.
         11    1    3    3    0    0 -0.45048347840E+01 -0.86597711133E+00 -0.25336151989E+01  0.52404827092E+01  0.51100000000E-03 0. -1.
        -11    1    3    3    0    0 -0.50720905026E+01  0.20350857448E+02 -0.21267605012E+02  0.29869625444E+02  0.51100000000E-03 0.  1.
         12    1    3    3    0    0  0.33371108296E+01  0.86144578067E+01 -0.86813167504E+01  0.12677162637E+02  0.00000000000E+00 0. -1.
</event>
<event>
 7    1  0.6622189E-010  0.4778726E+02  0.7816164E-02  0.1312668E+00
        -11   -1    0    0    0    0  0.00000000000E+00  0.00000000000E+00  0.45593999997E+02  0.45594000000E+02  0.51100000000E-03 0. -1.
         11   -1    0    0    0    0 -0.00000000000E+00 -0.00000000000E+00 -0.45593999997E+02  0.45594000000E+02  0.51100000000E-03 0.  1.
    9900012    2    1    2    0    0 -0.45976868837E+01 -0.29555496630E+02  0.31447699388E+02  0.47787263802E+02  0.19999966979E+02 0.  0.
        -12    1    1    2    0    0  0.45976868837E+01  0.29555496630E+02 -0.31447699388E+02  0.43400736198E+02  0.00000000000E+00 0.  1.
         11    1    3    3    0    0 -0.48686725018E+01 -0.76629037658E+01  0.15859120715E+02  0.18273909713E+02  0.51100000000E-03 0. -1.
        -11    1    3    3    0    0  0.38162821614E+01 -0.21067977795E+02  0.13610830445E+02  0.25370817953E+02  0.51100000000E-03 0.  1.
        -12    1    3    3    0    0 -0.35452965434E+01 -0.82461506829E+00  0.19777482277E+01  0.41425361367E+01  0.00000000000E+00 0.  1.
</event>
<event>
 7    1  0.6622189E-010  0.4778727E+02  0.7816164E-02  0.1312668E+00
        -11   -1    0    0    0    0  0.00000000000E+00  0.00000000000E+00  0.45593999997E+02  0.45594000000E+02  0.51100000000E-03 0.  1.
         11   -1    0    0    0    0 -0.00000000000E+00 -0.00000000000E+00 -0.45593999997E+02  0.45594000000E+02  0.51100000000E-03 0. -1.
    9900012    2    1    2    0    0 -0.76574107706E+01  0.40720532770E+02  0.12916094257E+02  0.47787271669E+02  0.20000002848E+02 0.  0.
        -12    1    1    2    0    0  0.76574107706E+01 -0.40720532770E+02 -0.12916094257E+02  0.43400728331E+02  0.00000000000E+00 0.  1.
         11    1    3    3    0    0 -0.65579378542E+00  0.29641076248E+02  0.15897990113E+02  0.33641782897E+02  0.51100000000E-03 0. -1.
        -11    1    3    3    0    0 -0.67647387864E+01  0.70086037123E+01 -0.18666699394E+01  0.99179974676E+01  0.51100000000E-03 0.  1.
        -12    1    3    3    0    0 -0.23687819876E+00  0.40708528102E+01 -0.11152259161E+01  0.42274913042E+01  0.00000000000E+00 0.  1.
</event>
<event>
 7    1  0.6622189E-010  0.4778727E+02  0.7816164E-02  0.1312668E+00
        -11   -1    0    0    0    0  0.00000000000E+00  0.00000000000E+00  0.45593999997E+02  0.45594000000E+02  0.51100000000E-03 0. -1.
         11   -1    0    0    0    0 -0.00000000000E+00 -0.00000000000E+00 -0.45593999997E+02  0.45594000000E+02  0.51100000000E-03 0.  1.
    9900012    2    1    2    0    0 -0.73742967699E+01  0.26132443510E+02 -0.33857618355E+02  0.47787272157E+02  0.20000005073E+02 0.  0.
         12    1    1    2    0    0  0.73742967699E+01 -0.26132443510E+02  0.33857618355E+02  0.43400727843E+02  0.00000000000E+00 0. -1.
         11    1    3    3    0    0 -0.25572514791E+01  0.18499151738E+02 -0.11654335892E+02  0.22013216382E+02  0.51100000000E-03 0. -1.
        -11    1    3    3    0    0 -0.62405046719E+01  0.36891205231E+01 -0.19451757115E+02  0.20758717781E+02  0.51100000000E-03 0.  1.
        -12    1    3    3    0    0  0.14234593811E+01  0.39441712484E+01 -0.27515253481E+01  0.50153379933E+01  0.00000000000E+00 0.  1.
</event>
<event>
 7    1  0.6622189E-010  0.4778727E+02  0.7816164E-02  0.1312668E+00
        -11   -1    0    0    0    0  0.00000000000E+00  0.00000000000E+00  0.45593999997E+02  0.45594000000E+02  0.51100000000E-03 0.  1.
         11   -1    0    0    0    0 -0.00000000000E+00 -0.00000000000E+00 -0.45593999997E+02  0.45594000000E+02  0.51100000000E-03 0. -1.
    9900012    2    1    2    0    0  0.12230093114E+02  0.38834992976E+02  0.15029678836E+02  0.47787273013E+02  0.20000008977E+02 0.  0.
        -12    1    1    2    0    0 -0.12230093114E+02 -0.38834992976E+02 -0.15029678836E+02  0.43400726987E+02  0.00000000000E+00 0.  1.
         11    1    3    3    0    0  0.94383092594E+01  0.15257851582E+02  0.19559801951E+01  0.18047425726E+02  0.51100000000E-03 0. -1.
        -11    1    3    3    0    0  0.32267654380E+01  0.23791718970E+02  0.14625916315E+02  0.28113614763E+02  0.51100000000E-03 0.  1.
        -12    1    3    3    0    0 -0.43498158314E+00 -0.21457757591E+00 -0.15522176737E+01  0.16262325234E+01  0.00000000000E+00 0.  1.
</event>
<event>
 7    1  0.6622189E-010  0.4778727E+02  0.7816164E-02  0.1312668E+00
        -11   -1    0    0    0    0  0.00000000000E+00  0.00000000000E+00  0.45593999997E+02  0.45594000000E+02  0.51100000000E-03 0. -1.
         11   -1    0    0    0    0 -0.00000000000E+00 -0.00000000000E+00 -0.45593999997E+02  0.45594000000E+02  0.51100000000E-03 0.  1.
    9900012    2    1    2    0    0  0.25608139721E+02 -0.55871341030E+00 -0.35036184762E+02  0.47787271627E+02  0.20000002655E+02 0.  0.
         12    1    1    2    0    0 -0.25608139721E+02  0.55871341030E+00  0.35036184762E+02  0.43400728373E+02  0.00000000000E+00 0. -1.
         11    1    3    3    0    0  0.36831075633E+01  0.39103560401E+01 -0.14172533899E+02  0.15156413925E+02  0.51100000000E-03 0. -1.
        -11    1    3    3    0    0  0.18206112739E+02 -0.69099479781E+00 -0.10598658271E+02  0.21077750646E+02  0.51100000000E-03 0.  1.
         12    1    3    3    0    0  0.37189194183E+01 -0.37780746526E+01 -0.10264992592E+02  0.11553107056E+02  0.00000000000E+00 0. -1.
</event>
<event>
 7    1  0.6622189E-010  0.4778727E+02  0.7816164E-02  0.1312668E+00
        -11   -1    0    0    0    0  0.00000000000E+00  0.00000000000E+00  0.45593999997E+02  0.45594000000E+02  0.51100000000E-03 0.  1.
         11   -1    0    0    0    0 -0.00000000000E+00 -0.00000000000E+00 -0.45593999997E+02  0.45594000000E+02  0.51100000000E-03 0. -1.
    9900012    2    1    2    0    0  0.41178899296E+02  0.83996206505E+01  0.10833648430E+02  0.47787270599E+02  0.19999997967E+02 0.  0.
        -12    1    1    2    0    0 -0.41178899296E+02 -0.83996206505E+01 -0.10833648430E+02  0.43400729401E+02  0.00000000000E+00 0.  1.
         11    1    3    3    0    0  0.23095603955E+02  0.68318395319E+01  0.92523463861E+01  0.25800908266E+02  0.51100000000E-03 0.  1.
        -11    1    3    3    0    0  0.27371840716E+01 -0.29233367441E+01 -0.33843534372E+01  0.52432740545E+01  0.51100000000E-03 0. -1.
         12    1    3    3    0    0  0.15346111269E+02  0.44911178627E+01  0.49656554810E+01  0.16743088278E+02  0.00000000000E+00 0. -1.
</event>
<event>
 7    1  0.6622189E-010  0.4778727E+02  0.7816164E-02  0.1312668E+00
        -11   -1    0    0    0    0  0.00000000000E+00  0.00000000000E+00  0.45593999997E+02  0.45594000000E+02  0.51100000000E-03 0. -1.
         11   -1    0    0    0    0 -0.00000000000E+00 -0.00000000000E+00 -0.45593999997E+02  0.45594000000E+02  0.51100000000E-03 0.  1.
    9900012    2    1    2    0    0  0.15666305769E+02 -0.19301586975E+02 -0.35575820187E+02  0.47787269843E+02  0.19999994520E+02 0.  0.
         12    1    1    2    0    0 -0.15666305769E+02  0.19301586975E+02  0.35575820187E+02  0.43400730157E+02  0.00000000000E+00 0. -1.
         11    1    3    3    0    0  0.36465062269E+01 -0.96759665852E+01 -0.10270793476E+02  0.14574310821E+02  0.51100000000E-03 0. -1.
        -11    1    3    3    0    0  0.15039723026E+02 -0.81563919136E+01 -0.24278396491E+02  0.29701187421E+02  0.51100000000E-03 0.  1.
        -12    1    3    3    0    0 -0.30199234847E+01 -0.14692284759E+01 -0.10266302207E+01  0.35117716011E+01  0.00000000000E+00 0.  1.
</event>
<event>
 7    1  0.6622189E-010  0.4778728E+02  0.7816164E-02  0.1312668E+00
        -11   -1    0    0    0    0  0.00000000000E+00  0.00000000000E+00  0.45593999997E+02  0.45594000000E+02  0.51100000000E-03 0. -1.
         11   -1    0    0    0    0 -0.00000000000E+00 -0.00000000000E+00 -0.45593999997E+02  0.45594000000E+02  0.51100000000E-03 0.  1.
    9900012    2    1    2    0    0  0.10757893765E+02  0.63458749962E+01  0.41564653695E+02  0.47787275991E+02  0.20000022553E+02 0.  0.
        -12    1    1    2    0    0 -0.10757893765E+02 -0.63458749962E+01 -0.41564653695E+02  0.43400724009E+02  0.00000000000E+00 0.  1.
         11    1    3    3    0    0 -0.17139630377E+00 -0.45516999170E+01  0.10341508316E+02  0.11300183332E+02  0.51100000000E-03 0.  1.
        -11    1    3    3    0    0  0.87247760900E+01  0.24263457966E+01  0.21901097005E+02  0.23699513118E+02  0.51100000000E-03 0. -1.
        -12    1    3    3    0    0  0.22045139789E+01  0.84712291167E+01  0.93220483747E+01  0.12787579542E+02  0.00000000000E+00 0.  1.
</event>
<event>
 7    1  0.6622189E-010  0.4778727E+02  0.7816164E-02  0.1312668E+00
        -11   -1    0    0    0    0  0.00000000000E+00  0.00000000000E+00  0.45593999997E+02  0.45594000000E+02  0.51100000000E-03 0. -1.
         11   -1    0    0    0    0 -0.00000000000E+00 -0.00000000000E+00 -0.45593999997E+02  0.45594000000E+02  0.51100000000E-03 0.  1.
    9900012    2    1    2    0    0  0.31405665338E+02 -0.20348639723E+02  0.21982730663E+02  0.47787269577E+02  0.19999993308E+02 0.  0.
        -12    1    1    2    0    0 -0.31405665338E+02  0.20348639723E+02 -0.21982730663E+02  0.43400730423E+02  0.00000000000E+00 0.  1.
         11    1    3    3    0    0  0.78529945715E+01 -0.10738070985E+02  0.12476711652E+02  0.18238531359E+02  0.51100000000E-03 0. -1.
        -11    1    3    3    0    0  0.14885271361E+02 -0.10155552874E+02  0.21120516092E+01  0.18142968884E+02  0.51100000000E-03 0.  1.
         12    1    3    3    0    0  0.86673994053E+01  0.54498413636E+00  0.73939674018E+01  0.11405769334E+02  0.00000000000E+00 0. -1.
</event>
<event>
 7    1  0.6622189E-010  0.4778727E+02  0.7816164E-02  0.1312668E+00
        -11   -1    0    0    0    0  0.00000000000E+00  0.00000000000E+00  0.45593999997E+02  0.45594000000E+02  0.51100000000E-03 0. -1.
         11   -1    0    0    0    0 -0.00000000000E+00 -0.00000000000E+00 -0.45593999997E+02  0.45594000000E+02  0.51100000000E-03 0.  1.
    9900012    2    1    2    0    0 -0.52164150460E+01 -0.35585996863E+02  0.24290924460E+02  0.47787272244E+02  0.20000005468E+02 0.  0.
        -12    1    1    2    0    0  0.52164150460E+01  0.35585996863E+02 -0.24290924460E+02  0.43400727756E+02  0.00000000000E+00 0.  1.
         11    1    3    3    0    0  0.22795947643E+01 -0.17312488082E+02  0.12579430038E+02  0.21521172278E+02  0.51100000000E-03 0. -1.
        -11    1    3    3    0    0  0.10501738395E+01 -0.13257611400E+02  0.46126662114E+01  0.14076356594E+02  0.51100000000E-03 0.  1.
        -12    1    3    3    0    0 -0.85461836498E+01 -0.50158973815E+01  0.70988282103E+01  0.12189743372E+02  0.00000000000E+00 0.  1.
</event>
<event>
 7    1  0.6622189E-010  0.4778728E+02  0.7816164E-02  0.1312668E+00
        -11   -1    0    0    0    0  0.00000000000E+00  0.00000000000E+00  0.45593999997E+02  0.45594000000E+02  0.51100000000E-03 0. -1.
         11   -1    0    0    0    0 -0.00000000000E+00 -0.00000000000E+00 -0.45593999997E+02  0.45594000000E+02  0.51100000000E-03 0.  1.
    9900012    2    1    2    0    0 -0.11820913780E+02 -0.36897259487E+02 -0.19557125684E+02  0.47787275060E+02  0.20000018310E+02 0.  0.
         12    1    1    2    0    0  0.11820913780E+02  0.36897259487E+02  0.19557125684E+02  0.43400724940E+02  0.00000000000E+00 0. -1.
         11    1    3    3    0    0 -0.30057359176E-01 -0.28376269620E+02 -0.13626943401E+02  0.31478677985E+02  0.51100000000E-03 0. -1.
        -11    1    3    3    0    0 -0.97171948943E+01 -0.67249163503E+01 -0.65285474625E+01  0.13500752155E+02  0.51100000000E-03 0.  1.
         12    1    3    3    0    0 -0.20736615261E+01 -0.17960735174E+01  0.59836517952E+00  0.28078449197E+01  0.00000000000E+00 0. -1.
</event>
<event>
 7    1  0.6622189E-010  0.4778727E+02  0.7816164E-02  0.1312668E+00
        -11   -1    0    0    0    0  0.00000000000E+00  0.00000000000E+00  0.45593999997E+02  0.45594000000E+02  0.51100000000E-03 0. -1.
         11   -1    0    0    0    0 -0.00000000000E+00 -0.00000000000E+00 -0.45593999997E+02  0.45594000000E+02  0.51100000000E-03 0.  1.
    9900012    2    1    2    0    0 -0.36466527408E+02  0.25417208906E+01 -0.23395622471E+02  0.47787272850E+02  0.20000008234E+02 0.  0.
         12    1    1    2    0    0  0.36466527408E+02 -0.25417208906E+01  0.23395622471E+02  0.43400727150E+02  0.00000000000E+00 0. -1.
         11    1    3    3    0    0 -0.26853184232E+01 -0.31889382968E+01 -0.67520984257E+01  0.79354329376E+01  0.51100000000E-03 0. -1.
        -11    1    3    3    0    0 -0.33695401408E+02  0.40576320102E+01 -0.13980180021E+02  0.36705447651E+02  0.51100000000E-03 0.  1.
        -12    1    3    3    0    0 -0.85807577309E-01  0.16730271771E+01 -0.26633440238E+01  0.31463922617E+01  0.00000000000E+00 0.  1.
</event>
<event>
 7    1  0.6622189E-010  0.4778727E+02  0.7816164E-02  0.1312668E+00
        -11   -1    0    0    0    0  0.00000000000E+00  0.00000000000E+00  0.45593999997E+02  0.45594000000E+02  0.51100000000E-03 0. -1.
         11   -1    0    0    0    0 -0.00000000000E+00 -0.00000000000E+00 -0.45593999997E+02  0.45594000000E+02  0.51100000000E-03 0.  1.
    9900012    2    1    2    0    0 -0.37209181727E+02 -0.21451952292E+02  0.62380853419E+01  0.47787272233E+02  0.20000005420E+02 0.  0.
        -12    1    1    2    0    0  0.37209181727E+02  0.21451952292E+02 -0.62380853419E+01  0.43400727767E+02  0.00000000000E+00 0.  1.
         11    1    3    3    0    0 -0.17098002645E+01 -0.29515457391E+01 -0.41390107144E+01  0.53634363192E+01  0.51100000000E-03 0. -1.
        -11    1    3    3    0    0 -0.33199345141E+02 -0.16904513484E+02  0.12058511049E+02  0.39158227525E+02  0.51100000000E-03 0.  1.
        -12    1    3    3    0    0 -0.23000363222E+01 -0.15958930693E+01 -0.16814149931E+01  0.32656083891E+01  0.00000000000E+00 0.  1.
</event>
<event>
 7    1  0.6622189E-010  0.4778727E+02  0.7816164E-02  0.1312668E+00
        -11   -1    0    0    0    0  0.00000000000E+00  0.00000000000E+00  0.45593999997E+02  0.45594000000E+02  0.51100000000E-03 0. -1.
         11   -1    0    0    0    0 -0.00000000000E+00 -0.00000000000E+00 -0.45593999997E+02  0.45594000000E+02  0.51100000000E-03 0.  1.
    9900012    2    1    2    0    0  0.31197956934E+02  0.11445584787E+02 -0.27916108317E+02  0.47787273836E+02  0.20000012729E+02 0.  0.
         12    1    1    2    0    0 -0.31197956934E+02 -0.11445584787E+02  0.27916108317E+02  0.43400726164E+02  0.00000000000E+00 0. -1.
         11    1    3    3    0    0  0.61169407577E+01  0.45745267570E+01 -0.96095354003E+00  0.76984862961E+01  0.51100000000E-03 0. -1.
        -11    1    3    3    0    0  0.26501277302E+02  0.54943931006E+01 -0.22433705750E+02  0.35153622973E+02  0.51100000000E-03 0.  1.
        -12    1    3    3    0    0 -0.14202611264E+01  0.13766649298E+01 -0.45214490275E+01  0.49351645671E+01  0.00000000000E+00 0.  1.
</event>
<event>
 7    1  0.6622189E-010  0.4778727E+02  0.7816164E-02  0.1312668E+00
        -11   -1    0    0    0    0  0.00000000000E+00  0.00000000000E+00  0.45593999997E+02  0.45594000000E+02  0.51100000000E-03 0. -1.
         11   -1    0    0    0    0 -0.00000000000E+00 -0.00000000000E+00 -0.45593999997E+02  0.45594000000E+02  0.51100000000E-03 0.  1.
    9900012    2    1    2    0    0  0.38163352902E+01 -0.43148772243E+02  0.26911551010E+01  0.47787271010E+02  0.19999999843E+02 0.  0.
         12    1    1    2    0    0 -0.38163352902E+01  0.43148772243E+02 -0.26911551010E+01  0.43400728990E+02  0.00000000000E+00 0. -1.
         11    1    3    3    0    0 -0.81876056465E+00 -0.13232455435E+02 -0.44791643815E+01  0.13993968684E+02  0.51100000000E-03 0. -1.
        -11    1    3    3    0    0  0.12282600019E+01  0.55667650217E+00  0.24121069151E+01  0.27634708957E+01  0.51100000000E-03 0.  1.
        -12    1    3    3    0    0  0.34068358529E+01 -0.30472993310E+02  0.47582125674E+01  0.31029831431E+02  0.00000000000E+00 0.  1.
</event>
<event>
 7    1  0.6622189E-010  0.4778728E+02  0.7816164E-02  0.1312668E+00
        -11   -1    0    0    0    0  0.00000000000E+00  0.00000000000E+00  0.45593999997E+02  0.45594000000E+02  0.51100000000E-03 0. -1.
         11   -1    0    0    0    0 -0.00000000000E+00 -0.00000000000E+00 -0.45593999997E+02  0.45594000000E+02  0.51100000000E-03 0.  1.
    9900012    2    1    2    0    0 -0.11097279927E+02  0.41641925473E+02 -0.51402959960E+01  0.47787283165E+02  0.20000055262E+02 0.  0.
         12    1    1    2    0    0  0.11097279927E+02 -0.41641925473E+02  0.51402959960E+01  0.43400716835E+02  0.00000000000E+00 0. -1.
         11    1    3    3    0    0 -0.15812337035E+01  0.44599910183E+01  0.34670875167E+01  0.58662182041E+01  0.51100000000E-03 0. -1.
        -11    1    3    3    0    0  0.27556101459E+01  0.16374125720E+02 -0.11718900251E+01  0.16645681328E+02  0.51100000000E-03 0.  1.
        -12    1    3    3    0    0 -0.12271656370E+02  0.20807808735E+02 -0.74354934876E+01  0.25275383633E+02  0.00000000000E+00 0.  1.
</event>
<event>
 7    1  0.6622189E-010  0.4778727E+02  0.7816164E-02  0.1312668E+00
        -11   -1    0    0    0    0  0.00000000000E+00  0.00000000000E+00  0.45593999997E+02  0.45594000000E+02  0.51100000000E-03 0. -1.
         11   -1    0    0    0    0 -0.00000000000E+00 -0.00000000000E+00 -0.45593999997E+02  0.45594000000E+02  0.51100000000E-03 0.  1.
    9900012    2    1    2    0    0  0.23299697158E+02 -0.19453445216E+02  0.31021133580E+02  0.47787272507E+02  0.20000006666E+02 0.  0.
        -12    1    1    2    0    0 -0.23299697158E+02  0.19453445216E+02 -0.31021133580E+02  0.43400727493E+02  0.00000000000E+00 0.  1.
         11    1    3    3    0    0  0.17227599250E+02 -0.28880681045E+01  0.11429985364E+02  0.20875240812E+02  0.51100000000E-03 0.  1.
        -11    1    3    3    0    0  0.12445854623E+01 -0.10963778264E+02  0.11079058677E+02  0.15636462778E+02  0.51100000000E-03 0. -1.
        -12    1    3    3    0    0  0.48275124453E+01 -0.56015988473E+01  0.85120895389E+01  0.11275568916E+02  0.00000000000E+00 0.  1.
</event>
<event>
 7    1  0.6622189E-010  0.4778728E+02  0.7816164E-02  0.1312668E+00
        -11   -1    0    0    0    0  0.00000000000E+00  0.00000000000E+00  0.45593999997E+02  0.45594000000E+02  0.51100000000E-03 0. -1.
         11   -1    0    0    0    0 -0.00000000000E+00 -0.00000000000E+00 -0.45593999997E+02  0.45594000000E+02  0.51100000000E-03 0.  1.
    9900012    2    1    2    0    0  0.27541648595E+02  0.30569409511E+02  0.13805492172E+02  0.47787276282E+02  0.20000023878E+02 0.  0.
        -12    1    1    2    0    0 -0.27541648595E+02 -0.30569409511E+02 -0.13805492172E+02  0.43400723718E+02  0.00000000000E+00 0.  1.
         11    1    3    3    0    0  0.15230592523E+02  0.14968881721E+02  0.60476430804E+01  0.22194872283E+02  0.51100000000E-03 0. -1.
        -11    1    3    3    0    0  0.28734558447E+01  0.14371595336E+02  0.63461041407E+01  0.15970990546E+02  0.51100000000E-03 0.  1.
        -12    1    3    3    0    0  0.94376002270E+01  0.12289324544E+01  0.14117449510E+01  0.96214134528E+01  0.00000000000E+00 0.  1.
</event>
<event>
 7    1  0.6622189E-010  0.4778727E+02  0.7816164E-02  0.1312668E+00
        -11   -1    0    0    0    0  0.00000000000E+00  0.00000000000E+00  0.45593999997E+02  0.45594000000E+02  0.51100000000E-03 0. -1.
         11   -1    0    0    0    0 -0.00000000000E+00 -0.00000000000E+00 -0.45593999997E+02  0.45594000000E+02  0.51100000000E-03 0.  1.
    9900012    2    1    2    0    0 -0.14519815250E+02  0.34099713660E+02 -0.22583361164E+02  0.47787266042E+02  0.19999977192E+02 0.  0.
         12    1    1    2    0    0  0.14519815250E+02 -0.34099713660E+02  0.22583361164E+02  0.43400733958E+02  0.00000000000E+00 0. -1.
         11    1    3    3    0    0 -0.65316549097E+01  0.11830315357E+02  0.10308047801E+00  0.13514048363E+02  0.51100000000E-03 0. -1.
        -11    1    3    3    0    0 -0.74248582255E+01  0.82034428313E+01 -0.65443145770E+01  0.12855078666E+02  0.51100000000E-03 0.  1.
         12    1    3    3    0    0 -0.56330211523E+00  0.14065955472E+02 -0.16142127065E+02  0.21418139014E+02  0.00000000000E+00 0. -1.
</event>
<event>
 7    1  0.6622189E-010  0.4778727E+02  0.7816164E-02  0.1312668E+00
        -11   -1    0    0    0    0  0.00000000000E+00  0.00000000000E+00  0.45593999997E+02  0.45594000000E+02  0.51100000000E-03 0.  1.
         11   -1    0    0    0    0 -0.00000000000E+00 -0.00000000000E+00 -0.45593999997E+02  0.45594000000E+02  0.51100000000E-03 0. -1.
    9900012    2    1    2    0    0  0.87289431715E+01 -0.42343045878E+02  0.38072991978E+01  0.47787268321E+02  0.19999987582E+02 0.  0.
         12    1    1    2    0    0 -0.87289431715E+01  0.42343045878E+02 -0.38072991978E+01  0.43400731679E+02  0.00000000000E+00 0. -1.
         11    1    3    3    0    0 -0.17633953359E+01 -0.34423148900E+01  0.40323572813E+01  0.55873965689E+01  0.51100000000E-03 0. -1.
        -11    1    3    3    0    0  0.61509894299E+01 -0.32770875259E+02  0.39990961150E+01  0.33582103957E+02  0.51100000000E-03 0.  1.
         12    1    3    3    0    0  0.43413490774E+01 -0.61298557290E+01 -0.42241541985E+01  0.86177677947E+01  0.00000000000E+00 0. -1.
</event>
<event>
 7    1  0.6622189E-010  0.4778727E+02  0.7816164E-02  0.1312668E+00
        -11   -1    0    0    0    0  0.00000000000E+00  0.00000000000E+00  0.45593999997E+02  0.45594000000E+02  0.51100000000E-03 0. -1.
         11   -1    0    0    0    0 -0.00000000000E+00 -0.00000000000E+00 -0.45593999997E+02  0.45594000000E+02  0.51100000000E-03 0.  1.
    9900012    2    1    2    0    0 -0.49296682230E+01  0.25326730020E+02  0.34898112884E+02  0.47787272296E+02  0.20000005708E+02 0.  0.
        -12    1    1    2    0    0  0.49296682230E+01 -0.25326730020E+02 -0.34898112884E+02  0.43400727704E+02  0.00000000000E+00 0.  1.
         11    1    3    3    0    0  0.22684012037E+01  0.13072002500E+02  0.12454908668E+02  0.18197462559E+02  0.51100000000E-03 0. -1.
        -11    1    3    3    0    0 -0.87798721113E+01  0.62884679545E+01  0.20410121800E+02  0.23091211655E+02  0.51100000000E-03 0.  1.
        -12    1    3    3    0    0  0.15818026847E+01  0.59662595652E+01  0.20330824161E+01  0.64985980829E+01  0.00000000000E+00 0.  1.
</event>
<event>
 7    1  0.6622189E-010  0.4778728E+02  0.7816164E-02  0.1312668E+00
        -11   -1    0    0    0    0  0.00000000000E+00  0.00000000000E+00  0.45593999997E+02  0.45594000000E+02  0.51100000000E-03 0. -1.
         11   -1    0    0    0    0 -0.00000000000E+00 -0.00000000000E+00 -0.45593999997E+02  0.45594000000E+02  0.51100000000E-03 0.  1.
    9900012    2    1    2    0    0  0.22113343207E+02  0.19620222629E+02  0.31775302283E+02  0.47787275133E+02  0.20000018641E+02 0.  0.
        -12    1    1    2    0    0 -0.22113343207E+02 -0.19620222629E+02 -0.31775302283E+02  0.43400724867E+02  0.00000000000E+00 0.  1.
         11    1    3    3    0    0  0.45852062918E+01  0.73083922502E+01  0.46114142772E+01  0.97827325384E+01  0.51100000000E-03 0. -1.
        -11    1    3    3    0    0  0.16415949581E+02  0.15541787106E+02  0.25860755807E+02  0.34348351318E+02  0.51100000000E-03 0.  1.
        -12    1    3    3    0    0  0.11121873346E+01 -0.32299567267E+01  0.13031321985E+01  0.36561912765E+01  0.00000000000E+00 0.  1.
</event>
<event>
 7    1  0.6622189E-010  0.4778727E+02  0.7816164E-02  0.1312668E+00
        -11   -1    0    0    0    0  0.00000000000E+00  0.00000000000E+00  0.45593999997E+02  0.45594000000E+02  0.51100000000E-03 0. -1.
         11   -1    0    0    0    0 -0.00000000000E+00 -0.00000000000E+00 -0.45593999997E+02  0.45594000000E+02  0.51100000000E-03 0.  1.
    9900012    2    1    2    0    0 -0.16004726006E+02  0.10758165108E+02  0.38881021250E+02  0.47787272075E+02  0.20000004697E+02 0.  0.
        -12    1    1    2    0    0  0.16004726006E+02 -0.10758165108E+02 -0.38881021250E+02  0.43400727925E+02  0.00000000000E+00 0.  1.
         11    1    3    3    0    0 -0.87143427885E+00 -0.42783972569E+01  0.12712294742E+02  0.13441224597E+02  0.51100000000E-03 0. -1.
        -11    1    3    3    0    0 -0.41962544738E+01  0.76804647853E+01  0.77052758786E+01  0.11660590360E+02  0.51100000000E-03 0.  1.
         12    1    3    3    0    0 -0.10937037253E+02  0.73560975797E+01  0.18463450629E+02  0.22685457117E+02  0.00000000000E+00 0. -1.
</event>
<event>
 7    1  0.6622189E-010  0.4778727E+02  0.7816164E-02  0.1312668E+00
        -11   -1    0    0    0    0  0.00000000000E+00  0.00000000000E+00  0.45593999997E+02  0.45594000000E+02  0.51100000000E-03 0. -1.
         11   -1    0    0    0    0 -0.00000000000E+00 -0.00000000000E+00 -0.45593999997E+02  0.45594000000E+02  0.51100000000E-03 0.  1.
    9900012    2    1    2    0    0  0.25606613030E+02 -0.36891165575E+01  0.34847023683E+02  0.47787271073E+02  0.20000000132E+02 0.  0.
        -12    1    1    2    0    0 -0.25606613030E+02  0.36891165575E+01 -0.34847023683E+02  0.43400728927E+02  0.00000000000E+00 0.  1.
         11    1    3    3    0    0  0.76039682080E+01 -0.82224463479E+01  0.22287235298E+02  0.24942931142E+02  0.51100000000E-03 0. -1.
        -11    1    3    3    0    0  0.82063399627E+01  0.39995464397E+01  0.46677926418E+01  0.10253227576E+02  0.51100000000E-03 0.  1.
         12    1    3    3    0    0  0.97963048591E+01  0.53378335058E+00  0.78919957423E+01  0.12591112356E+02  0.00000000000E+00 0. -1.
</event>
<event>
 7    1  0.6622189E-010  0.4778727E+02  0.7816164E-02  0.1312668E+00
        -11   -1    0    0    0    0  0.00000000000E+00  0.00000000000E+00  0.45593999997E+02  0.45594000000E+02  0.51100000000E-03 0. -1.
         11   -1    0    0    0    0 -0.00000000000E+00 -0.00000000000E+00 -0.45593999997E+02  0.45594000000E+02  0.51100000000E-03 0.  1.
    9900012    2    1    2    0    0  0.28394155704E+02 -0.17618826833E+02  0.27694263442E+02  0.47787269998E+02  0.19999995228E+02 0.  0.
        -12    1    1    2    0    0 -0.28394155704E+02  0.17618826833E+02 -0.27694263442E+02  0.43400730002E+02  0.00000000000E+00 0.  1.
         11    1    3    3    0    0  0.11020002890E+02 -0.88402598674E+01  0.13931317851E+01  0.14196178171E+02  0.51100000000E-03 0. -1.
        -11    1    3    3    0    0  0.23816939245E+01 -0.22718336810E+01  0.99176716859E+01  0.10449588803E+02  0.51100000000E-03 0.  1.
         12    1    3    3    0    0  0.14992458890E+02 -0.65067332844E+01  0.16383459971E+02  0.23141503024E+02  0.00000000000E+00 0. -1.
</event>
<event>
 7    1  0.6622189E-010  0.4778727E+02  0.7816164E-02  0.1312668E+00
        -11   -1    0    0    0    0  0.00000000000E+00  0.00000000000E+00  0.45593999997E+02  0.45594000000E+02  0.51100000000E-03 0.  1.
         11   -1    0    0    0    0 -0.00000000000E+00 -0.00000000000E+00 -0.45593999997E+02  0.45594000000E+02  0.51100000000E-03 0. -1.
    9900012    2    1    2    0    0  0.36146888247E+02  0.92747281984E+01 -0.22158635939E+02  0.47787271207E+02  0.20000000739E+02 0.  0.
         12    1    1    2    0    0 -0.36146888247E+02 -0.92747281984E+01  0.22158635939E+02  0.43400728793E+02  0.00000000000E+00 0. -1.
         11    1    3    3    0    0  0.99112326300E-01  0.41541205771E+01 -0.62535239717E+01  0.75082024046E+01  0.51100000000E-03 0. -1.
        -11    1    3    3    0    0  0.25002259937E+02  0.95157310433E+00 -0.12628363358E+02  0.28026666849E+02  0.51100000000E-03 0.  1.
         12    1    3    3    0    0  0.11045515984E+02  0.41690345170E+01 -0.32767486096E+01  0.12252401953E+02  0.00000000000E+00 0. -1.
</event>
<event>
 7    1  0.6622189E-010  0.4778724E+02  0.7816164E-02  0.1312668E+00
        -11   -1    0    0    0    0  0.00000000000E+00  0.00000000000E+00  0.45593999997E+02  0.45594000000E+02  0.51100000000E-03 0. -1.
         11   -1    0    0    0    0 -0.00000000000E+00 -0.00000000000E+00 -0.45593999997E+02  0.45594000000E+02  0.51100000000E-03 0.  1.
    9900012    2    1    2    0    0  0.20246560998E+02  0.32085338701E+02 -0.21076856450E+02  0.47787238836E+02  0.19999853147E+02 0.  0.
         12    1    1    2    0    0 -0.20246560998E+02 -0.32085338701E+02  0.21076856450E+02  0.43400761164E+02  0.00000000000E+00 0. -1.
         11    1    3    3    0    0  0.99085121608E+01  0.52662481183E+01 -0.12910971205E+02  0.17105705487E+02  0.51100000000E-03 0. -1.
        -11    1    3    3    0    0  0.44364985928E+01  0.17315918376E+02 -0.77619018252E+01  0.19487705591E+02  0.51100000000E-03 0.  1.
         12    1    3    3    0    0  0.59015502446E+01  0.95031722067E+01 -0.40398341934E+00  0.11193827758E+02  0.00000000000E+00 0. -1.
</event>
<event>
 7    1  0.6622189E-010  0.4778728E+02  0.7816164E-02  0.1312668E+00
        -11   -1    0    0    0    0  0.00000000000E+00  0.00000000000E+00  0.45593999997E+02  0.45594000000E+02  0.51100000000E-03 0. -1.
         11   -1    0    0    0    0 -0.00000000000E+00 -0.00000000000E+00 -0.45593999997E+02  0.45594000000E+02  0.51100000000E-03 0.  1.
    9900012    2    1    2    0    0  0.69038385020E+01  0.42293621323E+02  0.68709121631E+01  0.47787276220E+02  0.20000023599E+02 0.  0.
        -12    1    1    2    0    0 -0.69038385020E+01 -0.42293621323E+02 -0.68709121631E+01  0.43400723780E+02  0.00000000000E+00 0.  1.
         11    1    3    3    0    0  0.99412385568E+01  0.18822210710E+02  0.25419192555E+01  0.21437471722E+02  0.51100000000E-03 0. -1.
        -11    1    3    3    0    0 -0.51356502068E+01  0.83352809810E+01  0.51202221334E+01  0.11048460845E+02  0.51100000000E-03 0.  1.
        -12    1    3    3    0    0  0.20982501520E+01  0.15136129632E+02 -0.79122922591E+00  0.15301343654E+02  0.00000000000E+00 0.  1.
</event>
<event>
 7    1  0.6622189E-010  0.4778727E+02  0.7816164E-02  0.1312668E+00
        -11   -1    0    0    0    0  0.00000000000E+00  0.00000000000E+00  0.45593999997E+02  0.45594000000E+02  0.51100000000E-03 0. -1.
         11   -1    0    0    0    0 -0.00000000000E+00 -0.00000000000E+00 -0.45593999997E+02  0.45594000000E+02  0.51100000000E-03 0.  1.
    9900012    2    1    2    0    0  0.31705215652E+02 -0.13611140149E+01  0.29606587585E+02  0.47787270059E+02  0.19999995508E+02 0.  0.
        -12    1    1    2    0    0 -0.31705215652E+02  0.13611140149E+01 -0.29606587585E+02  0.43400729941E+02  0.00000000000E+00 0.  1.
         11    1    3    3    0    0  0.22111338306E+02  0.11734546893E+01  0.12509951429E+02  0.25432010589E+02  0.51100000000E-03 0. -1.
        -11    1    3    3    0    0  0.65428682849E+01  0.35575204233E+01  0.73529810358E+01  0.10465725361E+02  0.51100000000E-03 0.  1.
         12    1    3    3    0    0  0.30510090621E+01 -0.60920891274E+01  0.97436551208E+01  0.11889534110E+02  0.00000000000E+00 0. -1.
</event>
<event>
 7    1  0.6622189E-010  0.4778727E+02  0.7816164E-02  0.1312668E+00
        -11   -1    0    0    0    0  0.00000000000E+00  0.00000000000E+00  0.45593999997E+02  0.45594000000E+02  0.51100000000E-03 0. -1.
         11   -1    0    0    0    0 -0.00000000000E+00 -0.00000000000E+00 -0.45593999997E+02  0.45594000000E+02  0.51100000000E-03 0.  1.
    9900012    2    1    2    0    0 -0.32604101088E+02 -0.26602427614E+02 -0.10625756621E+02  0.47787271130E+02  0.20000000388E+02 0.  0.
         12    1    1    2    0    0  0.32604101088E+02  0.26602427614E+02  0.10625756621E+02  0.43400728870E+02  0.00000000000E+00 0. -1.
         11    1    3    3    0    0  0.53863557518E+00 -0.17051213513E+01  0.28730538112E+01  0.33840812001E+01  0.51100000000E-03 0. -1.
        -11    1    3    3    0    0 -0.17796559752E+02 -0.90765091573E+01 -0.38608732786E+01  0.20347159513E+02  0.51100000000E-03 0.  1.
         12    1    3    3    0    0 -0.15346176910E+02 -0.15820797106E+02 -0.96379371539E+01  0.24056030417E+02  0.00000000000E+00 0. -1.
</event>
<event>
 7    1  0.6622189E-010  0.4778726E+02  0.7816164E-02  0.1312668E+00
        -11   -1    0    0    0    0  0.00000000000E+00  0.00000000000E+00  0.45593999997E+02  0.45594000000E+02  0.51100000000E-03 0. -1.
         11   -1    0    0    0    0 -0.00000000000E+00 -0.00000000000E+00 -0.45593999997E+02  0.45594000000E+02  0.51100000000E-03 0.  1.
    9900012    2    1    2    0    0  0.69612293222E+01  0.39656603296E+02 -0.16202445610E+02  0.47787261039E+02  0.19999954380E+02 0.  0.
         12    1    1    2    0    0 -0.69612293222E+01 -0.39656603296E+02  0.16202445610E+02  0.43400738961E+02  0.00000000000E+00 0. -1.
         11    1    3    3    0    0  0.10593225491E+01  0.19260492050E+02 -0.38865638169E+00  0.19293516328E+02  0.51100000000E-03 0. -1.
        -11    1    3    3    0    0 -0.11414840569E+01  0.55862289295E+01 -0.91733261067E+01  0.10800872725E+02  0.51100000000E-03 0.  1.
        -12    1    3    3    0    0  0.70433908300E+01  0.14809882316E+02 -0.66404631218E+01  0.17692871985E+02  0.00000000000E+00 0.  1.
</event>
<event>
 7    1  0.6622189E-010  0.4778729E+02  0.7816164E-02  0.1312668E+00
        -11   -1    0    0    0    0  0.00000000000E+00  0.00000000000E+00  0.45593999997E+02  0.45594000000E+02  0.51100000000E-03 0. -1.
         11   -1    0    0    0    0 -0.00000000000E+00 -0.00000000000E+00 -0.45593999997E+02  0.45594000000E+02  0.51100000000E-03 0.  1.
    9900012    2    1    2    0    0 -0.64703133420E+01  0.32715345309E+02  0.27775217326E+02  0.47787291815E+02  0.20000094703E+02 0.  0.
        -12    1    1    2    0    0  0.64703133420E+01 -0.32715345309E+02 -0.27775217326E+02  0.43400708185E+02  0.00000000000E+00 0.  1.
         11    1    3    3    0    0  0.25142495466E+01  0.81360740991E+01  0.15657778234E+02  0.17823668871E+02  0.51100000000E-03 0. -1.
        -11    1    3    3    0    0 -0.46400970648E+01  0.21044786946E+02  0.78999542698E+01  0.22952621551E+02  0.51100000000E-03 0.  1.
         12    1    3    3    0    0 -0.43444658238E+01  0.35344842639E+01  0.42174848225E+01  0.70110013931E+01  0.00000000000E+00 0. -1.
</event>
<event>
 7    1  0.6622189E-010  0.4778727E+02  0.7816164E-02  0.1312668E+00
        -11   -1    0    0    0    0  0.00000000000E+00  0.00000000000E+00  0.45593999997E+02  0.45594000000E+02  0.51100000000E-03 0. -1.
         11   -1    0    0    0    0 -0.00000000000E+00 -0.00000000000E+00 -0.45593999997E+02  0.45594000000E+02  0.51100000000E-03 0.  1.
    9900012    2    1    2    0    0 -0.37356608898E+00 -0.20660958536E+02 -0.38165540222E+02  0.47787271669E+02  0.20000002848E+02 0.  0.
         12    1    1    2    0    0  0.37356608898E+00  0.20660958536E+02  0.38165540222E+02  0.43400728331E+02  0.00000000000E+00 0. -1.
         11    1    3    3    0    0  0.11728566785E+01  0.33559102317E+01 -0.57163724011E+01  0.67316149593E+01  0.51100000000E-03 0. -1.
        -11    1    3    3    0    0 -0.84630496077E+00 -0.24339640518E+02 -0.31749495657E+02  0.40014557443E+02  0.51100000000E-03 0.  1.
        -12    1    3    3    0    0 -0.70011780670E+00  0.32277175078E+00 -0.69967216346E+00  0.10410992665E+01  0.00000000000E+00 0.  1.
</event>
<event>
 7    1  0.7159333E-010  0.4778727E+02  0.7816164E-02  0.1312668E+00
        -11   -1    0    0    0    0  0.00000000000E+00  0.00000000000E+00  0.45593999997E+02  0.45594000000E+02  0.51100000000E-03 0. -1.
         11   -1    0    0    0    0 -0.00000000000E+00 -0.00000000000E+00 -0.45593999997E+02  0.45594000000E+02  0.51100000000E-03 0.  1.
    9900012    2    1    2    0    0  0.20856290146E+02  0.22638132490E+01 -0.37993598494E+02  0.47787271716E+02  0.20000003061E+02 0.  0.
         12    1    1    2    0    0 -0.20856290146E+02 -0.22638132490E+01  0.37993598494E+02  0.43400728284E+02  0.00000000000E+00 0. -1.
         11    1    3    3    0    0  0.71695434136E+01  0.31821629764E+01 -0.34601700351E+01  0.85732893863E+01  0.51100000000E-03 0. -1.
        -11    1    3    3    0    0  0.13797886860E+02 -0.31709573811E+01 -0.34093447778E+02  0.36916118894E+02  0.51100000000E-03 0.  1.
        -12    1    3    3    0    0 -0.11114012739E+00  0.22526076537E+01 -0.43998068053E+00  0.22978634356E+01  0.00000000000E+00 0.  1.
</event>
<event>
 7    1  0.6622189E-010  0.4778727E+02  0.7816164E-02  0.1312668E+00
        -11   -1    0    0    0    0  0.00000000000E+00  0.00000000000E+00  0.45593999997E+02  0.45594000000E+02  0.51100000000E-03 0.  1.
         11   -1    0    0    0    0 -0.00000000000E+00 -0.00000000000E+00 -0.45593999997E+02  0.45594000000E+02  0.51100000000E-03 0. -1.
    9900012    2    1    2    0    0 -0.43307784178E+02 -0.20101998794E+01  0.20045776242E+01  0.47787269529E+02  0.19999993088E+02 0.  0.
         12    1    1    2    0    0  0.43307784178E+02  0.20101998794E+01 -0.20045776242E+01  0.43400730471E+02  0.00000000000E+00 0. -1.
         11    1    3    3    0    0 -0.27913785689E+02 -0.29066293760E+01 -0.50427871376E+01  0.28514165396E+02  0.51100000000E-03 0. -1.
        -11    1    3    3    0    0 -0.15435251025E+02  0.11142572432E+01  0.36910907124E+01  0.15909515842E+02  0.51100000000E-03 0.  1.
         12    1    3    3    0    0  0.41252535624E-01 -0.21782774653E+00  0.33562740494E+01  0.33635882913E+01  0.00000000000E+00 0. -1.
</event>
<event>
 7    1  0.6622189E-010  0.4778727E+02  0.7816164E-02  0.1312668E+00
        -11   -1    0    0    0    0  0.00000000000E+00  0.00000000000E+00  0.45593999997E+02  0.45594000000E+02  0.51100000000E-03 0. -1.
         11   -1    0    0    0    0 -0.00000000000E+00 -0.00000000000E+00 -0.45593999997E+02  0.45594000000E+02  0.51100000000E-03 0.  1.
    9900012    2    1    2    0    0  0.88811966447E+01 -0.14285744545E+02  0.40008316419E+02  0.47787268050E+02  0.19999986349E+02 0.  0.
        -12    1    1    2    0    0 -0.88811966447E+01  0.14285744545E+02 -0.40008316419E+02  0.43400731950E+02  0.00000000000E+00 0.  1.
         11    1    3    3    0    0 -0.12072353888E+01 -0.16495222426E+01  0.64473028816E+01  0.67635830461E+01  0.51100000000E-03 0. -1.
        -11    1    3    3    0    0  0.37455494260E+01 -0.15103129466E+02  0.28744308103E+02  0.32685913002E+02  0.51100000000E-03 0.  1.
        -12    1    3    3    0    0  0.63428826075E+01  0.24669071632E+01  0.48167054346E+01  0.83377720026E+01  0.00000000000E+00 0.  1.
</event>
<event>
 7    1  0.6622189E-010  0.4778727E+02  0.7816164E-02  0.1312668E+00
        -11   -1    0    0    0    0  0.00000000000E+00  0.00000000000E+00  0.45593999997E+02  0.45594000000E+02  0.51100000000E-03 0. -1.
         11   -1    0    0    0    0 -0.00000000000E+00 -0.00000000000E+00 -0.45593999997E+02  0.45594000000E+02  0.51100000000E-03 0.  1.
    9900012    2    1    2    0    0 -0.21965785481E+02  0.27761471264E+02  0.25108324945E+02  0.47787274199E+02  0.20000014381E+02 0.  0.
        -12    1    1    2    0    0  0.21965785481E+02 -0.27761471264E+02 -0.25108324945E+02  0.43400725801E+02  0.00000000000E+00 0.  1.
         11    1    3    3    0    0  0.11373711823E+01  0.42151049464E+01 -0.13726186361E+00  0.43680160251E+01  0.51100000000E-03 0. -1.
        -11    1    3    3    0    0 -0.31102342604E+01  0.10207751392E+01 -0.10492845200E+01  0.34375190624E+01  0.51100000000E-03 0.  1.
         12    1    3    3    0    0 -0.19992922403E+02  0.22525591179E+02  0.26294871328E+02  0.39981739111E+02  0.00000000000E+00 0. -1.
</event>
<event>
 7    1  0.6622189E-010  0.4778727E+02  0.7816164E-02  0.1312668E+00
        -11   -1    0    0    0    0  0.00000000000E+00  0.00000000000E+00  0.45593999997E+02  0.45594000000E+02  0.51100000000E-03 0. -1.
         11   -1    0    0    0    0 -0.00000000000E+00 -0.00000000000E+00 -0.45593999997E+02  0.45594000000E+02  0.51100000000E-03 0.  1.
    9900012    2    1    2    0    0  0.25357246471E+02 -0.26281320648E+02 -0.23450488072E+02  0.47787272421E+02  0.20000006276E+02 0.  0.
         12    1    1    2    0    0 -0.25357246471E+02  0.26281320648E+02  0.23450488072E+02  0.43400727579E+02  0.00000000000E+00 0. -1.
         11    1    3    3    0    0  0.61964406049E+01 -0.16635379761E+02 -0.10072101031E+02  0.20410265931E+02  0.51100000000E-03 0. -1.
        -11    1    3    3    0    0  0.17021134032E+02 -0.87296114805E+01 -0.15190659243E+02  0.24427059766E+02  0.51100000000E-03 0.  1.
         12    1    3    3    0    0  0.21396718342E+01 -0.91632940722E+00  0.18122722014E+01  0.29499467237E+01  0.00000000000E+00 0. -1.
</event>
<event>
 7    1  0.6622189E-010  0.4778727E+02  0.7816164E-02  0.1312668E+00
        -11   -1    0    0    0    0  0.00000000000E+00  0.00000000000E+00  0.45593999997E+02  0.45594000000E+02  0.51100000000E-03 0.  1.
         11   -1    0    0    0    0 -0.00000000000E+00 -0.00000000000E+00 -0.45593999997E+02  0.45594000000E+02  0.51100000000E-03 0. -1.
    9900012    2    1    2    0    0 -0.28121085711E+02 -0.10134571266E+02  0.31466148417E+02  0.47787268525E+02  0.19999988514E+02 0.  0.
        -12    1    1    2    0    0  0.28121085711E+02  0.10134571266E+02 -0.31466148417E+02  0.43400731475E+02  0.00000000000E+00 0.  1.
         11    1    3    3    0    0 -0.12606298819E+02 -0.13964324551E+02  0.19578816033E+02  0.27152369466E+02  0.51100000000E-03 0. -1.
        -11    1    3    3    0    0 -0.92944847195E+01  0.49723009580E+01  0.72940339484E+01  0.12818508280E+02  0.51100000000E-03 0.  1.
        -12    1    3    3    0    0 -0.62203021724E+01 -0.11425476725E+01  0.45932984355E+01  0.78163907795E+01  0.00000000000E+00 0.  1.
</event>
<event>
 7    1  0.6622189E-010  0.4778727E+02  0.7816164E-02  0.1312668E+00
        -11   -1    0    0    0    0  0.00000000000E+00  0.00000000000E+00  0.45593999997E+02  0.45594000000E+02  0.51100000000E-03 0.  1.
         11   -1    0    0    0    0 -0.00000000000E+00 -0.00000000000E+00 -0.45593999997E+02  0.45594000000E+02  0.51100000000E-03 0. -1.
    9900012    2    1    2    0    0 -0.73958311100E+00 -0.41880189122E+02  0.11363355318E+02  0.47787273415E+02  0.20000010808E+02 0.  0.
         12    1    1    2    0    0  0.73958311100E+00  0.41880189122E+02 -0.11363355318E+02  0.43400726585E+02  0.00000000000E+00 0. -1.
         11    1    3    3    0    0  0.50415128733E+01 -0.51755041343E+01 -0.56162493514E+00  0.72469385208E+01  0.51100000000E-03 0. -1.
        -11    1    3    3    0    0 -0.63000635358E+01 -0.21107574960E+02  0.21648778250E+01  0.22133847779E+02  0.51100000000E-03 0.  1.
         12    1    3    3    0    0  0.51896755150E+00 -0.15597110027E+02  0.97601024278E+01  0.18406487115E+02  0.00000000000E+00 0. -1.
</event>
<event>
 7    1  0.6622189E-010  0.4778727E+02  0.7816164E-02  0.1312668E+00
        -11   -1    0    0    0    0  0.00000000000E+00  0.00000000000E+00  0.45593999997E+02  0.45594000000E+02  0.51100000000E-03 0. -1.
         11   -1    0    0    0    0 -0.00000000000E+00 -0.00000000000E+00 -0.45593999997E+02  0.45594000000E+02  0.51100000000E-03 0.  1.
    9900012    2    1    2    0    0 -0.16848187308E+02  0.13873498909E+02 -0.37513841021E+02  0.47787266645E+02  0.19999979943E+02 0.  0.
         12    1    1    2    0    0  0.16848187308E+02 -0.13873498909E+02  0.37513841021E+02  0.43400733355E+02  0.00000000000E+00 0. -1.
         11    1    3    3    0    0 -0.13686205700E+02  0.10772459499E+02 -0.14587439146E+02  0.22718967653E+02  0.51100000000E-03 0. -1.
        -11    1    3    3    0    0 -0.33976489067E+01  0.31997815995E+01 -0.23750897126E+02  0.24205117949E+02  0.51100000000E-03 0.  1.
         12    1    3    3    0    0  0.23566729795E+00 -0.98742189992E-01  0.82449525081E+00  0.86318104359E+00  0.00000000000E+00 0. -1.
</event>
<event>
 7    1  0.6622189E-010  0.4778727E+02  0.7816164E-02  0.1312668E+00
        -11   -1    0    0    0    0  0.00000000000E+00  0.00000000000E+00  0.45593999997E+02  0.45594000000E+02  0.51100000000E-03 0.  1.
         11   -1    0    0    0    0 -0.00000000000E+00 -0.00000000000E+00 -0.45593999997E+02  0.45594000000E+02  0.51100000000E-03 0. -1.
    9900012    2    1    2    0    0  0.21496805533E+02  0.31364094701E+02 -0.20923762989E+02  0.47787274866E+02  0.20000017425E+02 0.  0.
         12    1    1    2    0    0 -0.21496805533E+02 -0.31364094701E+02  0.20923762989E+02  0.43400725134E+02  0.00000000000E+00 0. -1.
         11    1    3    3    0    0 -0.31876550614E+01  0.42176738974E+01 -0.51627322965E+00  0.53119164342E+01  0.51100000000E-03 0. -1.
        -11    1    3    3    0    0  0.16383337519E+02  0.21310185692E+02 -0.16838213779E+02  0.31718499429E+02  0.51100000000E-03 0.  1.
         12    1    3    3    0    0  0.83011230757E+01  0.58362351116E+01 -0.35692759802E+01  0.10756859003E+02  0.00000000000E+00 0. -1.
</event>
<event>
 7    1  0.6622189E-010  0.4778727E+02  0.7816164E-02  0.1312668E+00
        -11   -1    0    0    0    0  0.00000000000E+00  0.00000000000E+00  0.45593999997E+02  0.45594000000E+02  0.51100000000E-03 0. -1.
         11   -1    0    0    0    0 -0.00000000000E+00 -0.00000000000E+00 -0.45593999997E+02  0.45594000000E+02  0.51100000000E-03 0.  1.
    9900012    2    1    2    0    0 -0.35647175251E+02  0.11686070436E+02  0.21825169798E+02  0.47787269795E+02  0.19999994305E+02 0.  0.
        -12    1    1    2    0    0  0.35647175251E+02 -0.11686070436E+02 -0.21825169798E+02  0.43400730205E+02  0.00000000000E+00 0.  1.
         11    1    3    3    0    0 -0.27427130363E+02  0.14100235590E+02  0.86216155187E+01  0.32021810974E+02  0.51100000000E-03 0. -1.
        -11    1    3    3    0    0 -0.72471415665E+01 -0.19307378674E+01  0.11072205543E+02  0.13373202513E+02  0.51100000000E-03 0.  1.
         12    1    3    3    0    0 -0.97290332160E+00 -0.48342728623E+00  0.21313487358E+01  0.23922563090E+01  0.00000000000E+00 0. -1.
</event>
<event>
 7    1  0.6622189E-010  0.4778730E+02  0.7816164E-02  0.1312668E+00
        -11   -1    0    0    0    0  0.00000000000E+00  0.00000000000E+00  0.45593999997E+02  0.45594000000E+02  0.51100000000E-03 0. -1.
         11   -1    0    0    0    0 -0.00000000000E+00 -0.00000000000E+00 -0.45593999997E+02  0.45594000000E+02  0.51100000000E-03 0.  1.
    9900012    2    1    2    0    0 -0.20196605770E+00  0.32734994019E+02  0.28495610886E+02  0.47787303422E+02  0.20000147622E+02 0.  0.
        -12    1    1    2    0    0  0.20196605770E+00 -0.32734994019E+02 -0.28495610886E+02  0.43400696578E+02  0.00000000000E+00 0.  1.
         11    1    3    3    0    0 -0.39937552591E+01  0.20438010309E+02  0.13949603575E+02  0.25064991255E+02  0.51100000000E-03 0. -1.
        -11    1    3    3    0    0  0.38801445136E+01 -0.10220381103E+01  0.22777958567E+01  0.46139394851E+01  0.51100000000E-03 0.  1.
        -12    1    3    3    0    0 -0.88355312223E-01  0.13319021820E+02  0.12268211454E+02  0.18108372682E+02  0.00000000000E+00 0.  1.
</event>
<event>
 7    1  0.6622189E-010  0.4778727E+02  0.7816164E-02  0.1312668E+00
        -11   -1    0    0    0    0  0.00000000000E+00  0.00000000000E+00  0.45593999997E+02  0.45594000000E+02  0.51100000000E-03 0. -1.
         11   -1    0    0    0    0 -0.00000000000E+00 -0.00000000000E+00 -0.45593999997E+02  0.45594000000E+02  0.51100000000E-03 0.  1.
    9900012    2    1    2    0    0 -0.35585737369E+01  0.25152188844E+02 -0.35189875533E+02  0.47787269699E+02  0.19999993865E+02 0.  0.
         12    1    1    2    0    0  0.35585737369E+01 -0.25152188844E+02  0.35189875533E+02  0.43400730301E+02  0.00000000000E+00 0. -1.
         11    1    3    3    0    0 -0.75470193936E+01  0.99973506217E+01 -0.15529332839E+02  0.19951558833E+02  0.51100000000E-03 0. -1.
        -11    1    3    3    0    0  0.45974591148E+01  0.14884147335E+02 -0.21112788253E+02  0.26237840999E+02  0.51100000000E-03 0.  1.
        -12    1    3    3    0    0 -0.60901345805E+00  0.27069088700E+00  0.14522455592E+01  0.15978698673E+01  0.00000000000E+00 0.  1.
</event>
<event>
 7    1  0.6622189E-010  0.4778727E+02  0.7816164E-02  0.1312668E+00
        -11   -1    0    0    0    0  0.00000000000E+00  0.00000000000E+00  0.45593999997E+02  0.45594000000E+02  0.51100000000E-03 0. -1.
         11   -1    0    0    0    0 -0.00000000000E+00 -0.00000000000E+00 -0.45593999997E+02  0.45594000000E+02  0.51100000000E-03 0.  1.
    9900012    2    1    2    0    0 -0.19530521047E+02 -0.17875725153E+02  0.34389539888E+02  0.47787271252E+02  0.20000000948E+02 0.  0.
        -12    1    1    2    0    0  0.19530521047E+02  0.17875725153E+02 -0.34389539888E+02  0.43400728748E+02  0.00000000000E+00 0.  1.
         11    1    3    3    0    0 -0.16480099448E+02 -0.14816587573E+02  0.35366885940E+02  0.41736573488E+02  0.51100000000E-03 0. -1.
        -11    1    3    3    0    0 -0.23759505385E+01 -0.44424586214E-03 -0.15903742895E+01  0.28590963259E+01  0.51100000000E-03 0.  1.
         12    1    3    3    0    0 -0.67447106066E+00 -0.30586933342E+01  0.61302823680E+00  0.31916014387E+01  0.00000000000E+00 0. -1.
</event>
<event>
 7    1  0.6622189E-010  0.4778727E+02  0.7816164E-02  0.1312668E+00
        -11   -1    0    0    0    0  0.00000000000E+00  0.00000000000E+00  0.45593999997E+02  0.45594000000E+02  0.51100000000E-03 0.  1.
         11   -1    0    0    0    0 -0.00000000000E+00 -0.00000000000E+00 -0.45593999997E+02  0.45594000000E+02  0.51100000000E-03 0. -1.
    9900012    2    1    2    0    0 -0.20054188662E+02 -0.37038404753E+02  0.10469435494E+02  0.47787274325E+02  0.20000014957E+02 0.  0.
        -12    1    1    2    0    0  0.20054188662E+02  0.37038404753E+02 -0.10469435494E+02  0.43400725675E+02  0.00000000000E+00 0.  1.
         11    1    3    3    0    0 -0.11066410850E+02 -0.17789751174E+02 -0.45451353683E+01  0.21438259064E+02  0.51100000000E-03 0. -1.
        -11    1    3    3    0    0 -0.49129535972E+01 -0.14762188750E+02  0.11454073613E+02  0.19319811912E+02  0.51100000000E-03 0.  1.
         12    1    3    3    0    0 -0.40748242151E+01 -0.44864648291E+01  0.35604972495E+01  0.70292033482E+01  0.00000000000E+00 0. -1.
</event>
<event>
 7    1  0.6622189E-010  0.4778729E+02  0.7816164E-02  0.1312668E+00
        -11   -1    0    0    0    0  0.00000000000E+00  0.00000000000E+00  0.45593999997E+02  0.45594000000E+02  0.51100000000E-03 0. -1.
         11   -1    0    0    0    0 -0.00000000000E+00 -0.00000000000E+00 -0.45593999997E+02  0.45594000000E+02  0.51100000000E-03 0.  1.
    9900012    2    1    2    0    0 -0.13468738314E+02 -0.67314311869E+01  0.40705070694E+02  0.47787287358E+02  0.20000074382E+02 0.  0.
        -12    1    1    2    0    0  0.13468738314E+02  0.67314311869E+01 -0.40705070694E+02  0.43400712642E+02  0.00000000000E+00 0.  1.
         11    1    3    3    0    0  0.38765396305E-02  0.14375042324E+01  0.79935738205E+01  0.81218012861E+01  0.51100000000E-03 0. -1.
        -11    1    3    3    0    0 -0.35738101249E+01  0.32067217899E+01  0.17883699844E+02  0.18517070606E+02  0.51100000000E-03 0.  1.
        -12    1    3    3    0    0 -0.98988047292E+01 -0.11375657209E+02  0.14827797030E+02  0.21148415467E+02  0.00000000000E+00 0.  1.
</event>
<event>
 7    1  0.6622189E-010  0.4778727E+02  0.7816164E-02  0.1312668E+00
        -11   -1    0    0    0    0  0.00000000000E+00  0.00000000000E+00  0.45593999997E+02  0.45594000000E+02  0.51100000000E-03 0. -1.
         11   -1    0    0    0    0 -0.00000000000E+00 -0.00000000000E+00 -0.45593999997E+02  0.45594000000E+02  0.51100000000E-03 0.  1.
    9900012    2    1    2    0    0 -0.22557749188E+02  0.28203265848E+02  0.24069628441E+02  0.47787271133E+02  0.20000000404E+02 0.  0.
        -12    1    1    2    0    0  0.22557749188E+02 -0.28203265848E+02 -0.24069628441E+02  0.43400728867E+02  0.00000000000E+00 0.  1.
         11    1    3    3    0    0 -0.22365818249E+01  0.86530116928E+01  0.67916469072E+01  0.11225122609E+02  0.51100000000E-03 0. -1.
        -11    1    3    3    0    0 -0.16912867119E+02  0.57560620773E+01  0.78788303912E+01  0.19525708525E+02  0.51100000000E-03 0.  1.
        -12    1    3    3    0    0 -0.34083002442E+01  0.13794192078E+02  0.93991511427E+01  0.17036439999E+02  0.00000000000E+00 0.  1.
</event>
<event>
 7    1  0.7183704E-010  0.4778727E+02  0.7816164E-02  0.1312668E+00
        -11   -1    0    0    0    0  0.00000000000E+00  0.00000000000E+00  0.45593999997E+02  0.45594000000E+02  0.51100000000E-03 0. -1.
         11   -1    0    0    0    0 -0.00000000000E+00 -0.00000000000E+00 -0.45593999997E+02  0.45594000000E+02  0.51100000000E-03 0.  1.
    9900012    2    1    2    0    0  0.16275072931E+02 -0.68748825274E+01 -0.39641913707E+02  0.47787270386E+02  0.19999996998E+02 0.  0.
         12    1    1    2    0    0 -0.16275072931E+02  0.68748825274E+01  0.39641913707E+02  0.43400729614E+02  0.00000000000E+00 0. -1.
         11    1    3    3    0    0 -0.16362773724E+01  0.18831211592E+01 -0.59175935830E+01  0.64219516515E+01  0.51100000000E-03 0. -1.
        -11    1    3    3    0    0  0.16767016898E+02 -0.22382021515E+01 -0.27457609234E+02  0.32250003250E+02  0.51100000000E-03 0.  1.
        -12    1    3    3    0    0  0.11443334052E+01 -0.65198015351E+01 -0.62667108907E+01  0.91153154848E+01  0.00000000000E+00 0.  1.
</event>
<event>
 7    1  0.6622189E-010  0.4778727E+02  0.7816164E-02  0.1312668E+00
        -11   -1    0    0    0    0  0.00000000000E+00  0.00000000000E+00  0.45593999997E+02  0.45594000000E+02  0.51100000000E-03 0. -1.
         11   -1    0    0    0    0 -0.00000000000E+00 -0.00000000000E+00 -0.45593999997E+02  0.45594000000E+02  0.51100000000E-03 0.  1.
    9900012    2    1    2    0    0 -0.18726205077E+02  0.22465691827E+02 -0.32066265141E+02  0.47787269293E+02  0.19999992013E+02 0.  0.
         12    1    1    2    0    0  0.18726205077E+02 -0.22465691827E+02  0.32066265141E+02  0.43400730707E+02  0.00000000000E+00 0. -1.
         11    1    3    3    0    0  0.59679709486E+00  0.47702125646E+01 -0.34616131815E+00  0.48198467406E+01  0.51100000000E-03 0. -1.
        -11    1    3    3    0    0 -0.17298592746E+02  0.13886060080E+02 -0.31654231732E+02  0.38652999397E+02  0.51100000000E-03 0.  1.
        -12    1    3    3    0    0 -0.20244094256E+01  0.38094191823E+01 -0.65872090459E-01  0.43144231551E+01  0.00000000000E+00 0.  1.
</event>
<event>
 7    1  0.6622189E-010  0.4778727E+02  0.7816164E-02  0.1312668E+00
        -11   -1    0    0    0    0  0.00000000000E+00  0.00000000000E+00  0.45593999997E+02  0.45594000000E+02  0.51100000000E-03 0.  1.
         11   -1    0    0    0    0 -0.00000000000E+00 -0.00000000000E+00 -0.45593999997E+02  0.45594000000E+02  0.51100000000E-03 0. -1.
    9900012    2    1    2    0    0  0.20462299452E+02  0.14451454732E+02  0.35441120559E+02  0.47787271098E+02  0.20000000245E+02 0.  0.
        -12    1    1    2    0    0 -0.20462299452E+02 -0.14451454732E+02 -0.35441120559E+02  0.43400728902E+02  0.00000000000E+00 0.  1.
         11    1    3    3    0    0 -0.14157582217E+01 -0.27095063565E+01  0.12502998262E+01  0.33028844901E+01  0.51100000000E-03 0. -1.
        -11    1    3    3    0    0  0.20223888295E+02  0.15099066784E+02  0.27688023560E+02  0.37464838508E+02  0.51100000000E-03 0.  1.
        -12    1    3    3    0    0  0.16541693782E+01  0.20618943054E+01  0.65027971725E+01  0.70195480998E+01  0.00000000000E+00 0.  1.
</event>
<event>
 7    1  0.6622189E-010  0.4778730E+02  0.7816164E-02  0.1312668E+00
        -11   -1    0    0    0    0  0.00000000000E+00  0.00000000000E+00  0.45593999997E+02  0.45594000000E+02  0.51100000000E-03 0. -1.
         11   -1    0    0    0    0 -0.00000000000E+00 -0.00000000000E+00 -0.45593999997E+02  0.45594000000E+02  0.51100000000E-03 0.  1.
    9900012    2    1    2    0    0  0.38387721835E+01  0.10934501458E+02  0.41824890937E+02  0.47787297288E+02  0.20000119656E+02 0.  0.
        -12    1    1    2    0    0 -0.38387721835E+01 -0.10934501458E+02 -0.41824890937E+02  0.43400702712E+02  0.00000000000E+00 0.  1.
         11    1    3    3    0    0  0.34435056314E+01  0.51764768072E+01  0.31232178563E+02  0.31844977959E+02  0.51100000000E-03 0. -1.
        -11    1    3    3    0    0 -0.19953647843E+01  0.10255227032E+01 -0.15268376012E+01  0.27137447851E+01  0.51100000000E-03 0.  1.
        -12    1    3    3    0    0  0.23906313364E+01  0.47325019472E+01  0.12119549975E+02  0.13228574544E+02  0.00000000000E+00 0.  1.
</event>
<event>
 7    1  0.6622189E-010  0.4778727E+02  0.7816164E-02  0.1312668E+00
        -11   -1    0    0    0    0  0.00000000000E+00  0.00000000000E+00  0.45593999997E+02  0.45594000000E+02  0.51100000000E-03 0. -1.
         11   -1    0    0    0    0 -0.00000000000E+00 -0.00000000000E+00 -0.45593999997E+02  0.45594000000E+02  0.51100000000E-03 0.  1.
    9900012    2    1    2    0    0  0.22219214973E+01 -0.32747556111E+02 -0.28395140412E+02  0.47787269990E+02  0.19999995192E+02 0.  0.
         12    1    1    2    0    0 -0.22219214973E+01  0.32747556111E+02  0.28395140412E+02  0.43400730010E+02  0.00000000000E+00 0. -1.
         11    1    3    3    0    0  0.28724933541E+01 -0.36349541629E+01 -0.87473846284E+01  0.98985275639E+01  0.51100000000E-03 0. -1.
        -11    1    3    3    0    0 -0.62148146189E+01 -0.67154930344E+01 -0.38804185595E+01  0.99387834216E+01  0.51100000000E-03 0.  1.
        -12    1    3    3    0    0  0.55642427621E+01 -0.22397108914E+02 -0.15767337224E+02  0.27949959004E+02  0.00000000000E+00 0.  1.
</event>
<event>
 7    1  0.6622189E-010  0.4778726E+02  0.7816164E-02  0.1312668E+00
        -11   -1    0    0    0    0  0.00000000000E+00  0.00000000000E+00  0.45593999997E+02  0.45594000000E+02  0.51100000000E-03 0. -1.
         11   -1    0    0    0    0 -0.00000000000E+00 -0.00000000000E+00 -0.45593999997E+02  0.45594000000E+02  0.51100000000E-03 0.  1.
    9900012    2    1    2    0    0 -0.18471055434E+02 -0.30333231914E+02  0.24946727065E+02  0.47787262237E+02  0.19999959842E+02 0.  0.
        -12    1    1    2    0    0  0.18471055434E+02  0.30333231914E+02 -0.24946727065E+02  0.43400737763E+02  0.00000000000E+00 0.  1.
         11    1    3    3    0    0  0.27030926861E+01 -0.98425372892E+00  0.51906530231E+01  0.59345045741E+01  0.51100000000E-03 0. -1.
        -11    1    3    3    0    0 -0.10999806513E+02 -0.19526606072E+02  0.92979536588E+01  0.24263883253E+02  0.51100000000E-03 0.  1.
         12    1    3    3    0    0 -0.10174341607E+02 -0.98223721131E+01  0.10458120383E+02  0.17588874410E+02  0.00000000000E+00 0. -1.
</event>
<event>
 7    1  0.6622189E-010  0.4778727E+02  0.7816164E-02  0.1312668E+00
        -11   -1    0    0    0    0  0.00000000000E+00  0.00000000000E+00  0.45593999997E+02  0.45594000000E+02  0.51100000000E-03 0. -1.
         11   -1    0    0    0    0 -0.00000000000E+00 -0.00000000000E+00 -0.45593999997E+02  0.45594000000E+02  0.51100000000E-03 0.  1.
    9900012    2    1    2    0    0  0.24443202348E+02  0.80665441376E+01 -0.34944011245E+02  0.47787271928E+02  0.20000004027E+02 0.  0.
         12    1    1    2    0    0 -0.24443202348E+02 -0.80665441376E+01  0.34944011245E+02  0.43400728072E+02  0.00000000000E+00 0. -1.
         11    1    3    3    0    0 -0.26036029245E+00 -0.21285559341E+01  0.10071912453E+01  0.23691712289E+01  0.51100000000E-03 0. -1.
        -11    1    3    3    0    0  0.52916632306E+01 -0.83195111780E+00 -0.57153380621E+01  0.78331942293E+01  0.51100000000E-03 0.  1.
         12    1    3    3    0    0  0.19411899410E+02  0.11027051189E+02 -0.30235864428E+02  0.37584906469E+02  0.00000000000E+00 0. -1.
</event>
<event>
 7    1  0.6622189E-010  0.4778727E+02  0.7816164E-02  0.1312668E+00
        -11   -1    0    0    0    0  0.00000000000E+00  0.00000000000E+00  0.45593999997E+02  0.45594000000E+02  0.51100000000E-03 0. -1.
         11   -1    0    0    0    0 -0.00000000000E+00 -0.00000000000E+00 -0.45593999997E+02  0.45594000000E+02  0.51100000000E-03 0.  1.
    9900012    2    1    2    0    0 -0.35370541545E+02 -0.75393868264E+01 -0.23993868650E+02  0.47787270793E+02  0.19999998856E+02 0.  0.
         12    1    1    2    0    0  0.35370541545E+02  0.75393868264E+01  0.23993868650E+02  0.43400729207E+02  0.00000000000E+00 0. -1.
         11    1    3    3    0    0 -0.10717576305E+02 -0.10926079608E+01  0.55403133197E+00  0.10787362281E+02  0.51100000000E-03 0. -1.
        -11    1    3    3    0    0 -0.15471347652E+02 -0.57599050857E+01 -0.21888703540E+02  0.27416317180E+02  0.51100000000E-03 0.  1.
        -12    1    3    3    0    0 -0.91816175877E+01 -0.68687377982E+00 -0.26591964414E+01  0.95835913326E+01  0.00000000000E+00 0.  1.
</event>
<event>
 7    1  0.6622189E-010  0.4778727E+02  0.7816164E-02  0.1312668E+00
        -11   -1    0    0    0    0  0.00000000000E+00  0.00000000000E+00  0.45593999997E+02  0.45594000000E+02  0.51100000000E-03 0. -1.
         11   -1    0    0    0    0 -0.00000000000E+00 -0.00000000000E+00 -0.45593999997E+02  0.45594000000E+02  0.51100000000E-03 0.  1.
    9900012    2    1    2    0    0 -0.19819685729E+02  0.22599759710E+02 -0.31305815955E+02  0.47787271965E+02  0.20000004197E+02 0.  0.
         12    1    1    2    0    0  0.19819685729E+02 -0.22599759710E+02  0.31305815955E+02  0.43400728035E+02  0.00000000000E+00 0. -1.
         11    1    3    3    0    0 -0.14078350491E+02  0.88612302664E+01 -0.18089668148E+02  0.24575545739E+02  0.51100000000E-03 0.  1.
        -11    1    3    3    0    0  0.19616865379E+01  0.64097606819E+01 -0.62558452863E+00  0.67323548878E+01  0.51100000000E-03 0. -1.
         12    1    3    3    0    0 -0.77030217757E+01  0.73287687621E+01 -0.12590563278E+02  0.16479371338E+02  0.00000000000E+00 0. -1.
</event>
<event>
 7    1  0.6622189E-010  0.4778727E+02  0.7816164E-02  0.1312668E+00
        -11   -1    0    0    0    0  0.00000000000E+00  0.00000000000E+00  0.45593999997E+02  0.45594000000E+02  0.51100000000E-03 0. -1.
         11   -1    0    0    0    0 -0.00000000000E+00 -0.00000000000E+00 -0.45593999997E+02  0.45594000000E+02  0.51100000000E-03 0.  1.
    9900012    2    1    2    0    0 -0.22067089219E+02  0.53741861107E+01  0.36983576894E+02  0.47787271172E+02  0.20000000580E+02 0.  0.
        -12    1    1    2    0    0  0.22067089219E+02 -0.53741861107E+01 -0.36983576894E+02  0.43400728828E+02  0.00000000000E+00 0.  1.
         11    1    3    3    0    0 -0.28055303926E+01  0.84705118331E+01  0.10898186979E+02  0.14085135825E+02  0.51100000000E-03 0.  1.
        -11    1    3    3    0    0 -0.18790887309E+02 -0.14435928583E+01  0.20446484073E+02  0.27807195425E+02  0.51100000000E-03 0. -1.
         12    1    3    3    0    0 -0.47067151783E+00 -0.16527328641E+01  0.56389058410E+01  0.58949399217E+01  0.00000000000E+00 0. -1.
</event>
<event>
 7    1  0.6622189E-010  0.4778727E+02  0.7816164E-02  0.1312668E+00
        -11   -1    0    0    0    0  0.00000000000E+00  0.00000000000E+00  0.45593999997E+02  0.45594000000E+02  0.51100000000E-03 0. -1.
         11   -1    0    0    0    0 -0.00000000000E+00 -0.00000000000E+00 -0.45593999997E+02  0.45594000000E+02  0.51100000000E-03 0.  1.
    9900012    2    1    2    0    0 -0.17480442351E+02 -0.27708193558E+02  0.28466006276E+02  0.47787269956E+02  0.19999995036E+02 0.  0.
        -12    1    1    2    0    0  0.17480442351E+02  0.27708193558E+02 -0.28466006276E+02  0.43400730044E+02  0.00000000000E+00 0.  1.
         11    1    3    3    0    0 -0.11848027281E+02 -0.20568039738E+02  0.26654977865E+02  0.35691845768E+02  0.51100000000E-03 0. -1.
        -11    1    3    3    0    0 -0.40614182366E+01 -0.87786888371E+01  0.17140976162E+01  0.98233714524E+01  0.51100000000E-03 0.  1.
         12    1    3    3    0    0 -0.15709968332E+01  0.16385350167E+01  0.96930795299E-01  0.22720527348E+01  0.00000000000E+00 0. -1.
</event>
<event>
 7    1  0.6622189E-010  0.4778727E+02  0.7816164E-02  0.1312668E+00
        -11   -1    0    0    0    0  0.00000000000E+00  0.00000000000E+00  0.45593999997E+02  0.45594000000E+02  0.51100000000E-03 0. -1.
         11   -1    0    0    0    0 -0.00000000000E+00 -0.00000000000E+00 -0.45593999997E+02  0.45594000000E+02  0.51100000000E-03 0.  1.
    9900012    2    1    2    0    0  0.27008994643E+02 -0.27091127855E+02 -0.20498978057E+02  0.47787273031E+02  0.20000009058E+02 0.  0.
         12    1    1    2    0    0 -0.27008994643E+02  0.27091127855E+02  0.20498978057E+02  0.43400726969E+02  0.00000000000E+00 0. -1.
         11    1    3    3    0    0 -0.12365458670E+01 -0.12217509074E+01 -0.14043846259E+01  0.22347298270E+01  0.51100000000E-03 0. -1.
        -11    1    3    3    0    0  0.16907661750E+02 -0.22236448765E+02 -0.18746721337E+02  0.33641763341E+02  0.51100000000E-03 0.  1.
        -12    1    3    3    0    0  0.11337878760E+02 -0.36329281821E+01 -0.34787209370E+00  0.11910779863E+02  0.00000000000E+00 0.  1.
</event>
<event>
 7    1  0.6622189E-010  0.4778727E+02  0.7816164E-02  0.1312668E+00
        -11   -1    0    0    0    0  0.00000000000E+00  0.00000000000E+00  0.45593999997E+02  0.45594000000E+02  0.51100000000E-03 0.  1.
         11   -1    0    0    0    0 -0.00000000000E+00 -0.00000000000E+00 -0.45593999997E+02  0.45594000000E+02  0.51100000000E-03 0. -1.
    9900012    2    1    2    0    0 -0.38000262683E+02  0.10707095596E+02  0.18026685867E+02  0.47787271164E+02  0.20000000547E+02 0.  0.
        -12    1    1    2    0    0  0.38000262683E+02 -0.10707095596E+02 -0.18026685867E+02  0.43400728836E+02  0.00000000000E+00 0.  1.
         11    1    3    3    0    0 -0.13284357769E+02  0.92039053975E+01  0.91360702517E+01  0.18564854317E+02  0.51100000000E-03 0. -1.
        -11    1    3    3    0    0 -0.18538056709E+02 -0.42083620120E+01  0.37910515671E+01  0.19384063805E+02  0.51100000000E-03 0.  1.
        -12    1    3    3    0    0 -0.61778482057E+01  0.57115522107E+01  0.50995640479E+01  0.98383530424E+01  0.00000000000E+00 0.  1.
</event>
<event>
 7    1  0.6622189E-010  0.4778727E+02  0.7816164E-02  0.1312668E+00
        -11   -1    0    0    0    0  0.00000000000E+00  0.00000000000E+00  0.45593999997E+02  0.45594000000E+02  0.51100000000E-03 0. -1.
         11   -1    0    0    0    0 -0.00000000000E+00 -0.00000000000E+00 -0.45593999997E+02  0.45594000000E+02  0.51100000000E-03 0.  1.
    9900012    2    1    2    0    0  0.18613405750E+02  0.35480571860E-01 -0.39206669794E+02  0.47787273176E+02  0.20000009721E+02 0.  0.
         12    1    1    2    0    0 -0.18613405750E+02 -0.35480571860E-01  0.39206669794E+02  0.43400726824E+02  0.00000000000E+00 0. -1.
         11    1    3    3    0    0  0.60937457722E+01 -0.81477223754E+01 -0.85621467263E+01  0.13297724402E+02  0.51100000000E-03 0. -1.
        -11    1    3    3    0    0  0.93315417452E+01  0.72192781235E+01 -0.18884886231E+02  0.22267343267E+02  0.51100000000E-03 0.  1.
         12    1    3    3    0    0  0.31881182322E+01  0.96392482376E+00 -0.11759636837E+02  0.12222205507E+02  0.00000000000E+00 0. -1.
</event>
<event>
 7    1  0.6622189E-010  0.4778727E+02  0.7816164E-02  0.1312668E+00
        -11   -1    0    0    0    0  0.00000000000E+00  0.00000000000E+00  0.45593999997E+02  0.45594000000E+02  0.51100000000E-03 0. -1.
         11   -1    0    0    0    0 -0.00000000000E+00 -0.00000000000E+00 -0.45593999997E+02  0.45594000000E+02  0.51100000000E-03 0.  1.
    9900012    2    1    2    0    0  0.12342949932E+02 -0.92277800808E+01 -0.40572439864E+02  0.47787271725E+02  0.20000003103E+02 0.  0.
         12    1    1    2    0    0 -0.12342949932E+02  0.92277800808E+01  0.40572439864E+02  0.43400728275E+02  0.00000000000E+00 0. -1.
         11    1    3    3    0    0  0.61193017479E+01 -0.13362370787E+02 -0.14841818612E+02  0.20887278111E+02  0.51100000000E-03 0. -1.
        -11    1    3    3    0    0  0.48000823887E+01  0.21481600040E+01 -0.15017172080E+02  0.15911343120E+02  0.51100000000E-03 0.  1.
         12    1    3    3    0    0  0.14235657958E+01  0.19864307018E+01 -0.10713449173E+02  0.10988650494E+02  0.00000000000E+00 0. -1.
</event>
<event>
 7    1  0.6622189E-010  0.4778728E+02  0.7816164E-02  0.1312668E+00
        -11   -1    0    0    0    0  0.00000000000E+00  0.00000000000E+00  0.45593999997E+02  0.45594000000E+02  0.51100000000E-03 0.  1.
         11   -1    0    0    0    0 -0.00000000000E+00 -0.00000000000E+00 -0.45593999997E+02  0.45594000000E+02  0.51100000000E-03 0. -1.
    9900012    2    1    2    0    0 -0.38829204251E+02  0.12176345259E+02 -0.15088136223E+02  0.47787281789E+02  0.20000048987E+02 0.  0.
         12    1    1    2    0    0  0.38829204251E+02 -0.12176345259E+02  0.15088136223E+02  0.43400718211E+02  0.00000000000E+00 0. -1.
         11    1    3    3    0    0 -0.20703706128E+02 -0.14306040402E+01 -0.76825856171E+01  0.22129441867E+02  0.51100000000E-03 0. -1.
        -11    1    3    3    0    0 -0.10978124033E+02  0.26116136348E+01 -0.49188811392E+01  0.12309960397E+02  0.51100000000E-03 0.  1.
         12    1    3    3    0    0 -0.71473740899E+01  0.10995335664E+02 -0.24866694663E+01  0.13347879524E+02  0.00000000000E+00 0. -1.
</event>
<event>
 7    1  0.6622189E-010  0.4778727E+02  0.7816164E-02  0.1312668E+00
        -11   -1    0    0    0    0  0.00000000000E+00  0.00000000000E+00  0.45593999997E+02  0.45594000000E+02  0.51100000000E-03 0. -1.
         11   -1    0    0    0    0 -0.00000000000E+00 -0.00000000000E+00 -0.45593999997E+02  0.45594000000E+02  0.51100000000E-03 0.  1.
    9900012    2    1    2    0    0  0.82397128366E+01  0.26922616928E+02  0.33028818213E+02  0.47787274172E+02  0.20000014258E+02 0.  0.
        -12    1    1    2    0    0 -0.82397128366E+01 -0.26922616928E+02 -0.33028818213E+02  0.43400725828E+02  0.00000000000E+00 0.  1.
         11    1    3    3    0    0 -0.16164690592E+01  0.11842785934E+02  0.22663487036E+02  0.25622220743E+02  0.51100000000E-03 0. -1.
        -11    1    3    3    0    0 -0.93738738508E-01 -0.82426404279E+00  0.37012499796E+00  0.90840020837E+00  0.51100000000E-03 0.  1.
         12    1    3    3    0    0  0.99499206343E+01  0.15904095037E+02  0.99952061794E+01  0.21256653220E+02  0.00000000000E+00 0. -1.
</event>
<event>
 7    1  0.6622189E-010  0.4778727E+02  0.7816164E-02  0.1312668E+00
        -11   -1    0    0    0    0  0.00000000000E+00  0.00000000000E+00  0.45593999997E+02  0.45594000000E+02  0.51100000000E-03 0.  1.
         11   -1    0    0    0    0 -0.00000000000E+00 -0.00000000000E+00 -0.45593999997E+02  0.45594000000E+02  0.51100000000E-03 0. -1.
    9900012    2    1    2    0    0 -0.40999501973E+02  0.74702068422E+01  0.12118589749E+02  0.47787269939E+02  0.19999994962E+02 0.  0.
         12    1    1    2    0    0  0.40999501973E+02 -0.74702068422E+01 -0.12118589749E+02  0.43400730061E+02  0.00000000000E+00 0. -1.
         11    1    3    3    0    0 -0.61849641580E+01 -0.43939371626E+01  0.32469852081E+00  0.75938063457E+01  0.51100000000E-03 0. -1.
        -11    1    3    3    0    0 -0.15994736487E+02  0.11265034061E+02  0.68204651775E+01  0.20718381529E+02  0.51100000000E-03 0.  1.
        -12    1    3    3    0    0 -0.18819801328E+02  0.59910994403E+00  0.49734260509E+01  0.19475082065E+02  0.00000000000E+00 0.  1.
</event>
<event>
 7    1  0.6622189E-010  0.4778728E+02  0.7816164E-02  0.1312668E+00
        -11   -1    0    0    0    0  0.00000000000E+00  0.00000000000E+00  0.45593999997E+02  0.45594000000E+02  0.51100000000E-03 0. -1.
         11   -1    0    0    0    0 -0.00000000000E+00 -0.00000000000E+00 -0.45593999997E+02  0.45594000000E+02  0.51100000000E-03 0.  1.
    9900012    2    1    2    0    0 -0.83861121389E+01 -0.92498925631E+01  0.41566029852E+02  0.47787283106E+02  0.20000054995E+02 0.  0.
        -12    1    1    2    0    0  0.83861121389E+01  0.92498925631E+01 -0.41566029852E+02  0.43400716894E+02  0.00000000000E+00 0.  1.
         11    1    3    3    0    0 -0.90672773681E+00 -0.25357941737E+01  0.49284782183E+01  0.56162536525E+01  0.51100000000E-03 0. -1.
        -11    1    3    3    0    0 -0.96610086426E+01  0.35875080645E+01  0.19535873088E+02  0.22087454350E+02  0.51100000000E-03 0.  1.
        -12    1    3    3    0    0  0.21816242405E+01 -0.10301606454E+02  0.17101678546E+02  0.20083575104E+02  0.00000000000E+00 0.  1.
</event>
<event>
 7    1  0.6622189E-010  0.4778727E+02  0.7816164E-02  0.1312668E+00
        -11   -1    0    0    0    0  0.00000000000E+00  0.00000000000E+00  0.45593999997E+02  0.45594000000E+02  0.51100000000E-03 0. -1.
         11   -1    0    0    0    0 -0.00000000000E+00 -0.00000000000E+00 -0.45593999997E+02  0.45594000000E+02  0.51100000000E-03 0.  1.
    9900012    2    1    2    0    0  0.96242602024E+01  0.83168047103E+01 -0.41494911347E+02  0.47787270827E+02  0.19999999008E+02 0.  0.
         12    1    1    2    0    0 -0.96242602024E+01 -0.83168047103E+01  0.41494911347E+02  0.43400729173E+02  0.00000000000E+00 0. -1.
         11    1    3    3    0    0 -0.17067928949E+00 -0.19076257336E+01  0.13371484200E+01  0.23358367918E+01  0.51100000000E-03 0. -1.
        -11    1    3    3    0    0  0.69261377588E+01  0.37854795654E+01 -0.26798325675E+02  0.27936562048E+02  0.51100000000E-03 0.  1.
         12    1    3    3    0    0  0.28688017331E+01  0.64389508785E+01 -0.16033734092E+02  0.17514871987E+02  0.00000000000E+00 0. -1.
</event>
<event>
 7    1  0.6622189E-010  0.4778727E+02  0.7816164E-02  0.1312668E+00
        -11   -1    0    0    0    0  0.00000000000E+00  0.00000000000E+00  0.45593999997E+02  0.45594000000E+02  0.51100000000E-03 0. -1.
         11   -1    0    0    0    0 -0.00000000000E+00 -0.00000000000E+00 -0.45593999997E+02  0.45594000000E+02  0.51100000000E-03 0.  1.
    9900012    2    1    2    0    0  0.30136686500E+02 -0.23332681553E+02 -0.20760294804E+02  0.47787265651E+02  0.19999975411E+02 0.  0.
         12    1    1    2    0    0 -0.30136686500E+02  0.23332681553E+02  0.20760294804E+02  0.43400734349E+02  0.00000000000E+00 0. -1.
         11    1    3    3    0    0  0.14426860319E+02 -0.18165591228E+02 -0.84499005038E+01  0.24688536249E+02  0.51100000000E-03 0. -1.
        -11    1    3    3    0    0  0.16039594839E+02 -0.25365034750E+01 -0.81599642386E+01  0.18173812730E+02  0.51100000000E-03 0.  1.
         12    1    3    3    0    0 -0.32976865795E+00 -0.26305868501E+01 -0.41504300611E+01  0.49249166730E+01  0.00000000000E+00 0. -1.
</event>
<event>
 7    1  0.6622189E-010  0.4778727E+02  0.7816164E-02  0.1312668E+00
        -11   -1    0    0    0    0  0.00000000000E+00  0.00000000000E+00  0.45593999997E+02  0.45594000000E+02  0.51100000000E-03 0.  1.
         11   -1    0    0    0    0 -0.00000000000E+00 -0.00000000000E+00 -0.45593999997E+02  0.45594000000E+02  0.51100000000E-03 0. -1.
    9900012    2    1    2    0    0  0.41005399212E+02  0.12772435839E+02  0.62486372212E+01  0.47787270180E+02  0.19999996059E+02 0.  0.
        -12    1    1    2    0    0 -0.41005399212E+02 -0.12772435839E+02 -0.62486372212E+01  0.43400729820E+02  0.00000000000E+00 0.  1.
         11    1    3    3    0    0  0.16118105361E+02  0.15341545701E+02  0.13905785110E+01  0.22295516450E+02  0.51100000000E-03 0. -1.
        -11    1    3    3    0    0  0.17116944378E+02 -0.15349261280E+01  0.33636771690E+01  0.17511713434E+02  0.51100000000E-03 0.  1.
         12    1    3    3    0    0  0.77703494732E+01 -0.10341837336E+01  0.14943815411E+01  0.79800402957E+01  0.00000000000E+00 0. -1.
</event>
<event>
 7    1  0.6622189E-010  0.4778728E+02  0.7816164E-02  0.1312668E+00
        -11   -1    0    0    0    0  0.00000000000E+00  0.00000000000E+00  0.45593999997E+02  0.45594000000E+02  0.51100000000E-03 0. -1.
         11   -1    0    0    0    0 -0.00000000000E+00 -0.00000000000E+00 -0.45593999997E+02  0.45594000000E+02  0.51100000000E-03 0.  1.
    9900012    2    1    2    0    0 -0.76859244489E+01  0.25972321122E+02 -0.33911464243E+02  0.47787282193E+02  0.20000050829E+02 0.  0.
         12    1    1    2    0    0  0.76859244489E+01 -0.25972321122E+02  0.33911464243E+02  0.43400717807E+02  0.00000000000E+00 0. -1.
         11    1    3    3    0    0  0.46500794994E+01  0.14423393802E+02 -0.15979688273E+02  0.22022896396E+02  0.51100000000E-03 0. -1.
        -11    1    3    3    0    0 -0.11917661265E+02  0.86446675073E+01 -0.11455747121E+02  0.18654625933E+02  0.51100000000E-03 0.  1.
        -12    1    3    3    0    0 -0.41834268326E+00  0.29042598123E+01 -0.64760288491E+01  0.71097598632E+01  0.00000000000E+00 0.  1.
</event>
<event>
 7    1  0.6622189E-010  0.4778726E+02  0.7816164E-02  0.1312668E+00
        -11   -1    0    0    0    0  0.00000000000E+00  0.00000000000E+00  0.45593999997E+02  0.45594000000E+02  0.51100000000E-03 0. -1.
         11   -1    0    0    0    0 -0.00000000000E+00 -0.00000000000E+00 -0.45593999997E+02  0.45594000000E+02  0.51100000000E-03 0.  1.
    9900012    2    1    2    0    0 -0.12468112536E+02 -0.71642905293E+01  0.40949275682E+02  0.47787261897E+02  0.19999958291E+02 0.  0.
        -12    1    1    2    0    0  0.12468112536E+02  0.71642905293E+01 -0.40949275682E+02  0.43400738103E+02  0.00000000000E+00 0.  1.
         11    1    3    3    0    0 -0.46708166081E+01  0.40748473359E+01  0.18939061022E+02  0.19927592460E+02  0.51100000000E-03 0. -1.
        -11    1    3    3    0    0  0.21250786157E+01 -0.46665007732E+01  0.56736375754E+01  0.76473755097E+01  0.51100000000E-03 0.  1.
         12    1    3    3    0    0 -0.99223745439E+01 -0.65726370920E+01  0.16336577085E+02  0.20212293927E+02  0.00000000000E+00 0. -1.
</event>
<event>
 7    1  0.6622189E-010  0.4778728E+02  0.7816164E-02  0.1312668E+00
        -11   -1    0    0    0    0  0.00000000000E+00  0.00000000000E+00  0.45593999997E+02  0.45594000000E+02  0.51100000000E-03 0. -1.
         11   -1    0    0    0    0 -0.00000000000E+00 -0.00000000000E+00 -0.45593999997E+02  0.45594000000E+02  0.51100000000E-03 0.  1.
    9900012    2    1    2    0    0  0.36402614159E+02  0.18165750816E+02 -0.15115478126E+02  0.47787279968E+02  0.20000040687E+02 0.  0.
         12    1    1    2    0    0 -0.36402614159E+02 -0.18165750816E+02  0.15115478126E+02  0.43400720032E+02  0.00000000000E+00 0. -1.
         11    1    3    3    0    0  0.98628081272E+01  0.91623091480E+01  0.14289226410E+01  0.13537529806E+02  0.51100000000E-03 0. -1.
        -11    1    3    3    0    0  0.26547820976E+02  0.10190602179E+02 -0.14584822372E+02  0.31958601585E+02  0.51100000000E-03 0.  1.
        -12    1    3    3    0    0 -0.80149442756E-02 -0.11871605116E+01 -0.19595783944E+01  0.22911485773E+01  0.00000000000E+00 0.  1.
</event>
<event>
 7    1  0.6622189E-010  0.4778727E+02  0.7816164E-02  0.1312668E+00
        -11   -1    0    0    0    0  0.00000000000E+00  0.00000000000E+00  0.45593999997E+02  0.45594000000E+02  0.51100000000E-03 0. -1.
         11   -1    0    0    0    0 -0.00000000000E+00 -0.00000000000E+00 -0.45593999997E+02  0.45594000000E+02  0.51100000000E-03 0.  1.
    9900012    2    1    2    0    0 -0.22874833722E+02  0.25438034303E+02 -0.26707141762E+02  0.47787273876E+02  0.20000012911E+02 0.  0.
         12    1    1    2    0    0  0.22874833722E+02 -0.25438034303E+02  0.26707141762E+02  0.43400726124E+02  0.00000000000E+00 0. -1.
         11    1    3    3    0    0 -0.31269557017E+01  0.12621494350E+02 -0.20700778668E+01  0.13166821720E+02  0.51100000000E-03 0. -1.
        -11    1    3    3    0    0 -0.15421846531E+02  0.11178550716E+02 -0.16226923860E+02  0.25022118311E+02  0.51100000000E-03 0.  1.
         12    1    3    3    0    0 -0.43260314885E+01  0.16379892367E+01 -0.84101400356E+01  0.95983338449E+01  0.00000000000E+00 0. -1.
</event>
<event>
 7    1  0.6622189E-010  0.4778727E+02  0.7816164E-02  0.1312668E+00
        -11   -1    0    0    0    0  0.00000000000E+00  0.00000000000E+00  0.45593999997E+02  0.45594000000E+02  0.51100000000E-03 0. -1.
         11   -1    0    0    0    0 -0.00000000000E+00 -0.00000000000E+00 -0.45593999997E+02  0.45594000000E+02  0.51100000000E-03 0.  1.
    9900012    2    1    2    0    0  0.27190919795E+02  0.30320579738E+02 -0.14997996923E+02  0.47787267441E+02  0.19999983572E+02 0.  0.
         12    1    1    2    0    0 -0.27190919795E+02 -0.30320579738E+02  0.14997996923E+02  0.43400732559E+02  0.00000000000E+00 0. -1.
         11    1    3    3    0    0  0.20657492149E+02  0.13845589953E+02 -0.29057950448E+01  0.25037491650E+02  0.51100000000E-03 0. -1.
        -11    1    3    3    0    0  0.80939172417E+01  0.11958945600E+02 -0.97880437783E+01  0.17445162007E+02  0.51100000000E-03 0.  1.
         12    1    3    3    0    0 -0.15604895953E+01  0.45160441844E+01 -0.23041580995E+01  0.53046137842E+01  0.00000000000E+00 0. -1.
</event>
<event>
 7    1  0.6622189E-010  0.4778727E+02  0.7816164E-02  0.1312668E+00
        -11   -1    0    0    0    0  0.00000000000E+00  0.00000000000E+00  0.45593999997E+02  0.45594000000E+02  0.51100000000E-03 0. -1.
         11   -1    0    0    0    0 -0.00000000000E+00 -0.00000000000E+00 -0.45593999997E+02  0.45594000000E+02  0.51100000000E-03 0.  1.
    9900012    2    1    2    0    0  0.21342738575E+02  0.20993060658E+02  0.31422958764E+02  0.47787269325E+02  0.19999992159E+02 0.  0.
        -12    1    1    2    0    0 -0.21342738575E+02 -0.20993060658E+02 -0.31422958764E+02  0.43400730675E+02  0.00000000000E+00 0.  1.
         11    1    3    3    0    0  0.17947021207E+02  0.13150990563E+02  0.18310323151E+02  0.28815135904E+02  0.51100000000E-03 0. -1.
        -11    1    3    3    0    0 -0.10120667809E+01  0.43374785381E+01 -0.26064588393E+00  0.44616068603E+01  0.51100000000E-03 0.  1.
        -12    1    3    3    0    0  0.44077841487E+01  0.35045915574E+01  0.13373281497E+02  0.14510526561E+02  0.00000000000E+00 0.  1.
</event>
<event>
 7    1  0.6622189E-010  0.4778727E+02  0.7816164E-02  0.1312668E+00
        -11   -1    0    0    0    0  0.00000000000E+00  0.00000000000E+00  0.45593999997E+02  0.45594000000E+02  0.51100000000E-03 0. -1.
         11   -1    0    0    0    0 -0.00000000000E+00 -0.00000000000E+00 -0.45593999997E+02  0.45594000000E+02  0.51100000000E-03 0.  1.
    9900012    2    1    2    0    0 -0.20821987446E+02 -0.18734858190E+02  0.33152272119E+02  0.47787271674E+02  0.20000002868E+02 0.  0.
        -12    1    1    2    0    0  0.20821987446E+02  0.18734858190E+02 -0.33152272119E+02  0.43400728326E+02  0.00000000000E+00 0.  1.
         11    1    3    3    0    0 -0.50280149162E+01  0.31183937539E+01  0.80560166766E+01  0.99952347925E+01  0.51100000000E-03 0. -1.
        -11    1    3    3    0    0  0.32826765776E+00 -0.86285259455E+00  0.35360630037E+01  0.36545883602E+01  0.51100000000E-03 0.  1.
         12    1    3    3    0    0 -0.16122240188E+02 -0.20990399349E+02  0.21560192439E+02  0.34137448521E+02  0.00000000000E+00 0. -1.
</event>
<event>
 7    1  0.6622189E-010  0.4778727E+02  0.7816164E-02  0.1312668E+00
        -11   -1    0    0    0    0  0.00000000000E+00  0.00000000000E+00  0.45593999997E+02  0.45594000000E+02  0.51100000000E-03 0. -1.
         11   -1    0    0    0    0 -0.00000000000E+00 -0.00000000000E+00 -0.45593999997E+02  0.45594000000E+02  0.51100000000E-03 0.  1.
    9900012    2    1    2    0    0 -0.33736781694E+02  0.18037421677E+02  0.20496450099E+02  0.47787268595E+02  0.19999988833E+02 0.  0.
        -12    1    1    2    0    0  0.33736781694E+02 -0.18037421677E+02 -0.20496450099E+02  0.43400731405E+02  0.00000000000E+00 0.  1.
         11    1    3    3    0    0 -0.66475542304E+01 -0.36599085795E+01  0.29659403061E+01  0.81474971750E+01  0.51100000000E-03 0.  1.
        -11    1    3    3    0    0 -0.99506502246E+01  0.10801247172E+02  0.10853033468E+02  0.18261180577E+02  0.51100000000E-03 0. -1.
         12    1    3    3    0    0 -0.17138577239E+02  0.10896083085E+02  0.66774763243E+01  0.21378590843E+02  0.00000000000E+00 0. -1.
</event>
<event>
 7    1  0.6622189E-010  0.4778729E+02  0.7816164E-02  0.1312668E+00
        -11   -1    0    0    0    0  0.00000000000E+00  0.00000000000E+00  0.45593999997E+02  0.45594000000E+02  0.51100000000E-03 0. -1.
         11   -1    0    0    0    0 -0.00000000000E+00 -0.00000000000E+00 -0.45593999997E+02  0.45594000000E+02  0.51100000000E-03 0.  1.
    9900012    2    1    2    0    0 -0.13949373686E+02  0.10779530811E+02 -0.39659024437E+02  0.47787291134E+02  0.20000091597E+02 0.  0.
         12    1    1    2    0    0  0.13949373686E+02 -0.10779530811E+02  0.39659024437E+02  0.43400708866E+02  0.00000000000E+00 0. -1.
         11    1    3    3    0    0  0.36574642268E+00  0.25887779745E+01 -0.93287912665E+01  0.96882345452E+01  0.51100000000E-03 0. -1.
        -11    1    3    3    0    0 -0.20677009965E+01 -0.47155768749E+01 -0.52995480811E+01  0.73889960616E+01  0.51100000000E-03 0.  1.
        -12    1    3    3    0    0 -0.12247419112E+02  0.12906329712E+02 -0.25030685090E+02  0.30710060527E+02  0.00000000000E+00 0.  1.
</event>
<event>
 7    1  0.6622189E-010  0.4778727E+02  0.7816164E-02  0.1312668E+00
        -11   -1    0    0    0    0  0.00000000000E+00  0.00000000000E+00  0.45593999997E+02  0.45594000000E+02  0.51100000000E-03 0. -1.
         11   -1    0    0    0    0 -0.00000000000E+00 -0.00000000000E+00 -0.45593999997E+02  0.45594000000E+02  0.51100000000E-03 0.  1.
    9900012    2    1    2    0    0  0.30486482947E+02  0.23039769325E+02 -0.20575883982E+02  0.47787267119E+02  0.19999982102E+02 0.  0.
         12    1    1    2    0    0 -0.30486482947E+02 -0.23039769325E+02  0.20575883982E+02  0.43400732881E+02  0.00000000000E+00 0. -1.
         11    1    3    3    0    0  0.19772194298E+02  0.17319123364E+02 -0.17302870752E+02  0.31468731115E+02  0.51100000000E-03 0.  1.
        -11    1    3    3    0    0  0.42980717068E+01  0.70861455507E+01  0.12064553294E+01  0.83751067985E+01  0.51100000000E-03 0. -1.
         12    1    3    3    0    0  0.64162169414E+01 -0.13654995903E+01 -0.44794685590E+01  0.79434292054E+01  0.00000000000E+00 0. -1.
</event>
<event>
 7    1  0.6622189E-010  0.4778727E+02  0.7816164E-02  0.1312668E+00
        -11   -1    0    0    0    0  0.00000000000E+00  0.00000000000E+00  0.45593999997E+02  0.45594000000E+02  0.51100000000E-03 0. -1.
         11   -1    0    0    0    0 -0.00000000000E+00 -0.00000000000E+00 -0.45593999997E+02  0.45594000000E+02  0.51100000000E-03 0.  1.
    9900012    2    1    2    0    0 -0.33898851938E+01  0.15293307310E+01 -0.43241102190E+02  0.47787273132E+02  0.20000009518E+02 0.  0.
         12    1    1    2    0    0  0.33898851938E+01 -0.15293307310E+01  0.43241102190E+02  0.43400726868E+02  0.00000000000E+00 0. -1.
         11    1    3    3    0    0  0.58084329147E+01  0.67407793618E+01 -0.18059104339E+02  0.20132244016E+02  0.51100000000E-03 0. -1.
        -11    1    3    3    0    0 -0.51408299570E+01 -0.49451667545E+00 -0.12644314856E+02  0.13658381230E+02  0.51100000000E-03 0.  1.
         12    1    3    3    0    0 -0.40574881515E+01 -0.47169319553E+01 -0.12537682994E+02  0.13996647885E+02  0.00000000000E+00 0. -1.
</event>
<event>
 7    1  0.6622189E-010  0.4778730E+02  0.7816164E-02  0.1312668E+00
        -11   -1    0    0    0    0  0.00000000000E+00  0.00000000000E+00  0.45593999997E+02  0.45594000000E+02  0.51100000000E-03 0. -1.
         11   -1    0    0    0    0 -0.00000000000E+00 -0.00000000000E+00 -0.45593999997E+02  0.45594000000E+02  0.51100000000E-03 0.  1.
    9900012    2    1    2    0    0  0.12825369468E+02 -0.76489899723E+00 -0.41455348464E+02  0.47787296218E+02  0.20000114776E+02 0.  0.
         12    1    1    2    0    0 -0.12825369468E+02  0.76489899723E+00  0.41455348464E+02  0.43400703782E+02  0.00000000000E+00 0. -1.
         11    1    3    3    0    0 -0.21578696690E+01 -0.38316117767E+01 -0.14401331720E+01  0.46272706999E+01  0.51100000000E-03 0. -1.
        -11    1    3    3    0    0  0.10692787143E+02  0.20738208821E+01 -0.34020562697E+02  0.35721633731E+02  0.51100000000E-03 0.  1.
        -12    1    3    3    0    0  0.42904519945E+01  0.99289189736E+00 -0.59946525952E+01  0.74383917868E+01  0.00000000000E+00 0.  1.
</event>
<event>
 7    1  0.6622189E-010  0.4778726E+02  0.7816164E-02  0.1312668E+00
        -11   -1    0    0    0    0  0.00000000000E+00  0.00000000000E+00  0.45593999997E+02  0.45594000000E+02  0.51100000000E-03 0. -1.
         11   -1    0    0    0    0 -0.00000000000E+00 -0.00000000000E+00 -0.45593999997E+02  0.45594000000E+02  0.51100000000E-03 0.  1.
    9900012    2    1    2    0    0 -0.45577403746E+01  0.23256326381E+02  0.36359244095E+02  0.47787258702E+02  0.19999943724E+02 0.  0.
        -12    1    1    2    0    0  0.45577403746E+01 -0.23256326381E+02 -0.36359244095E+02  0.43400741298E+02  0.00000000000E+00 0.  1.
         11    1    3    3    0    0 -0.61227670357E+01  0.14431126469E+02  0.11325872485E+02  0.19339624483E+02  0.51100000000E-03 0. -1.
        -11    1    3    3    0    0 -0.29280071672E+01  0.53583391801E+01  0.59019283765E+01  0.84922190011E+01  0.51100000000E-03 0.  1.
         12    1    3    3    0    0  0.44930338283E+01  0.34668607327E+01  0.19131443233E+02  0.19955415218E+02  0.00000000000E+00 0. -1.
</event>
<event>
 7    1  0.6622189E-010  0.4778727E+02  0.7816164E-02  0.1312668E+00
        -11   -1    0    0    0    0  0.00000000000E+00  0.00000000000E+00  0.45593999997E+02  0.45594000000E+02  0.51100000000E-03 0. -1.
         11   -1    0    0    0    0 -0.00000000000E+00 -0.00000000000E+00 -0.45593999997E+02  0.45594000000E+02  0.51100000000E-03 0.  1.
    9900012    2    1    2    0    0  0.15488026764E+02 -0.37344283961E+02 -0.15784443603E+02  0.47787272155E+02  0.20000005063E+02 0.  0.
         12    1    1    2    0    0 -0.15488026764E+02  0.37344283961E+02  0.15784443603E+02  0.43400727845E+02  0.00000000000E+00 0. -1.
         11    1    3    3    0    0 -0.88383019118E+00 -0.37936369305E+01 -0.68781932790E+01  0.79045796860E+01  0.51100000000E-03 0. -1.
        -11    1    3    3    0    0  0.10789698007E+02 -0.21710874955E+02 -0.35394340531E+00  0.24246751341E+02  0.51100000000E-03 0.  1.
        -12    1    3    3    0    0  0.55821589485E+01 -0.11839772076E+02 -0.85523069183E+01  0.15635941128E+02  0.00000000000E+00 0.  1.
</event>
<event>
 7    1  0.6622189E-010  0.4778727E+02  0.7816164E-02  0.1312668E+00
        -11   -1    0    0    0    0  0.00000000000E+00  0.00000000000E+00  0.45593999997E+02  0.45594000000E+02  0.51100000000E-03 0. -1.
         11   -1    0    0    0    0 -0.00000000000E+00 -0.00000000000E+00 -0.45593999997E+02  0.45594000000E+02  0.51100000000E-03 0.  1.
    9900012    2    1    2    0    0 -0.39907452703E+02  0.44542013087E+01 -0.16467497798E+02  0.47787272192E+02  0.20000005234E+02 0.  0.
         12    1    1    2    0    0  0.39907452703E+02 -0.44542013087E+01  0.16467497798E+02  0.43400727808E+02  0.00000000000E+00 0. -1.
         11    1    3    3    0    0  0.56736572256E+00 -0.12753600309E+00 -0.46308444690E+01  0.46672143782E+01  0.51100000000E-03 0. -1.
        -11    1    3    3    0    0 -0.38436800684E+02  0.51737215762E+01 -0.94340447126E+01  0.39914361346E+02  0.51100000000E-03 0.  1.
        -12    1    3    3    0    0 -0.20380177416E+01 -0.59198426435E+00 -0.24026086160E+01  0.32056964681E+01  0.00000000000E+00 0.  1.
</event>
<event>
 7    1  0.6622189E-010  0.4778727E+02  0.7816164E-02  0.1312668E+00
        -11   -1    0    0    0    0  0.00000000000E+00  0.00000000000E+00  0.45593999997E+02  0.45594000000E+02  0.51100000000E-03 0. -1.
         11   -1    0    0    0    0 -0.00000000000E+00 -0.00000000000E+00 -0.45593999997E+02  0.45594000000E+02  0.51100000000E-03 0.  1.
    9900012    2    1    2    0    0  0.27898937501E+02  0.13560371572E+02 -0.30354392818E+02  0.47787267814E+02  0.19999985273E+02 0.  0.
         12    1    1    2    0    0 -0.27898937501E+02 -0.13560371572E+02  0.30354392818E+02  0.43400732186E+02  0.00000000000E+00 0. -1.
         11    1    3    3    0    0  0.24716048428E+01 -0.12765009673E+01 -0.18352999911E+01  0.33326583289E+01  0.51100000000E-03 0. -1.
        -11    1    3    3    0    0 -0.13725481326E+01  0.51113290411E+01 -0.24865096508E+01  0.58474185285E+01  0.51100000000E-03 0.  1.
        -12    1    3    3    0    0  0.26799880791E+02  0.97255434982E+01 -0.26032583176E+02  0.38607190957E+02  0.00000000000E+00 0.  1.
</event>
<event>
 7    1  0.6622189E-010  0.4778727E+02  0.7816164E-02  0.1312668E+00
        -11   -1    0    0    0    0  0.00000000000E+00  0.00000000000E+00  0.45593999997E+02  0.45594000000E+02  0.51100000000E-03 0. -1.
         11   -1    0    0    0    0 -0.00000000000E+00 -0.00000000000E+00 -0.45593999997E+02  0.45594000000E+02  0.51100000000E-03 0.  1.
    9900012    2    1    2    0    0 -0.31467963323E+01 -0.93609580252E+01 -0.42262197586E+02  0.47787271814E+02  0.20000003508E+02 0.  0.
         12    1    1    2    0    0  0.31467963323E+01  0.93609580252E+01  0.42262197586E+02  0.43400728186E+02  0.00000000000E+00 0. -1.
         11    1    3    3    0    0 -0.35170470829E+01 -0.54568857372E+01 -0.17000740678E+01  0.67109965154E+01  0.51100000000E-03 0. -1.
        -11    1    3    3    0    0 -0.20109942781E+00 -0.26124107659E-01 -0.25853642206E+02  0.25854437511E+02  0.51100000000E-03 0.  1.
         12    1    3    3    0    0  0.57135017845E+00 -0.38779481804E+01 -0.14708481312E+02  0.15221837788E+02  0.00000000000E+00 0. -1.
</event>
<event>
 7    1  0.6622189E-010  0.4778727E+02  0.7816164E-02  0.1312668E+00
        -11   -1    0    0    0    0  0.00000000000E+00  0.00000000000E+00  0.45593999997E+02  0.45594000000E+02  0.51100000000E-03 0.  1.
         11   -1    0    0    0    0 -0.00000000000E+00 -0.00000000000E+00 -0.45593999997E+02  0.45594000000E+02  0.51100000000E-03 0. -1.
    9900012    2    1    2    0    0  0.86672099351E+01 -0.38611864025E+02  0.17822084868E+02  0.47787270967E+02  0.19999999646E+02 0.  0.
        -12    1    1    2    0    0 -0.86672099351E+01  0.38611864025E+02 -0.17822084868E+02  0.43400729033E+02  0.00000000000E+00 0.  1.
         11    1    3    3    0    0  0.34070199469E-01 -0.35122126369E+01 -0.23796496848E+01  0.42425854462E+01  0.51100000000E-03 0.  1.
        -11    1    3    3    0    0  0.11699153871E+02 -0.23894405949E+02  0.16697651860E+02  0.31410578072E+02  0.51100000000E-03 0. -1.
        -12    1    3    3    0    0 -0.30660141356E+01 -0.11205245440E+02  0.35040826927E+01  0.12134107448E+02  0.00000000000E+00 0.  1.
</event>
<event>
 7    1  0.8731265E-010  0.4778727E+02  0.7816164E-02  0.1312668E+00
        -11   -1    0    0    0    0  0.00000000000E+00  0.00000000000E+00  0.45593999997E+02  0.45594000000E+02  0.51100000000E-03 0. -1.
         11   -1    0    0    0    0 -0.00000000000E+00 -0.00000000000E+00 -0.45593999997E+02  0.45594000000E+02  0.51100000000E-03 0.  1.
    9900012    2    1    2    0    0  0.20559008835E+02  0.28881637095E+02  0.25036005376E+02  0.47787269928E+02  0.19999994910E+02 0.  0.
        -12    1    1    2    0    0 -0.20559008835E+02 -0.28881637095E+02 -0.25036005376E+02  0.43400730072E+02  0.00000000000E+00 0.  1.
         11    1    3    3    0    0  0.10702928714E+02  0.15645239859E+02  0.21818301640E+02  0.28902672887E+02  0.51100000000E-03 0. -1.
        -11    1    3    3    0    0  0.10395726762E+02  0.77134532567E+01  0.32035315433E+01  0.13335333166E+02  0.51100000000E-03 0.  1.
         12    1    3    3    0    0 -0.53964664002E+00  0.55229439800E+01  0.14172192456E-01  0.55492638749E+01  0.00000000000E+00 0. -1.
</event>
<event>
 7    1  0.7130537E-010  0.4778727E+02  0.7816164E-02  0.1312668E+00
        -11   -1    0    0    0    0  0.00000000000E+00  0.00000000000E+00  0.45593999997E+02  0.45594000000E+02  0.51100000000E-03 0. -1.
         11   -1    0    0    0    0 -0.00000000000E+00 -0.00000000000E+00 -0.45593999997E+02  0.45594000000E+02  0.51100000000E-03 0.  1.
    9900012    2    1    2    0    0 -0.34785355791E+01  0.24426224035E+02  0.35705497912E+02  0.47787271763E+02  0.20000003276E+02 0.  0.
        -12    1    1    2    0    0  0.34785355791E+01 -0.24426224035E+02 -0.35705497912E+02  0.43400728237E+02  0.00000000000E+00 0.  1.
         11    1    3    3    0    0 -0.44904381377E+01  0.14797115100E+02  0.14750672033E+02  0.21370563297E+02  0.51100000000E-03 0. -1.
        -11    1    3    3    0    0 -0.15444454437E+01 -0.10181737526E+01  0.12357025688E+02  0.12494721831E+02  0.51100000000E-03 0.  1.
        -12    1    3    3    0    0  0.25563480023E+01  0.10647282688E+02  0.85978001902E+01  0.13921986635E+02  0.00000000000E+00 0.  1.
</event>
<event>
 7    1  0.6622189E-010  0.4778727E+02  0.7816164E-02  0.1312668E+00
        -11   -1    0    0    0    0  0.00000000000E+00  0.00000000000E+00  0.45593999997E+02  0.45594000000E+02  0.51100000000E-03 0.  1.
         11   -1    0    0    0    0 -0.00000000000E+00 -0.00000000000E+00 -0.45593999997E+02  0.45594000000E+02  0.51100000000E-03 0. -1.
    9900012    2    1    2    0    0 -0.33062859643E+02  0.19189785295E+02  0.20548063615E+02  0.47787268834E+02  0.19999989920E+02 0.  0.
        -12    1    1    2    0    0  0.33062859643E+02 -0.19189785295E+02 -0.20548063615E+02  0.43400731166E+02  0.00000000000E+00 0.  1.
         11    1    3    3    0    0 -0.21018062508E+02  0.73780211126E+01  0.19689631605E+02  0.29730047765E+02  0.51100000000E-03 0. -1.
        -11    1    3    3    0    0 -0.38808679638E+01  0.80389023792E+01 -0.59725821604E+00  0.89466085894E+01  0.51100000000E-03 0.  1.
         12    1    3    3    0    0 -0.81639291714E+01  0.37728618033E+01  0.14556902260E+01  0.91106124787E+01  0.00000000000E+00 0. -1.
</event>
<event>
 7    1  0.6622189E-010  0.4778727E+02  0.7816164E-02  0.1312668E+00
        -11   -1    0    0    0    0  0.00000000000E+00  0.00000000000E+00  0.45593999997E+02  0.45594000000E+02  0.51100000000E-03 0. -1.
         11   -1    0    0    0    0 -0.00000000000E+00 -0.00000000000E+00 -0.45593999997E+02  0.45594000000E+02  0.51100000000E-03 0.  1.
    9900012    2    1    2    0    0  0.10078668177E+02 -0.23174296980E+02  0.35284498418E+02  0.47787269346E+02  0.19999992254E+02 0.  0.
        -12    1    1    2    0    0 -0.10078668177E+02  0.23174296980E+02 -0.35284498418E+02  0.43400730654E+02  0.00000000000E+00 0.  1.
         11    1    3    3    0    0 -0.25058808571E+01 -0.21309541256E+01 -0.35330994428E-01  0.32896280787E+01  0.51100000000E-03 0. -1.
        -11    1    3    3    0    0 -0.33458167657E+00  0.12388883771E+01  0.12919368214E+01  0.18209586269E+01  0.51100000000E-03 0.  1.
         12    1    3    3    0    0  0.12919130711E+02 -0.22282231231E+02  0.34027892591E+02  0.42676682640E+02  0.00000000000E+00 0. -1.
</event>
<event>
 7    1  0.6622189E-010  0.4778727E+02  0.7816164E-02  0.1312668E+00
        -11   -1    0    0    0    0  0.00000000000E+00  0.00000000000E+00  0.45593999997E+02  0.45594000000E+02  0.51100000000E-03 0. -1.
         11   -1    0    0    0    0 -0.00000000000E+00 -0.00000000000E+00 -0.45593999997E+02  0.45594000000E+02  0.51100000000E-03 0.  1.
    9900012    2    1    2    0    0  0.31226682823E+02  0.31234662937E+01 -0.29979348877E+02  0.47787272807E+02  0.20000008035E+02 0.  0.
         12    1    1    2    0    0 -0.31226682823E+02 -0.31234662937E+01  0.29979348877E+02  0.43400727193E+02  0.00000000000E+00 0. -1.
         11    1    3    3    0    0  0.19353090969E+02  0.94856130384E+01 -0.22201893235E+02  0.30942576626E+02  0.51100000000E-03 0. -1.
        -11    1    3    3    0    0  0.11439757272E+02 -0.39037699956E+01 -0.49201637631E+01  0.13050497245E+02  0.51100000000E-03 0.  1.
         12    1    3    3    0    0  0.43383458233E+00 -0.24583767491E+01 -0.28572918795E+01  0.37941989365E+01  0.00000000000E+00 0. -1.
</event>
<event>
 7    1  0.6622189E-010  0.4778727E+02  0.7816164E-02  0.1312668E+00
        -11   -1    0    0    0    0  0.00000000000E+00  0.00000000000E+00  0.45593999997E+02  0.45594000000E+02  0.51100000000E-03 0. -1.
         11   -1    0    0    0    0 -0.00000000000E+00 -0.00000000000E+00 -0.45593999997E+02  0.45594000000E+02  0.51100000000E-03 0.  1.
    9900012    2    1    2    0    0 -0.27047507947E+02 -0.12882734670E+02  0.31402082750E+02  0.47787270286E+02  0.19999996540E+02 0.  0.
        -12    1    1    2    0    0  0.27047507947E+02  0.12882734670E+02 -0.31402082750E+02  0.43400729714E+02  0.00000000000E+00 0.  1.
         11    1    3    3    0    0  0.11126437660E+01 -0.43727836443E+01  0.57930300470E+01  0.73429156564E+01  0.51100000000E-03 0.  1.
        -11    1    3    3    0    0 -0.20216748621E+02 -0.80166103790E+00  0.16312944068E+02  0.25989838969E+02  0.51100000000E-03 0. -1.
         12    1    3    3    0    0 -0.79434030921E+01 -0.77082899877E+01  0.92961086351E+01  0.14454515660E+02  0.00000000000E+00 0. -1.
</event>
<event>
 7    1  0.6622189E-010  0.4778727E+02  0.7816164E-02  0.1312668E+00
        -11   -1    0    0    0    0  0.00000000000E+00  0.00000000000E+00  0.45593999997E+02  0.45594000000E+02  0.51100000000E-03 0.  1.
         11   -1    0    0    0    0 -0.00000000000E+00 -0.00000000000E+00 -0.45593999997E+02  0.45594000000E+02  0.51100000000E-03 0. -1.
    9900012    2    1    2    0    0 -0.79888685391E+01 -0.39915548020E+02  0.15051577398E+02  0.47787274471E+02  0.20000015622E+02 0.  0.
         12    1    1    2    0    0  0.79888685391E+01  0.39915548020E+02 -0.15051577398E+02  0.43400725529E+02  0.00000000000E+00 0. -1.
         11    1    3    3    0    0 -0.10878614831E+02 -0.97152525835E+01  0.34699764536E+01  0.14992369067E+02  0.51100000000E-03 0. -1.
        -11    1    3    3    0    0 -0.37673070166E+00 -0.19247698290E+02  0.74007904425E+01  0.20624924604E+02  0.51100000000E-03 0.  1.
         12    1    3    3    0    0  0.32664769935E+01 -0.10952597147E+02  0.41808105020E+01  0.12169980799E+02  0.00000000000E+00 0. -1.
</event>
<event>
 7    1  0.6622189E-010  0.4778727E+02  0.7816164E-02  0.1312668E+00
        -11   -1    0    0    0    0  0.00000000000E+00  0.00000000000E+00  0.45593999997E+02  0.45594000000E+02  0.51100000000E-03 0. -1.
         11   -1    0    0    0    0 -0.00000000000E+00 -0.00000000000E+00 -0.45593999997E+02  0.45594000000E+02  0.51100000000E-03 0.  1.
    9900012    2    1    2    0    0  0.12796684311E+00  0.63790622229E+01 -0.42929176839E+02  0.47787273803E+02  0.20000012577E+02 0.  0.
         12    1    1    2    0    0 -0.12796684311E+00 -0.63790622229E+01  0.42929176839E+02  0.43400726197E+02  0.00000000000E+00 0. -1.
         11    1    3    3    0    0  0.57574173265E+01 -0.59399130844E-01 -0.37034523993E+01  0.68459435042E+01  0.51100000000E-03 0. -1.
        -11    1    3    3    0    0 -0.71488668621E+01  0.40092275771E+01 -0.21965569389E+02  0.23444966240E+02  0.51100000000E-03 0.  1.
        -12    1    3    3    0    0  0.15194163788E+01  0.24292337766E+01 -0.17260155051E+02  0.17496364058E+02  0.00000000000E+00 0.  1.
</event>
<event>
 7    1  0.7118086E-010  0.4778725E+02  0.7816164E-02  0.1312668E+00
        -11   -1    0    0    0    0  0.00000000000E+00  0.00000000000E+00  0.45593999997E+02  0.45594000000E+02  0.51100000000E-03 0.  1.
         11   -1    0    0    0    0 -0.00000000000E+00 -0.00000000000E+00 -0.45593999997E+02  0.45594000000E+02  0.51100000000E-03 0. -1.
    9900012    2    1    2    0    0 -0.36960901448E+02 -0.32681652592E+01 -0.22513022788E+02  0.47787247299E+02  0.19999891733E+02 0.  0.
         12    1    1    2    0    0  0.36960901448E+02  0.32681652592E+01  0.22513022788E+02  0.43400752701E+02  0.00000000000E+00 0. -1.
         11    1    3    3    0    0 -0.26646441691E+01 -0.58774059174E+01 -0.53425263719E+01  0.83777572870E+01  0.51100000000E-03 0. -1.
        -11    1    3    3    0    0 -0.25738680051E+02 -0.18743586648E+01 -0.12214920258E+02  0.28551657541E+02  0.51100000000E-03 0.  1.
        -12    1    3    3    0    0 -0.85575772272E+01  0.44835993231E+01 -0.49555761582E+01  0.10857832470E+02  0.00000000000E+00 0.  1.
</event>
<event>
 7    1  0.6622189E-010  0.4778726E+02  0.7816164E-02  0.1312668E+00
        -11   -1    0    0    0    0  0.00000000000E+00  0.00000000000E+00  0.45593999997E+02  0.45594000000E+02  0.51100000000E-03 0. -1.
         11   -1    0    0    0    0 -0.00000000000E+00 -0.00000000000E+00 -0.45593999997E+02  0.45594000000E+02  0.51100000000E-03 0.  1.
    9900012    2    1    2    0    0 -0.40083824336E+02 -0.14758304424E+02  0.76878780246E+01  0.47787262779E+02  0.19999962313E+02 0.  0.
        -12    1    1    2    0    0  0.40083824336E+02  0.14758304424E+02 -0.76878780246E+01  0.43400737221E+02  0.00000000000E+00 0.  1.
         11    1    3    3    0    0 -0.11319837073E+02 -0.78365183539E+01  0.21446213413E+01  0.13933740783E+02  0.51100000000E-03 0. -1.
        -11    1    3    3    0    0 -0.29053369293E+01 -0.68569551571E+01  0.22884728336E+01  0.77907589406E+01  0.51100000000E-03 0.  1.
        -12    1    3    3    0    0 -0.25858650334E+02 -0.64830913220E-01  0.32547838497E+01  0.26062763055E+02  0.00000000000E+00 0.  1.
</event>
<event>
 7    1  0.6622189E-010  0.4778727E+02  0.7816164E-02  0.1312668E+00
        -11   -1    0    0    0    0  0.00000000000E+00  0.00000000000E+00  0.45593999997E+02  0.45594000000E+02  0.51100000000E-03 0.  1.
         11   -1    0    0    0    0 -0.00000000000E+00 -0.00000000000E+00 -0.45593999997E+02  0.45594000000E+02  0.51100000000E-03 0. -1.
    9900012    2    1    2    0    0 -0.12884377323E+02  0.41273872849E+02 -0.37528266584E+01  0.47787268821E+02  0.19999989864E+02 0.  0.
        -12    1    1    2    0    0  0.12884377323E+02 -0.41273872849E+02  0.37528266584E+01  0.43400731179E+02  0.00000000000E+00 0.  1.
         11    1    3    3    0    0 -0.13358597827E+02  0.26398669669E+02  0.30833046959E+01  0.29746405905E+02  0.51100000000E-03 0. -1.
        -11    1    3    3    0    0  0.25742518414E+01  0.15517030496E+01 -0.23862082128E+01  0.38377786274E+01  0.51100000000E-03 0.  1.
         12    1    3    3    0    0 -0.21000313370E+01  0.13323500130E+02 -0.44499231415E+01  0.14203084288E+02  0.00000000000E+00 0. -1.
</event>
<event>
 7    1  0.6622189E-010  0.4778727E+02  0.7816164E-02  0.1312668E+00
        -11   -1    0    0    0    0  0.00000000000E+00  0.00000000000E+00  0.45593999997E+02  0.45594000000E+02  0.51100000000E-03 0. -1.
         11   -1    0    0    0    0 -0.00000000000E+00 -0.00000000000E+00 -0.45593999997E+02  0.45594000000E+02  0.51100000000E-03 0.  1.
    9900012    2    1    2    0    0  0.23219579289E+02 -0.20263000348E+02 -0.30559534416E+02  0.47787272020E+02  0.20000004448E+02 0.  0.
         12    1    1    2    0    0 -0.23219579289E+02  0.20263000348E+02  0.30559534416E+02  0.43400727980E+02  0.00000000000E+00 0. -1.
         11    1    3    3    0    0  0.10380644827E+02 -0.11227190225E+02 -0.60190829661E+01  0.16432800960E+02  0.51100000000E-03 0.  1.
        -11    1    3    3    0    0  0.35125593243E+01  0.27367633479E+01 -0.65250175370E+01  0.78996076326E+01  0.51100000000E-03 0. -1.
        -12    1    3    3    0    0  0.93263751380E+01 -0.11772573471E+02 -0.18015433912E+02  0.23454863427E+02  0.00000000000E+00 0.  1.
</event>
<event>
 7    1  0.6622189E-010  0.4778726E+02  0.7816164E-02  0.1312668E+00
        -11   -1    0    0    0    0  0.00000000000E+00  0.00000000000E+00  0.45593999997E+02  0.45594000000E+02  0.51100000000E-03 0. -1.
         11   -1    0    0    0    0 -0.00000000000E+00 -0.00000000000E+00 -0.45593999997E+02  0.45594000000E+02  0.51100000000E-03 0.  1.
    9900012    2    1    2    0    0 -0.26529546587E+02 -0.23563902246E+02 -0.24990990407E+02  0.47787263455E+02  0.19999965395E+02 0.  0.
         12    1    1    2    0    0  0.26529546587E+02  0.23563902246E+02  0.24990990407E+02  0.43400736545E+02  0.00000000000E+00 0. -1.
         11    1    3    3    0    0 -0.16536009897E+02 -0.96356201450E+01 -0.12183221296E+02  0.22687346260E+02  0.51100000000E-03 0.  1.
        -11    1    3    3    0    0 -0.37499629950E+01 -0.10751140954E+02 -0.10778192194E+01  0.11437261420E+02  0.51100000000E-03 0. -1.
        -12    1    3    3    0    0 -0.62435736948E+01 -0.31771411472E+01 -0.11729949891E+02  0.13662655774E+02  0.00000000000E+00 0.  1.
</event>
<event>
 7    1  0.6622189E-010  0.4778727E+02  0.7816164E-02  0.1312668E+00
        -11   -1    0    0    0    0  0.00000000000E+00  0.00000000000E+00  0.45593999997E+02  0.45594000000E+02  0.51100000000E-03 0. -1.
         11   -1    0    0    0    0 -0.00000000000E+00 -0.00000000000E+00 -0.45593999997E+02  0.45594000000E+02  0.51100000000E-03 0.  1.
    9900012    2    1    2    0    0  0.26759788870E+02  0.14737072734E+01 -0.34137445475E+02  0.47787270778E+02  0.19999998785E+02 0.  0.
         12    1    1    2    0    0 -0.26759788870E+02 -0.14737072734E+01  0.34137445475E+02  0.43400729222E+02  0.00000000000E+00 0. -1.
         11    1    3    3    0    0  0.83124337265E+01 -0.63845019530E+01 -0.16098814301E+02  0.19210159859E+02  0.51100000000E-03 0. -1.
        -11    1    3    3    0    0  0.15588928457E+02  0.30208521210E+01 -0.99859011803E+01  0.18757890622E+02  0.51100000000E-03 0.  1.
         12    1    3    3    0    0  0.28584266865E+01  0.48373571055E+01 -0.80527299929E+01  0.98192202962E+01  0.00000000000E+00 0. -1.
</event>
<event>
 7    1  0.6622189E-010  0.4778727E+02  0.7816164E-02  0.1312668E+00
        -11   -1    0    0    0    0  0.00000000000E+00  0.00000000000E+00  0.45593999997E+02  0.45594000000E+02  0.51100000000E-03 0. -1.
         11   -1    0    0    0    0 -0.00000000000E+00 -0.00000000000E+00 -0.45593999997E+02  0.45594000000E+02  0.51100000000E-03 0.  1.
    9900012    2    1    2    0    0  0.93521036431E+01  0.36753482697E+02 -0.21103154350E+02  0.47787268942E+02  0.19999990412E+02 0.  0.
         12    1    1    2    0    0 -0.93521036431E+01 -0.36753482697E+02  0.21103154350E+02  0.43400731058E+02  0.00000000000E+00 0. -1.
         11    1    3    3    0    0  0.65034213730E+01  0.11907095907E+02 -0.56402614106E+01  0.14693058617E+02  0.51100000000E-03 0. -1.
        -11    1    3    3    0    0 -0.34910005262E+01 -0.57100853172E-01 -0.11309182145E+01  0.36700574178E+01  0.51100000000E-03 0.  1.
        -12    1    3    3    0    0  0.63396827963E+01  0.24903487643E+02 -0.14331974725E+02  0.29424152906E+02  0.00000000000E+00 0.  1.
</event>
<event>
 7    1  0.6622189E-010  0.4778727E+02  0.7816164E-02  0.1312668E+00
        -11   -1    0    0    0    0  0.00000000000E+00  0.00000000000E+00  0.45593999997E+02  0.45594000000E+02  0.51100000000E-03 0. -1.
         11   -1    0    0    0    0 -0.00000000000E+00 -0.00000000000E+00 -0.45593999997E+02  0.45594000000E+02  0.51100000000E-03 0.  1.
    9900012    2    1    2    0    0  0.33361831522E+02  0.59289202012E+01 -0.27119355417E+02  0.47787270335E+02  0.19999996764E+02 0.  0.
         12    1    1    2    0    0 -0.33361831522E+02 -0.59289202012E+01  0.27119355417E+02  0.43400729665E+02  0.00000000000E+00 0. -1.
         11    1    3    3    0    0 -0.13820067975E+01 -0.54985434665E+00 -0.25596195562E+01  0.29603944204E+01  0.51100000000E-03 0. -1.
        -11    1    3    3    0    0  0.24244700639E+02  0.55840582048E+01 -0.23522431616E+02  0.34238750044E+02  0.51100000000E-03 0.  1.
        -12    1    3    3    0    0  0.10499137680E+02  0.89471634308E+00 -0.10373042445E+01  0.10588125871E+02  0.00000000000E+00 0.  1.
</event>
<event>
 7    1  0.6622189E-010  0.4778727E+02  0.7816164E-02  0.1312668E+00
        -11   -1    0    0    0    0  0.00000000000E+00  0.00000000000E+00  0.45593999997E+02  0.45594000000E+02  0.51100000000E-03 0. -1.
         11   -1    0    0    0    0 -0.00000000000E+00 -0.00000000000E+00 -0.45593999997E+02  0.45594000000E+02  0.51100000000E-03 0.  1.
    9900012    2    1    2    0    0 -0.55646339246E+00  0.26854010075E+02 -0.34090697974E+02  0.47787271931E+02  0.20000004041E+02 0.  0.
         12    1    1    2    0    0  0.55646339246E+00 -0.26854010075E+02  0.34090697974E+02  0.43400728069E+02  0.00000000000E+00 0. -1.
         11    1    3    3    0    0 -0.26384045769E+01 -0.24105592404E+01 -0.66483926679E+01  0.75480527218E+01  0.51100000000E-03 0. -1.
        -11    1    3    3    0    0 -0.80213976371E-01  0.14495975564E+02 -0.13063596365E+02  0.19514028084E+02  0.51100000000E-03 0.  1.
         12    1    3    3    0    0  0.21621551608E+01  0.14768593752E+02 -0.14378708941E+02  0.20725191125E+02  0.00000000000E+00 0. -1.
</event>
<event>
 7    1  0.6622189E-010  0.4778727E+02  0.7816164E-02  0.1312668E+00
        -11   -1    0    0    0    0  0.00000000000E+00  0.00000000000E+00  0.45593999997E+02  0.45594000000E+02  0.51100000000E-03 0. -1.
         11   -1    0    0    0    0 -0.00000000000E+00 -0.00000000000E+00 -0.45593999997E+02  0.45594000000E+02  0.51100000000E-03 0.  1.
    9900012    2    1    2    0    0  0.16335170309E+02 -0.38747280466E+02 -0.10744000505E+02  0.47787273285E+02  0.20000010214E+02 0.  0.
         12    1    1    2    0    0 -0.16335170309E+02  0.38747280466E+02  0.10744000505E+02  0.43400726715E+02  0.00000000000E+00 0. -1.
         11    1    3    3    0    0 -0.14381052942E+01 -0.67182476481E+01 -0.83488108287E+01  0.10812291192E+02  0.51100000000E-03 0. -1.
        -11    1    3    3    0    0  0.10618248346E+02 -0.22761225202E+02 -0.27131814975E+01  0.25262262859E+02  0.51100000000E-03 0.  1.
        -12    1    3    3    0    0  0.71550272572E+01 -0.92678076163E+01  0.31799182088E+00  0.11712719234E+02  0.00000000000E+00 0.  1.
</event>
<event>
 7    1  0.6622189E-010  0.4778728E+02  0.7816164E-02  0.1312668E+00
        -11   -1    0    0    0    0  0.00000000000E+00  0.00000000000E+00  0.45593999997E+02  0.45594000000E+02  0.51100000000E-03 0. -1.
         11   -1    0    0    0    0 -0.00000000000E+00 -0.00000000000E+00 -0.45593999997E+02  0.45594000000E+02  0.51100000000E-03 0.  1.
    9900012    2    1    2    0    0  0.27085376102E+02 -0.27937094549E+02 -0.19222987762E+02  0.47787284465E+02  0.20000061189E+02 0.  0.
         12    1    1    2    0    0 -0.27085376102E+02  0.27937094549E+02  0.19222987762E+02  0.43400715535E+02  0.00000000000E+00 0. -1.
         11    1    3    3    0    0  0.13555413790E+01  0.55503717370E-01 -0.44723818299E+01  0.46736252081E+01  0.51100000000E-03 0. -1.
        -11    1    3    3    0    0  0.25448534464E+02 -0.21438275094E+02 -0.92085292682E+01  0.34525708637E+02  0.51100000000E-03 0.  1.
        -12    1    3    3    0    0  0.28130025948E+00 -0.65543231727E+01 -0.55420766644E+01  0.85879506195E+01  0.00000000000E+00 0.  1.
</event>
<event>
 7    1  0.6622189E-010  0.4778727E+02  0.7816164E-02  0.1312668E+00
        -11   -1    0    0    0    0  0.00000000000E+00  0.00000000000E+00  0.45593999997E+02  0.45594000000E+02  0.51100000000E-03 0. -1.
         11   -1    0    0    0    0 -0.00000000000E+00 -0.00000000000E+00 -0.45593999997E+02  0.45594000000E+02  0.51100000000E-03 0.  1.
    9900012    2    1    2    0    0  0.35409978877E+02  0.14566019686E+02  0.20434964299E+02  0.47787270750E+02  0.19999998656E+02 0.  0.
        -12    1    1    2    0    0 -0.35409978877E+02 -0.14566019686E+02 -0.20434964299E+02  0.43400729250E+02  0.00000000000E+00 0.  1.
         11    1    3    3    0    0  0.25741387294E+02  0.14337038258E+02  0.16241513790E+02  0.33644560575E+02  0.51100000000E-03 0. -1.
        -11    1    3    3    0    0  0.38060544219E+01 -0.39997578679E+00  0.67157839509E+01  0.77296691539E+01  0.51100000000E-03 0.  1.
         12    1    3    3    0    0  0.58625371604E+01  0.62895721541E+00 -0.25223334420E+01  0.64130410203E+01  0.00000000000E+00 0. -1.
</event>
<event>
 7    1  0.6622189E-010  0.4778727E+02  0.7816164E-02  0.1312668E+00
        -11   -1    0    0    0    0  0.00000000000E+00  0.00000000000E+00  0.45593999997E+02  0.45594000000E+02  0.51100000000E-03 0. -1.
         11   -1    0    0    0    0 -0.00000000000E+00 -0.00000000000E+00 -0.45593999997E+02  0.45594000000E+02  0.51100000000E-03 0.  1.
    9900012    2    1    2    0    0  0.25630722431E+02  0.93234418461E+01 -0.33760373365E+02  0.47787270629E+02  0.19999998105E+02 0.  0.
         12    1    1    2    0    0 -0.25630722431E+02 -0.93234418461E+01  0.33760373365E+02  0.43400729371E+02  0.00000000000E+00 0. -1.
         11    1    3    3    0    0  0.92196106913E+01  0.56566976031E+00 -0.16354247025E+01  0.93806086048E+01  0.51100000000E-03 0. -1.
        -11    1    3    3    0    0  0.45360501876E+01  0.55112974124E+01 -0.52960987134E+01  0.88881276046E+01  0.51100000000E-03 0.  1.
         12    1    3    3    0    0  0.11875061552E+02  0.32464746733E+01 -0.26828849949E+02  0.29518534419E+02  0.00000000000E+00 0. -1.
</event>
<event>
 7    1  0.6622189E-010  0.4778727E+02  0.7816164E-02  0.1312668E+00
        -11   -1    0    0    0    0  0.00000000000E+00  0.00000000000E+00  0.45593999997E+02  0.45594000000E+02  0.51100000000E-03 0. -1.
         11   -1    0    0    0    0 -0.00000000000E+00 -0.00000000000E+00 -0.45593999997E+02  0.45594000000E+02  0.51100000000E-03 0.  1.
    9900012    2    1    2    0    0 -0.25081198325E+02 -0.25749327362E+01  0.35326008188E+02  0.47787266798E+02  0.19999980637E+02 0.  0.
        -12    1    1    2    0    0  0.25081198325E+02  0.25749327362E+01 -0.35326008188E+02  0.43400733202E+02  0.00000000000E+00 0.  1.
         11    1    3    3    0    0 -0.12209145002E+02 -0.48056891664E+01  0.71034499411E+01  0.14920350913E+02  0.51100000000E-03 0. -1.
        -11    1    3    3    0    0 -0.45887007259E+01  0.34177111541E+01  0.21150637968E+02  0.21910874255E+02  0.51100000000E-03 0.  1.
        -12    1    3    3    0    0 -0.82833525976E+01 -0.11869547240E+01  0.70719202786E+01  0.10956041630E+02  0.00000000000E+00 0.  1.
</event>
<event>
 7    1  0.7834912E-010  0.4778727E+02  0.7816164E-02  0.1312668E+00
        -11   -1    0    0    0    0  0.00000000000E+00  0.00000000000E+00  0.45593999997E+02  0.45594000000E+02  0.51100000000E-03 0. -1.
         11   -1    0    0    0    0 -0.00000000000E+00 -0.00000000000E+00 -0.45593999997E+02  0.45594000000E+02  0.51100000000E-03 0.  1.
    9900012    2    1    2    0    0  0.98371203298E+01  0.19606123887E+02  0.37449359143E+02  0.47787268088E+02  0.19999986522E+02 0.  0.
        -12    1    1    2    0    0 -0.98371203298E+01 -0.19606123887E+02 -0.37449359143E+02  0.43400731912E+02  0.00000000000E+00 0.  1.
         11    1    3    3    0    0  0.13009802066E+01  0.20793767538E+01 -0.18037856451E+01  0.30446674854E+01  0.51100000000E-03 0. -1.
        -11    1    3    3    0    0 -0.29173597925E+00 -0.43285847079E+00 -0.15490053459E+00  0.54449129843E+00  0.51100000000E-03 0.  1.
         12    1    3    3    0    0  0.88278761025E+01  0.17959605604E+02  0.39408045323E+02  0.44198109304E+02  0.00000000000E+00 0. -1.
</event>
<event>
 7    1  0.6622189E-010  0.4778727E+02  0.7816164E-02  0.1312668E+00
        -11   -1    0    0    0    0  0.00000000000E+00  0.00000000000E+00  0.45593999997E+02  0.45594000000E+02  0.51100000000E-03 0. -1.
         11   -1    0    0    0    0 -0.00000000000E+00 -0.00000000000E+00 -0.45593999997E+02  0.45594000000E+02  0.51100000000E-03 0.  1.
    9900012    2    1    2    0    0 -0.79854086357E+01  0.12886376129E+02 -0.40666914914E+02  0.47787269483E+02  0.19999992879E+02 0.  0.
         12    1    1    2    0    0  0.79854086357E+01 -0.12886376129E+02  0.40666914914E+02  0.43400730517E+02  0.00000000000E+00 0. -1.
         11    1    3    3    0    0 -0.66001334098E+01 -0.24060104156E+01 -0.70719390093E+01  0.99680975497E+01  0.51100000000E-03 0. -1.
        -11    1    3    3    0    0 -0.27490341641E+01  0.19791501007E+01 -0.11487572849E+02  0.11976583577E+02  0.51100000000E-03 0.  1.
         12    1    3    3    0    0  0.13637589382E+01  0.13313236444E+02 -0.22107403056E+02  0.25842588356E+02  0.00000000000E+00 0. -1.
</event>
<event>
 7    1  0.6622189E-010  0.4778727E+02  0.7816164E-02  0.1312668E+00
        -11   -1    0    0    0    0  0.00000000000E+00  0.00000000000E+00  0.45593999997E+02  0.45594000000E+02  0.51100000000E-03 0. -1.
         11   -1    0    0    0    0 -0.00000000000E+00 -0.00000000000E+00 -0.45593999997E+02  0.45594000000E+02  0.51100000000E-03 0.  1.
    9900012    2    1    2    0    0 -0.15681131765E+02  0.30630891109E+02  0.26447568914E+02  0.47787270916E+02  0.19999999414E+02 0.  0.
        -12    1    1    2    0    0  0.15681131765E+02 -0.30630891109E+02 -0.26447568914E+02  0.43400729084E+02  0.00000000000E+00 0.  1.
         11    1    3    3    0    0 -0.86426958148E+01  0.11199677748E+02  0.17616549194E+02  0.22593622515E+02  0.51100000000E-03 0. -1.
        -11    1    3    3    0    0  0.32841838105E+00  0.50845530817E+01  0.74248406534E+01  0.90049318522E+01  0.51100000000E-03 0.  1.
         12    1    3    3    0    0 -0.73668543314E+01  0.14346660280E+02  0.14061790664E+01  0.16188716548E+02  0.00000000000E+00 0. -1.
</event>
<event>
 7    1  0.6622189E-010  0.4778727E+02  0.7816164E-02  0.1312668E+00
        -11   -1    0    0    0    0  0.00000000000E+00  0.00000000000E+00  0.45593999997E+02  0.45594000000E+02  0.51100000000E-03 0.  1.
         11   -1    0    0    0    0 -0.00000000000E+00 -0.00000000000E+00 -0.45593999997E+02  0.45594000000E+02  0.51100000000E-03 0. -1.
    9900012    2    1    2    0    0 -0.80845938965E+01  0.18684080846E+02 -0.38329725293E+02  0.47787269862E+02  0.19999994608E+02 0.  0.
         12    1    1    2    0    0  0.80845938965E+01 -0.18684080846E+02  0.38329725293E+02  0.43400730138E+02  0.00000000000E+00 0. -1.
         11    1    3    3    0    0  0.18682548737E+01  0.90649827440E+01 -0.20832708498E+02  0.22796184594E+02  0.51100000000E-03 0. -1.
        -11    1    3    3    0    0 -0.10551563287E+02  0.77832502234E+01 -0.18607919046E+02  0.22763328477E+02  0.51100000000E-03 0.  1.
         12    1    3    3    0    0  0.59871451706E+00  0.18358478781E+01  0.11109022519E+01  0.22277567905E+01  0.00000000000E+00 0. -1.
</event>
<event>
 7    1  0.7798781E-010  0.4778728E+02  0.7816164E-02  0.1312668E+00
        -11   -1    0    0    0    0  0.00000000000E+00  0.00000000000E+00  0.45593999997E+02  0.45594000000E+02  0.51100000000E-03 0. -1.
         11   -1    0    0    0    0 -0.00000000000E+00 -0.00000000000E+00 -0.45593999997E+02  0.45594000000E+02  0.51100000000E-03 0.  1.
    9900012    2    1    2    0    0 -0.12147454352E+02 -0.48264953713E+01  0.41385588499E+02  0.47787278345E+02  0.20000033285E+02 0.  0.
        -12    1    1    2    0    0  0.12147454352E+02  0.48264953713E+01 -0.41385588499E+02  0.43400721655E+02  0.00000000000E+00 0.  1.
         11    1    3    3    0    0 -0.37452340132E+01 -0.91395975165E+01  0.26708090632E+02  0.28475974541E+02  0.51100000000E-03 0. -1.
        -11    1    3    3    0    0 -0.38129955251E+01  0.52744324148E+01  0.12602506870E+02  0.14183855324E+02  0.51100000000E-03 0.  1.
        -12    1    3    3    0    0 -0.45892248140E+01 -0.96133026964E+00  0.20749909965E+01  0.51274484801E+01  0.00000000000E+00 0.  1.
</event>
<event>
 7    1  0.6622189E-010  0.4778723E+02  0.7816164E-02  0.1312668E+00
        -11   -1    0    0    0    0  0.00000000000E+00  0.00000000000E+00  0.45593999997E+02  0.45594000000E+02  0.51100000000E-03 0. -1.
         11   -1    0    0    0    0 -0.00000000000E+00 -0.00000000000E+00 -0.45593999997E+02  0.45594000000E+02  0.51100000000E-03 0.  1.
    9900012    2    1    2    0    0 -0.28121523985E+02 -0.98405989874E+01  0.31558983408E+02  0.47787228885E+02  0.19999807775E+02 0.  0.
        -12    1    1    2    0    0  0.28121523985E+02  0.98405989874E+01 -0.31558983408E+02  0.43400771115E+02  0.00000000000E+00 0.  1.
         11    1    3    3    0    0 -0.11617358885E+02 -0.52639848483E+01  0.91610069166E+01  0.15703394917E+02  0.51100000000E-03 0. -1.
        -11    1    3    3    0    0 -0.17593504266E+02 -0.96959905282E-03  0.14103746911E+02  0.22548770931E+02  0.51100000000E-03 0.  1.
        -12    1    3    3    0    0  0.10893391660E+01 -0.45756445400E+01  0.82942295800E+01  0.95350630360E+01  0.00000000000E+00 0.  1.
</event>
<event>
 7    1  0.6622189E-010  0.4778727E+02  0.7816164E-02  0.1312668E+00
        -11   -1    0    0    0    0  0.00000000000E+00  0.00000000000E+00  0.45593999997E+02  0.45594000000E+02  0.51100000000E-03 0. -1.
         11   -1    0    0    0    0 -0.00000000000E+00 -0.00000000000E+00 -0.45593999997E+02  0.45594000000E+02  0.51100000000E-03 0.  1.
    9900012    2    1    2    0    0 -0.31645703965E+02  0.20923225025E+02  0.21080589806E+02  0.47787271994E+02  0.20000004328E+02 0.  0.
        -12    1    1    2    0    0  0.31645703965E+02 -0.20923225025E+02 -0.21080589806E+02  0.43400728006E+02  0.00000000000E+00 0.  1.
         11    1    3    3    0    0 -0.15724847530E+02  0.15027998052E+02  0.50358769104E+01  0.22326477819E+02  0.51100000000E-03 0. -1.
        -11    1    3    3    0    0 -0.16175666989E+02  0.75694555826E+01  0.15592073897E+02  0.23707838978E+02  0.51100000000E-03 0.  1.
         12    1    3    3    0    0  0.25481055431E+00 -0.16742286096E+01  0.45263899875E+00  0.17529551959E+01  0.00000000000E+00 0. -1.
</event>
<event>
 7    1  0.6622189E-010  0.4778727E+02  0.7816164E-02  0.1312668E+00
        -11   -1    0    0    0    0  0.00000000000E+00  0.00000000000E+00  0.45593999997E+02  0.45594000000E+02  0.51100000000E-03 0. -1.
         11   -1    0    0    0    0 -0.00000000000E+00 -0.00000000000E+00 -0.45593999997E+02  0.45594000000E+02  0.51100000000E-03 0.  1.
    9900012    2    1    2    0    0 -0.30552525123E+02  0.19932832507E+02  0.23512739788E+02  0.47787268031E+02  0.19999986259E+02 0.  0.
        -12    1    1    2    0    0  0.30552525123E+02 -0.19932832507E+02 -0.23512739788E+02  0.43400731969E+02  0.00000000000E+00 0.  1.
         11    1    3    3    0    0 -0.67320962656E+01  0.14405750979E+00 -0.42514965983E+00  0.67470456638E+01  0.51100000000E-03 0.  1.
        -11    1    3    3    0    0 -0.15332295720E+02  0.17927229638E+02  0.12564377849E+02  0.26726923608E+02  0.51100000000E-03 0. -1.
        -12    1    3    3    0    0 -0.84881331371E+01  0.18615453592E+01  0.11373511598E+02  0.14313298759E+02  0.00000000000E+00 0.  1.
</event>
<event>
 7    1  0.6622189E-010  0.4778727E+02  0.7816164E-02  0.1312668E+00
        -11   -1    0    0    0    0  0.00000000000E+00  0.00000000000E+00  0.45593999997E+02  0.45594000000E+02  0.51100000000E-03 0. -1.
         11   -1    0    0    0    0 -0.00000000000E+00 -0.00000000000E+00 -0.45593999997E+02  0.45594000000E+02  0.51100000000E-03 0.  1.
    9900012    2    1    2    0    0 -0.79143854332E+01  0.11718542421E+00  0.42672848064E+02  0.47787271998E+02  0.20000004347E+02 0.  0.
        -12    1    1    2    0    0  0.79143854332E+01 -0.11718542421E+00 -0.42672848064E+02  0.43400728002E+02  0.00000000000E+00 0.  1.
         11    1    3    3    0    0 -0.20048033795E+01 -0.47602817800E+01  0.11452362107E+02  0.12563284495E+02  0.51100000000E-03 0. -1.
        -11    1    3    3    0    0  0.17009953104E+01  0.75567602776E+01  0.19618520567E+02  0.21092282011E+02  0.51100000000E-03 0.  1.
        -12    1    3    3    0    0 -0.76105773642E+01 -0.26792930734E+01  0.11601965390E+02  0.14131705492E+02  0.00000000000E+00 0.  1.
</event>
<event>
 7    1  0.6622189E-010  0.4778727E+02  0.7816164E-02  0.1312668E+00
        -11   -1    0    0    0    0  0.00000000000E+00  0.00000000000E+00  0.45593999997E+02  0.45594000000E+02  0.51100000000E-03 0. -1.
         11   -1    0    0    0    0 -0.00000000000E+00 -0.00000000000E+00 -0.45593999997E+02  0.45594000000E+02  0.51100000000E-03 0.  1.
    9900012    2    1    2    0    0 -0.23667707211E+02  0.24642042956E+01  0.36295871789E+02  0.47787274472E+02  0.20000015628E+02 0.  0.
        -12    1    1    2    0    0  0.23667707211E+02 -0.24642042956E+01 -0.36295871789E+02  0.43400725528E+02  0.00000000000E+00 0.  1.
         11    1    3    3    0    0 -0.11580576104E+02  0.38859359364E+01  0.20214360501E+02  0.23618437961E+02  0.51100000000E-03 0. -1.
        -11    1    3    3    0    0 -0.10275635072E+02 -0.65568059943E+01  0.86097074886E+01  0.14923385818E+02  0.51100000000E-03 0.  1.
        -12    1    3    3    0    0 -0.18114960360E+01  0.51350743535E+01  0.74718037988E+01  0.92454506927E+01  0.00000000000E+00 0.  1.
</event>
<event>
 7    1  0.6622189E-010  0.4778727E+02  0.7816164E-02  0.1312668E+00
        -11   -1    0    0    0    0  0.00000000000E+00  0.00000000000E+00  0.45593999997E+02  0.45594000000E+02  0.51100000000E-03 0. -1.
         11   -1    0    0    0    0 -0.00000000000E+00 -0.00000000000E+00 -0.45593999997E+02  0.45594000000E+02  0.51100000000E-03 0.  1.
    9900012    2    1    2    0    0  0.19220781468E+02  0.25446365300E+02 -0.29439213777E+02  0.47787271261E+02  0.20000000989E+02 0.  0.
         12    1    1    2    0    0 -0.19220781468E+02 -0.25446365300E+02  0.29439213777E+02  0.43400728739E+02  0.00000000000E+00 0. -1.
         11    1    3    3    0    0  0.68661253360E+01  0.15234234343E+02 -0.19541113391E+02  0.25711489377E+02  0.51100000000E-03 0. -1.
        -11    1    3    3    0    0  0.97292032878E+01  0.88787310843E+01 -0.15971451867E+01  0.13268011731E+02  0.51100000000E-03 0.  1.
        -12    1    3    3    0    0  0.26254528440E+01  0.13333998727E+01 -0.83009551997E+01  0.88077701539E+01  0.00000000000E+00 0.  1.
</event>
<event>
 7    1  0.6622189E-010  0.4778724E+02  0.7816164E-02  0.1312668E+00
        -11   -1    0    0    0    0  0.00000000000E+00  0.00000000000E+00  0.45593999997E+02  0.45594000000E+02  0.51100000000E-03 0. -1.
         11   -1    0    0    0    0 -0.00000000000E+00 -0.00000000000E+00 -0.45593999997E+02  0.45594000000E+02  0.51100000000E-03 0.  1.
    9900012    2    1    2    0    0 -0.12791291888E+02  0.18171687881E+00 -0.41472589056E+02  0.47787241802E+02  0.19999866671E+02 0.  0.
         12    1    1    2    0    0  0.12791291888E+02 -0.18171687881E+00  0.41472589056E+02  0.43400758198E+02  0.00000000000E+00 0. -1.
         11    1    3    3    0    0 -0.97339992263E+01  0.54266539168E+01 -0.12002827061E+02  0.16378863556E+02  0.51100000000E-03 0. -1.
        -11    1    3    3    0    0  0.74888747765E+00  0.21818988431E+01 -0.41407023444E+01  0.47399294490E+01  0.51100000000E-03 0.  1.
         12    1    3    3    0    0 -0.38061801395E+01 -0.74268358811E+01 -0.25329059651E+02  0.26668448797E+02  0.00000000000E+00 0. -1.
</event>
<event>
 7    1  0.6622189E-010  0.4778727E+02  0.7816164E-02  0.1312668E+00
        -11   -1    0    0    0    0  0.00000000000E+00  0.00000000000E+00  0.45593999997E+02  0.45594000000E+02  0.51100000000E-03 0. -1.
         11   -1    0    0    0    0 -0.00000000000E+00 -0.00000000000E+00 -0.45593999997E+02  0.45594000000E+02  0.51100000000E-03 0.  1.
    9900012    2    1    2    0    0  0.10681295428E+02 -0.25114132278E+01 -0.41990783530E+02  0.47787272243E+02  0.20000005464E+02 0.  0.
         12    1    1    2    0    0 -0.10681295428E+02  0.25114132278E+01  0.41990783530E+02  0.43400727757E+02  0.00000000000E+00 0. -1.
         11    1    3    3    0    0 -0.31951545613E+01 -0.20960930418E+01 -0.13882255432E+01  0.40656843373E+01  0.51100000000E-03 0. -1.
        -11    1    3    3    0    0  0.12533794338E+02 -0.42142979850E+00 -0.24129175141E+02  0.27193578228E+02  0.51100000000E-03 0.  1.
         12    1    3    3    0    0  0.13426556509E+01  0.61096124681E-02 -0.16473382846E+02  0.16528009678E+02  0.00000000000E+00 0. -1.
</event>
<event>
 7    1  0.6622189E-010  0.4778727E+02  0.7816164E-02  0.1312668E+00
        -11   -1    0    0    0    0  0.00000000000E+00  0.00000000000E+00  0.45593999997E+02  0.45594000000E+02  0.51100000000E-03 0. -1.
         11   -1    0    0    0    0 -0.00000000000E+00 -0.00000000000E+00 -0.45593999997E+02  0.45594000000E+02  0.51100000000E-03 0.  1.
    9900012    2    1    2    0    0  0.18076769658E+02  0.26559326556E+02 -0.29179716197E+02  0.47787271138E+02  0.20000000427E+02 0.  0.
         12    1    1    2    0    0 -0.18076769658E+02 -0.26559326556E+02  0.29179716197E+02  0.43400728862E+02  0.00000000000E+00 0. -1.
         11    1    3    3    0    0  0.13904177390E+01  0.25492473436E+00  0.23255753081E+01  0.27214975444E+01  0.51100000000E-03 0. -1.
        -11    1    3    3    0    0  0.28810166389E+01  0.23516004502E+01 -0.78263970211E+01  0.86650315720E+01  0.51100000000E-03 0.  1.
         12    1    3    3    0    0  0.13805335280E+02  0.23952801372E+02 -0.23678894484E+02  0.36400742022E+02  0.00000000000E+00 0. -1.
</event>
<event>
 7    1  0.6622189E-010  0.4778732E+02  0.7816164E-02  0.1312668E+00
        -11   -1    0    0    0    0  0.00000000000E+00  0.00000000000E+00  0.45593999997E+02  0.45594000000E+02  0.51100000000E-03 0. -1.
         11   -1    0    0    0    0 -0.00000000000E+00 -0.00000000000E+00 -0.45593999997E+02  0.45594000000E+02  0.51100000000E-03 0.  1.
    9900012    2    1    2    0    0 -0.35425792083E+02  0.98493409406E+01 -0.23056954129E+02  0.47787315727E+02  0.20000203726E+02 0.  0.
         12    1    1    2    0    0  0.35425792083E+02 -0.98493409406E+01  0.23056954129E+02  0.43400684273E+02  0.00000000000E+00 0. -1.
         11    1    3    3    0    0 -0.16159277530E+02  0.15113376648E+01 -0.10179282919E+01  0.16261690259E+02  0.51100000000E-03 0. -1.
        -11    1    3    3    0    0 -0.16656057725E+02  0.58344847825E+01 -0.13397136612E+02  0.22157363139E+02  0.51100000000E-03 0.  1.
         12    1    3    3    0    0 -0.26104568284E+01  0.25035184934E+01 -0.86418892246E+01  0.93682623292E+01  0.00000000000E+00 0. -1.
</event>
<event>
 7    1  0.6622189E-010  0.4778727E+02  0.7816164E-02  0.1312668E+00
        -11   -1    0    0    0    0  0.00000000000E+00  0.00000000000E+00  0.45593999997E+02  0.45594000000E+02  0.51100000000E-03 0. -1.
         11   -1    0    0    0    0 -0.00000000000E+00 -0.00000000000E+00 -0.45593999997E+02  0.45594000000E+02  0.51100000000E-03 0.  1.
    9900012    2    1    2    0    0 -0.31602516206E+02  0.16926298994E+02 -0.24462316306E+02  0.47787267895E+02  0.19999985642E+02 0.  0.
         12    1    1    2    0    0  0.31602516206E+02 -0.16926298994E+02  0.24462316306E+02  0.43400732105E+02  0.00000000000E+00 0. -1.
         11    1    3    3    0    0  0.20623610204E+01  0.24292335363E+01 -0.44224895303E+01  0.54509561051E+01  0.51100000000E-03 0. -1.
        -11    1    3    3    0    0 -0.21125121353E+02  0.55193531148E+01 -0.10817958792E+02  0.24367237095E+02  0.51100000000E-03 0.  1.
        -12    1    3    3    0    0 -0.12539755874E+02  0.89777123426E+01 -0.92218679838E+01  0.17969074695E+02  0.00000000000E+00 0.  1.
</event>
<event>
 7    1  0.6622189E-010  0.4778727E+02  0.7816164E-02  0.1312668E+00
        -11   -1    0    0    0    0  0.00000000000E+00  0.00000000000E+00  0.45593999997E+02  0.45594000000E+02  0.51100000000E-03 0. -1.
         11   -1    0    0    0    0 -0.00000000000E+00 -0.00000000000E+00 -0.45593999997E+02  0.45594000000E+02  0.51100000000E-03 0.  1.
    9900012    2    1    2    0    0  0.20216756031E+02 -0.11549746938E+02  0.36626622573E+02  0.47787270054E+02  0.19999995485E+02 0.  0.
        -12    1    1    2    0    0 -0.20216756031E+02  0.11549746938E+02 -0.36626622573E+02  0.43400729946E+02  0.00000000000E+00 0.  1.
         11    1    3    3    0    0  0.21600662476E+02 -0.10603192112E+02  0.31424848165E+02  0.39579507132E+02  0.51100000000E-03 0. -1.
        -11    1    3    3    0    0 -0.24906796537E+01 -0.30166323349E+01  0.25670281187E+01  0.46790158585E+01  0.51100000000E-03 0.  1.
         12    1    3    3    0    0  0.11067732089E+01  0.20700775097E+01  0.26347462890E+01  0.35287470637E+01  0.00000000000E+00 0. -1.
</event>
<event>
 7    1  0.6622189E-010  0.4778728E+02  0.7816164E-02  0.1312668E+00
        -11   -1    0    0    0    0  0.00000000000E+00  0.00000000000E+00  0.45593999997E+02  0.45594000000E+02  0.51100000000E-03 0.  1.
         11   -1    0    0    0    0 -0.00000000000E+00 -0.00000000000E+00 -0.45593999997E+02  0.45594000000E+02  0.51100000000E-03 0. -1.
    9900012    2    1    2    0    0  0.23671956531E+02 -0.34620947636E+02 -0.11164701312E+02  0.47787284608E+02  0.20000061840E+02 0.  0.
         12    1    1    2    0    0 -0.23671956531E+02  0.34620947636E+02  0.11164701312E+02  0.43400715392E+02  0.00000000000E+00 0. -1.
         11    1    3    3    0    0  0.99284865658E+01 -0.26016023105E+02 -0.11157571998E+02  0.29998328567E+02  0.51100000000E-03 0. -1.
        -11    1    3    3    0    0  0.31404905248E+01 -0.61042619229E+01 -0.50850456082E+00  0.68835507922E+01  0.51100000000E-03 0.  1.
         12    1    3    3    0    0  0.10602979440E+02 -0.25006626076E+01  0.50137524682E+00  0.10905405248E+02  0.00000000000E+00 0. -1.
</event>
<event>
 7    1  0.6622189E-010  0.4778727E+02  0.7816164E-02  0.1312668E+00
        -11   -1    0    0    0    0  0.00000000000E+00  0.00000000000E+00  0.45593999997E+02  0.45594000000E+02  0.51100000000E-03 0. -1.
         11   -1    0    0    0    0 -0.00000000000E+00 -0.00000000000E+00 -0.45593999997E+02  0.45594000000E+02  0.51100000000E-03 0.  1.
    9900012    2    1    2    0    0  0.41496374798E+02 -0.19240151009E+01 -0.12568698002E+02  0.47787272760E+02  0.20000007824E+02 0.  0.
         12    1    1    2    0    0 -0.41496374798E+02  0.19240151009E+01  0.12568698002E+02  0.43400727240E+02  0.00000000000E+00 0. -1.
         11    1    3    3    0    0  0.12253732551E+02  0.44733577834E+00  0.37402832839E+01  0.12819664194E+02  0.51100000000E-03 0. -1.
        -11    1    3    3    0    0  0.88467082490E+01 -0.40594670357E+01 -0.89385963178E+01  0.13215219402E+02  0.51100000000E-03 0.  1.
         12    1    3    3    0    0  0.20395933998E+02  0.16881161565E+01 -0.73703849677E+01  0.21752389165E+02  0.00000000000E+00 0. -1.
</event>
<event>
 7    1  0.6622189E-010  0.4778728E+02  0.7816164E-02  0.1312668E+00
        -11   -1    0    0    0    0  0.00000000000E+00  0.00000000000E+00  0.45593999997E+02  0.45594000000E+02  0.51100000000E-03 0. -1.
         11   -1    0    0    0    0 -0.00000000000E+00 -0.00000000000E+00 -0.45593999997E+02  0.45594000000E+02  0.51100000000E-03 0.  1.
    9900012    2    1    2    0    0  0.25410953615E+02 -0.11189316396E+02  0.33357238282E+02  0.47787277531E+02  0.20000029574E+02 0.  0.
        -12    1    1    2    0    0 -0.25410953615E+02  0.11189316396E+02 -0.33357238282E+02  0.43400722469E+02  0.00000000000E+00 0.  1.
         11    1    3    3    0    0  0.95505591657E+01 -0.95380177656E+01  0.88906006337E+01  0.16162603230E+02  0.51100000000E-03 0. -1.
        -11    1    3    3    0    0  0.10953572718E+02  0.37090509103E+01  0.19976229894E+02  0.23082191728E+02  0.51100000000E-03 0.  1.
        -12    1    3    3    0    0  0.49068217313E+01 -0.53603495409E+01  0.44904077545E+01  0.85424825727E+01  0.00000000000E+00 0.  1.
</event>
<event>
 7    1  0.6622189E-010  0.4778727E+02  0.7816164E-02  0.1312668E+00
        -11   -1    0    0    0    0  0.00000000000E+00  0.00000000000E+00  0.45593999997E+02  0.45594000000E+02  0.51100000000E-03 0. -1.
         11   -1    0    0    0    0 -0.00000000000E+00 -0.00000000000E+00 -0.45593999997E+02  0.45594000000E+02  0.51100000000E-03 0.  1.
    9900012    2    1    2    0    0  0.73353767616E+01 -0.15607181139E+02 -0.39827521529E+02  0.47787270439E+02  0.19999997239E+02 0.  0.
         12    1    1    2    0    0 -0.73353767616E+01  0.15607181139E+02  0.39827521529E+02  0.43400729561E+02  0.00000000000E+00 0. -1.
         11    1    3    3    0    0  0.10013734845E+02 -0.64852442674E+01 -0.28605513092E+02  0.30993687394E+02  0.51100000000E-03 0. -1.
        -11    1    3    3    0    0 -0.12713371971E+01 -0.97327417075E+01 -0.63611267441E+01  0.11696430786E+02  0.51100000000E-03 0.  1.
        -12    1    3    3    0    0 -0.14070208865E+01  0.61080483601E+00 -0.48608816928E+01  0.50971522592E+01  0.00000000000E+00 0.  1.
</event>
<event>
 7    1  0.6622189E-010  0.4778727E+02  0.7816164E-02  0.1312668E+00
        -11   -1    0    0    0    0  0.00000000000E+00  0.00000000000E+00  0.45593999997E+02  0.45594000000E+02  0.51100000000E-03 0. -1.
         11   -1    0    0    0    0 -0.00000000000E+00 -0.00000000000E+00 -0.45593999997E+02  0.45594000000E+02  0.51100000000E-03 0.  1.
    9900012    2    1    2    0    0 -0.22749834317E+02 -0.68747225402E+01 -0.36315374864E+02  0.47787271631E+02  0.20000002676E+02 0.  0.
         12    1    1    2    0    0  0.22749834317E+02  0.68747225402E+01  0.36315374864E+02  0.43400728369E+02  0.00000000000E+00 0. -1.
         11    1    3    3    0    0 -0.10530809211E+02 -0.12258912839E+02 -0.19003855833E+02  0.24946451118E+02  0.51100000000E-03 0. -1.
        -11    1    3    3    0    0 -0.51680321900E+01  0.45284209532E+01 -0.45667323418E+01  0.82504665074E+01  0.51100000000E-03 0.  1.
         12    1    3    3    0    0 -0.70509929154E+01  0.85576934518E+00 -0.12744786689E+02  0.14590354006E+02  0.00000000000E+00 0. -1.
</event>
<event>
 7    1  0.6622189E-010  0.4778727E+02  0.7816164E-02  0.1312668E+00
        -11   -1    0    0    0    0  0.00000000000E+00  0.00000000000E+00  0.45593999997E+02  0.45594000000E+02  0.51100000000E-03 0. -1.
         11   -1    0    0    0    0 -0.00000000000E+00 -0.00000000000E+00 -0.45593999997E+02  0.45594000000E+02  0.51100000000E-03 0.  1.
    9900012    2    1    2    0    0 -0.38891550711E+02  0.12573548612E+02  0.14593708164E+02  0.47787272363E+02  0.20000006014E+02 0.  0.
        -12    1    1    2    0    0  0.38891550711E+02 -0.12573548612E+02 -0.14593708164E+02  0.43400727637E+02  0.00000000000E+00 0.  1.
         11    1    3    3    0    0 -0.18682105261E+02  0.40284653668E+01 -0.10506603689E+01  0.19140362527E+02  0.51100000000E-03 0. -1.
        -11    1    3    3    0    0 -0.11463503829E+02  0.92468532603E+01  0.12528686506E+02  0.19336085464E+02  0.51100000000E-03 0.  1.
         12    1    3    3    0    0 -0.87459416218E+01 -0.70177001536E+00  0.31156820270E+01  0.93108243727E+01  0.00000000000E+00 0. -1.
</event>
<event>
 7    1  0.6622189E-010  0.4778727E+02  0.7816164E-02  0.1312668E+00
        -11   -1    0    0    0    0  0.00000000000E+00  0.00000000000E+00  0.45593999997E+02  0.45594000000E+02  0.51100000000E-03 0. -1.
         11   -1    0    0    0    0 -0.00000000000E+00 -0.00000000000E+00 -0.45593999997E+02  0.45594000000E+02  0.51100000000E-03 0.  1.
    9900012    2    1    2    0    0 -0.39596069666E+02  0.17531207632E+02 -0.29036354197E+01  0.47787273362E+02  0.20000010567E+02 0.  0.
         12    1    1    2    0    0  0.39596069666E+02 -0.17531207632E+02  0.29036354197E+01  0.43400726638E+02  0.00000000000E+00 0. -1.
         11    1    3    3    0    0 -0.25776236172E+01  0.23012033976E+01  0.21386963624E+01  0.40637055726E+01  0.51100000000E-03 0.  1.
        -11    1    3    3    0    0 -0.58861711979E+01  0.95490119855E+01 -0.44608599467E+01  0.12071864520E+02  0.51100000000E-03 0. -1.
        -12    1    3    3    0    0 -0.31132274851E+02  0.56809922491E+01 -0.58147183535E+00  0.31651703269E+02  0.00000000000E+00 0.  1.
</event>
<event>
 7    1  0.6622189E-010  0.4778727E+02  0.7816164E-02  0.1312668E+00
        -11   -1    0    0    0    0  0.00000000000E+00  0.00000000000E+00  0.45593999997E+02  0.45594000000E+02  0.51100000000E-03 0.  1.
         11   -1    0    0    0    0 -0.00000000000E+00 -0.00000000000E+00 -0.45593999997E+02  0.45594000000E+02  0.51100000000E-03 0. -1.
    9900012    2    1    2    0    0 -0.31401499655E+02 -0.26993929819E+02 -0.12996021992E+02  0.47787274024E+02  0.20000013585E+02 0.  0.
        -12    1    1    2    0    0  0.31401499655E+02  0.26993929819E+02  0.12996021992E+02  0.43400725976E+02  0.00000000000E+00 0.  1.
         11    1    3    3    0    0 -0.15667400324E+02 -0.15538661069E+02  0.28382504090E+01  0.22247990614E+02  0.51100000000E-03 0. -1.
        -11    1    3    3    0    0 -0.96102650868E+01 -0.41037154861E+01 -0.88415390129E+01  0.13688334019E+02  0.51100000000E-03 0.  1.
         12    1    3    3    0    0 -0.61238342441E+01 -0.73515532640E+01 -0.69927333878E+01  0.11850949391E+02  0.00000000000E+00 0. -1.
</event>
<event>
 7    1  0.6622189E-010  0.4778727E+02  0.7816164E-02  0.1312668E+00
        -11   -1    0    0    0    0  0.00000000000E+00  0.00000000000E+00  0.45593999997E+02  0.45594000000E+02  0.51100000000E-03 0. -1.
         11   -1    0    0    0    0 -0.00000000000E+00 -0.00000000000E+00 -0.45593999997E+02  0.45594000000E+02  0.51100000000E-03 0.  1.
    9900012    2    1    2    0    0 -0.38937476884E+02  0.19161662011E+02 -0.57172192994E+00  0.47787271168E+02  0.20000000566E+02 0.  0.
         12    1    1    2    0    0  0.38937476884E+02 -0.19161662011E+02  0.57172192994E+00  0.43400728832E+02  0.00000000000E+00 0. -1.
         11    1    3    3    0    0 -0.19993317300E+01  0.61884502203E+01  0.41712974355E+01  0.77261870319E+01  0.51100000000E-03 0. -1.
        -11    1    3    3    0    0 -0.88989056634E+01  0.60600699065E+01  0.16746179433E+00  0.10767683734E+02  0.51100000000E-03 0.  1.
         12    1    3    3    0    0 -0.28039239491E+02  0.69131418845E+01 -0.49104811598E+01  0.29293400403E+02  0.00000000000E+00 0. -1.
</event>
<event>
 7    1  0.6622189E-010  0.4778725E+02  0.7816164E-02  0.1312668E+00
        -11   -1    0    0    0    0  0.00000000000E+00  0.00000000000E+00  0.45593999997E+02  0.45594000000E+02  0.51100000000E-03 0. -1.
         11   -1    0    0    0    0 -0.00000000000E+00 -0.00000000000E+00 -0.45593999997E+02  0.45594000000E+02  0.51100000000E-03 0.  1.
    9900012    2    1    2    0    0 -0.26866236054E+02  0.23006795702E+02 -0.25149903653E+02  0.47787251827E+02  0.19999912382E+02 0.  0.
         12    1    1    2    0    0  0.26866236054E+02 -0.23006795702E+02  0.25149903653E+02  0.43400748173E+02  0.00000000000E+00 0. -1.
         11    1    3    3    0    0 -0.82783210858E+01  0.51246432534E+01 -0.78111105996E+01  0.12482228068E+02  0.51100000000E-03 0. -1.
        -11    1    3    3    0    0 -0.17819686530E+02  0.20643097479E+02 -0.13268594052E+02  0.30327121359E+02  0.51100000000E-03 0.  1.
        -12    1    3    3    0    0 -0.76822843771E+00 -0.27609450304E+01 -0.40701990019E+01  0.49779024005E+01  0.00000000000E+00 0.  1.
</event>
<event>
 7    1  0.6622189E-010  0.4778727E+02  0.7816164E-02  0.1312668E+00
        -11   -1    0    0    0    0  0.00000000000E+00  0.00000000000E+00  0.45593999997E+02  0.45594000000E+02  0.51100000000E-03 0. -1.
         11   -1    0    0    0    0 -0.00000000000E+00 -0.00000000000E+00 -0.45593999997E+02  0.45594000000E+02  0.51100000000E-03 0.  1.
    9900012    2    1    2    0    0  0.18096531587E+02 -0.14347841506E+02  0.36746134228E+02  0.47787269683E+02  0.19999993791E+02 0.  0.
        -12    1    1    2    0    0 -0.18096531587E+02  0.14347841506E+02 -0.36746134228E+02  0.43400730317E+02  0.00000000000E+00 0.  1.
         11    1    3    3    0    0  0.10972300417E+02 -0.13474542164E+02  0.19849345541E+02  0.26380886673E+02  0.51100000000E-03 0. -1.
        -11    1    3    3    0    0  0.51222369558E+01 -0.41023812956E+01  0.34118837093E+01  0.73964717557E+01  0.51100000000E-03 0.  1.
         12    1    3    3    0    0  0.20019942140E+01  0.32290819533E+01  0.13484904977E+02  0.14009911254E+02  0.00000000000E+00 0. -1.
</event>
<event>
 7    1  0.6622189E-010  0.4778727E+02  0.7816164E-02  0.1312668E+00
        -11   -1    0    0    0    0  0.00000000000E+00  0.00000000000E+00  0.45593999997E+02  0.45594000000E+02  0.51100000000E-03 0. -1.
         11   -1    0    0    0    0 -0.00000000000E+00 -0.00000000000E+00 -0.45593999997E+02  0.45594000000E+02  0.51100000000E-03 0.  1.
    9900012    2    1    2    0    0  0.38844021911E+02 -0.19276140956E+02 -0.17876165838E+01  0.47787271649E+02  0.20000002755E+02 0.  0.
         12    1    1    2    0    0 -0.38844021911E+02  0.19276140956E+02  0.17876165838E+01  0.43400728351E+02  0.00000000000E+00 0. -1.
         11    1    3    3    0    0  0.80653042130E+01 -0.16690799139E+01 -0.32280614379E+01  0.88462048764E+01  0.51100000000E-03 0. -1.
        -11    1    3    3    0    0  0.12479878919E+02 -0.11399355336E+02 -0.64196146877E+01  0.18080490395E+02  0.51100000000E-03 0.  1.
        -12    1    3    3    0    0  0.18298838779E+02 -0.62077057057E+01  0.78600595418E+01  0.20860576378E+02  0.00000000000E+00 0.  1.
</event>
<event>
 7    1  0.6622189E-010  0.4778727E+02  0.7816164E-02  0.1312668E+00
        -11   -1    0    0    0    0  0.00000000000E+00  0.00000000000E+00  0.45593999997E+02  0.45594000000E+02  0.51100000000E-03 0. -1.
         11   -1    0    0    0    0 -0.00000000000E+00 -0.00000000000E+00 -0.45593999997E+02  0.45594000000E+02  0.51100000000E-03 0.  1.
    9900012    2    1    2    0    0  0.38703119163E+02 -0.34761129625E+01 -0.19328957610E+02  0.47787269631E+02  0.19999993557E+02 0.  0.
         12    1    1    2    0    0 -0.38703119163E+02  0.34761129625E+01  0.19328957610E+02  0.43400730369E+02  0.00000000000E+00 0. -1.
         11    1    3    3    0    0  0.45203075529E+01  0.73969940201E+00 -0.88124587836E+01  0.99317554164E+01  0.51100000000E-03 0. -1.
        -11    1    3    3    0    0  0.30920856713E+02 -0.16197157230E+01 -0.12305557644E+02  0.33318907666E+02  0.51100000000E-03 0.  1.
         12    1    3    3    0    0  0.32619548970E+01 -0.25960966415E+01  0.17890588178E+01  0.45366065484E+01  0.00000000000E+00 0. -1.
</event>
<event>
 7    1  0.6622189E-010  0.4778725E+02  0.7816164E-02  0.1312668E+00
        -11   -1    0    0    0    0  0.00000000000E+00  0.00000000000E+00  0.45593999997E+02  0.45594000000E+02  0.51100000000E-03 0. -1.
         11   -1    0    0    0    0 -0.00000000000E+00 -0.00000000000E+00 -0.45593999997E+02  0.45594000000E+02  0.51100000000E-03 0.  1.
    9900012    2    1    2    0    0  0.33942583495E+01 -0.22014035337E+02  0.37248983275E+02  0.47787245438E+02  0.19999883249E+02 0.  0.
        -12    1    1    2    0    0 -0.33942583495E+01  0.22014035337E+02 -0.37248983275E+02  0.43400754562E+02  0.00000000000E+00 0.  1.
         11    1    3    3    0    0 -0.63786041625E+01 -0.35456269236E+01  0.53076197854E+01  0.90237957308E+01  0.51100000000E-03 0. -1.
        -11    1    3    3    0    0 -0.34887340623E+00 -0.76838162924E+00  0.44874836415E+01  0.45661398002E+01  0.51100000000E-03 0.  1.
         12    1    3    3    0    0  0.10121735918E+02 -0.17700026784E+02  0.27453879848E+02  0.34197309907E+02  0.00000000000E+00 0. -1.
</event>
<event>
 7    1  0.6622189E-010  0.4778726E+02  0.7816164E-02  0.1312668E+00
        -11   -1    0    0    0    0  0.00000000000E+00  0.00000000000E+00  0.45593999997E+02  0.45594000000E+02  0.51100000000E-03 0. -1.
         11   -1    0    0    0    0 -0.00000000000E+00 -0.00000000000E+00 -0.45593999997E+02  0.45594000000E+02  0.51100000000E-03 0.  1.
    9900012    2    1    2    0    0 -0.19580225354E+02  0.28022149624E+02 -0.26739442607E+02  0.47787263999E+02  0.19999967877E+02 0.  0.
         12    1    1    2    0    0  0.19580225354E+02 -0.28022149624E+02  0.26739442607E+02  0.43400736001E+02  0.00000000000E+00 0. -1.
         11    1    3    3    0    0 -0.19822079958E+02  0.24276731888E+02 -0.20110220475E+02  0.37238361039E+02  0.51100000000E-03 0. -1.
        -11    1    3    3    0    0  0.87580326741E+00  0.55497378123E+01 -0.28196934688E+01  0.62862781252E+01  0.51100000000E-03 0.  1.
         12    1    3    3    0    0 -0.63394866407E+00 -0.18043200767E+01 -0.38095286632E+01  0.42626248350E+01  0.00000000000E+00 0. -1.
</event>
<event>
 7    1  0.6622189E-010  0.4778727E+02  0.7816164E-02  0.1312668E+00
        -11   -1    0    0    0    0  0.00000000000E+00  0.00000000000E+00  0.45593999997E+02  0.45594000000E+02  0.51100000000E-03 0. -1.
         11   -1    0    0    0    0 -0.00000000000E+00 -0.00000000000E+00 -0.45593999997E+02  0.45594000000E+02  0.51100000000E-03 0.  1.
    9900012    2    1    2    0    0 -0.26039120434E+02 -0.74971258205E+01 -0.33902515499E+02  0.47787271369E+02  0.20000001481E+02 0.  0.
         12    1    1    2    0    0  0.26039120434E+02  0.74971258205E+01  0.33902515499E+02  0.43400728631E+02  0.00000000000E+00 0. -1.
         11    1    3    3    0    0 -0.48623175564E+00  0.31028813043E+01 -0.28873188721E+00  0.31539911339E+01  0.51100000000E-03 0. -1.
        -11    1    3    3    0    0 -0.12291704071E+02 -0.97515429848E+01 -0.21756198570E+02  0.26823697657E+02  0.51100000000E-03 0.  1.
         12    1    3    3    0    0 -0.13261184607E+02 -0.84846414003E+00 -0.11857585042E+02  0.17809582578E+02  0.00000000000E+00 0. -1.
</event>
<event>
 7    1  0.6622189E-010  0.4778727E+02  0.7816164E-02  0.1312668E+00
        -11   -1    0    0    0    0  0.00000000000E+00  0.00000000000E+00  0.45593999997E+02  0.45594000000E+02  0.51100000000E-03 0. -1.
         11   -1    0    0    0    0 -0.00000000000E+00 -0.00000000000E+00 -0.45593999997E+02  0.45594000000E+02  0.51100000000E-03 0.  1.
    9900012    2    1    2    0    0  0.71802056017E+01 -0.24687068899E+02  0.34965933610E+02  0.47787271475E+02  0.20000001961E+02 0.  0.
        -12    1    1    2    0    0 -0.71802056017E+01  0.24687068899E+02 -0.34965933610E+02  0.43400728525E+02  0.00000000000E+00 0.  1.
         11    1    3    3    0    0  0.34257245039E+01 -0.13507405107E+01  0.17949092606E+01  0.40965580453E+01  0.51100000000E-03 0. -1.
        -11    1    3    3    0    0  0.82458128444E+01 -0.21822043889E+02  0.29936620076E+02  0.37952552626E+02  0.51100000000E-03 0.  1.
        -12    1    3    3    0    0 -0.44913317466E+01 -0.15142844986E+01  0.32344042737E+01  0.57381608035E+01  0.00000000000E+00 0.  1.
</event>
<event>
 7    1  0.6622189E-010  0.4778728E+02  0.7816164E-02  0.1312668E+00
        -11   -1    0    0    0    0  0.00000000000E+00  0.00000000000E+00  0.45593999997E+02  0.45594000000E+02  0.51100000000E-03 0. -1.
         11   -1    0    0    0    0 -0.00000000000E+00 -0.00000000000E+00 -0.45593999997E+02  0.45594000000E+02  0.51100000000E-03 0.  1.
    9900012    2    1    2    0    0  0.59497766404E+01  0.42917514389E+02 -0.25119541899E+01  0.47787276535E+02  0.20000025035E+02 0.  0.
         12    1    1    2    0    0 -0.59497766404E+01 -0.42917514389E+02  0.25119541899E+01  0.43400723465E+02  0.00000000000E+00 0. -1.
         11    1    3    3    0    0  0.34937870305E+01  0.76191604815E+01 -0.68465278077E+01  0.10822804514E+02  0.51100000000E-03 0. -1.
        -11    1    3    3    0    0  0.10980382069E+01  0.33743865897E+02  0.19605416054E+01  0.33818602828E+02  0.51100000000E-03 0.  1.
         12    1    3    3    0    0  0.13579514030E+01  0.15544880106E+01  0.23740320124E+01  0.31458691937E+01  0.00000000000E+00 0. -1.
</event>
<event>
 7    1  0.6622189E-010  0.4778727E+02  0.7816164E-02  0.1312668E+00
        -11   -1    0    0    0    0  0.00000000000E+00  0.00000000000E+00  0.45593999997E+02  0.45594000000E+02  0.51100000000E-03 0. -1.
         11   -1    0    0    0    0 -0.00000000000E+00 -0.00000000000E+00 -0.45593999997E+02  0.45594000000E+02  0.51100000000E-03 0.  1.
    9900012    2    1    2    0    0  0.18071790414E+02 -0.33125749952E+01 -0.39319976680E+02  0.47787270421E+02  0.19999997157E+02 0.  0.
         12    1    1    2    0    0 -0.18071790414E+02  0.33125749952E+01  0.39319976680E+02  0.43400729579E+02  0.00000000000E+00 0. -1.
         11    1    3    3    0    0  0.17720464209E+02  0.11234120096E+01 -0.29331593170E+02  0.34287304713E+02  0.51100000000E-03 0. -1.
        -11    1    3    3    0    0  0.15056861431E+01 -0.16732733203E+01 -0.10250110489E+02  0.10494365139E+02  0.51100000000E-03 0.  1.
         12    1    3    3    0    0 -0.11543599379E+01 -0.27627136844E+01  0.26172697919E+00  0.30056005690E+01  0.00000000000E+00 0. -1.
</event>
<event>
 7    1  0.6622189E-010  0.4778727E+02  0.7816164E-02  0.1312668E+00
        -11   -1    0    0    0    0  0.00000000000E+00  0.00000000000E+00  0.45593999997E+02  0.45594000000E+02  0.51100000000E-03 0. -1.
         11   -1    0    0    0    0 -0.00000000000E+00 -0.00000000000E+00 -0.45593999997E+02  0.45594000000E+02  0.51100000000E-03 0.  1.
    9900012    2    1    2    0    0 -0.30924880379E+02 -0.13045498940E+02  0.27515270779E+02  0.47787269648E+02  0.19999993632E+02 0.  0.
        -12    1    1    2    0    0  0.30924880379E+02  0.13045498940E+02 -0.27515270779E+02  0.43400730352E+02  0.00000000000E+00 0.  1.
         11    1    3    3    0    0 -0.66880334258E+01 -0.55566432459E+01  0.18424505638E+02  0.20373229580E+02  0.51100000000E-03 0. -1.
        -11    1    3    3    0    0  0.20688007552E+00 -0.17361895574E+00 -0.10904665447E+00  0.29126335404E+00  0.51100000000E-03 0.  1.
         12    1    3    3    0    0 -0.24443727029E+02 -0.73152367383E+01  0.91998117962E+01  0.27122776714E+02  0.00000000000E+00 0. -1.
</event>
<event>
 7    1  0.6622189E-010  0.4778726E+02  0.7816164E-02  0.1312668E+00
        -11   -1    0    0    0    0  0.00000000000E+00  0.00000000000E+00  0.45593999997E+02  0.45594000000E+02  0.51100000000E-03 0. -1.
         11   -1    0    0    0    0 -0.00000000000E+00 -0.00000000000E+00 -0.45593999997E+02  0.45594000000E+02  0.51100000000E-03 0.  1.
    9900012    2    1    2    0    0 -0.21347565201E+02  0.20624877568E+02  0.31662592986E+02  0.47787263724E+02  0.19999966623E+02 0.  0.
        -12    1    1    2    0    0  0.21347565201E+02 -0.20624877568E+02 -0.31662592986E+02  0.43400736276E+02  0.00000000000E+00 0.  1.
         11    1    3    3    0    0 -0.13736436534E+02  0.12313454849E+02  0.15354371017E+02  0.24001407637E+02  0.51100000000E-03 0. -1.
        -11    1    3    3    0    0 -0.44344767775E+00 -0.34566523874E+01  0.40534467498E+01  0.53456077657E+01  0.51100000000E-03 0.  1.
        -12    1    3    3    0    0 -0.71676809892E+01  0.11768075106E+02  0.12254775219E+02  0.18440248321E+02  0.00000000000E+00 0.  1.
</event>
<event>
 7    1  0.7288983E-010  0.4778727E+02  0.7816164E-02  0.1312668E+00
        -11   -1    0    0    0    0  0.00000000000E+00  0.00000000000E+00  0.45593999997E+02  0.45594000000E+02  0.51100000000E-03 0. -1.
         11   -1    0    0    0    0 -0.00000000000E+00 -0.00000000000E+00 -0.45593999997E+02  0.45594000000E+02  0.51100000000E-03 0.  1.
    9900012    2    1    2    0    0 -0.64624428199E+01  0.30245300679E+00 -0.42915831990E+02  0.47787270969E+02  0.19999999655E+02 0.  0.
         12    1    1    2    0    0  0.64624428199E+01 -0.30245300679E+00  0.42915831990E+02  0.43400729031E+02  0.00000000000E+00 0. -1.
         11    1    3    3    0    0  0.38677682990E+01 -0.11646832341E+01 -0.45363713287E+01  0.60741076499E+01  0.51100000000E-03 0. -1.
        -11    1    3    3    0    0 -0.10473503489E+02 -0.26695778355E+01 -0.18662413679E+02  0.21566330372E+02  0.51100000000E-03 0.  1.
        -12    1    3    3    0    0  0.14329236985E+00  0.41367140764E+01 -0.19717046983E+02  0.20146832947E+02  0.00000000000E+00 0.  1.
</event>
<event>
 7    1  0.6622189E-010  0.4778727E+02  0.7816164E-02  0.1312668E+00
        -11   -1    0    0    0    0  0.00000000000E+00  0.00000000000E+00  0.45593999997E+02  0.45594000000E+02  0.51100000000E-03 0. -1.
         11   -1    0    0    0    0 -0.00000000000E+00 -0.00000000000E+00 -0.45593999997E+02  0.45594000000E+02  0.51100000000E-03 0.  1.
    9900012    2    1    2    0    0 -0.39702633258E+02 -0.64844869340E+01 -0.16287285820E+02  0.47787270307E+02  0.19999996640E+02 0.  0.
         12    1    1    2    0    0  0.39702633258E+02  0.64844869340E+01  0.16287285820E+02  0.43400729693E+02  0.00000000000E+00 0. -1.
         11    1    3    3    0    0 -0.33872702960E+01  0.85177786566E+00  0.29862828800E+01  0.45953249386E+01  0.51100000000E-03 0. -1.
        -11    1    3    3    0    0 -0.33398344066E+02 -0.37523495956E+01 -0.18894203148E+02  0.38555420199E+02  0.51100000000E-03 0.  1.
        -12    1    3    3    0    0 -0.29170188966E+01 -0.35839152040E+01 -0.37936555233E+00  0.46365251703E+01  0.00000000000E+00 0.  1.
</event>
<event>
 7    1  0.6622189E-010  0.4778726E+02  0.7816164E-02  0.1312668E+00
        -11   -1    0    0    0    0  0.00000000000E+00  0.00000000000E+00  0.45593999997E+02  0.45594000000E+02  0.51100000000E-03 0. -1.
         11   -1    0    0    0    0 -0.00000000000E+00 -0.00000000000E+00 -0.45593999997E+02  0.45594000000E+02  0.51100000000E-03 0.  1.
    9900012    2    1    2    0    0  0.18241017187E+02 -0.17890272067E+01  0.39340681955E+02  0.47787255962E+02  0.19999931235E+02 0.  0.
        -12    1    1    2    0    0 -0.18241017187E+02  0.17890272067E+01 -0.39340681955E+02  0.43400744038E+02  0.00000000000E+00 0.  1.
         11    1    3    3    0    0  0.29720552311E+00  0.15046667457E+01  0.61376523762E+01  0.63263836503E+01  0.51100000000E-03 0. -1.
        -11    1    3    3    0    0 -0.23576569204E+01 -0.53603867944E+00 -0.32317424130E-01  0.24180422447E+01  0.51100000000E-03 0.  1.
        -12    1    3    3    0    0  0.20301468584E+02 -0.27576552729E+01  0.33235347003E+02  0.39042830067E+02  0.00000000000E+00 0.  1.
</event>
<event>
 7    1  0.6622189E-010  0.4778727E+02  0.7816164E-02  0.1312668E+00
        -11   -1    0    0    0    0  0.00000000000E+00  0.00000000000E+00  0.45593999997E+02  0.45594000000E+02  0.51100000000E-03 0.  1.
         11   -1    0    0    0    0 -0.00000000000E+00 -0.00000000000E+00 -0.45593999997E+02  0.45594000000E+02  0.51100000000E-03 0. -1.
    9900012    2    1    2    0    0  0.23445236637E+02 -0.17426878601E+02 -0.32097478116E+02  0.47787270511E+02  0.19999997568E+02 0.  0.
         12    1    1    2    0    0 -0.23445236637E+02  0.17426878601E+02  0.32097478116E+02  0.43400729489E+02  0.00000000000E+00 0. -1.
         11    1    3    3    0    0  0.51497759932E+01 -0.86474026438E+01 -0.16164019777E+02  0.19041357643E+02  0.51100000000E-03 0. -1.
        -11    1    3    3    0    0  0.12877278093E+02 -0.77725739803E+01 -0.39426649605E+01  0.15549334539E+02  0.51100000000E-03 0.  1.
        -12    1    3    3    0    0  0.54181825508E+01 -0.10069019770E+01 -0.11990793379E+02  0.13196578329E+02  0.00000000000E+00 0.  1.
</event>
<event>
 7    1  0.6622189E-010  0.4778727E+02  0.7816164E-02  0.1312668E+00
        -11   -1    0    0    0    0  0.00000000000E+00  0.00000000000E+00  0.45593999997E+02  0.45594000000E+02  0.51100000000E-03 0. -1.
         11   -1    0    0    0    0 -0.00000000000E+00 -0.00000000000E+00 -0.45593999997E+02  0.45594000000E+02  0.51100000000E-03 0.  1.
    9900012    2    1    2    0    0  0.40563741539E+02  0.68590373245E+01  0.13826045633E+02  0.47787273525E+02  0.20000011312E+02 0.  0.
        -12    1    1    2    0    0 -0.40563741539E+02 -0.68590373245E+01 -0.13826045633E+02  0.43400726475E+02  0.00000000000E+00 0.  1.
         11    1    3    3    0    0  0.58595734484E+01 -0.60985555581E-01  0.38786537531E+01  0.70272523388E+01  0.51100000000E-03 0. -1.
        -11    1    3    3    0    0  0.68934513109E+01  0.48314266474E+01  0.97354628263E+01  0.12870182249E+02  0.51100000000E-03 0.  1.
        -12    1    3    3    0    0  0.27810716780E+02  0.20885962327E+01  0.21192905350E+00  0.27889838937E+02  0.00000000000E+00 0.  1.
</event>
<event>
 7    1  0.7793532E-010  0.4778726E+02  0.7816164E-02  0.1312668E+00
        -11   -1    0    0    0    0  0.00000000000E+00  0.00000000000E+00  0.45593999997E+02  0.45594000000E+02  0.51100000000E-03 0.  1.
         11   -1    0    0    0    0 -0.00000000000E+00 -0.00000000000E+00 -0.45593999997E+02  0.45594000000E+02  0.51100000000E-03 0. -1.
    9900012    2    1    2    0    0  0.32767829360E+02 -0.14418102116E+02 -0.24535928047E+02  0.47787261819E+02  0.19999957935E+02 0.  0.
         12    1    1    2    0    0 -0.32767829360E+02  0.14418102116E+02  0.24535928047E+02  0.43400738181E+02  0.00000000000E+00 0. -1.
         11    1    3    3    0    0  0.49228128551E+01  0.27310842686E+01 -0.93975662445E+01  0.10954777920E+02  0.51100000000E-03 0. -1.
        -11    1    3    3    0    0  0.11528701637E+02 -0.11279092449E+02 -0.58148302146E+01  0.17144711680E+02  0.51100000000E-03 0.  1.
        -12    1    3    3    0    0  0.16316314868E+02 -0.58700939358E+01 -0.93235315878E+01  0.19687772219E+02  0.00000000000E+00 0.  1.
</event>
<event>
 7    1  0.6622189E-010  0.4778728E+02  0.7816164E-02  0.1312668E+00
        -11   -1    0    0    0    0  0.00000000000E+00  0.00000000000E+00  0.45593999997E+02  0.45594000000E+02  0.51100000000E-03 0. -1.
         11   -1    0    0    0    0 -0.00000000000E+00 -0.00000000000E+00 -0.45593999997E+02  0.45594000000E+02  0.51100000000E-03 0.  1.
    9900012    2    1    2    0    0 -0.32592106866E+02 -0.13556031176E+02 -0.25250968837E+02  0.47787276061E+02  0.20000022871E+02 0.  0.
         12    1    1    2    0    0  0.32592106866E+02  0.13556031176E+02  0.25250968837E+02  0.43400723939E+02  0.00000000000E+00 0. -1.
         11    1    3    3    0    0 -0.50938015026E+01  0.31324680530E+01  0.56506229235E+00  0.60065352331E+01  0.51100000000E-03 0. -1.
        -11    1    3    3    0    0 -0.18782800262E+02 -0.89996463566E+01 -0.13358224838E+02  0.24743269616E+02  0.51100000000E-03 0.  1.
         12    1    3    3    0    0 -0.87155051020E+01 -0.76888528724E+01 -0.12457806292E+02  0.17037471211E+02  0.00000000000E+00 0. -1.
</event>
<event>
 7    1  0.6622189E-010  0.4778727E+02  0.7816164E-02  0.1312668E+00
        -11   -1    0    0    0    0  0.00000000000E+00  0.00000000000E+00  0.45593999997E+02  0.45594000000E+02  0.51100000000E-03 0. -1.
         11   -1    0    0    0    0 -0.00000000000E+00 -0.00000000000E+00 -0.45593999997E+02  0.45594000000E+02  0.51100000000E-03 0.  1.
    9900012    2    1    2    0    0  0.12563984101E+02 -0.38020783516E+02  0.16738863879E+02  0.47787271439E+02  0.20000001799E+02 0.  0.
        -12    1    1    2    0    0 -0.12563984101E+02  0.38020783516E+02 -0.16738863879E+02  0.43400728561E+02  0.00000000000E+00 0.  1.
         11    1    3    3    0    0  0.11979649994E+02 -0.39988333339E+02  0.13482105545E+02  0.43867368138E+02  0.51100000000E-03 0. -1.
        -11    1    3    3    0    0  0.31469450930E+00  0.14611355783E+01  0.28449851895E+01  0.32137035959E+01  0.51100000000E-03 0.  1.
         12    1    3    3    0    0  0.26963959827E+00  0.50641424492E+00  0.41177314451E+00  0.70619970472E+00  0.00000000000E+00 0. -1.
</event>
<event>
 7    1  0.6622189E-010  0.4778727E+02  0.7816164E-02  0.1312668E+00
        -11   -1    0    0    0    0  0.00000000000E+00  0.00000000000E+00  0.45593999997E+02  0.45594000000E+02  0.51100000000E-03 0. -1.
         11   -1    0    0    0    0 -0.00000000000E+00 -0.00000000000E+00 -0.45593999997E+02  0.45594000000E+02  0.51100000000E-03 0.  1.
    9900012    2    1    2    0    0  0.99295458695E+01  0.10869261892E+02  0.40827523246E+02  0.47787269711E+02  0.19999993918E+02 0.  0.
        -12    1    1    2    0    0 -0.99295458695E+01 -0.10869261892E+02 -0.40827523246E+02  0.43400730289E+02  0.00000000000E+00 0.  1.
         11    1    3    3    0    0  0.86148599064E+01 -0.17989188597E+01  0.18812332347E+02  0.20769106117E+02  0.51100000000E-03 0. -1.
        -11    1    3    3    0    0 -0.91355272540E+00  0.75826635625E+01  0.50213931267E+01  0.91403366721E+01  0.51100000000E-03 0.  1.
        -12    1    3    3    0    0  0.22282386885E+01  0.50855171890E+01  0.16993797772E+02  0.17877826922E+02  0.00000000000E+00 0.  1.
</event>
<event>
 7    1  0.6622189E-010  0.4778727E+02  0.7816164E-02  0.1312668E+00
        -11   -1    0    0    0    0  0.00000000000E+00  0.00000000000E+00  0.45593999997E+02  0.45594000000E+02  0.51100000000E-03 0. -1.
         11   -1    0    0    0    0 -0.00000000000E+00 -0.00000000000E+00 -0.45593999997E+02  0.45594000000E+02  0.51100000000E-03 0.  1.
    9900012    2    1    2    0    0  0.42175574197E+01 -0.67297877930E+01 -0.42667848355E+02  0.47787272845E+02  0.20000008208E+02 0.  0.
         12    1    1    2    0    0 -0.42175574197E+01  0.67297877930E+01  0.42667848355E+02  0.43400727155E+02  0.00000000000E+00 0. -1.
         11    1    3    3    0    0 -0.20689603855E+01 -0.41784170292E+01 -0.35725942978E+02  0.36028915719E+02  0.51100000000E-03 0.  1.
        -11    1    3    3    0    0  0.25889999686E+01 -0.15716914402E+01  0.79170754525E+00  0.31304849335E+01  0.51100000000E-03 0. -1.
        -12    1    3    3    0    0  0.36975178365E+01 -0.97967932363E+00 -0.77336129222E+01  0.86278721919E+01  0.00000000000E+00 0.  1.
</event>
<event>
 7    1  0.6622189E-010  0.4778727E+02  0.7816164E-02  0.1312668E+00
        -11   -1    0    0    0    0  0.00000000000E+00  0.00000000000E+00  0.45593999997E+02  0.45594000000E+02  0.51100000000E-03 0. -1.
         11   -1    0    0    0    0 -0.00000000000E+00 -0.00000000000E+00 -0.45593999997E+02  0.45594000000E+02  0.51100000000E-03 0.  1.
    9900012    2    1    2    0    0 -0.30356419735E+02 -0.22551781113E+02 -0.21296205776E+02  0.47787269235E+02  0.19999991751E+02 0.  0.
         12    1    1    2    0    0  0.30356419735E+02  0.22551781113E+02  0.21296205776E+02  0.43400730765E+02  0.00000000000E+00 0. -1.
         11    1    3    3    0    0 -0.20330559661E+02 -0.87988307984E+01 -0.41963802055E+01  0.22546855360E+02  0.51100000000E-03 0. -1.
        -11    1    3    3    0    0 -0.41871012424E+01 -0.10718482997E+02 -0.80175239039E+01  0.14024920120E+02  0.51100000000E-03 0.  1.
         12    1    3    3    0    0 -0.58387588315E+01 -0.30344673173E+01 -0.90823016671E+01  0.11215493755E+02  0.00000000000E+00 0. -1.
</event>
<event>
 7    1  0.6622189E-010  0.4778727E+02  0.7816164E-02  0.1312668E+00
        -11   -1    0    0    0    0  0.00000000000E+00  0.00000000000E+00  0.45593999997E+02  0.45594000000E+02  0.51100000000E-03 0. -1.
         11   -1    0    0    0    0 -0.00000000000E+00 -0.00000000000E+00 -0.45593999997E+02  0.45594000000E+02  0.51100000000E-03 0.  1.
    9900012    2    1    2    0    0 -0.90453063583E+01  0.27447995669E+02 -0.32379209356E+02  0.47787271528E+02  0.20000002206E+02 0.  0.
         12    1    1    2    0    0  0.90453063583E+01 -0.27447995669E+02  0.32379209356E+02  0.43400728472E+02  0.00000000000E+00 0. -1.
         11    1    3    3    0    0 -0.18204179067E+01  0.30583964487E+01  0.20609870549E+00  0.35651349385E+01  0.51100000000E-03 0. -1.
        -11    1    3    3    0    0 -0.11240970469E+02  0.22230729138E+02 -0.24502138105E+02  0.34941658619E+02  0.51100000000E-03 0.  1.
        -12    1    3    3    0    0  0.40160820178E+01  0.21588700819E+01 -0.80831699571E+01  0.92804779704E+01  0.00000000000E+00 0.  1.
</event>
<event>
 7    1  0.6622189E-010  0.4778727E+02  0.7816164E-02  0.1312668E+00
        -11   -1    0    0    0    0  0.00000000000E+00  0.00000000000E+00  0.45593999997E+02  0.45594000000E+02  0.51100000000E-03 0. -1.
         11   -1    0    0    0    0 -0.00000000000E+00 -0.00000000000E+00 -0.45593999997E+02  0.45594000000E+02  0.51100000000E-03 0.  1.
    9900012    2    1    2    0    0 -0.19199606043E+02  0.38930563402E+01  0.38727802592E+02  0.47787268976E+02  0.19999990567E+02 0.  0.
        -12    1    1    2    0    0  0.19199606043E+02 -0.38930563402E+01 -0.38727802592E+02  0.43400731024E+02  0.00000000000E+00 0.  1.
         11    1    3    3    0    0 -0.19416825583E+01  0.76433015709E+01  0.46369542736E+01  0.91483077811E+01  0.51100000000E-03 0.  1.
        -11    1    3    3    0    0 -0.14289640959E+02 -0.13472710901E+01  0.26261437339E+02  0.29927780898E+02  0.51100000000E-03 0. -1.
        -12    1    3    3    0    0 -0.29682825254E+01 -0.24029741406E+01  0.78294109792E+01  0.87111802962E+01  0.00000000000E+00 0.  1.
</event>
<event>
 7    1  0.6622189E-010  0.4778727E+02  0.7816164E-02  0.1312668E+00
        -11   -1    0    0    0    0  0.00000000000E+00  0.00000000000E+00  0.45593999997E+02  0.45594000000E+02  0.51100000000E-03 0. -1.
         11   -1    0    0    0    0 -0.00000000000E+00 -0.00000000000E+00 -0.45593999997E+02  0.45594000000E+02  0.51100000000E-03 0.  1.
    9900012    2    1    2    0    0  0.20079806267E+02  0.17727735559E+02 -0.34148968666E+02  0.47787270874E+02  0.19999999221E+02 0.  0.
         12    1    1    2    0    0 -0.20079806267E+02 -0.17727735559E+02  0.34148968666E+02  0.43400729126E+02  0.00000000000E+00 0. -1.
         11    1    3    3    0    0  0.15363746321E+02  0.80021821717E+01 -0.27370918408E+02  0.32392079205E+02  0.51100000000E-03 0. -1.
        -11    1    3    3    0    0  0.45563209871E+01  0.47940849879E+01 -0.79323653057E+01  0.10327910312E+02  0.51100000000E-03 0.  1.
         12    1    3    3    0    0  0.15973895869E+00  0.49314683998E+01  0.11543150475E+01  0.50672813561E+01  0.00000000000E+00 0. -1.
</event>
<event>
 7    1  0.6622189E-010  0.4778727E+02  0.7816164E-02  0.1312668E+00
        -11   -1    0    0    0    0  0.00000000000E+00  0.00000000000E+00  0.45593999997E+02  0.45594000000E+02  0.51100000000E-03 0. -1.
         11   -1    0    0    0    0 -0.00000000000E+00 -0.00000000000E+00 -0.45593999997E+02  0.45594000000E+02  0.51100000000E-03 0.  1.
    9900012    2    1    2    0    0  0.11346572374E+02 -0.38903219672E+02  0.15537633206E+02  0.47787271306E+02  0.20000001192E+02 0.  0.
        -12    1    1    2    0    0 -0.11346572374E+02  0.38903219672E+02 -0.15537633206E+02  0.43400728694E+02  0.00000000000E+00 0.  1.
         11    1    3    3    0    0  0.68374361739E+01 -0.29714205643E+02  0.15393522588E+02  0.34156186678E+02  0.51100000000E-03 0. -1.
        -11    1    3    3    0    0  0.46857439780E+01 -0.47663258039E+01 -0.38120586169E+01  0.76945337387E+01  0.51100000000E-03 0.  1.
         12    1    3    3    0    0 -0.17660777783E+00 -0.44226882251E+01  0.39561692348E+01  0.59365508890E+01  0.00000000000E+00 0. -1.
</event>
<event>
 7    1  0.6622189E-010  0.4778727E+02  0.7816164E-02  0.1312668E+00
        -11   -1    0    0    0    0  0.00000000000E+00  0.00000000000E+00  0.45593999997E+02  0.45594000000E+02  0.51100000000E-03 0. -1.
         11   -1    0    0    0    0 -0.00000000000E+00 -0.00000000000E+00 -0.45593999997E+02  0.45594000000E+02  0.51100000000E-03 0.  1.
    9900012    2    1    2    0    0  0.17190481205E+02 -0.11740117404E+02  0.38082545199E+02  0.47787271325E+02  0.20000001279E+02 0.  0.
        -12    1    1    2    0    0 -0.17190481205E+02  0.11740117404E+02 -0.38082545199E+02  0.43400728675E+02  0.00000000000E+00 0.  1.
         11    1    3    3    0    0  0.18462127009E+02 -0.42706703098E+01  0.25328570655E+02  0.31632661131E+02  0.51100000000E-03 0. -1.
        -11    1    3    3    0    0 -0.31938082015E+01 -0.23315872421E+01  0.29987022962E+01  0.49627538341E+01  0.51100000000E-03 0.  1.
        -12    1    3    3    0    0  0.19221623975E+01 -0.51378598524E+01  0.97552722477E+01  0.11191856359E+02  0.00000000000E+00 0.  1.
</event>
<event>
 7    1  0.6622189E-010  0.4778727E+02  0.7816164E-02  0.1312668E+00
        -11   -1    0    0    0    0  0.00000000000E+00  0.00000000000E+00  0.45593999997E+02  0.45594000000E+02  0.51100000000E-03 0.  1.
         11   -1    0    0    0    0 -0.00000000000E+00 -0.00000000000E+00 -0.45593999997E+02  0.45594000000E+02  0.51100000000E-03 0. -1.
    9900012    2    1    2    0    0  0.21540308679E+02 -0.20866229461E+02  0.31372580396E+02  0.47787271543E+02  0.20000002274E+02 0.  0.
        -12    1    1    2    0    0 -0.21540308679E+02  0.20866229461E+02 -0.31372580396E+02  0.43400728457E+02  0.00000000000E+00 0.  1.
         11    1    3    3    0    0  0.56508468337E+01 -0.10166880051E+02  0.18538141283E+01  0.11778546048E+02  0.51100000000E-03 0. -1.
        -11    1    3    3    0    0  0.39573550274E+01 -0.57136996566E+01  0.15206180357E+02  0.16719298546E+02  0.51100000000E-03 0.  1.
         12    1    3    3    0    0  0.11932106818E+02 -0.49856497531E+01  0.14312585911E+02  0.19289426949E+02  0.00000000000E+00 0. -1.
</event>
<event>
 7    1  0.6622189E-010  0.4778727E+02  0.7816164E-02  0.1312668E+00
        -11   -1    0    0    0    0  0.00000000000E+00  0.00000000000E+00  0.45593999997E+02  0.45594000000E+02  0.51100000000E-03 0. -1.
         11   -1    0    0    0    0 -0.00000000000E+00 -0.00000000000E+00 -0.45593999997E+02  0.45594000000E+02  0.51100000000E-03 0.  1.
    9900012    2    1    2    0    0 -0.26116489039E+02 -0.24813218871E+02  0.24204471922E+02  0.47787270841E+02  0.19999999075E+02 0.  0.
        -12    1    1    2    0    0  0.26116489039E+02  0.24813218871E+02 -0.24204471922E+02  0.43400729159E+02  0.00000000000E+00 0.  1.
         11    1    3    3    0    0 -0.87344947022E+01 -0.84362980358E+00  0.15741484738E+00  0.87765533465E+01  0.51100000000E-03 0. -1.
        -11    1    3    3    0    0  0.44370361628E+00 -0.29234717789E+01  0.11811397528E+01  0.31841249218E+01  0.51100000000E-03 0.  1.
         12    1    3    3    0    0 -0.17825697953E+02 -0.21046117288E+02  0.22865917322E+02  0.35826592573E+02  0.00000000000E+00 0. -1.
</event>
<event>
 7    1  0.6622189E-010  0.4778727E+02  0.7816164E-02  0.1312668E+00
        -11   -1    0    0    0    0  0.00000000000E+00  0.00000000000E+00  0.45593999997E+02  0.45594000000E+02  0.51100000000E-03 0. -1.
         11   -1    0    0    0    0 -0.00000000000E+00 -0.00000000000E+00 -0.45593999997E+02  0.45594000000E+02  0.51100000000E-03 0.  1.
    9900012    2    1    2    0    0 -0.42755609012E+02  0.19630421573E+01 -0.71921892809E+01  0.47787271629E+02  0.20000002663E+02 0.  0.
         12    1    1    2    0    0  0.42755609012E+02 -0.19630421573E+01  0.71921892809E+01  0.43400728371E+02  0.00000000000E+00 0. -1.
         11    1    3    3    0    0  0.10452308758E+00  0.13978510306E+01  0.15804467552E+01  0.21125162216E+01  0.51100000000E-03 0. -1.
        -11    1    3    3    0    0 -0.32215982162E+02  0.16962387261E+01 -0.70057328292E+00  0.32268212464E+02  0.51100000000E-03 0.  1.
        -12    1    3    3    0    0 -0.10644149938E+02 -0.11310475993E+01 -0.80720627532E+01  0.13406542943E+02  0.00000000000E+00 0.  1.
</event>
<event>
 7    1  0.6622189E-010  0.4778727E+02  0.7816164E-02  0.1312668E+00
        -11   -1    0    0    0    0  0.00000000000E+00  0.00000000000E+00  0.45593999997E+02  0.45594000000E+02  0.51100000000E-03 0. -1.
         11   -1    0    0    0    0 -0.00000000000E+00 -0.00000000000E+00 -0.45593999997E+02  0.45594000000E+02  0.51100000000E-03 0.  1.
    9900012    2    1    2    0    0  0.41500863930E+01 -0.30548891369E+02 -0.30547757316E+02  0.47787268923E+02  0.19999990327E+02 0.  0.
         12    1    1    2    0    0 -0.41500863930E+01  0.30548891369E+02  0.30547757316E+02  0.43400731077E+02  0.00000000000E+00 0. -1.
         11    1    3    3    0    0 -0.14471978517E+01 -0.14012955581E+01 -0.39732667741E+01  0.44547570060E+01  0.51100000000E-03 0. -1.
        -11    1    3    3    0    0 -0.70187020432E+00 -0.27751263234E+02 -0.21053158194E+02  0.34840503771E+02  0.51100000000E-03 0.  1.
        -12    1    3    3    0    0  0.62991544491E+01 -0.13963325776E+01 -0.55213323488E+01  0.84920081457E+01  0.00000000000E+00 0.  1.
</event>
<event>
 7    1  0.6622189E-010  0.4778728E+02  0.7816164E-02  0.1312668E+00
        -11   -1    0    0    0    0  0.00000000000E+00  0.00000000000E+00  0.45593999997E+02  0.45594000000E+02  0.51100000000E-03 0. -1.
         11   -1    0    0    0    0 -0.00000000000E+00 -0.00000000000E+00 -0.45593999997E+02  0.45594000000E+02  0.51100000000E-03 0.  1.
    9900012    2    1    2    0    0  0.73995545646E+00  0.38035932942E+02  0.20888822379E+02  0.47787278471E+02  0.20000033861E+02 0.  0.
        -12    1    1    2    0    0 -0.73995545646E+00 -0.38035932942E+02 -0.20888822379E+02  0.43400721529E+02  0.00000000000E+00 0.  1.
         11    1    3    3    0    0  0.39576249905E+01  0.15415342189E+02  0.63198474534E+01  0.17124136255E+02  0.51100000000E-03 0. -1.
        -11    1    3    3    0    0 -0.38832374014E+01  0.10321733318E+02  0.14661374058E+02  0.18345942356E+02  0.51100000000E-03 0.  1.
        -12    1    3    3    0    0  0.66556786727E+00  0.12298857435E+02 -0.92399132990E-01  0.12317199860E+02  0.00000000000E+00 0.  1.
</event>
<event>
 7    1  0.6622189E-010  0.4778727E+02  0.7816164E-02  0.1312668E+00
        -11   -1    0    0    0    0  0.00000000000E+00  0.00000000000E+00  0.45593999997E+02  0.45594000000E+02  0.51100000000E-03 0. -1.
         11   -1    0    0    0    0 -0.00000000000E+00 -0.00000000000E+00 -0.45593999997E+02  0.45594000000E+02  0.51100000000E-03 0.  1.
    9900012    2    1    2    0    0 -0.14885266154E+02  0.74094173304E+01  0.40089308161E+02  0.47787271406E+02  0.20000001649E+02 0.  0.
        -12    1    1    2    0    0  0.14885266154E+02 -0.74094173304E+01 -0.40089308161E+02  0.43400728594E+02  0.00000000000E+00 0.  1.
         11    1    3    3    0    0 -0.95449961515E+01  0.79817534473E+00  0.24920291558E+02  0.26697658456E+02  0.51100000000E-03 0. -1.
        -11    1    3    3    0    0 -0.58788075975E-01 -0.17196715501E+01  0.96185142107E+01  0.97712098616E+01  0.51100000000E-03 0.  1.
         12    1    3    3    0    0 -0.52814819263E+01  0.83309135357E+01  0.55505023923E+01  0.11318403089E+02  0.00000000000E+00 0. -1.
</event>
<event>
 7    1  0.6622189E-010  0.4778727E+02  0.7816164E-02  0.1312668E+00
        -11   -1    0    0    0    0  0.00000000000E+00  0.00000000000E+00  0.45593999997E+02  0.45594000000E+02  0.51100000000E-03 0. -1.
         11   -1    0    0    0    0 -0.00000000000E+00 -0.00000000000E+00 -0.45593999997E+02  0.45594000000E+02  0.51100000000E-03 0.  1.
    9900012    2    1    2    0    0 -0.85342429796E+01 -0.30710587647E+01 -0.42442412336E+02  0.47787273392E+02  0.20000010705E+02 0.  0.
         12    1    1    2    0    0  0.85342429796E+01  0.30710587647E+01  0.42442412336E+02  0.43400726608E+02  0.00000000000E+00 0. -1.
         11    1    3    3    0    0 -0.27126043333E+01 -0.21840280116E+01 -0.88591416710E+01  0.95190646617E+01  0.51100000000E-03 0. -1.
        -11    1    3    3    0    0 -0.10122090241E+02  0.47717701106E+01 -0.21884752886E+02  0.24579847640E+02  0.51100000000E-03 0.  1.
        -12    1    3    3    0    0  0.43004515947E+01 -0.56588008637E+01 -0.11698517779E+02  0.13688361091E+02  0.00000000000E+00 0.  1.
</event>
<event>
 7    1  0.6622189E-010  0.4778727E+02  0.7816164E-02  0.1312668E+00
        -11   -1    0    0    0    0  0.00000000000E+00  0.00000000000E+00  0.45593999997E+02  0.45594000000E+02  0.51100000000E-03 0.  1.
         11   -1    0    0    0    0 -0.00000000000E+00 -0.00000000000E+00 -0.45593999997E+02  0.45594000000E+02  0.51100000000E-03 0. -1.
    9900012    2    1    2    0    0  0.32877292643E+02  0.27425943061E+02  0.71080738009E+01  0.47787269160E+02  0.19999991408E+02 0.  0.
         12    1    1    2    0    0 -0.32877292643E+02 -0.27425943061E+02 -0.71080738009E+01  0.43400730840E+02  0.00000000000E+00 0. -1.
         11    1    3    3    0    0  0.85409051876E+01 -0.26522879697E+00  0.50242490052E+01  0.99126427387E+01  0.51100000000E-03 0. -1.
        -11    1    3    3    0    0  0.12369538477E+02  0.17451192634E+02  0.47214511680E+01  0.21905289496E+02  0.51100000000E-03 0.  1.
         12    1    3    3    0    0  0.11966848978E+02  0.10239979223E+02 -0.26376263722E+01  0.15969336925E+02  0.00000000000E+00 0. -1.
</event>
<event>
 7    1  0.6622189E-010  0.4778727E+02  0.7816164E-02  0.1312668E+00
        -11   -1    0    0    0    0  0.00000000000E+00  0.00000000000E+00  0.45593999997E+02  0.45594000000E+02  0.51100000000E-03 0. -1.
         11   -1    0    0    0    0 -0.00000000000E+00 -0.00000000000E+00 -0.45593999997E+02  0.45594000000E+02  0.51100000000E-03 0.  1.
    9900012    2    1    2    0    0  0.10262688029E+02  0.19888744041E+02  0.37185188348E+02  0.47787272615E+02  0.20000007159E+02 0.  0.
        -12    1    1    2    0    0 -0.10262688029E+02 -0.19888744041E+02 -0.37185188348E+02  0.43400727385E+02  0.00000000000E+00 0.  1.
         11    1    3    3    0    0 -0.87005742234E+00  0.11219163515E+02  0.12440804280E+02  0.16774988563E+02  0.51100000000E-03 0. -1.
        -11    1    3    3    0    0  0.12856621235E+02  0.37553850449E+01  0.16376788651E+02  0.21156437157E+02  0.51100000000E-03 0.  1.
        -12    1    3    3    0    0 -0.17238757833E+01  0.49141954812E+01  0.83675954167E+01  0.98558468941E+01  0.00000000000E+00 0.  1.
</event>
<event>
 7    1  0.6622189E-010  0.4778727E+02  0.7816164E-02  0.1312668E+00
        -11   -1    0    0    0    0  0.00000000000E+00  0.00000000000E+00  0.45593999997E+02  0.45594000000E+02  0.51100000000E-03 0.  1.
         11   -1    0    0    0    0 -0.00000000000E+00 -0.00000000000E+00 -0.45593999997E+02  0.45594000000E+02  0.51100000000E-03 0. -1.
    9900012    2    1    2    0    0  0.14320115194E+02  0.40902619347E+02  0.23522903832E+01  0.47787271450E+02  0.20000001849E+02 0.  0.
        -12    1    1    2    0    0 -0.14320115194E+02 -0.40902619347E+02 -0.23522903832E+01  0.43400728550E+02  0.00000000000E+00 0.  1.
         11    1    3    3    0    0  0.27801511238E+01 -0.18573804141E+00 -0.11230011807E+01  0.30041422743E+01  0.51100000000E-03 0. -1.
        -11    1    3    3    0    0  0.13231616837E+02  0.37410241141E+02  0.37352119520E+00  0.39683010782E+02  0.51100000000E-03 0.  1.
        -12    1    3    3    0    0 -0.16916527669E+01  0.36781162472E+01  0.31017703688E+01  0.51001183939E+01  0.00000000000E+00 0.  1.
</event>
<event>
 7    1  0.7841648E-010  0.4778727E+02  0.7816164E-02  0.1312668E+00
        -11   -1    0    0    0    0  0.00000000000E+00  0.00000000000E+00  0.45593999997E+02  0.45594000000E+02  0.51100000000E-03 0. -1.
         11   -1    0    0    0    0 -0.00000000000E+00 -0.00000000000E+00 -0.45593999997E+02  0.45594000000E+02  0.51100000000E-03 0.  1.
    9900012    2    1    2    0    0 -0.24276107112E+02  0.66157460121E+01 -0.35362779063E+02  0.47787267116E+02  0.19999982090E+02 0.  0.
         12    1    1    2    0    0  0.24276107112E+02 -0.66157460121E+01  0.35362779063E+02  0.43400732884E+02  0.00000000000E+00 0. -1.
         11    1    3    3    0    0 -0.67989281923E+01 -0.31947983880E+01 -0.11867962151E+01  0.76053038612E+01  0.51100000000E-03 0. -1.
        -11    1    3    3    0    0 -0.55653834712E+01  0.58878417338E+01 -0.17786147132E+02  0.19544492920E+02  0.51100000000E-03 0.  1.
        -12    1    3    3    0    0 -0.11911795449E+02  0.39227026663E+01 -0.16389835716E+02  0.20637470335E+02  0.00000000000E+00 0.  1.
</event>
<event>
 7    1  0.6622189E-010  0.4778727E+02  0.7816164E-02  0.1312668E+00
        -11   -1    0    0    0    0  0.00000000000E+00  0.00000000000E+00  0.45593999997E+02  0.45594000000E+02  0.51100000000E-03 0. -1.
         11   -1    0    0    0    0 -0.00000000000E+00 -0.00000000000E+00 -0.45593999997E+02  0.45594000000E+02  0.51100000000E-03 0.  1.
    9900012    2    1    2    0    0  0.22147347614E+01 -0.22938668888E+02 -0.36776838065E+02  0.47787269609E+02  0.19999993455E+02 0.  0.
         12    1    1    2    0    0 -0.22147347614E+01  0.22938668888E+02  0.36776838065E+02  0.43400730391E+02  0.00000000000E+00 0. -1.
         11    1    3    3    0    0  0.29241138058E+01 -0.16179350098E+02 -0.20398323067E+02  0.26199492273E+02  0.51100000000E-03 0. -1.
        -11    1    3    3    0    0 -0.25536497881E+01 -0.43621221464E+00 -0.14512582548E+02  0.14741996501E+02  0.51100000000E-03 0.  1.
        -12    1    3    3    0    0  0.18442707436E+01 -0.63231065759E+01 -0.18659324491E+01  0.68457808357E+01  0.00000000000E+00 0.  1.
</event>
<event>
 7    1  0.6622189E-010  0.4778727E+02  0.7816164E-02  0.1312668E+00
        -11   -1    0    0    0    0  0.00000000000E+00  0.00000000000E+00  0.45593999997E+02  0.45594000000E+02  0.51100000000E-03 0. -1.
         11   -1    0    0    0    0 -0.00000000000E+00 -0.00000000000E+00 -0.45593999997E+02  0.45594000000E+02  0.51100000000E-03 0.  1.
    9900012    2    1    2    0    0  0.26225383949E+02  0.52444631263E+01 -0.34181105526E+02  0.47787272682E+02  0.20000007467E+02 0.  0.
         12    1    1    2    0    0 -0.26225383949E+02 -0.52444631263E+01  0.34181105526E+02  0.43400727318E+02  0.00000000000E+00 0. -1.
         11    1    3    3    0    0  0.66407829789E+01  0.67547652578E+01 -0.34874915870E+01  0.10094030419E+02  0.51100000000E-03 0. -1.
        -11    1    3    3    0    0  0.12604112029E+02 -0.55890883856E+01 -0.19782592317E+02  0.24113326358E+02  0.51100000000E-03 0.  1.
         12    1    3    3    0    0  0.69804889409E+01  0.40787862541E+01 -0.10911021622E+02  0.13579915905E+02  0.00000000000E+00 0. -1.
</event>
<event>
 7    1  0.6622189E-010  0.4778728E+02  0.7816164E-02  0.1312668E+00
        -11   -1    0    0    0    0  0.00000000000E+00  0.00000000000E+00  0.45593999997E+02  0.45594000000E+02  0.51100000000E-03 0. -1.
         11   -1    0    0    0    0 -0.00000000000E+00 -0.00000000000E+00 -0.45593999997E+02  0.45594000000E+02  0.51100000000E-03 0.  1.
    9900012    2    1    2    0    0 -0.38518925566E+02  0.85848706704E+01  0.18061429512E+02  0.47787275730E+02  0.20000021361E+02 0.  0.
        -12    1    1    2    0    0  0.38518925566E+02 -0.85848706704E+01 -0.18061429512E+02  0.43400724270E+02  0.00000000000E+00 0.  1.
         11    1    3    3    0    0 -0.11939160268E+02 -0.54075476873E+01  0.23879046105E+01  0.13322432532E+02  0.51100000000E-03 0. -1.
        -11    1    3    3    0    0 -0.19852524572E+02  0.91138065349E+01  0.14120296131E+02  0.26010900879E+02  0.51100000000E-03 0.  1.
         12    1    3    3    0    0 -0.67272407263E+01  0.48786118228E+01  0.15532287699E+01  0.84539423182E+01  0.00000000000E+00 0. -1.
</event>
<event>
 7    1  0.6622189E-010  0.4778726E+02  0.7816164E-02  0.1312668E+00
        -11   -1    0    0    0    0  0.00000000000E+00  0.00000000000E+00  0.45593999997E+02  0.45594000000E+02  0.51100000000E-03 0. -1.
         11   -1    0    0    0    0 -0.00000000000E+00 -0.00000000000E+00 -0.45593999997E+02  0.45594000000E+02  0.51100000000E-03 0.  1.
    9900012    2    1    2    0    0  0.29729739837E+02  0.31249806847E+02  0.48182942563E+01  0.47787264772E+02  0.19999971401E+02 0.  0.
        -12    1    1    2    0    0 -0.29729739837E+02 -0.31249806847E+02 -0.48182942563E+01  0.43400735228E+02  0.00000000000E+00 0.  1.
         11    1    3    3    0    0  0.15379199895E+02  0.22916854561E+02  0.60683604003E+01  0.28258220230E+02  0.51100000000E-03 0. -1.
        -11    1    3    3    0    0  0.64378394149E+01 -0.22438649721E+00  0.30225071318E+01  0.71155938090E+01  0.51100000000E-03 0.  1.
        -12    1    3    3    0    0  0.79127005270E+01  0.85573387842E+01 -0.42725732758E+01  0.12413450733E+02  0.00000000000E+00 0.  1.
</event>
<event>
 7    1  0.6622189E-010  0.4778727E+02  0.7816164E-02  0.1312668E+00
        -11   -1    0    0    0    0  0.00000000000E+00  0.00000000000E+00  0.45593999997E+02  0.45594000000E+02  0.51100000000E-03 0. -1.
         11   -1    0    0    0    0 -0.00000000000E+00 -0.00000000000E+00 -0.45593999997E+02  0.45594000000E+02  0.51100000000E-03 0.  1.
    9900012    2    1    2    0    0  0.13321077113E+02 -0.27757021859E+02 -0.30589538711E+02  0.47787271475E+02  0.20000001964E+02 0.  0.
         12    1    1    2    0    0 -0.13321077113E+02  0.27757021859E+02  0.30589538711E+02  0.43400728525E+02  0.00000000000E+00 0. -1.
         11    1    3    3    0    0 -0.28777308228E+01  0.54366478545E+00 -0.22322055805E+01  0.36823427465E+01  0.51100000000E-03 0. -1.
        -11    1    3    3    0    0  0.11025723831E+02 -0.25577465146E+02 -0.24554567187E+02  0.37130850776E+02  0.51100000000E-03 0.  1.
         12    1    3    3    0    0  0.51730841041E+01 -0.27232214980E+01 -0.38027659433E+01  0.69740779530E+01  0.00000000000E+00 0. -1.
</event>
<event>
 7    1  0.6622189E-010  0.4778727E+02  0.7816164E-02  0.1312668E+00
        -11   -1    0    0    0    0  0.00000000000E+00  0.00000000000E+00  0.45593999997E+02  0.45594000000E+02  0.51100000000E-03 0.  1.
         11   -1    0    0    0    0 -0.00000000000E+00 -0.00000000000E+00 -0.45593999997E+02  0.45594000000E+02  0.51100000000E-03 0. -1.
    9900012    2    1    2    0    0  0.36046678228E+02 -0.14325964228E+02 -0.19468617663E+02  0.47787270329E+02  0.19999996737E+02 0.  0.
         12    1    1    2    0    0 -0.36046678228E+02  0.14325964228E+02  0.19468617663E+02  0.43400729671E+02  0.00000000000E+00 0. -1.
         11    1    3    3    0    0 -0.76258727558E+00  0.10723490421E+00  0.44038109903E-01  0.77134836086E+00  0.51100000000E-03 0. -1.
        -11    1    3    3    0    0  0.57495129330E+01 -0.97709017704E+01 -0.43930090687E+01  0.12158369517E+02  0.51100000000E-03 0.  1.
        -12    1    3    3    0    0  0.31059752570E+02 -0.46622973617E+01 -0.15119646704E+02  0.34857552451E+02  0.00000000000E+00 0.  1.
</event>
<event>
 7    1  0.6622189E-010  0.4778727E+02  0.7816164E-02  0.1312668E+00
        -11   -1    0    0    0    0  0.00000000000E+00  0.00000000000E+00  0.45593999997E+02  0.45594000000E+02  0.51100000000E-03 0. -1.
         11   -1    0    0    0    0 -0.00000000000E+00 -0.00000000000E+00 -0.45593999997E+02  0.45594000000E+02  0.51100000000E-03 0.  1.
    9900012    2    1    2    0    0  0.82678684902E+01 -0.22622067276E+02 -0.36104128873E+02  0.47787266148E+02  0.19999977675E+02 0.  0.
         12    1    1    2    0    0 -0.82678684902E+01  0.22622067276E+02  0.36104128873E+02  0.43400733852E+02  0.00000000000E+00 0. -1.
         11    1    3    3    0    0 -0.55085199061E+01 -0.21851557705E+01 -0.48599669991E+01  0.76640705105E+01  0.51100000000E-03 0.  1.
        -11    1    3    3    0    0  0.13065319019E+02 -0.16588805235E+02 -0.27798721944E+02  0.34909310538E+02  0.51100000000E-03 0. -1.
        -12    1    3    3    0    0  0.71106937685E+00 -0.38481062703E+01 -0.34454399297E+01  0.52138851000E+01  0.00000000000E+00 0.  1.
</event>
<event>
 7    1  0.6622189E-010  0.4778727E+02  0.7816164E-02  0.1312668E+00
        -11   -1    0    0    0    0  0.00000000000E+00  0.00000000000E+00  0.45593999997E+02  0.45594000000E+02  0.51100000000E-03 0.  1.
         11   -1    0    0    0    0 -0.00000000000E+00 -0.00000000000E+00 -0.45593999997E+02  0.45594000000E+02  0.51100000000E-03 0. -1.
    9900012    2    1    2    0    0 -0.36174836290E+02 -0.81924178812E+01 -0.22536385989E+02  0.47787272071E+02  0.20000004680E+02 0.  0.
         12    1    1    2    0    0  0.36174836290E+02  0.81924178812E+01  0.22536385989E+02  0.43400727929E+02  0.00000000000E+00 0. -1.
         11    1    3    3    0    0 -0.29203924289E+02  0.15402940332E+01 -0.16191957243E+02  0.33427850353E+02  0.51100000000E-03 0. -1.
        -11    1    3    3    0    0 -0.34962354973E+01 -0.79303491767E+01 -0.28818861538E+01  0.91334204316E+01  0.51100000000E-03 0.  1.
         12    1    3    3    0    0 -0.34746765031E+01 -0.18023627377E+01 -0.34625425921E+01  0.52260012860E+01  0.00000000000E+00 0. -1.
</event>
<event>
 7    1  0.6622189E-010  0.4778727E+02  0.7816164E-02  0.1312668E+00
        -11   -1    0    0    0    0  0.00000000000E+00  0.00000000000E+00  0.45593999997E+02  0.45594000000E+02  0.51100000000E-03 0. -1.
         11   -1    0    0    0    0 -0.00000000000E+00 -0.00000000000E+00 -0.45593999997E+02  0.45594000000E+02  0.51100000000E-03 0.  1.
    9900012    2    1    2    0    0 -0.17685545932E+01  0.30356167923E+02  0.30967700497E+02  0.47787272006E+02  0.20000004385E+02 0.  0.
        -12    1    1    2    0    0  0.17685545932E+01 -0.30356167923E+02 -0.30967700497E+02  0.43400727994E+02  0.00000000000E+00 0.  1.
         11    1    3    3    0    0 -0.11201076451E+00  0.15861044930E+02  0.23030378919E+02  0.27963970500E+02  0.51100000000E-03 0. -1.
        -11    1    3    3    0    0  0.12925836577E+01  0.59955420876E+01 -0.19687999313E+01  0.64415425844E+01  0.51100000000E-03 0.  1.
        -12    1    3    3    0    0 -0.29491274863E+01  0.84995809052E+01  0.99061215091E+01  0.13381758922E+02  0.00000000000E+00 0.  1.
</event>
<event>
 7    1  0.6622189E-010  0.4778726E+02  0.7816164E-02  0.1312668E+00
        -11   -1    0    0    0    0  0.00000000000E+00  0.00000000000E+00  0.45593999997E+02  0.45594000000E+02  0.51100000000E-03 0. -1.
         11   -1    0    0    0    0 -0.00000000000E+00 -0.00000000000E+00 -0.45593999997E+02  0.45594000000E+02  0.51100000000E-03 0.  1.
    9900012    2    1    2    0    0 -0.28395903063E+02 -0.18298263470E+02  0.27248307724E+02  0.47787262327E+02  0.19999960254E+02 0.  0.
        -12    1    1    2    0    0  0.28395903063E+02  0.18298263470E+02 -0.27248307724E+02  0.43400737673E+02  0.00000000000E+00 0.  1.
         11    1    3    3    0    0 -0.15732431325E+01 -0.16203328109E+01 -0.25201452057E+01  0.33840367154E+01  0.51100000000E-03 0. -1.
        -11    1    3    3    0    0 -0.67745815310E+01 -0.46635836298E+01  0.27359473718E+01  0.86677203159E+01  0.51100000000E-03 0.  1.
         12    1    3    3    0    0 -0.20048078399E+02 -0.12014347029E+02  0.27032505558E+02  0.35735505296E+02  0.00000000000E+00 0. -1.
</event>
<event>
 7    1  0.6622189E-010  0.4778727E+02  0.7816164E-02  0.1312668E+00
        -11   -1    0    0    0    0  0.00000000000E+00  0.00000000000E+00  0.45593999997E+02  0.45594000000E+02  0.51100000000E-03 0.  1.
         11   -1    0    0    0    0 -0.00000000000E+00 -0.00000000000E+00 -0.45593999997E+02  0.45594000000E+02  0.51100000000E-03 0. -1.
    9900012    2    1    2    0    0 -0.24719629267E+02  0.33338583209E+02 -0.12692604305E+02  0.47787269528E+02  0.19999993087E+02 0.  0.
         12    1    1    2    0    0  0.24719629267E+02 -0.33338583209E+02  0.12692604305E+02  0.43400730472E+02  0.00000000000E+00 0. -1.
         11    1    3    3    0    0 -0.25427581397E+00  0.17237679580E+01  0.21875887680E+00  0.17561001879E+01  0.51100000000E-03 0. -1.
        -11    1    3    3    0    0 -0.40405257576E+01  0.66304671682E+01  0.48902061375E+01  0.91762225123E+01  0.51100000000E-03 0.  1.
        -12    1    3    3    0    0 -0.20424827695E+02  0.24984348082E+02 -0.17801569319E+02  0.36854946828E+02  0.00000000000E+00 0.  1.
</event>
<event>
 7    1  0.6622189E-010  0.4778727E+02  0.7816164E-02  0.1312668E+00
        -11   -1    0    0    0    0  0.00000000000E+00  0.00000000000E+00  0.45593999997E+02  0.45594000000E+02  0.51100000000E-03 0. -1.
         11   -1    0    0    0    0 -0.00000000000E+00 -0.00000000000E+00 -0.45593999997E+02  0.45594000000E+02  0.51100000000E-03 0.  1.
    9900012    2    1    2    0    0  0.51976184639E+01 -0.15163182929E+02  0.40332193755E+02  0.47787271811E+02  0.20000003496E+02 0.  0.
        -12    1    1    2    0    0 -0.51976184639E+01  0.15163182929E+02 -0.40332193755E+02  0.43400728189E+02  0.00000000000E+00 0.  1.
         11    1    3    3    0    0 -0.20191489573E+01 -0.82333843689E+01  0.16440754943E+02  0.18497675639E+02  0.51100000000E-03 0. -1.
        -11    1    3    3    0    0  0.85504205466E+01 -0.65433600472E+01  0.81923471127E+01  0.13529220366E+02  0.51100000000E-03 0.  1.
        -12    1    3    3    0    0 -0.13336531254E+01 -0.38643851283E+00  0.15699091699E+02  0.15760375807E+02  0.00000000000E+00 0.  1.
</event>
<event>
 7    1  0.7977104E-010  0.4778726E+02  0.7816164E-02  0.1312668E+00
        -11   -1    0    0    0    0  0.00000000000E+00  0.00000000000E+00  0.45593999997E+02  0.45594000000E+02  0.51100000000E-03 0. -1.
         11   -1    0    0    0    0 -0.00000000000E+00 -0.00000000000E+00 -0.45593999997E+02  0.45594000000E+02  0.51100000000E-03 0.  1.
    9900012    2    1    2    0    0  0.24059569844E+02 -0.18000095610E+02 -0.31317049657E+02  0.47787263344E+02  0.19999964891E+02 0.  0.
         12    1    1    2    0    0 -0.24059569844E+02  0.18000095610E+02  0.31317049657E+02  0.43400736656E+02  0.00000000000E+00 0. -1.
         11    1    3    3    0    0  0.72514032512E+01 -0.18951978238E+01 -0.85180337215E+00  0.75432216691E+01  0.51100000000E-03 0. -1.
        -11    1    3    3    0    0  0.50340008507E+01 -0.11751844584E+02 -0.20742859621E+02  0.24366231576E+02  0.51100000000E-03 0.  1.
        -12    1    3    3    0    0  0.11774165742E+02 -0.43530532016E+01 -0.97223866644E+01  0.15877810099E+02  0.00000000000E+00 0.  1.
</event>
<event>
 7    1  0.6622189E-010  0.4778727E+02  0.7816164E-02  0.1312668E+00
        -11   -1    0    0    0    0  0.00000000000E+00  0.00000000000E+00  0.45593999997E+02  0.45594000000E+02  0.51100000000E-03 0. -1.
         11   -1    0    0    0    0 -0.00000000000E+00 -0.00000000000E+00 -0.45593999997E+02  0.45594000000E+02  0.51100000000E-03 0.  1.
    9900012    2    1    2    0    0 -0.41164264992E+02  0.70203877331E+01  0.11825422959E+02  0.47787272075E+02  0.20000004699E+02 0.  0.
        -12    1    1    2    0    0  0.41164264992E+02 -0.70203877331E+01 -0.11825422959E+02  0.43400727925E+02  0.00000000000E+00 0.  1.
         11    1    3    3    0    0 -0.28673449952E+02  0.10840235141E+02  0.31488580172E+01  0.30815462630E+02  0.51100000000E-03 0. -1.
        -11    1    3    3    0    0 -0.59183858387E+00 -0.23701701462E+01  0.24672563649E+01  0.34720791556E+01  0.51100000000E-03 0.  1.
         12    1    3    3    0    0 -0.11898976457E+02 -0.14496772617E+01  0.62093085767E+01  0.13499730289E+02  0.00000000000E+00 0. -1.
</event>
<event>
 7    1  0.6622189E-010  0.4778725E+02  0.7816164E-02  0.1312668E+00
        -11   -1    0    0    0    0  0.00000000000E+00  0.00000000000E+00  0.45593999997E+02  0.45594000000E+02  0.51100000000E-03 0.  1.
         11   -1    0    0    0    0 -0.00000000000E+00 -0.00000000000E+00 -0.45593999997E+02  0.45594000000E+02  0.51100000000E-03 0. -1.
    9900012    2    1    2    0    0  0.42262669216E+02 -0.73927957152E+01  0.65451205563E+01  0.47787248384E+02  0.19999896683E+02 0.  0.
        -12    1    1    2    0    0 -0.42262669216E+02  0.73927957152E+01 -0.65451205563E+01  0.43400751616E+02  0.00000000000E+00 0.  1.
         11    1    3    3    0    0  0.27484692203E+02 -0.18801581025E+01  0.88206950033E+01  0.28926596077E+02  0.51100000000E-03 0. -1.
        -11    1    3    3    0    0  0.48782123889E+01 -0.71795176431E+01 -0.86682047751E+00  0.87231764685E+01  0.51100000000E-03 0.  1.
         12    1    3    3    0    0  0.98997646233E+01  0.16668800303E+01 -0.14087539695E+01  0.10137475839E+02  0.00000000000E+00 0. -1.
</event>
<event>
 7    1  0.6622189E-010  0.4778727E+02  0.7816164E-02  0.1312668E+00
        -11   -1    0    0    0    0  0.00000000000E+00  0.00000000000E+00  0.45593999997E+02  0.45594000000E+02  0.51100000000E-03 0. -1.
         11   -1    0    0    0    0 -0.00000000000E+00 -0.00000000000E+00 -0.45593999997E+02  0.45594000000E+02  0.51100000000E-03 0.  1.
    9900012    2    1    2    0    0  0.74476023007E+01 -0.16918845861E+02 -0.39267157107E+02  0.47787265529E+02  0.19999974855E+02 0.  0.
         12    1    1    2    0    0 -0.74476023007E+01  0.16918845861E+02  0.39267157107E+02  0.43400734471E+02  0.00000000000E+00 0. -1.
         11    1    3    3    0    0 -0.44318973357E+01 -0.65876873332E+01 -0.25040137673E+02  0.26268761550E+02  0.51100000000E-03 0. -1.
        -11    1    3    3    0    0  0.77507174060E+01 -0.44892069523E+01 -0.72162561728E+01  0.11502215125E+02  0.51100000000E-03 0.  1.
        -12    1    3    3    0    0  0.41287822304E+01 -0.58419515756E+01 -0.70107632612E+01  0.10016288855E+02  0.00000000000E+00 0.  1.
</event>
<event>
 7    1  0.6622189E-010  0.4778727E+02  0.7816164E-02  0.1312668E+00
        -11   -1    0    0    0    0  0.00000000000E+00  0.00000000000E+00  0.45593999997E+02  0.45594000000E+02  0.51100000000E-03 0. -1.
         11   -1    0    0    0    0 -0.00000000000E+00 -0.00000000000E+00 -0.45593999997E+02  0.45594000000E+02  0.51100000000E-03 0.  1.
    9900012    2    1    2    0    0 -0.75235327578E+01  0.10046510130E+02 -0.41546207091E+02  0.47787271497E+02  0.20000002064E+02 0.  0.
         12    1    1    2    0    0  0.75235327578E+01 -0.10046510130E+02  0.41546207091E+02  0.43400728503E+02  0.00000000000E+00 0. -1.
         11    1    3    3    0    0  0.18302266575E+01  0.85419880672E+00 -0.23864356202E+01  0.31264133523E+01  0.51100000000E-03 0. -1.
        -11    1    3    3    0    0  0.10132065828E+01 -0.34276276288E+01 -0.20601624236E+01  0.41254682418E+01  0.51100000000E-03 0.  1.
        -12    1    3    3    0    0 -0.10366965998E+02  0.12619938952E+02 -0.37099609047E+02  0.40535389903E+02  0.00000000000E+00 0.  1.
</event>
<event>
 7    1  0.6857853E-010  0.4778728E+02  0.7816164E-02  0.1312668E+00
        -11   -1    0    0    0    0  0.00000000000E+00  0.00000000000E+00  0.45593999997E+02  0.45594000000E+02  0.51100000000E-03 0. -1.
         11   -1    0    0    0    0 -0.00000000000E+00 -0.00000000000E+00 -0.45593999997E+02  0.45594000000E+02  0.51100000000E-03 0.  1.
    9900012    2    1    2    0    0  0.58462309316E-01  0.96890292974E-01 -0.43400574112E+02  0.47787278360E+02  0.20000033356E+02 0.  0.
         12    1    1    2    0    0 -0.58462309316E-01 -0.96890292974E-01  0.43400574112E+02  0.43400721640E+02  0.00000000000E+00 0. -1.
         11    1    3    3    0    0 -0.24827965683E+01  0.49029431501E+01 -0.99820204072E+01  0.11394905090E+02  0.51100000000E-03 0. -1.
        -11    1    3    3    0    0  0.79557703789E+01 -0.18851454876E+01 -0.20942899457E+02  0.22482283998E+02  0.51100000000E-03 0.  1.
        -12    1    3    3    0    0 -0.54145115013E+01 -0.29209073695E+01 -0.12475654248E+02  0.13910089273E+02  0.00000000000E+00 0.  1.
</event>
<event>
 7    1  0.6622189E-010  0.4778727E+02  0.7816164E-02  0.1312668E+00
        -11   -1    0    0    0    0  0.00000000000E+00  0.00000000000E+00  0.45593999997E+02  0.45594000000E+02  0.51100000000E-03 0.  1.
         11   -1    0    0    0    0 -0.00000000000E+00 -0.00000000000E+00 -0.45593999997E+02  0.45594000000E+02  0.51100000000E-03 0. -1.
    9900012    2    1    2    0    0 -0.13470235108E+02  0.40103542107E+02  0.96892875805E+01  0.47787267089E+02  0.19999981967E+02 0.  0.
         12    1    1    2    0    0  0.13470235108E+02 -0.40103542107E+02 -0.96892875805E+01  0.43400732911E+02  0.00000000000E+00 0. -1.
         11    1    3    3    0    0 -0.43938609440E+00  0.71130800155E+01  0.70947098421E+01  0.10056036767E+02  0.51100000000E-03 0. -1.
        -11    1    3    3    0    0 -0.14212301471E+02  0.32978190907E+02  0.37162344829E+01  0.36102091181E+02  0.51100000000E-03 0.  1.
        -12    1    3    3    0    0  0.11814524575E+01  0.12271183834E-01 -0.11216567445E+01  0.16291391419E+01  0.00000000000E+00 0.  1.
</event>
<event>
 7    1  0.8411033E-010  0.4778728E+02  0.7816164E-02  0.1312668E+00
        -11   -1    0    0    0    0  0.00000000000E+00  0.00000000000E+00  0.45593999997E+02  0.45594000000E+02  0.51100000000E-03 0. -1.
         11   -1    0    0    0    0 -0.00000000000E+00 -0.00000000000E+00 -0.45593999997E+02  0.45594000000E+02  0.51100000000E-03 0.  1.
    9900012    2    1    2    0    0  0.75360985243E+01 -0.13878789714E+02 -0.40425354561E+02  0.47787275625E+02  0.20000020884E+02 0.  0.
         12    1    1    2    0    0 -0.75360985243E+01  0.13878789714E+02  0.40425354561E+02  0.43400724375E+02  0.00000000000E+00 0. -1.
         11    1    3    3    0    0  0.86035989509E+01 -0.28692811931E+01 -0.87717977031E+01  0.12617413549E+02  0.51100000000E-03 0. -1.
        -11    1    3    3    0    0  0.14893410489E+01 -0.94000195633E+01 -0.30475581840E+02  0.31927098103E+02  0.51100000000E-03 0.  1.
        -12    1    3    3    0    0 -0.25568414755E+01 -0.16094889578E+01 -0.11779750181E+01  0.32427639722E+01  0.00000000000E+00 0.  1.
</event>
<event>
 7    1  0.6622189E-010  0.4778727E+02  0.7816164E-02  0.1312668E+00
        -11   -1    0    0    0    0  0.00000000000E+00  0.00000000000E+00  0.45593999997E+02  0.45594000000E+02  0.51100000000E-03 0. -1.
         11   -1    0    0    0    0 -0.00000000000E+00 -0.00000000000E+00 -0.45593999997E+02  0.45594000000E+02  0.51100000000E-03 0.  1.
    9900012    2    1    2    0    0 -0.52856058259E+00 -0.32586459419E+02 -0.28661239681E+02  0.47787269894E+02  0.19999994753E+02 0.  0.
         12    1    1    2    0    0  0.52856058259E+00  0.32586459419E+02  0.28661239681E+02  0.43400730106E+02  0.00000000000E+00 0. -1.
         11    1    3    3    0    0 -0.26026489759E+00 -0.33956659672E+02 -0.25261630568E+02  0.42323426764E+02  0.51100000000E-03 0. -1.
        -11    1    3    3    0    0 -0.19142646915E+01  0.14630611625E+01 -0.11365264795E+01  0.26639538236E+01  0.51100000000E-03 0.  1.
         12    1    3    3    0    0  0.16459690065E+01 -0.92860909654E-01 -0.22630826333E+01  0.27998893057E+01  0.00000000000E+00 0. -1.
</event>
<event>
 7    1  0.6622189E-010  0.4778727E+02  0.7816164E-02  0.1312668E+00
        -11   -1    0    0    0    0  0.00000000000E+00  0.00000000000E+00  0.45593999997E+02  0.45594000000E+02  0.51100000000E-03 0.  1.
         11   -1    0    0    0    0 -0.00000000000E+00 -0.00000000000E+00 -0.45593999997E+02  0.45594000000E+02  0.51100000000E-03 0. -1.
    9900012    2    1    2    0    0 -0.42617184586E+02  0.28115666361E+01 -0.77132266161E+01  0.47787271966E+02  0.20000004204E+02 0.  0.
         12    1    1    2    0    0  0.42617184586E+02 -0.28115666361E+01  0.77132266161E+01  0.43400728034E+02  0.00000000000E+00 0. -1.
         11    1    3    3    0    0 -0.21495571340E+02 -0.39313945469E+01 -0.34716041311E+01  0.22126171965E+02  0.51100000000E-03 0. -1.
        -11    1    3    3    0    0 -0.14102161410E+02  0.10272733741E+02 -0.27111143450E+01  0.17656448007E+02  0.51100000000E-03 0.  1.
        -12    1    3    3    0    0 -0.70194518354E+01 -0.35297725583E+01 -0.15305081401E+01  0.80046519943E+01  0.00000000000E+00 0.  1.
</event>
<event>
 7    1  0.6622189E-010  0.4778727E+02  0.7816164E-02  0.1312668E+00
        -11   -1    0    0    0    0  0.00000000000E+00  0.00000000000E+00  0.45593999997E+02  0.45594000000E+02  0.51100000000E-03 0. -1.
         11   -1    0    0    0    0 -0.00000000000E+00 -0.00000000000E+00 -0.45593999997E+02  0.45594000000E+02  0.51100000000E-03 0.  1.
    9900012    2    1    2    0    0  0.63307396653E+01  0.36824203323E+02 -0.22079925403E+02  0.47787270503E+02  0.19999997531E+02 0.  0.
         12    1    1    2    0    0 -0.63307396653E+01 -0.36824203323E+02  0.22079925403E+02  0.43400729497E+02  0.00000000000E+00 0. -1.
         11    1    3    3    0    0  0.55974708676E+01  0.11380571866E+02  0.38569754988E+00  0.12688493172E+02  0.51100000000E-03 0.  1.
        -11    1    3    3    0    0 -0.16678687233E+01  0.34139487194E+01 -0.73507693617E+01  0.82746989315E+01  0.51100000000E-03 0. -1.
         12    1    3    3    0    0  0.24011375209E+01  0.22029682737E+02 -0.15114853591E+02  0.26824078399E+02  0.00000000000E+00 0. -1.
</event>
<event>
 7    1  0.6622189E-010  0.4778728E+02  0.7816164E-02  0.1312668E+00
        -11   -1    0    0    0    0  0.00000000000E+00  0.00000000000E+00  0.45593999997E+02  0.45594000000E+02  0.51100000000E-03 0. -1.
         11   -1    0    0    0    0 -0.00000000000E+00 -0.00000000000E+00 -0.45593999997E+02  0.45594000000E+02  0.51100000000E-03 0.  1.
    9900012    2    1    2    0    0 -0.26534101165E+02  0.96036684398E+01  0.32974745464E+02  0.47787276382E+02  0.20000024337E+02 0.  0.
        -12    1    1    2    0    0  0.26534101165E+02 -0.96036684398E+01 -0.32974745464E+02  0.43400723618E+02  0.00000000000E+00 0.  1.
         11    1    3    3    0    0 -0.41174289643E+01 -0.40961539940E+01  0.10070818481E+02  0.11625535857E+02  0.51100000000E-03 0.  1.
        -11    1    3    3    0    0 -0.13086999710E+02  0.11609295281E+02  0.19020049461E+02  0.25841973223E+02  0.51100000000E-03 0. -1.
         12    1    3    3    0    0 -0.93296724907E+01  0.20905271531E+01  0.38838775221E+01  0.10319767302E+02  0.00000000000E+00 0. -1.
</event>
<event>
 7    1  0.8295715E-010  0.4778725E+02  0.7816164E-02  0.1312668E+00
        -11   -1    0    0    0    0  0.00000000000E+00  0.00000000000E+00  0.45593999997E+02  0.45594000000E+02  0.51100000000E-03 0. -1.
         11   -1    0    0    0    0 -0.00000000000E+00 -0.00000000000E+00 -0.45593999997E+02  0.45594000000E+02  0.51100000000E-03 0.  1.
    9900012    2    1    2    0    0 -0.20600516020E+02  0.19670870116E+02 -0.32745997286E+02  0.47787254273E+02  0.19999923533E+02 0.  0.
         12    1    1    2    0    0  0.20600516020E+02 -0.19670870116E+02  0.32745997286E+02  0.43400745727E+02  0.00000000000E+00 0. -1.
         11    1    3    3    0    0  0.11513881958E+01  0.13943684680E+00 -0.15477851260E+01  0.19341087015E+01  0.51100000000E-03 0. -1.
        -11    1    3    3    0    0 -0.34243890901E+00 -0.17159695700E+00 -0.96232388482E+01  0.96308585345E+01  0.51100000000E-03 0.  1.
        -12    1    3    3    0    0 -0.21409465307E+02  0.19703030226E+02 -0.21574973312E+02  0.36222287037E+02  0.00000000000E+00 0.  1.
</event>
<event>
 7    1  0.6622189E-010  0.4778727E+02  0.7816164E-02  0.1312668E+00
        -11   -1    0    0    0    0  0.00000000000E+00  0.00000000000E+00  0.45593999997E+02  0.45594000000E+02  0.51100000000E-03 0. -1.
         11   -1    0    0    0    0 -0.00000000000E+00 -0.00000000000E+00 -0.45593999997E+02  0.45594000000E+02  0.51100000000E-03 0.  1.
    9900012    2    1    2    0    0 -0.71621530288E+00 -0.44653857805E+00 -0.43392521167E+02  0.47787271270E+02  0.20000001030E+02 0.  0.
         12    1    1    2    0    0  0.71621530288E+00  0.44653857805E+00  0.43392521167E+02  0.43400728730E+02  0.00000000000E+00 0. -1.
         11    1    3    3    0    0 -0.27286790158E+01  0.16317432313E+01  0.50062639154E+00  0.32185248467E+01  0.51100000000E-03 0. -1.
        -11    1    3    3    0    0  0.40625000440E+01 -0.27216916367E+00 -0.35713893330E+02  0.35945238346E+02  0.51100000000E-03 0.  1.
         12    1    3    3    0    0 -0.20500363311E+01 -0.18061126457E+01 -0.81792542277E+01  0.86235080779E+01  0.00000000000E+00 0. -1.
</event>
<event>
 7    1  0.6622189E-010  0.4778727E+02  0.7816164E-02  0.1312668E+00
        -11   -1    0    0    0    0  0.00000000000E+00  0.00000000000E+00  0.45593999997E+02  0.45594000000E+02  0.51100000000E-03 0. -1.
         11   -1    0    0    0    0 -0.00000000000E+00 -0.00000000000E+00 -0.45593999997E+02  0.45594000000E+02  0.51100000000E-03 0.  1.
    9900012    2    1    2    0    0 -0.26870906824E+02 -0.19986730232E+02  0.27606315467E+02  0.47787266451E+02  0.19999979057E+02 0.  0.
        -12    1    1    2    0    0  0.26870906824E+02  0.19986730232E+02 -0.27606315467E+02  0.43400733549E+02  0.00000000000E+00 0.  1.
         11    1    3    3    0    0 -0.12422608039E+01  0.29554158339E+01  0.14397018264E+01  0.35143187486E+01  0.51100000000E-03 0. -1.
        -11    1    3    3    0    0 -0.21528235128E+02 -0.23060671975E+02  0.23960616264E+02  0.39615282805E+02  0.51100000000E-03 0.  1.
        -12    1    3    3    0    0 -0.41004108918E+01  0.11852590931E+00  0.22059973765E+01  0.46576648976E+01  0.00000000000E+00 0.  1.
</event>
<event>
 7    1  0.6622189E-010  0.4778727E+02  0.7816164E-02  0.1312668E+00
        -11   -1    0    0    0    0  0.00000000000E+00  0.00000000000E+00  0.45593999997E+02  0.45594000000E+02  0.51100000000E-03 0. -1.
         11   -1    0    0    0    0 -0.00000000000E+00 -0.00000000000E+00 -0.45593999997E+02  0.45594000000E+02  0.51100000000E-03 0.  1.
    9900012    2    1    2    0    0  0.11447480347E-01 -0.39401678961E+02 -0.18196997028E+02  0.47787272623E+02  0.20000007197E+02 0.  0.
         12    1    1    2    0    0 -0.11447480347E-01  0.39401678961E+02  0.18196997028E+02  0.43400727377E+02  0.00000000000E+00 0. -1.
         11    1    3    3    0    0  0.57896962876E+01 -0.15914823745E+02 -0.32510031204E+01  0.17244454746E+02  0.51100000000E-03 0. -1.
        -11    1    3    3    0    0 -0.37700331893E+01 -0.42248341549E+01 -0.83402847759E+01  0.10080809704E+02  0.51100000000E-03 0.  1.
        -12    1    3    3    0    0 -0.20082156180E+01 -0.19262021061E+02 -0.66057091320E+01  0.20462008173E+02  0.00000000000E+00 0.  1.
</event>
<event>
 7    1  0.6622189E-010  0.4778729E+02  0.7816164E-02  0.1312668E+00
        -11   -1    0    0    0    0  0.00000000000E+00  0.00000000000E+00  0.45593999997E+02  0.45594000000E+02  0.51100000000E-03 0.  1.
         11   -1    0    0    0    0 -0.00000000000E+00 -0.00000000000E+00 -0.45593999997E+02  0.45594000000E+02  0.51100000000E-03 0. -1.
    9900012    2    1    2    0    0 -0.40533786693E+02  0.10806342552E+02 -0.11129091516E+02  0.47787290547E+02  0.20000088919E+02 0.  0.
         12    1    1    2    0    0  0.40533786693E+02 -0.10806342552E+02  0.11129091516E+02  0.43400709453E+02  0.00000000000E+00 0. -1.
         11    1    3    3    0    0 -0.47185561425E+01  0.39697294424E+01 -0.50480051192E+01  0.79690576520E+01  0.51100000000E-03 0. -1.
        -11    1    3    3    0    0 -0.28688178780E+02  0.27855449970E+01  0.12080293351E+01  0.28848400264E+02  0.51100000000E-03 0.  1.
        -12    1    3    3    0    0 -0.71270517710E+01  0.40510681127E+01 -0.72891157320E+01  0.10969832631E+02  0.00000000000E+00 0.  1.
</event>
<event>
 7    1  0.6622189E-010  0.4778727E+02  0.7816164E-02  0.1312668E+00
        -11   -1    0    0    0    0  0.00000000000E+00  0.00000000000E+00  0.45593999997E+02  0.45594000000E+02  0.51100000000E-03 0. -1.
         11   -1    0    0    0    0 -0.00000000000E+00 -0.00000000000E+00 -0.45593999997E+02  0.45594000000E+02  0.51100000000E-03 0.  1.
    9900012    2    1    2    0    0  0.36669675669E+01 -0.23438702572E+02 -0.36342865517E+02  0.47787270705E+02  0.19999998452E+02 0.  0.
         12    1    1    2    0    0 -0.36669675669E+01  0.23438702572E+02  0.36342865517E+02  0.43400729295E+02  0.00000000000E+00 0. -1.
         11    1    3    3    0    0 -0.61296065208E+01 -0.14320850864E+02 -0.17471492732E+02  0.23407518111E+02  0.51100000000E-03 0. -1.
        -11    1    3    3    0    0  0.72311870080E+01 -0.20265418110E+01 -0.67139593739E+01  0.10073439730E+02  0.51100000000E-03 0.  1.
         12    1    3    3    0    0  0.25653870797E+01 -0.70913098970E+01 -0.12157413410E+02  0.14306312864E+02  0.00000000000E+00 0. -1.
</event>
<event>
 7    1  0.6622189E-010  0.4778727E+02  0.7816164E-02  0.1312668E+00
        -11   -1    0    0    0    0  0.00000000000E+00  0.00000000000E+00  0.45593999997E+02  0.45594000000E+02  0.51100000000E-03 0. -1.
         11   -1    0    0    0    0 -0.00000000000E+00 -0.00000000000E+00 -0.45593999997E+02  0.45594000000E+02  0.51100000000E-03 0.  1.
    9900012    2    1    2    0    0  0.14853855464E+02 -0.20950070698E+02  0.34986867159E+02  0.47787270075E+02  0.19999995581E+02 0.  0.
        -12    1    1    2    0    0 -0.14853855464E+02  0.20950070698E+02 -0.34986867159E+02  0.43400729925E+02  0.00000000000E+00 0.  1.
         11    1    3    3    0    0  0.69635729300E+01 -0.16862518614E+02  0.29536972676E+02  0.34716979089E+02  0.51100000000E-03 0. -1.
        -11    1    3    3    0    0  0.74116314254E+01 -0.50162611684E+01  0.16131224538E+01  0.90938067281E+01  0.51100000000E-03 0.  1.
         12    1    3    3    0    0  0.47865110848E+00  0.92870908457E+00  0.38367720295E+01  0.39764842580E+01  0.00000000000E+00 0. -1.
</event>
<event>
 7    1  0.6622189E-010  0.4778727E+02  0.7816164E-02  0.1312668E+00
        -11   -1    0    0    0    0  0.00000000000E+00  0.00000000000E+00  0.45593999997E+02  0.45594000000E+02  0.51100000000E-03 0. -1.
         11   -1    0    0    0    0 -0.00000000000E+00 -0.00000000000E+00 -0.45593999997E+02  0.45594000000E+02  0.51100000000E-03 0.  1.
    9900012    2    1    2    0    0  0.16344143737E+02 -0.14914078804E+02 -0.37337150543E+02  0.47787267382E+02  0.19999983304E+02 0.  0.
         12    1    1    2    0    0 -0.16344143737E+02  0.14914078804E+02  0.37337150543E+02  0.43400732618E+02  0.00000000000E+00 0. -1.
         11    1    3    3    0    0  0.11856290956E+02 -0.14597979799E+02 -0.13343415856E+02  0.23059041533E+02  0.51100000000E-03 0. -1.
        -11    1    3    3    0    0  0.23167787445E+01  0.17680587694E+01 -0.10087056291E+02  0.10499628586E+02  0.51100000000E-03 0.  1.
         12    1    3    3    0    0  0.21710740371E+01 -0.20841577751E+01 -0.13906678396E+02  0.14228597264E+02  0.00000000000E+00 0. -1.
</event>
<event>
 7    1  0.6622189E-010  0.4778727E+02  0.7816164E-02  0.1312668E+00
        -11   -1    0    0    0    0  0.00000000000E+00  0.00000000000E+00  0.45593999997E+02  0.45594000000E+02  0.51100000000E-03 0.  1.
         11   -1    0    0    0    0 -0.00000000000E+00 -0.00000000000E+00 -0.45593999997E+02  0.45594000000E+02  0.51100000000E-03 0. -1.
    9900012    2    1    2    0    0 -0.94380341728E+01 -0.40365677663E+02 -0.12851425741E+02  0.47787267681E+02  0.19999984665E+02 0.  0.
         12    1    1    2    0    0  0.94380341728E+01  0.40365677663E+02  0.12851425741E+02  0.43400732319E+02  0.00000000000E+00 0. -1.
         11    1    3    3    0    0  0.11731627232E+01 -0.10486141264E+02  0.45831509707E+01  0.11503944648E+02  0.51100000000E-03 0. -1.
        -11    1    3    3    0    0 -0.62093854449E+01 -0.18432876271E+02 -0.92413246319E+01  0.21534378942E+02  0.51100000000E-03 0.  1.
         12    1    3    3    0    0 -0.44018114510E+01 -0.11446660129E+02 -0.81932520802E+01  0.14748944091E+02  0.00000000000E+00 0. -1.
</event>
<event>
 7    1  0.6622189E-010  0.4778727E+02  0.7816164E-02  0.1312668E+00
        -11   -1    0    0    0    0  0.00000000000E+00  0.00000000000E+00  0.45593999997E+02  0.45594000000E+02  0.51100000000E-03 0. -1.
         11   -1    0    0    0    0 -0.00000000000E+00 -0.00000000000E+00 -0.45593999997E+02  0.45594000000E+02  0.51100000000E-03 0.  1.
    9900012    2    1    2    0    0  0.43153293458E+01 -0.95860455977E+00 -0.43175015738E+02  0.47787274499E+02  0.20000015752E+02 0.  0.
         12    1    1    2    0    0 -0.43153293458E+01  0.95860455977E+00  0.43175015738E+02  0.43400725501E+02  0.00000000000E+00 0. -1.
         11    1    3    3    0    0  0.74895410752E+01  0.37766919192E+01 -0.21753845586E+02  0.23314939962E+02  0.51100000000E-03 0. -1.
        -11    1    3    3    0    0  0.31023048734E+01 -0.20089259973E+01 -0.13537617648E+02  0.14033074183E+02  0.51100000000E-03 0.  1.
         12    1    3    3    0    0 -0.62765166028E+01 -0.27263704817E+01 -0.78835525031E+01  0.10439260354E+02  0.00000000000E+00 0. -1.
</event>
<event>
 7    1  0.6622189E-010  0.4778727E+02  0.7816164E-02  0.1312668E+00
        -11   -1    0    0    0    0  0.00000000000E+00  0.00000000000E+00  0.45593999997E+02  0.45594000000E+02  0.51100000000E-03 0.  1.
         11   -1    0    0    0    0 -0.00000000000E+00 -0.00000000000E+00 -0.45593999997E+02  0.45594000000E+02  0.51100000000E-03 0. -1.
    9900012    2    1    2    0    0 -0.42399648520E+02 -0.26556817027E+01 -0.88792143160E+01  0.47787270896E+02  0.19999999323E+02 0.  0.
         12    1    1    2    0    0  0.42399648520E+02  0.26556817027E+01  0.88792143160E+01  0.43400729104E+02  0.00000000000E+00 0. -1.
         11    1    3    3    0    0 -0.30435173741E+01 -0.13902261089E+01 -0.59737464350E+01  0.68469973982E+01  0.51100000000E-03 0. -1.
        -11    1    3    3    0    0 -0.36634189345E+02 -0.21413452845E+01  0.22910312043E+00  0.36697434203E+02  0.51100000000E-03 0.  1.
        -12    1    3    3    0    0 -0.27219418007E+01  0.87588969077E+00 -0.31345710014E+01  0.42428392946E+01  0.00000000000E+00 0.  1.
</event>
<event>
 7    1  0.6622189E-010  0.4778727E+02  0.7816164E-02  0.1312668E+00
        -11   -1    0    0    0    0  0.00000000000E+00  0.00000000000E+00  0.45593999997E+02  0.45594000000E+02  0.51100000000E-03 0.  1.
         11   -1    0    0    0    0 -0.00000000000E+00 -0.00000000000E+00 -0.45593999997E+02  0.45594000000E+02  0.51100000000E-03 0. -1.
    9900012    2    1    2    0    0 -0.47066858204E+01  0.13636436166E+02  0.40933092984E+02  0.47787269776E+02  0.19999994218E+02 0.  0.
        -12    1    1    2    0    0  0.47066858204E+01 -0.13636436166E+02 -0.40933092984E+02  0.43400730224E+02  0.00000000000E+00 0.  1.
         11    1    3    3    0    0  0.23365125279E+01  0.30194496893E+01 -0.28705567657E+00  0.38286771139E+01  0.51100000000E-03 0. -1.
        -11    1    3    3    0    0  0.14296766923E+01  0.73242223954E+00  0.10069453169E+02  0.10196779156E+02  0.51100000000E-03 0.  1.
         12    1    3    3    0    0 -0.84728750407E+01  0.98845642374E+01  0.31150695492E+02  0.33761813506E+02  0.00000000000E+00 0. -1.
</event>
<event>
 7    1  0.6622189E-010  0.4778728E+02  0.7816164E-02  0.1312668E+00
        -11   -1    0    0    0    0  0.00000000000E+00  0.00000000000E+00  0.45593999997E+02  0.45594000000E+02  0.51100000000E-03 0.  1.
         11   -1    0    0    0    0 -0.00000000000E+00 -0.00000000000E+00 -0.45593999997E+02  0.45594000000E+02  0.51100000000E-03 0. -1.
    9900012    2    1    2    0    0 -0.20937933109E+02  0.31824576244E+02 -0.20794762024E+02  0.47787276232E+02  0.20000023650E+02 0.  0.
        -12    1    1    2    0    0  0.20937933109E+02 -0.31824576244E+02  0.20794762024E+02  0.43400723768E+02  0.00000000000E+00 0.  1.
         11    1    3    3    0    0 -0.44866847024E+01  0.67186588760E+01 -0.30918547068E+01  0.86504498438E+01  0.51100000000E-03 0. -1.
        -11    1    3    3    0    0 -0.16288543303E+02  0.20263889923E+02 -0.63056974797E+01  0.26752639098E+02  0.51100000000E-03 0.  1.
        -12    1    3    3    0    0 -0.16270510275E+00  0.48420274448E+01 -0.11397209838E+02  0.12384187289E+02  0.00000000000E+00 0.  1.
</event>
<event>
 7    1  0.6622189E-010  0.4778728E+02  0.7816164E-02  0.1312668E+00
        -11   -1    0    0    0    0  0.00000000000E+00  0.00000000000E+00  0.45593999997E+02  0.45594000000E+02  0.51100000000E-03 0.  1.
         11   -1    0    0    0    0 -0.00000000000E+00 -0.00000000000E+00 -0.45593999997E+02  0.45594000000E+02  0.51100000000E-03 0. -1.
    9900012    2    1    2    0    0  0.24816072202E+02  0.18473246486E+02 -0.30438863817E+02  0.47787277590E+02  0.20000029842E+02 0.  0.
         12    1    1    2    0    0 -0.24816072202E+02 -0.18473246486E+02  0.30438863817E+02  0.43400722410E+02  0.00000000000E+00 0. -1.
         11    1    3    3    0    0  0.56689490174E+00  0.15041442791E+01 -0.12792719281E+02  0.12893311704E+02  0.51100000000E-03 0. -1.
        -11    1    3    3    0    0  0.26899220469E+01  0.29274628896E+01 -0.57525709270E+00  0.40170437603E+01  0.51100000000E-03 0.  1.
         12    1    3    3    0    0  0.21559255254E+02  0.14041639318E+02 -0.17070887443E+02  0.30876922125E+02  0.00000000000E+00 0. -1.
</event>
<event>
 7    1  0.6622189E-010  0.4778727E+02  0.7816164E-02  0.1312668E+00
        -11   -1    0    0    0    0  0.00000000000E+00  0.00000000000E+00  0.45593999997E+02  0.45594000000E+02  0.51100000000E-03 0. -1.
         11   -1    0    0    0    0 -0.00000000000E+00 -0.00000000000E+00 -0.45593999997E+02  0.45594000000E+02  0.51100000000E-03 0.  1.
    9900012    2    1    2    0    0 -0.12473760063E+02  0.40010337722E+02 -0.11278367921E+02  0.47787269618E+02  0.19999993498E+02 0.  0.
         12    1    1    2    0    0  0.12473760063E+02 -0.40010337722E+02  0.11278367921E+02  0.43400730382E+02  0.00000000000E+00 0. -1.
         11    1    3    3    0    0 -0.46362077722E+01  0.76152186118E+01 -0.38221683013E+01  0.97002550378E+01  0.51100000000E-03 0.  1.
        -11    1    3    3    0    0 -0.13713134664E+01  0.15839213181E+02 -0.11789232971E+02  0.19792604404E+02  0.51100000000E-03 0. -1.
        -12    1    3    3    0    0 -0.64662388244E+01  0.16555905929E+02  0.43330333514E+01  0.18294410176E+02  0.00000000000E+00 0.  1.
</event>
<event>
 7    1  0.6622189E-010  0.4778733E+02  0.7816164E-02  0.1312668E+00
        -11   -1    0    0    0    0  0.00000000000E+00  0.00000000000E+00  0.45593999997E+02  0.45594000000E+02  0.51100000000E-03 0. -1.
         11   -1    0    0    0    0 -0.00000000000E+00 -0.00000000000E+00 -0.45593999997E+02  0.45594000000E+02  0.51100000000E-03 0.  1.
    9900012    2    1    2    0    0 -0.16626456937E+02  0.12097789467E+02 -0.38220712110E+02  0.47787327027E+02  0.20000255247E+02 0.  0.
         12    1    1    2    0    0  0.16626456937E+02 -0.12097789467E+02  0.38220712110E+02  0.43400672973E+02  0.00000000000E+00 0. -1.
         11    1    3    3    0    0 -0.23761825712E+01 -0.11409245121E+01 -0.42781397466E+01  0.50249808264E+01  0.51100000000E-03 0. -1.
        -11    1    3    3    0    0 -0.41960888455E+01  0.21301720021E+01  0.93942482227E+00  0.47986783197E+01  0.51100000000E-03 0.  1.
        -12    1    3    3    0    0 -0.10054185520E+02  0.11108541977E+02 -0.34881997186E+02  0.37963667881E+02  0.00000000000E+00 0.  1.
</event>
<event>
 7    1  0.6622189E-010  0.4778727E+02  0.7816164E-02  0.1312668E+00
        -11   -1    0    0    0    0  0.00000000000E+00  0.00000000000E+00  0.45593999997E+02  0.45594000000E+02  0.51100000000E-03 0. -1.
         11   -1    0    0    0    0 -0.00000000000E+00 -0.00000000000E+00 -0.45593999997E+02  0.45594000000E+02  0.51100000000E-03 0.  1.
    9900012    2    1    2    0    0  0.27304660872E+02 -0.32099030225E+02  0.10379354514E+02  0.47787271355E+02  0.20000001417E+02 0.  0.
        -12    1    1    2    0    0 -0.27304660872E+02  0.32099030225E+02 -0.10379354514E+02  0.43400728645E+02  0.00000000000E+00 0.  1.
         11    1    3    3    0    0  0.97240573710E+00 -0.58124215548E+01  0.64327780425E+01  0.87241303780E+01  0.51100000000E-03 0. -1.
        -11    1    3    3    0    0  0.15818357324E+02 -0.78965001518E+01  0.17704408462E+01  0.17768218935E+02  0.51100000000E-03 0.  1.
        -12    1    3    3    0    0  0.10513897811E+02 -0.18390108519E+02  0.21761356252E+01  0.21294922042E+02  0.00000000000E+00 0.  1.
</event>
<event>
 7    1  0.6622189E-010  0.4778727E+02  0.7816164E-02  0.1312668E+00
        -11   -1    0    0    0    0  0.00000000000E+00  0.00000000000E+00  0.45593999997E+02  0.45594000000E+02  0.51100000000E-03 0. -1.
         11   -1    0    0    0    0 -0.00000000000E+00 -0.00000000000E+00 -0.45593999997E+02  0.45594000000E+02  0.51100000000E-03 0.  1.
    9900012    2    1    2    0    0  0.66512104363E+00 -0.16168085963E+02 -0.40271259053E+02  0.47787266188E+02  0.19999977858E+02 0.  0.
         12    1    1    2    0    0 -0.66512104363E+00  0.16168085963E+02  0.40271259053E+02  0.43400733812E+02  0.00000000000E+00 0. -1.
         11    1    3    3    0    0  0.62596475434E+01 -0.97990030643E+00 -0.29996949309E+01  0.70101042730E+01  0.51100000000E-03 0. -1.
        -11    1    3    3    0    0 -0.37727333024E+01 -0.96752971179E+01 -0.19675393700E+02  0.22247831544E+02  0.51100000000E-03 0.  1.
         12    1    3    3    0    0 -0.18217931974E+01 -0.55128885390E+01 -0.17596170422E+02  0.18529330371E+02  0.00000000000E+00 0. -1.
</event>
<event>
 7    1  0.6622189E-010  0.4778727E+02  0.7816164E-02  0.1312668E+00
        -11   -1    0    0    0    0  0.00000000000E+00  0.00000000000E+00  0.45593999997E+02  0.45594000000E+02  0.51100000000E-03 0. -1.
         11   -1    0    0    0    0 -0.00000000000E+00 -0.00000000000E+00 -0.45593999997E+02  0.45594000000E+02  0.51100000000E-03 0.  1.
    9900012    2    1    2    0    0 -0.29292150912E+01  0.26529901855E+02  0.34222908217E+02  0.47787269127E+02  0.19999991257E+02 0.  0.
        -12    1    1    2    0    0  0.29292150912E+01 -0.26529901855E+02 -0.34222908217E+02  0.43400730873E+02  0.00000000000E+00 0.  1.
         11    1    3    3    0    0 -0.66198786554E+01  0.24820239288E+02  0.30474130124E+02  0.39856488541E+02  0.51100000000E-03 0. -1.
        -11    1    3    3    0    0  0.46048756562E+01  0.56191922060E+00  0.89888432441E+00  0.47253175882E+01  0.51100000000E-03 0.  1.
        -12    1    3    3    0    0 -0.91421209194E+00  0.11477433464E+01  0.28498937688E+01  0.32054629980E+01  0.00000000000E+00 0.  1.
</event>
<event>
 7    1  0.6622189E-010  0.4778727E+02  0.7816164E-02  0.1312668E+00
        -11   -1    0    0    0    0  0.00000000000E+00  0.00000000000E+00  0.45593999997E+02  0.45594000000E+02  0.51100000000E-03 0.  1.
         11   -1    0    0    0    0 -0.00000000000E+00 -0.00000000000E+00 -0.45593999997E+02  0.45594000000E+02  0.51100000000E-03 0. -1.
    9900012    2    1    2    0    0 -0.43205035418E+02  0.21003215176E+01  0.35407396518E+01  0.47787271052E+02  0.20000000035E+02 0.  0.
         12    1    1    2    0    0  0.43205035418E+02 -0.21003215176E+01 -0.35407396518E+01  0.43400728948E+02  0.00000000000E+00 0. -1.
         11    1    3    3    0    0 -0.25103248784E+02  0.91003563099E+01  0.18411194204E+01  0.26765263038E+02  0.51100000000E-03 0. -1.
        -11    1    3    3    0    0 -0.15509184735E+02 -0.66838463112E+01  0.42040053031E+01  0.17403513252E+02  0.51100000000E-03 0.  1.
         12    1    3    3    0    0 -0.25926018983E+01 -0.31618848110E+00 -0.25043850717E+01  0.36184947625E+01  0.00000000000E+00 0. -1.
</event>
<event>
 7    1  0.6622189E-010  0.4778728E+02  0.7816164E-02  0.1312668E+00
        -11   -1    0    0    0    0  0.00000000000E+00  0.00000000000E+00  0.45593999997E+02  0.45594000000E+02  0.51100000000E-03 0. -1.
         11   -1    0    0    0    0 -0.00000000000E+00 -0.00000000000E+00 -0.45593999997E+02  0.45594000000E+02  0.51100000000E-03 0.  1.
    9900012    2    1    2    0    0 -0.20360283713E+02  0.20500444623E+02 -0.32385387440E+02  0.47787277630E+02  0.20000030024E+02 0.  0.
         12    1    1    2    0    0  0.20360283713E+02 -0.20500444623E+02  0.32385387440E+02  0.43400722370E+02  0.00000000000E+00 0. -1.
         11    1    3    3    0    0  0.96013382779E+00 -0.20571479236E+01 -0.83978524305E+00  0.24205276413E+01  0.51100000000E-03 0. -1.
        -11    1    3    3    0    0 -0.14323180629E+02  0.17978617915E+02 -0.17004515670E+02  0.28592617210E+02  0.51100000000E-03 0.  1.
        -12    1    3    3    0    0 -0.69972369126E+01  0.45789746309E+01 -0.14541086527E+02  0.16774132778E+02  0.00000000000E+00 0.  1.
</event>
<event>
 7    1  0.6622189E-010  0.4778728E+02  0.7816164E-02  0.1312668E+00
        -11   -1    0    0    0    0  0.00000000000E+00  0.00000000000E+00  0.45593999997E+02  0.45594000000E+02  0.51100000000E-03 0. -1.
         11   -1    0    0    0    0 -0.00000000000E+00 -0.00000000000E+00 -0.45593999997E+02  0.45594000000E+02  0.51100000000E-03 0.  1.
    9900012    2    1    2    0    0  0.92493404027E+01 -0.62119551617E-01 -0.42403635539E+02  0.47787280379E+02  0.20000042561E+02 0.  0.
         12    1    1    2    0    0 -0.92493404027E+01  0.62119551617E-01  0.42403635539E+02  0.43400719621E+02  0.00000000000E+00 0. -1.
         11    1    3    3    0    0 -0.26624778149E+01 -0.45388567361E+01 -0.39800091917E+01  0.65977634099E+01  0.51100000000E-03 0. -1.
        -11    1    3    3    0    0  0.61867941933E+01  0.50934860775E+01 -0.29502194952E+02  0.30571220618E+02  0.51100000000E-03 0.  1.
        -12    1    3    3    0    0  0.57250240243E+01 -0.61674889306E+00 -0.89214313944E+01  0.10618296351E+02  0.00000000000E+00 0.  1.
</event>
<event>
 7    1  0.6622189E-010  0.4778732E+02  0.7816164E-02  0.1312668E+00
        -11   -1    0    0    0    0  0.00000000000E+00  0.00000000000E+00  0.45593999997E+02  0.45594000000E+02  0.51100000000E-03 0.  1.
         11   -1    0    0    0    0 -0.00000000000E+00 -0.00000000000E+00 -0.45593999997E+02  0.45594000000E+02  0.51100000000E-03 0. -1.
    9900012    2    1    2    0    0 -0.19405017692E+02 -0.37695726180E+02 -0.92788388781E+01  0.47787316425E+02  0.20000206906E+02 0.  0.
         12    1    1    2    0    0  0.19405017692E+02  0.37695726180E+02  0.92788388781E+01  0.43400683575E+02  0.00000000000E+00 0. -1.
         11    1    3    3    0    0  0.63031578675E+00 -0.27856351074E+01 -0.50794817323E+00  0.29008744458E+01  0.51100000000E-03 0. -1.
        -11    1    3    3    0    0 -0.97629866384E+01 -0.27941749198E+02 -0.12191695119E+02  0.32010852636E+02  0.51100000000E-03 0.  1.
        -12    1    3    3    0    0 -0.10272346840E+02 -0.69683418746E+01  0.34208044139E+01  0.12875589343E+02  0.00000000000E+00 0.  1.
</event>
<event>
 7    1  0.6622189E-010  0.4778728E+02  0.7816164E-02  0.1312668E+00
        -11   -1    0    0    0    0  0.00000000000E+00  0.00000000000E+00  0.45593999997E+02  0.45594000000E+02  0.51100000000E-03 0. -1.
         11   -1    0    0    0    0 -0.00000000000E+00 -0.00000000000E+00 -0.45593999997E+02  0.45594000000E+02  0.51100000000E-03 0.  1.
    9900012    2    1    2    0    0  0.32802513930E+02 -0.24565096031E+02 -0.14288940076E+02  0.47787277983E+02  0.20000031634E+02 0.  0.
         12    1    1    2    0    0 -0.32802513930E+02  0.24565096031E+02  0.14288940076E+02  0.43400722017E+02  0.00000000000E+00 0. -1.
         11    1    3    3    0    0  0.10083517709E+02 -0.37382318887E+01  0.13780673866E+01  0.10842083611E+02  0.51100000000E-03 0. -1.
        -11    1    3    3    0    0  0.24211965346E+02 -0.20759601419E+02 -0.15438209597E+02  0.35433298362E+02  0.51100000000E-03 0.  1.
        -12    1    3    3    0    0 -0.14929691250E+01 -0.67262723273E-01 -0.22879786557E+00  0.15118960101E+01  0.00000000000E+00 0.  1.
</event>
<event>
 7    1  0.6622189E-010  0.4778727E+02  0.7816164E-02  0.1312668E+00
        -11   -1    0    0    0    0  0.00000000000E+00  0.00000000000E+00  0.45593999997E+02  0.45594000000E+02  0.51100000000E-03 0. -1.
         11   -1    0    0    0    0 -0.00000000000E+00 -0.00000000000E+00 -0.45593999997E+02  0.45594000000E+02  0.51100000000E-03 0.  1.
    9900012    2    1    2    0    0 -0.12274113967E+02 -0.33260450718E+02  0.25034217920E+02  0.47787268180E+02  0.19999986940E+02 0.  0.
        -12    1    1    2    0    0  0.12274113967E+02  0.33260450718E+02 -0.25034217920E+02  0.43400731820E+02  0.00000000000E+00 0.  1.
         11    1    3    3    0    0 -0.14409421883E+02 -0.23505617376E+02  0.14660136810E+02  0.31226032389E+02  0.51100000000E-03 0. -1.
        -11    1    3    3    0    0 -0.37586912654E+00  0.13714677659E+01  0.61276478205E+00  0.15484451467E+01  0.51100000000E-03 0.  1.
         12    1    3    3    0    0  0.25111770418E+01 -0.11126301107E+02  0.97613163276E+01  0.15012790644E+02  0.00000000000E+00 0. -1.
</event>
<event>
 7    1  0.6622189E-010  0.4778727E+02  0.7816164E-02  0.1312668E+00
        -11   -1    0    0    0    0  0.00000000000E+00  0.00000000000E+00  0.45593999997E+02  0.45594000000E+02  0.51100000000E-03 0. -1.
         11   -1    0    0    0    0 -0.00000000000E+00 -0.00000000000E+00 -0.45593999997E+02  0.45594000000E+02  0.51100000000E-03 0.  1.
    9900012    2    1    2    0    0  0.13286641329E+02 -0.58104649277E+01 -0.40906318185E+02  0.47787271805E+02  0.20000003466E+02 0.  0.
         12    1    1    2    0    0 -0.13286641329E+02  0.58104649277E+01  0.40906318185E+02  0.43400728195E+02  0.00000000000E+00 0. -1.
         11    1    3    3    0    0  0.53291442151E+01  0.50064306129E+01 -0.13094790988E+02  0.14997922417E+02  0.51100000000E-03 0.  1.
        -11    1    3    3    0    0  0.45762518578E+01 -0.12107838387E+02 -0.16862334391E+02  0.21257472870E+02  0.51100000000E-03 0. -1.
         12    1    3    3    0    0  0.33812452557E+01  0.12909428460E+01 -0.10949192806E+02  0.11531876517E+02  0.00000000000E+00 0. -1.
</event>
<event>
 7    1  0.6622189E-010  0.4778727E+02  0.7816164E-02  0.1312668E+00
        -11   -1    0    0    0    0  0.00000000000E+00  0.00000000000E+00  0.45593999997E+02  0.45594000000E+02  0.51100000000E-03 0. -1.
         11   -1    0    0    0    0 -0.00000000000E+00 -0.00000000000E+00 -0.45593999997E+02  0.45594000000E+02  0.51100000000E-03 0.  1.
    9900012    2    1    2    0    0  0.94503315321E+01  0.36692070046E+02  0.21166167096E+02  0.47787269593E+02  0.19999993383E+02 0.  0.
        -12    1    1    2    0    0 -0.94503315321E+01 -0.36692070046E+02 -0.21166167096E+02  0.43400730407E+02  0.00000000000E+00 0.  1.
         11    1    3    3    0    0 -0.26398562045E+01 -0.30536283246E+00  0.28077633127E+01  0.38659568443E+01  0.51100000000E-03 0. -1.
        -11    1    3    3    0    0 -0.70073851898E+00  0.85070232559E+01  0.24930414165E+01  0.88924538185E+01  0.51100000000E-03 0.  1.
         12    1    3    3    0    0  0.12790926256E+02  0.28490409622E+02  0.15865362367E+02  0.35028858930E+02  0.00000000000E+00 0. -1.
</event>
<event>
 7    1  0.6622189E-010  0.4778727E+02  0.7816164E-02  0.1312668E+00
        -11   -1    0    0    0    0  0.00000000000E+00  0.00000000000E+00  0.45593999997E+02  0.45594000000E+02  0.51100000000E-03 0. -1.
         11   -1    0    0    0    0 -0.00000000000E+00 -0.00000000000E+00 -0.45593999997E+02  0.45594000000E+02  0.51100000000E-03 0.  1.
    9900012    2    1    2    0    0 -0.38131301983E+01 -0.25432437721E+02  0.34961038066E+02  0.47787273820E+02  0.20000012654E+02 0.  0.
        -12    1    1    2    0    0  0.38131301983E+01  0.25432437721E+02 -0.34961038066E+02  0.43400726180E+02  0.00000000000E+00 0.  1.
         11    1    3    3    0    0  0.68295456419E+00 -0.12862908448E+02  0.20015709528E+02  0.23802299655E+02  0.51100000000E-03 0. -1.
        -11    1    3    3    0    0 -0.90737806018E+01 -0.68603898927E+01  0.80995362038E+01  0.13964273374E+02  0.51100000000E-03 0.  1.
        -12    1    3    3    0    0  0.45776958393E+01 -0.57091393803E+01  0.68457923333E+01  0.10020700790E+02  0.00000000000E+00 0.  1.
</event>
<event>
 7    1  0.6622189E-010  0.4778725E+02  0.7816164E-02  0.1312668E+00
        -11   -1    0    0    0    0  0.00000000000E+00  0.00000000000E+00  0.45593999997E+02  0.45594000000E+02  0.51100000000E-03 0. -1.
         11   -1    0    0    0    0 -0.00000000000E+00 -0.00000000000E+00 -0.45593999997E+02  0.45594000000E+02  0.51100000000E-03 0.  1.
    9900012    2    1    2    0    0  0.21953320998E+02 -0.37426641606E+02  0.96080389032E+00  0.47787251748E+02  0.19999912019E+02 0.  0.
        -12    1    1    2    0    0 -0.21953320998E+02  0.37426641606E+02 -0.96080389032E+00  0.43400748252E+02  0.00000000000E+00 0.  1.
         11    1    3    3    0    0 -0.10703515210E+01 -0.10159576225E+01 -0.30150702198E+01  0.33568543252E+01  0.51100000000E-03 0. -1.
        -11    1    3    3    0    0 -0.28016918000E+00 -0.54084911967E+00 -0.11975227095E+01  0.13435302157E+01  0.51100000000E-03 0.  1.
         12    1    3    3    0    0  0.23303841699E+02 -0.35869834863E+02  0.51733968196E+01  0.43086867207E+02  0.00000000000E+00 0. -1.
</event>
<event>
 7    1  0.6622189E-010  0.4778727E+02  0.7816164E-02  0.1312668E+00
        -11   -1    0    0    0    0  0.00000000000E+00  0.00000000000E+00  0.45593999997E+02  0.45594000000E+02  0.51100000000E-03 0. -1.
         11   -1    0    0    0    0 -0.00000000000E+00 -0.00000000000E+00 -0.45593999997E+02  0.45594000000E+02  0.51100000000E-03 0.  1.
    9900012    2    1    2    0    0  0.34392928316E+02  0.59072748201E+01  0.25804144488E+02  0.47787270897E+02  0.19999999326E+02 0.  0.
        -12    1    1    2    0    0 -0.34392928316E+02 -0.59072748201E+01 -0.25804144488E+02  0.43400729103E+02  0.00000000000E+00 0.  1.
         11    1    3    3    0    0  0.10241282665E+02  0.79893159761E+01  0.15089838933E+02  0.19910205415E+02  0.51100000000E-03 0. -1.
        -11    1    3    3    0    0  0.12459152068E+01 -0.18195502603E+01 -0.65929725753E+00  0.23016822081E+01  0.51100000000E-03 0.  1.
         12    1    3    3    0    0  0.22905730444E+02 -0.26249089567E+00  0.11373602813E+02  0.25575383274E+02  0.00000000000E+00 0. -1.
</event>
<event>
 7    1  0.6622189E-010  0.4778727E+02  0.7816164E-02  0.1312668E+00
        -11   -1    0    0    0    0  0.00000000000E+00  0.00000000000E+00  0.45593999997E+02  0.45594000000E+02  0.51100000000E-03 0. -1.
         11   -1    0    0    0    0 -0.00000000000E+00 -0.00000000000E+00 -0.45593999997E+02  0.45594000000E+02  0.51100000000E-03 0.  1.
    9900012    2    1    2    0    0 -0.66637579695E+01  0.33649339716E+02  0.26588340712E+02  0.47787267340E+02  0.19999983112E+02 0.  0.
        -12    1    1    2    0    0  0.66637579695E+01 -0.33649339716E+02 -0.26588340712E+02  0.43400732660E+02  0.00000000000E+00 0.  1.
         11    1    3    3    0    0 -0.12188440741E+02  0.18024561846E+02  0.14315855736E+02  0.26045856545E+02  0.51100000000E-03 0. -1.
        -11    1    3    3    0    0  0.41379320171E+01  0.14106705004E+02  0.74119211225E+01  0.16463844704E+02  0.51100000000E-03 0.  1.
         12    1    3    3    0    0  0.13867507543E+01  0.15180728658E+01  0.48605638534E+01  0.52775660918E+01  0.00000000000E+00 0. -1.
</event>
<event>
 7    1  0.6622189E-010  0.4778724E+02  0.7816164E-02  0.1312668E+00
        -11   -1    0    0    0    0  0.00000000000E+00  0.00000000000E+00  0.45593999997E+02  0.45594000000E+02  0.51100000000E-03 0.  1.
         11   -1    0    0    0    0 -0.00000000000E+00 -0.00000000000E+00 -0.45593999997E+02  0.45594000000E+02  0.51100000000E-03 0. -1.
    9900012    2    1    2    0    0 -0.22375226118E+02 -0.34701182641E+02 -0.13371733577E+02  0.47787238723E+02  0.19999852634E+02 0.  0.
         12    1    1    2    0    0  0.22375226118E+02  0.34701182641E+02  0.13371733577E+02  0.43400761277E+02  0.00000000000E+00 0. -1.
         11    1    3    3    0    0 -0.17637816265E+02 -0.14711945409E+02 -0.15160239939E+01  0.23018084832E+02  0.51100000000E-03 0. -1.
        -11    1    3    3    0    0 -0.42895354659E+01 -0.19628505964E+02 -0.12684205870E+02  0.23760627931E+02  0.51100000000E-03 0.  1.
         12    1    3    3    0    0 -0.44787438744E+00 -0.36073126807E+00  0.82849628651E+00  0.10085259597E+01  0.00000000000E+00 0. -1.
</event>
<event>
 7    1  0.6622189E-010  0.4778727E+02  0.7816164E-02  0.1312668E+00
        -11   -1    0    0    0    0  0.00000000000E+00  0.00000000000E+00  0.45593999997E+02  0.45594000000E+02  0.51100000000E-03 0. -1.
         11   -1    0    0    0    0 -0.00000000000E+00 -0.00000000000E+00 -0.45593999997E+02  0.45594000000E+02  0.51100000000E-03 0.  1.
    9900012    2    1    2    0    0  0.36580563306E+01 -0.25125944119E+02  0.35198421308E+02  0.47787270668E+02  0.19999998285E+02 0.  0.
        -12    1    1    2    0    0 -0.36580563306E+01  0.25125944119E+02 -0.35198421308E+02  0.43400729332E+02  0.00000000000E+00 0.  1.
         11    1    3    3    0    0 -0.52996968921E+01 -0.12285046183E+02  0.22188252146E+02  0.25909991903E+02  0.51100000000E-03 0. -1.
        -11    1    3    3    0    0  0.85151426596E+01 -0.65227819113E+01  0.10657775818E+02  0.15120929999E+02  0.51100000000E-03 0.  1.
         12    1    3    3    0    0  0.44261056310E+00 -0.63181160243E+01  0.23523933434E+01  0.67563487661E+01  0.00000000000E+00 0. -1.
</event>
<event>
 7    1  0.6622189E-010  0.4778726E+02  0.7816164E-02  0.1312668E+00
        -11   -1    0    0    0    0  0.00000000000E+00  0.00000000000E+00  0.45593999997E+02  0.45594000000E+02  0.51100000000E-03 0. -1.
         11   -1    0    0    0    0 -0.00000000000E+00 -0.00000000000E+00 -0.45593999997E+02  0.45594000000E+02  0.51100000000E-03 0.  1.
    9900012    2    1    2    0    0  0.11560533110E+02 -0.34378030745E+01 -0.41691239703E+02  0.47787264019E+02  0.19999967967E+02 0.  0.
         12    1    1    2    0    0 -0.11560533110E+02  0.34378030745E+01  0.41691239703E+02  0.43400735981E+02  0.00000000000E+00 0. -1.
         11    1    3    3    0    0  0.60782501424E+01 -0.47439830609E+01 -0.41827929259E+01  0.87719015611E+01  0.51100000000E-03 0. -1.
        -11    1    3    3    0    0  0.31225904463E+01  0.16350282820E+01 -0.36532175457E+01  0.50764049559E+01  0.51100000000E-03 0.  1.
         12    1    3    3    0    0  0.23596925209E+01 -0.32884829556E+00 -0.33855229231E+02  0.33938957502E+02  0.00000000000E+00 0. -1.
</event>
<event>
 7    1  0.6622189E-010  0.4778728E+02  0.7816164E-02  0.1312668E+00
        -11   -1    0    0    0    0  0.00000000000E+00  0.00000000000E+00  0.45593999997E+02  0.45594000000E+02  0.51100000000E-03 0. -1.
         11   -1    0    0    0    0 -0.00000000000E+00 -0.00000000000E+00 -0.45593999997E+02  0.45594000000E+02  0.51100000000E-03 0.  1.
    9900012    2    1    2    0    0 -0.25394935283E+02 -0.10462738756E+02  0.33604330122E+02  0.47787278310E+02  0.20000033125E+02 0.  0.
        -12    1    1    2    0    0  0.25394935283E+02  0.10462738756E+02 -0.33604330122E+02  0.43400721690E+02  0.00000000000E+00 0.  1.
         11    1    3    3    0    0  0.13491982048E+01  0.19591146348E+01  0.24853070013E+01  0.34402350356E+01  0.51100000000E-03 0.  1.
        -11    1    3    3    0    0 -0.23943448704E+02 -0.70498574365E+01  0.21316429294E+02  0.32823457829E+02  0.51100000000E-03 0. -1.
        -12    1    3    3    0    0 -0.28006847831E+01 -0.53719959538E+01  0.98025938270E+01  0.11523585446E+02  0.00000000000E+00 0.  1.
</event>
<event>
 7    1  0.6622189E-010  0.4778727E+02  0.7816164E-02  0.1312668E+00
        -11   -1    0    0    0    0  0.00000000000E+00  0.00000000000E+00  0.45593999997E+02  0.45594000000E+02  0.51100000000E-03 0. -1.
         11   -1    0    0    0    0 -0.00000000000E+00 -0.00000000000E+00 -0.45593999997E+02  0.45594000000E+02  0.51100000000E-03 0.  1.
    9900012    2    1    2    0    0 -0.37393711602E+02  0.31996378360E+01 -0.21796694549E+02  0.47787271401E+02  0.20000001625E+02 0.  0.
         12    1    1    2    0    0  0.37393711602E+02 -0.31996378360E+01  0.21796694549E+02  0.43400728599E+02  0.00000000000E+00 0. -1.
         11    1    3    3    0    0 -0.71213934479E+01  0.47309172773E+01 -0.35810205374E+01  0.92692788972E+01  0.51100000000E-03 0. -1.
        -11    1    3    3    0    0 -0.16525050447E+02  0.66736759089E+01 -0.80656852445E+01  0.19561966188E+02  0.51100000000E-03 0.  1.
         12    1    3    3    0    0 -0.13747267708E+02 -0.82049553502E+01 -0.10149988767E+02  0.18956026316E+02  0.00000000000E+00 0. -1.
</event>
<event>
 7    1  0.6622189E-010  0.4778727E+02  0.7816164E-02  0.1312668E+00
        -11   -1    0    0    0    0  0.00000000000E+00  0.00000000000E+00  0.45593999997E+02  0.45594000000E+02  0.51100000000E-03 0. -1.
         11   -1    0    0    0    0 -0.00000000000E+00 -0.00000000000E+00 -0.45593999997E+02  0.45594000000E+02  0.51100000000E-03 0.  1.
    9900012    2    1    2    0    0 -0.22237457250E+02 -0.31773162509E+00  0.37269527838E+02  0.47787272315E+02  0.20000005792E+02 0.  0.
        -12    1    1    2    0    0  0.22237457250E+02  0.31773162509E+00 -0.37269527838E+02  0.43400727685E+02  0.00000000000E+00 0.  1.
         11    1    3    3    0    0 -0.22538077134E+01 -0.56610307925E+00  0.85451447237E+01  0.88554853349E+01  0.51100000000E-03 0. -1.
        -11    1    3    3    0    0 -0.45583525377E+00  0.55384722752E+01  0.95965699836E+01  0.11089482253E+02  0.51100000000E-03 0.  1.
        -12    1    3    3    0    0 -0.19527814283E+02 -0.52901008210E+01  0.19127813130E+02  0.27842304727E+02  0.00000000000E+00 0.  1.
</event>
<event>
 7    1  0.6622189E-010  0.4778726E+02  0.7816164E-02  0.1312668E+00
        -11   -1    0    0    0    0  0.00000000000E+00  0.00000000000E+00  0.45593999997E+02  0.45594000000E+02  0.51100000000E-03 0. -1.
         11   -1    0    0    0    0 -0.00000000000E+00 -0.00000000000E+00 -0.45593999997E+02  0.45594000000E+02  0.51100000000E-03 0.  1.
    9900012    2    1    2    0    0  0.35251956376E+02 -0.18163761229E+02  0.17635232359E+02  0.47787261864E+02  0.19999958145E+02 0.  0.
        -12    1    1    2    0    0 -0.35251956376E+02  0.18163761229E+02 -0.17635232359E+02  0.43400738136E+02  0.00000000000E+00 0.  1.
         11    1    3    3    0    0  0.23038981193E+02 -0.39277447056E+01  0.16532550933E+02  0.28627732594E+02  0.51100000000E-03 0. -1.
        -11    1    3    3    0    0  0.12143657552E+02 -0.13226150825E+02  0.46172286636E+00  0.17961421788E+02  0.51100000000E-03 0.  1.
        -12    1    3    3    0    0  0.69317631559E-01 -0.10098656989E+01  0.64095855967E+00  0.11981074822E+01  0.00000000000E+00 0.  1.
</event>
<event>
 7    1  0.6622189E-010  0.4778727E+02  0.7816164E-02  0.1312668E+00
        -11   -1    0    0    0    0  0.00000000000E+00  0.00000000000E+00  0.45593999997E+02  0.45594000000E+02  0.51100000000E-03 0. -1.
         11   -1    0    0    0    0 -0.00000000000E+00 -0.00000000000E+00 -0.45593999997E+02  0.45594000000E+02  0.51100000000E-03 0.  1.
    9900012    2    1    2    0    0 -0.16806485246E+02 -0.15862079115E+02  0.36736356417E+02  0.47787269788E+02  0.19999994269E+02 0.  0.
        -12    1    1    2    0    0  0.16806485246E+02  0.15862079115E+02 -0.36736356417E+02  0.43400730212E+02  0.00000000000E+00 0.  1.
         11    1    3    3    0    0 -0.53255206062E+01 -0.12115263591E+02  0.17942177608E+02  0.22294898950E+02  0.51100000000E-03 0. -1.
        -11    1    3    3    0    0 -0.58801657012E+01  0.18376366129E+01  0.13041335955E+01  0.62971439313E+01  0.51100000000E-03 0.  1.
        -12    1    3    3    0    0 -0.56007989389E+01 -0.55844521370E+01  0.17490045214E+02  0.19195226907E+02  0.00000000000E+00 0.  1.
</event>
<event>
 7    1  0.6622189E-010  0.4778727E+02  0.7816164E-02  0.1312668E+00
        -11   -1    0    0    0    0  0.00000000000E+00  0.00000000000E+00  0.45593999997E+02  0.45594000000E+02  0.51100000000E-03 0. -1.
         11   -1    0    0    0    0 -0.00000000000E+00 -0.00000000000E+00 -0.45593999997E+02  0.45594000000E+02  0.51100000000E-03 0.  1.
    9900012    2    1    2    0    0 -0.17952457314E+02  0.16768222995E+02  0.35779309510E+02  0.47787274027E+02  0.20000013598E+02 0.  0.
        -12    1    1    2    0    0  0.17952457314E+02 -0.16768222995E+02 -0.35779309510E+02  0.43400725973E+02  0.00000000000E+00 0.  1.
         11    1    3    3    0    0 -0.14323775842E+02  0.12834242637E+00  0.17456558209E+02  0.22581373983E+02  0.51100000000E-03 0. -1.
        -11    1    3    3    0    0 -0.99974125193E+00  0.41722681819E+01  0.27993565933E+01  0.51228607194E+01  0.51100000000E-03 0.  1.
         12    1    3    3    0    0 -0.26289402198E+01  0.12467612387E+02  0.15523394707E+02  0.20083039325E+02  0.00000000000E+00 0. -1.
</event>
<event>
 7    1  0.6622189E-010  0.4778727E+02  0.7816164E-02  0.1312668E+00
        -11   -1    0    0    0    0  0.00000000000E+00  0.00000000000E+00  0.45593999997E+02  0.45594000000E+02  0.51100000000E-03 0. -1.
         11   -1    0    0    0    0 -0.00000000000E+00 -0.00000000000E+00 -0.45593999997E+02  0.45594000000E+02  0.51100000000E-03 0.  1.
    9900012    2    1    2    0    0  0.33867109300E+02 -0.21080485295E+02  0.17095472539E+02  0.47787272657E+02  0.20000007352E+02 0.  0.
        -12    1    1    2    0    0 -0.33867109300E+02  0.21080485295E+02 -0.17095472539E+02  0.43400727343E+02  0.00000000000E+00 0.  1.
         11    1    3    3    0    0  0.12031777604E+02 -0.85556101724E+01 -0.61499158284E-01  0.14763668926E+02  0.51100000000E-03 0. -1.
        -11    1    3    3    0    0  0.15357762030E+01 -0.30387425048E+01 -0.16376459689E+01  0.37781541970E+01  0.51100000000E-03 0.  1.
         12    1    3    3    0    0  0.20299555492E+02 -0.94861326176E+01  0.18794617666E+02  0.29245449534E+02  0.00000000000E+00 0. -1.
</event>
<event>
 7    1  0.6622189E-010  0.4778728E+02  0.7816164E-02  0.1312668E+00
        -11   -1    0    0    0    0  0.00000000000E+00  0.00000000000E+00  0.45593999997E+02  0.45594000000E+02  0.51100000000E-03 0. -1.
         11   -1    0    0    0    0 -0.00000000000E+00 -0.00000000000E+00 -0.45593999997E+02  0.45594000000E+02  0.51100000000E-03 0.  1.
    9900012    2    1    2    0    0 -0.88133847995E+01 -0.17204838163E+02  0.38857948809E+02  0.47787281187E+02  0.20000046245E+02 0.  0.
        -12    1    1    2    0    0  0.88133847995E+01  0.17204838163E+02 -0.38857948809E+02  0.43400718813E+02  0.00000000000E+00 0.  1.
         11    1    3    3    0    0  0.60583720899E+01 -0.54155135370E+01  0.12151079378E+02  0.14617810697E+02  0.51100000000E-03 0. -1.
        -11    1    3    3    0    0 -0.22929532720E+01 -0.38596570391E+01  0.39189029538E+01  0.59592271134E+01  0.51100000000E-03 0.  1.
         12    1    3    3    0    0 -0.12578803617E+02 -0.79296675869E+01  0.22787966477E+02  0.27210243377E+02  0.00000000000E+00 0. -1.
</event>
<event>
 7    1  0.6622189E-010  0.4778728E+02  0.7816164E-02  0.1312668E+00
        -11   -1    0    0    0    0  0.00000000000E+00  0.00000000000E+00  0.45593999997E+02  0.45594000000E+02  0.51100000000E-03 0. -1.
         11   -1    0    0    0    0 -0.00000000000E+00 -0.00000000000E+00 -0.45593999997E+02  0.45594000000E+02  0.51100000000E-03 0.  1.
    9900012    2    1    2    0    0  0.12085945245E+02  0.19957118117E+02  0.36595986518E+02  0.47787275752E+02  0.20000021464E+02 0.  0.
        -12    1    1    2    0    0 -0.12085945245E+02 -0.19957118117E+02 -0.36595986518E+02  0.43400724248E+02  0.00000000000E+00 0.  1.
         11    1    3    3    0    0  0.55625155660E+00  0.13088675682E+02  0.15015157960E+02  0.19926811479E+02  0.51100000000E-03 0. -1.
        -11    1    3    3    0    0  0.95652070824E+01 -0.82201647918E+00  0.10464585979E+02  0.14201283660E+02  0.51100000000E-03 0.  1.
        -12    1    3    3    0    0  0.19644866059E+01  0.76904589137E+01  0.11116242580E+02  0.13659180613E+02  0.00000000000E+00 0.  1.
</event>
<event>
 7    1  0.6622189E-010  0.4778726E+02  0.7816164E-02  0.1312668E+00
        -11   -1    0    0    0    0  0.00000000000E+00  0.00000000000E+00  0.45593999997E+02  0.45594000000E+02  0.51100000000E-03 0. -1.
         11   -1    0    0    0    0 -0.00000000000E+00 -0.00000000000E+00 -0.45593999997E+02  0.45594000000E+02  0.51100000000E-03 0.  1.
    9900012    2    1    2    0    0  0.31433829940E+02  0.16914807001E+02 -0.24686589174E+02  0.47787262153E+02  0.19999959462E+02 0.  0.
         12    1    1    2    0    0 -0.31433829940E+02 -0.16914807001E+02  0.24686589174E+02  0.43400737847E+02  0.00000000000E+00 0. -1.
         11    1    3    3    0    0  0.30750602514E+01  0.40200671217E+01 -0.23302317794E+01  0.55719759170E+01  0.51100000000E-03 0. -1.
        -11    1    3    3    0    0  0.19335867062E+02  0.75450399673E+01 -0.23853350751E+02  0.31619388442E+02  0.51100000000E-03 0.  1.
        -12    1    3    3    0    0  0.90229026264E+01  0.53496999123E+01  0.14969933562E+01  0.10595897794E+02  0.00000000000E+00 0.  1.
</event>
<event>
 7    1  0.6622189E-010  0.4778727E+02  0.7816164E-02  0.1312668E+00
        -11   -1    0    0    0    0  0.00000000000E+00  0.00000000000E+00  0.45593999997E+02  0.45594000000E+02  0.51100000000E-03 0. -1.
         11   -1    0    0    0    0 -0.00000000000E+00 -0.00000000000E+00 -0.45593999997E+02  0.45594000000E+02  0.51100000000E-03 0.  1.
    9900012    2    1    2    0    0  0.13318681513E+02 -0.10225251666E+02  0.40021000200E+02  0.47787268371E+02  0.19999987811E+02 0.  0.
        -12    1    1    2    0    0 -0.13318681513E+02  0.10225251666E+02 -0.40021000200E+02  0.43400731629E+02  0.00000000000E+00 0.  1.
         11    1    3    3    0    0  0.17888497445E+01 -0.46374312704E+01  0.12442398821E+02  0.13398471587E+02  0.51100000000E-03 0.  1.
        -11    1    3    3    0    0 -0.27814323060E+01 -0.67268310930E+00  0.13229027942E+02  0.13534993491E+02  0.51100000000E-03 0. -1.
        -12    1    3    3    0    0  0.14311264075E+02 -0.49151372868E+01  0.14349573438E+02  0.20853803293E+02  0.00000000000E+00 0.  1.
</event>
<event>
 7    1  0.6622189E-010  0.4778728E+02  0.7816164E-02  0.1312668E+00
        -11   -1    0    0    0    0  0.00000000000E+00  0.00000000000E+00  0.45593999997E+02  0.45594000000E+02  0.51100000000E-03 0. -1.
         11   -1    0    0    0    0 -0.00000000000E+00 -0.00000000000E+00 -0.45593999997E+02  0.45594000000E+02  0.51100000000E-03 0.  1.
    9900012    2    1    2    0    0  0.72080307098E+01  0.14645446555E+02  0.40214145485E+02  0.47787282165E+02  0.20000050701E+02 0.  0.
        -12    1    1    2    0    0 -0.72080307098E+01 -0.14645446555E+02 -0.40214145485E+02  0.43400717835E+02  0.00000000000E+00 0.  1.
         11    1    3    3    0    0  0.23282536382E+01 -0.23358359871E+01  0.60373722833E+00  0.33528187641E+01  0.51100000000E-03 0. -1.
        -11    1    3    3    0    0 -0.27584317867E-01 -0.69616277459E+00  0.68628434293E+01  0.68981174026E+01  0.51100000000E-03 0.  1.
         12    1    3    3    0    0  0.49073613894E+01  0.17677445316E+02  0.32747564828E+02  0.37536345998E+02  0.00000000000E+00 0. -1.
</event>
<event>
 7    1  0.6622189E-010  0.4778727E+02  0.7816164E-02  0.1312668E+00
        -11   -1    0    0    0    0  0.00000000000E+00  0.00000000000E+00  0.45593999997E+02  0.45594000000E+02  0.51100000000E-03 0. -1.
         11   -1    0    0    0    0 -0.00000000000E+00 -0.00000000000E+00 -0.45593999997E+02  0.45594000000E+02  0.51100000000E-03 0.  1.
    9900012    2    1    2    0    0 -0.12463808678E+01  0.10330730677E+02 -0.42134852764E+02  0.47787270985E+02  0.19999999727E+02 0.  0.
         12    1    1    2    0    0  0.12463808678E+01 -0.10330730677E+02  0.42134852764E+02  0.43400729015E+02  0.00000000000E+00 0. -1.
         11    1    3    3    0    0 -0.21322592631E+00  0.83433043875E+01 -0.43203587669E+01  0.93979622011E+01  0.51100000000E-03 0. -1.
        -11    1    3    3    0    0 -0.36269960406E+01  0.77911594929E+00 -0.23582287332E+02  0.23872293522E+02  0.51100000000E-03 0.  1.
        -12    1    3    3    0    0  0.25938410991E+01  0.12083103404E+01 -0.14232206666E+02  0.14517015261E+02  0.00000000000E+00 0.  1.
</event>
<event>
 7    1  0.6622189E-010  0.4778727E+02  0.7816164E-02  0.1312668E+00
        -11   -1    0    0    0    0  0.00000000000E+00  0.00000000000E+00  0.45593999997E+02  0.45594000000E+02  0.51100000000E-03 0. -1.
         11   -1    0    0    0    0 -0.00000000000E+00 -0.00000000000E+00 -0.45593999997E+02  0.45594000000E+02  0.51100000000E-03 0.  1.
    9900012    2    1    2    0    0  0.30874174430E+02 -0.15441165303E+02  0.26305497986E+02  0.47787268936E+02  0.19999990385E+02 0.  0.
        -12    1    1    2    0    0 -0.30874174430E+02  0.15441165303E+02 -0.26305497986E+02  0.43400731064E+02  0.00000000000E+00 0.  1.
         11    1    3    3    0    0  0.34247831056E+01 -0.10213179019E+02  0.11811969274E+02  0.15986268588E+02  0.51100000000E-03 0. -1.
        -11    1    3    3    0    0  0.24015543006E+02 -0.59552910053E+01  0.12027668737E+02  0.27511390592E+02  0.51100000000E-03 0.  1.
         12    1    3    3    0    0  0.34338483185E+01  0.72730472102E+00  0.24658599759E+01  0.42896097552E+01  0.00000000000E+00 0. -1.
</event>
<event>
 7    1  0.6622189E-010  0.4778727E+02  0.7816164E-02  0.1312668E+00
        -11   -1    0    0    0    0  0.00000000000E+00  0.00000000000E+00  0.45593999997E+02  0.45594000000E+02  0.51100000000E-03 0. -1.
         11   -1    0    0    0    0 -0.00000000000E+00 -0.00000000000E+00 -0.45593999997E+02  0.45594000000E+02  0.51100000000E-03 0.  1.
    9900012    2    1    2    0    0 -0.81059586615E+01  0.71137534800E+01 -0.42039403295E+02  0.47787268626E+02  0.19999988971E+02 0.  0.
         12    1    1    2    0    0  0.81059586615E+01 -0.71137534800E+01  0.42039403295E+02  0.43400731374E+02  0.00000000000E+00 0. -1.
         11    1    3    3    0    0  0.24839407682E+01 -0.70012315543E+00 -0.61984669416E+01  0.67142480488E+01  0.51100000000E-03 0. -1.
        -11    1    3    3    0    0 -0.14435320192E+02  0.52148260351E+01 -0.28907985199E+02  0.32729871496E+02  0.51100000000E-03 0.  1.
        -12    1    3    3    0    0  0.38454207627E+01  0.25990506003E+01 -0.69329511552E+01  0.83431490808E+01  0.00000000000E+00 0.  1.
</event>
<event>
 7    1  0.6622189E-010  0.4778725E+02  0.7816164E-02  0.1312668E+00
        -11   -1    0    0    0    0  0.00000000000E+00  0.00000000000E+00  0.45593999997E+02  0.45594000000E+02  0.51100000000E-03 0. -1.
         11   -1    0    0    0    0 -0.00000000000E+00 -0.00000000000E+00 -0.45593999997E+02  0.45594000000E+02  0.51100000000E-03 0.  1.
    9900012    2    1    2    0    0 -0.10939588202E+02  0.17578916253E+02  0.38143575799E+02  0.47787248147E+02  0.19999895601E+02 0.  0.
        -12    1    1    2    0    0  0.10939588202E+02 -0.17578916253E+02 -0.38143575799E+02  0.43400751853E+02  0.00000000000E+00 0.  1.
         11    1    3    3    0    0 -0.57305774366E+00  0.13880464527E+02  0.14171765387E+02  0.19845267071E+02  0.51100000000E-03 0. -1.
        -11    1    3    3    0    0 -0.10783903169E+02  0.21516016330E+01  0.13803340209E+02  0.17648063870E+02  0.51100000000E-03 0.  1.
         12    1    3    3    0    0  0.41737271129E+00  0.15468500930E+01  0.10168470203E+02  0.10293917206E+02  0.00000000000E+00 0. -1.
</event>
<event>
 7    1  0.6622189E-010  0.4778729E+02  0.7816164E-02  0.1312668E+00
        -11   -1    0    0    0    0  0.00000000000E+00  0.00000000000E+00  0.45593999997E+02  0.45594000000E+02  0.51100000000E-03 0. -1.
         11   -1    0    0    0    0 -0.00000000000E+00 -0.00000000000E+00 -0.45593999997E+02  0.45594000000E+02  0.51100000000E-03 0.  1.
    9900012    2    1    2    0    0 -0.19246326964E+02 -0.31740778018E+02 -0.22488300461E+02  0.47787288618E+02  0.20000080127E+02 0.  0.
         12    1    1    2    0    0  0.19246326964E+02  0.31740778018E+02  0.22488300461E+02  0.43400711382E+02  0.00000000000E+00 0. -1.
         11    1    3    3    0    0 -0.87335774076E+01 -0.10526403902E+02 -0.11416918468E+01  0.13725305606E+02  0.51100000000E-03 0.  1.
        -11    1    3    3    0    0 -0.73246380244E+01 -0.22012836738E+02 -0.19401783163E+02  0.30243090014E+02  0.51100000000E-03 0. -1.
         12    1    3    3    0    0 -0.31881115319E+01  0.79846262160E+00 -0.19448254508E+01  0.38188929983E+01  0.00000000000E+00 0. -1.
</event>
<event>
 7    1  0.6622189E-010  0.4778727E+02  0.7816164E-02  0.1312668E+00
        -11   -1    0    0    0    0  0.00000000000E+00  0.00000000000E+00  0.45593999997E+02  0.45594000000E+02  0.51100000000E-03 0. -1.
         11   -1    0    0    0    0 -0.00000000000E+00 -0.00000000000E+00 -0.45593999997E+02  0.45594000000E+02  0.51100000000E-03 0.  1.
    9900012    2    1    2    0    0  0.32582814480E+02  0.28144334857E+02  0.54662784771E+01  0.47787267467E+02  0.19999983689E+02 0.  0.
        -12    1    1    2    0    0 -0.32582814480E+02 -0.28144334857E+02 -0.54662784771E+01  0.43400732533E+02  0.00000000000E+00 0.  1.
         11    1    3    3    0    0  0.24732835539E+02  0.10689928589E+02  0.84863115845E+01  0.28248986028E+02  0.51100000000E-03 0. -1.
        -11    1    3    3    0    0  0.19467121468E+01  0.73065763605E+01 -0.10449527236E+01  0.76333264538E+01  0.51100000000E-03 0.  1.
         12    1    3    3    0    0  0.59032667942E+01  0.10147829907E+02 -0.19750803839E+01  0.11904954985E+02  0.00000000000E+00 0. -1.
</event>
<event>
 7    1  0.6622189E-010  0.4778727E+02  0.7816164E-02  0.1312668E+00
        -11   -1    0    0    0    0  0.00000000000E+00  0.00000000000E+00  0.45593999997E+02  0.45594000000E+02  0.51100000000E-03 0. -1.
         11   -1    0    0    0    0 -0.00000000000E+00 -0.00000000000E+00 -0.45593999997E+02  0.45594000000E+02  0.51100000000E-03 0.  1.
    9900012    2    1    2    0    0 -0.17957339712E+02  0.19608334018E+02 -0.34302628324E+02  0.47787272789E+02  0.20000007952E+02 0.  0.
         12    1    1    2    0    0  0.17957339712E+02 -0.19608334018E+02  0.34302628324E+02  0.43400727211E+02  0.00000000000E+00 0. -1.
         11    1    3    3    0    0 -0.13297069857E+02  0.12977717185E+02 -0.11482297305E+02  0.21842077780E+02  0.51100000000E-03 0.  1.
        -11    1    3    3    0    0  0.17946875769E+01  0.27132979413E+00 -0.10476366723E+02  0.10632440140E+02  0.51100000000E-03 0. -1.
         12    1    3    3    0    0 -0.64549574323E+01  0.63592870396E+01 -0.12343964296E+02  0.15312754868E+02  0.00000000000E+00 0. -1.
</event>
<event>
 7    1  0.6622189E-010  0.4778727E+02  0.7816164E-02  0.1312668E+00
        -11   -1    0    0    0    0  0.00000000000E+00  0.00000000000E+00  0.45593999997E+02  0.45594000000E+02  0.51100000000E-03 0.  1.
         11   -1    0    0    0    0 -0.00000000000E+00 -0.00000000000E+00 -0.45593999997E+02  0.45594000000E+02  0.51100000000E-03 0. -1.
    9900012    2    1    2    0    0 -0.24049296244E+02  0.35729787983E+02 -0.53513515859E+01  0.47787270019E+02  0.19999995323E+02 0.  0.
         12    1    1    2    0    0  0.24049296244E+02 -0.35729787983E+02  0.53513515859E+01  0.43400729981E+02  0.00000000000E+00 0. -1.
         11    1    3    3    0    0 -0.71037605952E+01  0.19443679440E+02 -0.87330235857E+01  0.22467438349E+02  0.51100000000E-03 0. -1.
        -11    1    3    3    0    0 -0.97813142648E+01  0.12475572672E+02 -0.13774668070E+01  0.15912618807E+02  0.51100000000E-03 0.  1.
         12    1    3    3    0    0 -0.71642213838E+01  0.38105358715E+01  0.47591388069E+01  0.94072128629E+01  0.00000000000E+00 0. -1.
</event>
<event>
 7    1  0.6622189E-010  0.4778728E+02  0.7816164E-02  0.1312668E+00
        -11   -1    0    0    0    0  0.00000000000E+00  0.00000000000E+00  0.45593999997E+02  0.45594000000E+02  0.51100000000E-03 0. -1.
         11   -1    0    0    0    0 -0.00000000000E+00 -0.00000000000E+00 -0.45593999997E+02  0.45594000000E+02  0.51100000000E-03 0.  1.
    9900012    2    1    2    0    0 -0.17042264254E+02 -0.10960526377E+02  0.38380339071E+02  0.47787281842E+02  0.20000049232E+02 0.  0.
        -12    1    1    2    0    0  0.17042264254E+02  0.10960526377E+02 -0.38380339071E+02  0.43400718158E+02  0.00000000000E+00 0.  1.
         11    1    3    3    0    0 -0.31154952574E+01 -0.31677780102E+01  0.25373042686E+02  0.25759123115E+02  0.51100000000E-03 0. -1.
        -11    1    3    3    0    0 -0.10604076207E+02 -0.42074799496E+01  0.45953152014E+01  0.12299034181E+02  0.51100000000E-03 0.  1.
        -12    1    3    3    0    0 -0.33226927894E+01 -0.35852684175E+01  0.84119811838E+01  0.97291245462E+01  0.00000000000E+00 0.  1.
</event>
<event>
 7    1  0.6622189E-010  0.4778727E+02  0.7816164E-02  0.1312668E+00
        -11   -1    0    0    0    0  0.00000000000E+00  0.00000000000E+00  0.45593999997E+02  0.45594000000E+02  0.51100000000E-03 0. -1.
         11   -1    0    0    0    0 -0.00000000000E+00 -0.00000000000E+00 -0.45593999997E+02  0.45594000000E+02  0.51100000000E-03 0.  1.
    9900012    2    1    2    0    0 -0.85220171183E+01  0.11213409438E+02 -0.41051897583E+02  0.47787267032E+02  0.19999981705E+02 0.  0.
         12    1    1    2    0    0  0.85220171183E+01 -0.11213409438E+02  0.41051897583E+02  0.43400732968E+02  0.00000000000E+00 0. -1.
         11    1    3    3    0    0 -0.27728137968E+01  0.11090969555E+02 -0.97062343942E+01  0.14996969307E+02  0.51100000000E-03 0. -1.
        -11    1    3    3    0    0 -0.68569278180E+01  0.13276984823E+01 -0.17407981828E+02  0.18756814067E+02  0.51100000000E-03 0.  1.
         12    1    3    3    0    0  0.11077244965E+01 -0.12052585992E+01 -0.13937681361E+02  0.14033483657E+02  0.00000000000E+00 0. -1.
</event>
<event>
 7    1  0.6622189E-010  0.4778727E+02  0.7816164E-02  0.1312668E+00
        -11   -1    0    0    0    0  0.00000000000E+00  0.00000000000E+00  0.45593999997E+02  0.45594000000E+02  0.51100000000E-03 0. -1.
         11   -1    0    0    0    0 -0.00000000000E+00 -0.00000000000E+00 -0.45593999997E+02  0.45594000000E+02  0.51100000000E-03 0.  1.
    9900012    2    1    2    0    0 -0.30963414522E+02 -0.20595206091E+01 -0.30342193554E+02  0.47787269895E+02  0.19999994757E+02 0.  0.
         12    1    1    2    0    0  0.30963414522E+02  0.20595206091E+01  0.30342193554E+02  0.43400730105E+02  0.00000000000E+00 0. -1.
         11    1    3    3    0    0 -0.16230234691E+02  0.16625122340E+01 -0.40951932313E+01  0.16821268469E+02  0.51100000000E-03 0. -1.
        -11    1    3    3    0    0 -0.14986641960E+02 -0.42586999163E+01 -0.23784974098E+02  0.28433447827E+02  0.51100000000E-03 0.  1.
         12    1    3    3    0    0  0.25346212874E+00  0.53666707315E+00 -0.24620262249E+01  0.25325535987E+01  0.00000000000E+00 0. -1.
</event>
<event>
 7    1  0.6622189E-010  0.4778727E+02  0.7816164E-02  0.1312668E+00
        -11   -1    0    0    0    0  0.00000000000E+00  0.00000000000E+00  0.45593999997E+02  0.45594000000E+02  0.51100000000E-03 0. -1.
         11   -1    0    0    0    0 -0.00000000000E+00 -0.00000000000E+00 -0.45593999997E+02  0.45594000000E+02  0.51100000000E-03 0.  1.
    9900012    2    1    2    0    0 -0.33743709625E+02 -0.26821369651E+02  0.50595605965E+01  0.47787274630E+02  0.20000016348E+02 0.  0.
        -12    1    1    2    0    0  0.33743709625E+02  0.26821369651E+02 -0.50595605965E+01  0.43400725370E+02  0.00000000000E+00 0.  1.
         11    1    3    3    0    0 -0.20406649392E+01 -0.40846756015E+00  0.48706841200E+01  0.52966709545E+01  0.51100000000E-03 0. -1.
        -11    1    3    3    0    0 -0.21740407599E+02 -0.23468342986E+02  0.14623823202E+01  0.32024162867E+02  0.51100000000E-03 0.  1.
         12    1    3    3    0    0 -0.99626370871E+01 -0.29445591053E+01 -0.12735058438E+01  0.10466440808E+02  0.00000000000E+00 0. -1.
</event>
<event>
 7    1  0.6622189E-010  0.4778727E+02  0.7816164E-02  0.1312668E+00
        -11   -1    0    0    0    0  0.00000000000E+00  0.00000000000E+00  0.45593999997E+02  0.45594000000E+02  0.51100000000E-03 0. -1.
         11   -1    0    0    0    0 -0.00000000000E+00 -0.00000000000E+00 -0.45593999997E+02  0.45594000000E+02  0.51100000000E-03 0.  1.
    9900012    2    1    2    0    0  0.18140493961E+02  0.19003968439E+02  0.34545547504E+02  0.47787272012E+02  0.20000004411E+02 0.  0.
        -12    1    1    2    0    0 -0.18140493961E+02 -0.19003968439E+02 -0.34545547504E+02  0.43400727988E+02  0.00000000000E+00 0.  1.
         11    1    3    3    0    0  0.17592126632E+02  0.14348754043E+02  0.29293132488E+02  0.37060184474E+02  0.51100000000E-03 0. -1.
        -11    1    3    3    0    0  0.17866044118E+01  0.67155633989E+01  0.39368912737E+01  0.79868554670E+01  0.51100000000E-03 0.  1.
         12    1    3    3    0    0 -0.12382370829E+01 -0.20603490029E+01  0.13155237417E+01  0.27402320709E+01  0.00000000000E+00 0. -1.
</event>
<event>
 7    1  0.6622189E-010  0.4778727E+02  0.7816164E-02  0.1312668E+00
        -11   -1    0    0    0    0  0.00000000000E+00  0.00000000000E+00  0.45593999997E+02  0.45594000000E+02  0.51100000000E-03 0. -1.
         11   -1    0    0    0    0 -0.00000000000E+00 -0.00000000000E+00 -0.45593999997E+02  0.45594000000E+02  0.51100000000E-03 0.  1.
    9900012    2    1    2    0    0  0.16782845308E+02  0.15287666289E+02 -0.36989820001E+02  0.47787269351E+02  0.19999992277E+02 0.  0.
         12    1    1    2    0    0 -0.16782845308E+02 -0.15287666289E+02  0.36989820001E+02  0.43400730649E+02  0.00000000000E+00 0. -1.
         11    1    3    3    0    0  0.94717073304E+01 -0.64481496996E+00 -0.65276248380E+01  0.11521237450E+02  0.51100000000E-03 0. -1.
        -11    1    3    3    0    0  0.51719592150E+01  0.68018390145E+01 -0.71617930079E+01  0.11149235644E+02  0.51100000000E-03 0.  1.
         12    1    3    3    0    0  0.21391787625E+01  0.91306422442E+01 -0.23300402155E+02  0.25116796256E+02  0.00000000000E+00 0. -1.
</event>
<event>
 7    1  0.6622189E-010  0.4778728E+02  0.7816164E-02  0.1312668E+00
        -11   -1    0    0    0    0  0.00000000000E+00  0.00000000000E+00  0.45593999997E+02  0.45594000000E+02  0.51100000000E-03 0. -1.
         11   -1    0    0    0    0 -0.00000000000E+00 -0.00000000000E+00 -0.45593999997E+02  0.45594000000E+02  0.51100000000E-03 0.  1.
    9900012    2    1    2    0    0 -0.23036139612E+02 -0.31762799910E+02  0.18549490257E+02  0.47787276791E+02  0.20000026199E+02 0.  0.
        -12    1    1    2    0    0  0.23036139612E+02  0.31762799910E+02 -0.18549490257E+02  0.43400723209E+02  0.00000000000E+00 0.  1.
         11    1    3    3    0    0  0.14258266171E+01  0.71299556926E+00 -0.10682285865E+01  0.19189728497E+01  0.51100000000E-03 0. -1.
        -11    1    3    3    0    0 -0.13910277913E+01 -0.45117359234E+01  0.16019802407E+00  0.47240219122E+01  0.51100000000E-03 0.  1.
         12    1    3    3    0    0 -0.23070938437E+02 -0.27964059555E+02  0.19457520820E+02  0.41144282029E+02  0.00000000000E+00 0. -1.
</event>
<event>
 7    1  0.6622189E-010  0.4778727E+02  0.7816164E-02  0.1312668E+00
        -11   -1    0    0    0    0  0.00000000000E+00  0.00000000000E+00  0.45593999997E+02  0.45594000000E+02  0.51100000000E-03 0. -1.
         11   -1    0    0    0    0 -0.00000000000E+00 -0.00000000000E+00 -0.45593999997E+02  0.45594000000E+02  0.51100000000E-03 0.  1.
    9900012    2    1    2    0    0 -0.22908507738E+02  0.23987699170E+02 -0.27989530062E+02  0.47787271534E+02  0.20000002233E+02 0.  0.
         12    1    1    2    0    0  0.22908507738E+02 -0.23987699170E+02  0.27989530062E+02  0.43400728466E+02  0.00000000000E+00 0. -1.
         11    1    3    3    0    0 -0.39988462492E+01  0.12101070677E+02 -0.32452477377E+01  0.13151361754E+02  0.51100000000E-03 0. -1.
        -11    1    3    3    0    0 -0.17595166008E+02  0.73926713452E+01 -0.16857908885E+02  0.25464299494E+02  0.51100000000E-03 0.  1.
         12    1    3    3    0    0 -0.13144954811E+01  0.44939571480E+01 -0.78863734391E+01  0.91716102861E+01  0.00000000000E+00 0. -1.
</event>
<event>
 7    1  0.6622189E-010  0.4778727E+02  0.7816164E-02  0.1312668E+00
        -11   -1    0    0    0    0  0.00000000000E+00  0.00000000000E+00  0.45593999997E+02  0.45594000000E+02  0.51100000000E-03 0.  1.
         11   -1    0    0    0    0 -0.00000000000E+00 -0.00000000000E+00 -0.45593999997E+02  0.45594000000E+02  0.51100000000E-03 0. -1.
    9900012    2    1    2    0    0 -0.35905360140E+02 -0.21008030091E+02  0.12373012419E+02  0.47787266695E+02  0.19999980168E+02 0.  0.
        -12    1    1    2    0    0  0.35905360140E+02  0.21008030091E+02 -0.12373012419E+02  0.43400733305E+02  0.00000000000E+00 0.  1.
         11    1    3    3    0    0 -0.20901898017E+02 -0.69619837545E+01 -0.11178063356E+01  0.22059194223E+02  0.51100000000E-03 0. -1.
        -11    1    3    3    0    0  0.58546856496E+00 -0.23199939671E+01  0.12632519994E+01  0.27057256555E+01  0.51100000000E-03 0.  1.
         12    1    3    3    0    0 -0.15588930688E+02 -0.11726052369E+02  0.12227566755E+02  0.23022346816E+02  0.00000000000E+00 0. -1.
</event>
<event>
 7    1  0.6622189E-010  0.4778726E+02  0.7816164E-02  0.1312668E+00
        -11   -1    0    0    0    0  0.00000000000E+00  0.00000000000E+00  0.45593999997E+02  0.45594000000E+02  0.51100000000E-03 0. -1.
         11   -1    0    0    0    0 -0.00000000000E+00 -0.00000000000E+00 -0.45593999997E+02  0.45594000000E+02  0.51100000000E-03 0.  1.
    9900012    2    1    2    0    0  0.40125657122E+02  0.11924469500E+02 -0.11461367416E+02  0.47787259507E+02  0.19999947394E+02 0.  0.
         12    1    1    2    0    0 -0.40125657122E+02 -0.11924469500E+02  0.11461367416E+02  0.43400740493E+02  0.00000000000E+00 0. -1.
         11    1    3    3    0    0  0.12677008771E+02  0.16620111211E+01  0.10279274290E+01  0.12826748122E+02  0.51100000000E-03 0. -1.
        -11    1    3    3    0    0  0.20652583449E+02  0.13383035693E+02 -0.12221959178E+02  0.27477465929E+02  0.51100000000E-03 0.  1.
        -12    1    3    3    0    0  0.67960649022E+01 -0.31205773135E+01 -0.26733566693E+00  0.74830454551E+01  0.00000000000E+00 0.  1.
</event>
<event>
 7    1  0.6622189E-010  0.4778727E+02  0.7816164E-02  0.1312668E+00
        -11   -1    0    0    0    0  0.00000000000E+00  0.00000000000E+00  0.45593999997E+02  0.45594000000E+02  0.51100000000E-03 0.  1.
         11   -1    0    0    0    0 -0.00000000000E+00 -0.00000000000E+00 -0.45593999997E+02  0.45594000000E+02  0.51100000000E-03 0. -1.
    9900012    2    1    2    0    0 -0.17095173777E+02 -0.39142184886E+02 -0.76985404688E+01  0.47787272708E+02  0.20000007585E+02 0.  0.
         12    1    1    2    0    0  0.17095173777E+02  0.39142184886E+02  0.76985404688E+01  0.43400727292E+02  0.00000000000E+00 0. -1.
         11    1    3    3    0    0 -0.97391143834E+01 -0.11832096499E+02 -0.71528547026E+01  0.16911894843E+02  0.51100000000E-03 0.  1.
        -11    1    3    3    0    0 -0.91649587678E+01 -0.22049523476E+02  0.33102849088E+01  0.24106761317E+02  0.51100000000E-03 0. -1.
         12    1    3    3    0    0  0.18088993744E+01 -0.52605649111E+01 -0.38559706750E+01  0.67686165482E+01  0.00000000000E+00 0. -1.
</event>
<event>
 7    1  0.7417950E-010  0.4778727E+02  0.7816164E-02  0.1312668E+00
        -11   -1    0    0    0    0  0.00000000000E+00  0.00000000000E+00  0.45593999997E+02  0.45594000000E+02  0.51100000000E-03 0. -1.
         11   -1    0    0    0    0 -0.00000000000E+00 -0.00000000000E+00 -0.45593999997E+02  0.45594000000E+02  0.51100000000E-03 0.  1.
    9900012    2    1    2    0    0  0.68100338623E+01  0.37908605165E+01 -0.42695152348E+02  0.47787271681E+02  0.20000002901E+02 0.  0.
         12    1    1    2    0    0 -0.68100338623E+01 -0.37908605165E+01  0.42695152348E+02  0.43400728319E+02  0.00000000000E+00 0. -1.
         11    1    3    3    0    0 -0.44659735276E+01 -0.21777385493E+01 -0.40754292102E+01  0.64262421560E+01  0.51100000000E-03 0. -1.
        -11    1    3    3    0    0  0.50136846653E+01  0.12636952315E+01 -0.25991963050E+02  0.26501247197E+02  0.51100000000E-03 0.  1.
        -12    1    3    3    0    0  0.62623227246E+01  0.47049038343E+01 -0.12627760088E+02  0.14859782328E+02  0.00000000000E+00 0.  1.
</event>
<event>
 7    1  0.6622189E-010  0.4778727E+02  0.7816164E-02  0.1312668E+00
        -11   -1    0    0    0    0  0.00000000000E+00  0.00000000000E+00  0.45593999997E+02  0.45594000000E+02  0.51100000000E-03 0. -1.
         11   -1    0    0    0    0 -0.00000000000E+00 -0.00000000000E+00 -0.45593999997E+02  0.45594000000E+02  0.51100000000E-03 0.  1.
    9900012    2    1    2    0    0  0.18872182230E+02  0.20248641150E+02 -0.33428377080E+02  0.47787272762E+02  0.20000007832E+02 0.  0.
         12    1    1    2    0    0 -0.18872182230E+02 -0.20248641150E+02  0.33428377080E+02  0.43400727238E+02  0.00000000000E+00 0. -1.
         11    1    3    3    0    0  0.77492010205E+01  0.14626268696E+02 -0.29806716307E+02  0.34094254497E+02  0.51100000000E-03 0. -1.
        -11    1    3    3    0    0  0.76554352566E+01  0.59484419087E+01 -0.30521456562E+01  0.10163918707E+02  0.51100000000E-03 0.  1.
         12    1    3    3    0    0  0.34675459534E+01 -0.32606945450E+00 -0.56951511693E+00  0.35290995588E+01  0.00000000000E+00 0. -1.
</event>
<event>
 7    1  0.6622189E-010  0.4778727E+02  0.7816164E-02  0.1312668E+00
        -11   -1    0    0    0    0  0.00000000000E+00  0.00000000000E+00  0.45593999997E+02  0.45594000000E+02  0.51100000000E-03 0. -1.
         11   -1    0    0    0    0 -0.00000000000E+00 -0.00000000000E+00 -0.45593999997E+02  0.45594000000E+02  0.51100000000E-03 0.  1.
    9900012    2    1    2    0    0  0.28638584881E+02 -0.15693894871E+02  0.28585946364E+02  0.47787271783E+02  0.20000003369E+02 0.  0.
        -12    1    1    2    0    0 -0.28638584881E+02  0.15693894871E+02 -0.28585946364E+02  0.43400728217E+02  0.00000000000E+00 0.  1.
         11    1    3    3    0    0  0.20966105367E+02 -0.14280234434E+02  0.24407209115E+02  0.35202478987E+02  0.51100000000E-03 0. -1.
        -11    1    3    3    0    0  0.87658688183E+01 -0.11463870758E+01  0.63125207404E+00  0.88630208681E+01  0.51100000000E-03 0.  1.
         12    1    3    3    0    0 -0.10933893049E+01 -0.26727336121E+00  0.35474851750E+01  0.37217719285E+01  0.00000000000E+00 0. -1.
</event>
<event>
 7    1  0.6622189E-010  0.4778725E+02  0.7816164E-02  0.1312668E+00
        -11   -1    0    0    0    0  0.00000000000E+00  0.00000000000E+00  0.45593999997E+02  0.45594000000E+02  0.51100000000E-03 0. -1.
         11   -1    0    0    0    0 -0.00000000000E+00 -0.00000000000E+00 -0.45593999997E+02  0.45594000000E+02  0.51100000000E-03 0.  1.
    9900012    2    1    2    0    0  0.11688955058E+02  0.31085686211E+02  0.27940537758E+02  0.47787248765E+02  0.19999898417E+02 0.  0.
        -12    1    1    2    0    0 -0.11688955058E+02 -0.31085686211E+02 -0.27940537758E+02  0.43400751235E+02  0.00000000000E+00 0.  1.
         11    1    3    3    0    0 -0.41944130199E+01  0.48666756674E+01  0.74552870636E+01  0.98416938631E+01  0.51100000000E-03 0. -1.
        -11    1    3    3    0    0  0.26865858754E+01  0.55221463087E+01  0.88739129326E+01  0.10791578870E+02  0.51100000000E-03 0.  1.
         12    1    3    3    0    0  0.13196782203E+02  0.20696864235E+02  0.11611337762E+02  0.27153976031E+02  0.00000000000E+00 0. -1.
</event>
<event>
 7    1  0.6622189E-010  0.4778727E+02  0.7816164E-02  0.1312668E+00
        -11   -1    0    0    0    0  0.00000000000E+00  0.00000000000E+00  0.45593999997E+02  0.45594000000E+02  0.51100000000E-03 0. -1.
         11   -1    0    0    0    0 -0.00000000000E+00 -0.00000000000E+00 -0.45593999997E+02  0.45594000000E+02  0.51100000000E-03 0.  1.
    9900012    2    1    2    0    0  0.10954901801E+02 -0.85234085012E+01  0.41121343513E+02  0.47787271224E+02  0.20000000821E+02 0.  0.
        -12    1    1    2    0    0 -0.10954901801E+02  0.85234085012E+01 -0.41121343513E+02  0.43400728776E+02  0.00000000000E+00 0.  1.
         11    1    3    3    0    0  0.13038044222E+02 -0.67611245455E+01  0.18725963274E+02  0.23798426483E+02  0.51100000000E-03 0. -1.
        -11    1    3    3    0    0  0.30411601595E+00  0.30524566686E+01  0.10435816732E+02  0.10877327309E+02  0.51100000000E-03 0.  1.
         12    1    3    3    0    0 -0.23872584362E+01 -0.48147406244E+01  0.11959563507E+02  0.13111517433E+02  0.00000000000E+00 0. -1.
</event>
<event>
 7    1  0.6622189E-010  0.4778727E+02  0.7816164E-02  0.1312668E+00
        -11   -1    0    0    0    0  0.00000000000E+00  0.00000000000E+00  0.45593999997E+02  0.45594000000E+02  0.51100000000E-03 0. -1.
         11   -1    0    0    0    0 -0.00000000000E+00 -0.00000000000E+00 -0.45593999997E+02  0.45594000000E+02  0.51100000000E-03 0.  1.
    9900012    2    1    2    0    0 -0.90905676771E+01 -0.28799312804E+02 -0.31170252394E+02  0.47787268750E+02  0.19999989541E+02 0.  0.
         12    1    1    2    0    0  0.90905676771E+01  0.28799312804E+02  0.31170252394E+02  0.43400731250E+02  0.00000000000E+00 0. -1.
         11    1    3    3    0    0  0.52142899350E+01 -0.24806034600E+01 -0.32918684284E+01  0.66466992608E+01  0.51100000000E-03 0. -1.
        -11    1    3    3    0    0 -0.72390221862E+01 -0.11305374819E+02 -0.15047697290E+02  0.20165518491E+02  0.51100000000E-03 0.  1.
         12    1    3    3    0    0 -0.70658354259E+01 -0.15013334525E+02 -0.12830686676E+02  0.20975050999E+02  0.00000000000E+00 0. -1.
</event>
<event>
 7    1  0.6622189E-010  0.4778727E+02  0.7816164E-02  0.1312668E+00
        -11   -1    0    0    0    0  0.00000000000E+00  0.00000000000E+00  0.45593999997E+02  0.45594000000E+02  0.51100000000E-03 0. -1.
         11   -1    0    0    0    0 -0.00000000000E+00 -0.00000000000E+00 -0.45593999997E+02  0.45594000000E+02  0.51100000000E-03 0.  1.
    9900012    2    1    2    0    0  0.10078936140E+02  0.33354061590E+02 -0.25875563151E+02  0.47787272510E+02  0.20000006682E+02 0.  0.
         12    1    1    2    0    0 -0.10078936140E+02 -0.33354061590E+02  0.25875563151E+02  0.43400727490E+02  0.00000000000E+00 0. -1.
         11    1    3    3    0    0 -0.74444913373E+00  0.62826292161E+01 -0.26788297546E+01  0.68703539570E+01  0.51100000000E-03 0. -1.
        -11    1    3    3    0    0 -0.13428554960E+01 -0.18731561419E+01 -0.17445281180E+01  0.28905628225E+01  0.51100000000E-03 0.  1.
        -12    1    3    3    0    0  0.12166240770E+02  0.28944588516E+02 -0.21452205278E+02  0.38026355730E+02  0.00000000000E+00 0.  1.
</event>
<event>
 7    1  0.6622189E-010  0.4778727E+02  0.7816164E-02  0.1312668E+00
        -11   -1    0    0    0    0  0.00000000000E+00  0.00000000000E+00  0.45593999997E+02  0.45594000000E+02  0.51100000000E-03 0. -1.
         11   -1    0    0    0    0 -0.00000000000E+00 -0.00000000000E+00 -0.45593999997E+02  0.45594000000E+02  0.51100000000E-03 0.  1.
    9900012    2    1    2    0    0  0.50079162118E+01  0.57466966588E+01  0.42726100983E+02  0.47787268987E+02  0.19999990619E+02 0.  0.
        -12    1    1    2    0    0 -0.50079162118E+01 -0.57466966588E+01 -0.42726100983E+02  0.43400731013E+02  0.00000000000E+00 0.  1.
         11    1    3    3    0    0 -0.25176710515E+01  0.54497218670E+01  0.88604825722E+01  0.10702629940E+02  0.51100000000E-03 0. -1.
        -11    1    3    3    0    0  0.52713909154E+01  0.13187733748E+01  0.34162477766E+02  0.34591929879E+02  0.51100000000E-03 0.  1.
        -12    1    3    3    0    0  0.22541963478E+01 -0.10217985830E+01 -0.29685935558E+00  0.24927091679E+01  0.00000000000E+00 0.  1.
</event>
<event>
 7    1  0.6622189E-010  0.4778727E+02  0.7816164E-02  0.1312668E+00
        -11   -1    0    0    0    0  0.00000000000E+00  0.00000000000E+00  0.45593999997E+02  0.45594000000E+02  0.51100000000E-03 0. -1.
         11   -1    0    0    0    0 -0.00000000000E+00 -0.00000000000E+00 -0.45593999997E+02  0.45594000000E+02  0.51100000000E-03 0.  1.
    9900012    2    1    2    0    0  0.43115778343E+01 -0.43129948694E+02 -0.22002036633E+01  0.47787273348E+02  0.20000010504E+02 0.  0.
        -12    1    1    2    0    0 -0.43115778343E+01  0.43129948694E+02  0.22002036633E+01  0.43400726652E+02  0.00000000000E+00 0.  1.
         11    1    3    3    0    0  0.30392069811E+01 -0.22959042873E+02  0.11213204901E+01  0.23186457008E+02  0.51100000000E-03 0. -1.
        -11    1    3    3    0    0 -0.30565405215E+01 -0.10221107276E+02 -0.74274388777E+01  0.12999243149E+02  0.51100000000E-03 0.  1.
        -12    1    3    3    0    0  0.43289113746E+01 -0.99497985448E+01  0.41059147243E+01  0.11601573191E+02  0.00000000000E+00 0.  1.
</event>
<event>
 7    1  0.6622189E-010  0.4778727E+02  0.7816164E-02  0.1312668E+00
        -11   -1    0    0    0    0  0.00000000000E+00  0.00000000000E+00  0.45593999997E+02  0.45594000000E+02  0.51100000000E-03 0. -1.
         11   -1    0    0    0    0 -0.00000000000E+00 -0.00000000000E+00 -0.45593999997E+02  0.45594000000E+02  0.51100000000E-03 0.  1.
    9900012    2    1    2    0    0  0.19868871232E+02 -0.36359511068E+01  0.38413944518E+02  0.47787270536E+02  0.19999997684E+02 0.  0.
        -12    1    1    2    0    0 -0.19868871232E+02  0.36359511068E+01 -0.38413944518E+02  0.43400729464E+02  0.00000000000E+00 0.  1.
         11    1    3    3    0    0  0.88852655916E+00 -0.96104996975E+00  0.90827720237E+01  0.91765921990E+01  0.51100000000E-03 0. -1.
        -11    1    3    3    0    0 -0.24115636408E+01 -0.80882476097E+00  0.38990859058E+00  0.25732985947E+01  0.51100000000E-03 0.  1.
        -12    1    3    3    0    0  0.21391908314E+02 -0.18660763761E+01  0.28941263904E+02  0.36037379743E+02  0.00000000000E+00 0.  1.
</event>
<event>
 7    1  0.6622189E-010  0.4778726E+02  0.7816164E-02  0.1312668E+00
        -11   -1    0    0    0    0  0.00000000000E+00  0.00000000000E+00  0.45593999997E+02  0.45594000000E+02  0.51100000000E-03 0. -1.
         11   -1    0    0    0    0 -0.00000000000E+00 -0.00000000000E+00 -0.45593999997E+02  0.45594000000E+02  0.51100000000E-03 0.  1.
    9900012    2    1    2    0    0  0.33834582186E+02 -0.96136292579E+01  0.25424851199E+02  0.47787264088E+02  0.19999968284E+02 0.  0.
        -12    1    1    2    0    0 -0.33834582186E+02  0.96136292579E+01 -0.25424851199E+02  0.43400735912E+02  0.00000000000E+00 0.  1.
         11    1    3    3    0    0  0.22962623470E+02 -0.66947661781E+01  0.16948335548E+02  0.29314638816E+02  0.51100000000E-03 0. -1.
        -11    1    3    3    0    0 -0.28653067979E+00  0.21454201015E+01  0.54302463187E+01  0.58457251547E+01  0.51100000000E-03 0.  1.
         12    1    3    3    0    0  0.11158489396E+02 -0.50642831812E+01  0.30462693323E+01  0.12626900118E+02  0.00000000000E+00 0. -1.
</event>
<event>
 7    1  0.6622189E-010  0.4778727E+02  0.7816164E-02  0.1312668E+00
        -11   -1    0    0    0    0  0.00000000000E+00  0.00000000000E+00  0.45593999997E+02  0.45594000000E+02  0.51100000000E-03 0.  1.
         11   -1    0    0    0    0 -0.00000000000E+00 -0.00000000000E+00 -0.45593999997E+02  0.45594000000E+02  0.51100000000E-03 0. -1.
    9900012    2    1    2    0    0  0.35809154036E+02  0.19346585454E+02 -0.15067767183E+02  0.47787268562E+02  0.19999988680E+02 0.  0.
        -12    1    1    2    0    0 -0.35809154036E+02 -0.19346585454E+02  0.15067767183E+02  0.43400731438E+02  0.00000000000E+00 0.  1.
         11    1    3    3    0    0  0.31478667305E+02  0.13023979137E+02 -0.11695115337E+02  0.36018137804E+02  0.51100000000E-03 0. -1.
        -11    1    3    3    0    0 -0.78490649585E+00  0.24175249811E+01  0.21187998599E+01  0.33090509741E+01  0.51100000000E-03 0.  1.
         12    1    3    3    0    0  0.51153932269E+01  0.39050813361E+01 -0.54914517059E+01  0.84600797836E+01  0.00000000000E+00 0. -1.
</event>
<event>
 7    1  0.6622189E-010  0.4778727E+02  0.7816164E-02  0.1312668E+00
        -11   -1    0    0    0    0  0.00000000000E+00  0.00000000000E+00  0.45593999997E+02  0.45594000000E+02  0.51100000000E-03 0. -1.
         11   -1    0    0    0    0 -0.00000000000E+00 -0.00000000000E+00 -0.45593999997E+02  0.45594000000E+02  0.51100000000E-03 0.  1.
    9900012    2    1    2    0    0  0.21241910285E+02  0.13237626725E+02  0.35456587993E+02  0.47787272518E+02  0.20000006719E+02 0.  0.
        -12    1    1    2    0    0 -0.21241910285E+02 -0.13237626725E+02 -0.35456587993E+02  0.43400727482E+02  0.00000000000E+00 0.  1.
         11    1    3    3    0    0  0.82312672589E+01 -0.26896798082E+01  0.11025633482E+02  0.14019726534E+02  0.51100000000E-03 0. -1.
        -11    1    3    3    0    0 -0.96705337711E+00  0.38434478566E+01  0.84701445325E+01  0.93515042813E+01  0.51100000000E-03 0.  1.
         12    1    3    3    0    0  0.13977696403E+02  0.12083858677E+02  0.15960809978E+02  0.24416041702E+02  0.00000000000E+00 0. -1.
</event>
<event>
 7    1  0.6622189E-010  0.4778727E+02  0.7816164E-02  0.1312668E+00
        -11   -1    0    0    0    0  0.00000000000E+00  0.00000000000E+00  0.45593999997E+02  0.45594000000E+02  0.51100000000E-03 0.  1.
         11   -1    0    0    0    0 -0.00000000000E+00 -0.00000000000E+00 -0.45593999997E+02  0.45594000000E+02  0.51100000000E-03 0. -1.
    9900012    2    1    2    0    0 -0.37666452319E+02  0.21015497383E+02 -0.48177246336E+01  0.47787271536E+02  0.20000002243E+02 0.  0.
         12    1    1    2    0    0  0.37666452319E+02 -0.21015497383E+02  0.48177246336E+01  0.43400728464E+02  0.00000000000E+00 0. -1.
         11    1    3    3    0    0 -0.12955511735E+02  0.12719040527E+02 -0.10144486168E+02  0.20797352623E+02  0.51100000000E-03 0. -1.
        -11    1    3    3    0    0 -0.20335556501E+02  0.58459794424E+01  0.58360738539E+01  0.21949261767E+02  0.51100000000E-03 0.  1.
        -12    1    3    3    0    0 -0.43753840828E+01  0.24504774136E+01 -0.50931231982E+00  0.50406571462E+01  0.00000000000E+00 0.  1.
</event>
<event>
 7    1  0.6622189E-010  0.4778727E+02  0.7816164E-02  0.1312668E+00
        -11   -1    0    0    0    0  0.00000000000E+00  0.00000000000E+00  0.45593999997E+02  0.45594000000E+02  0.51100000000E-03 0. -1.
         11   -1    0    0    0    0 -0.00000000000E+00 -0.00000000000E+00 -0.45593999997E+02  0.45594000000E+02  0.51100000000E-03 0.  1.
    9900012    2    1    2    0    0 -0.25164110945E+02  0.10805154032E+02 -0.33669559312E+02  0.47787273537E+02  0.20000011363E+02 0.  0.
         12    1    1    2    0    0  0.25164110945E+02 -0.10805154032E+02  0.33669559312E+02  0.43400726463E+02  0.00000000000E+00 0. -1.
         11    1    3    3    0    0 -0.45084161346E+01 -0.22265583889E+01 -0.46552489473E+01  0.68523515179E+01  0.51100000000E-03 0. -1.
        -11    1    3    3    0    0 -0.15148206884E+02  0.45501680134E+01 -0.82505047391E+01  0.17839367406E+02  0.51100000000E-03 0.  1.
        -12    1    3    3    0    0 -0.55074879263E+01  0.84815444078E+01 -0.20763805625E+02  0.23095554612E+02  0.00000000000E+00 0.  1.
</event>
<event>
 7    1  0.6622189E-010  0.4778727E+02  0.7816164E-02  0.1312668E+00
        -11   -1    0    0    0    0  0.00000000000E+00  0.00000000000E+00  0.45593999997E+02  0.45594000000E+02  0.51100000000E-03 0. -1.
         11   -1    0    0    0    0 -0.00000000000E+00 -0.00000000000E+00 -0.45593999997E+02  0.45594000000E+02  0.51100000000E-03 0.  1.
    9900012    2    1    2    0    0  0.11945302943E+02  0.33816882291E+02  0.24440776086E+02  0.47787270444E+02  0.19999997261E+02 0.  0.
        -12    1    1    2    0    0 -0.11945302943E+02 -0.33816882291E+02 -0.24440776086E+02  0.43400729556E+02  0.00000000000E+00 0.  1.
         11    1    3    3    0    0  0.73767103011E+01  0.15138924421E+02  0.96193374682E+01  0.19394188333E+02  0.51100000000E-03 0. -1.
        -11    1    3    3    0    0 -0.45623821267E+00 -0.13390314234E+01  0.56225279904E+01  0.57977564388E+01  0.51100000000E-03 0.  1.
        -12    1    3    3    0    0  0.50248308549E+01  0.20016989294E+02  0.91989106276E+01  0.22595325672E+02  0.00000000000E+00 0.  1.
</event>
<event>
 7    1  0.6622189E-010  0.4778727E+02  0.7816164E-02  0.1312668E+00
        -11   -1    0    0    0    0  0.00000000000E+00  0.00000000000E+00  0.45593999997E+02  0.45594000000E+02  0.51100000000E-03 0. -1.
         11   -1    0    0    0    0 -0.00000000000E+00 -0.00000000000E+00 -0.45593999997E+02  0.45594000000E+02  0.51100000000E-03 0.  1.
    9900012    2    1    2    0    0 -0.11966838842E+01  0.17070890820E+02  0.39884528794E+02  0.47787274167E+02  0.20000014239E+02 0.  0.
        -12    1    1    2    0    0  0.11966838842E+01 -0.17070890820E+02 -0.39884528794E+02  0.43400725833E+02  0.00000000000E+00 0.  1.
         11    1    3    3    0    0 -0.62081847073E+01 -0.24602779755E+00  0.14156709784E+02  0.15460094411E+02  0.51100000000E-03 0. -1.
        -11    1    3    3    0    0  0.51186894665E+01  0.60084849318E+01  0.13747542402E+02  0.15852375071E+02  0.51100000000E-03 0.  1.
         12    1    3    3    0    0 -0.10718864336E+00  0.11308433686E+02  0.11980276608E+02  0.16474804686E+02  0.00000000000E+00 0. -1.
</event>
<event>
 7    1  0.6622189E-010  0.4778727E+02  0.7816164E-02  0.1312668E+00
        -11   -1    0    0    0    0  0.00000000000E+00  0.00000000000E+00  0.45593999997E+02  0.45594000000E+02  0.51100000000E-03 0.  1.
         11   -1    0    0    0    0 -0.00000000000E+00 -0.00000000000E+00 -0.45593999997E+02  0.45594000000E+02  0.51100000000E-03 0. -1.
    9900012    2    1    2    0    0  0.30194258797E+02 -0.29947942877E+02 -0.86632058564E+01  0.47787266337E+02  0.19999978535E+02 0.  0.
         12    1    1    2    0    0 -0.30194258797E+02  0.29947942877E+02  0.86632058564E+01  0.43400733663E+02  0.00000000000E+00 0. -1.
         11    1    3    3    0    0  0.15497309466E+02 -0.93595003160E+01 -0.11191130732E+02  0.21283990560E+02  0.51100000000E-03 0. -1.
        -11    1    3    3    0    0  0.15012569255E+02 -0.16694645241E+02  0.17500490051E+01  0.22520015256E+02  0.51100000000E-03 0.  1.
        -12    1    3    3    0    0 -0.31561992369E+00 -0.38937973196E+01  0.77787587077E+00  0.39832605203E+01  0.00000000000E+00 0.  1.
</event>
<event>
 7    1  0.6622189E-010  0.4778727E+02  0.7816164E-02  0.1312668E+00
        -11   -1    0    0    0    0  0.00000000000E+00  0.00000000000E+00  0.45593999997E+02  0.45594000000E+02  0.51100000000E-03 0. -1.
         11   -1    0    0    0    0 -0.00000000000E+00 -0.00000000000E+00 -0.45593999997E+02  0.45594000000E+02  0.51100000000E-03 0.  1.
    9900012    2    1    2    0    0 -0.24633912073E+02 -0.11688502201E+02 -0.33766443443E+02  0.47787269471E+02  0.19999992824E+02 0.  0.
         12    1    1    2    0    0  0.24633912073E+02  0.11688502201E+02  0.33766443443E+02  0.43400730529E+02  0.00000000000E+00 0. -1.
         11    1    3    3    0    0 -0.93579421271E+00 -0.25227213848E+01 -0.81167991323E+00  0.28104552187E+01  0.51100000000E-03 0. -1.
        -11    1    3    3    0    0 -0.15007874817E+01 -0.70310304195E+01 -0.13881812141E+02  0.15633056656E+02  0.51100000000E-03 0.  1.
        -12    1    3    3    0    0 -0.22197330378E+02 -0.21347503968E+01 -0.19072951388E+02  0.29343757596E+02  0.00000000000E+00 0.  1.
</event>
<event>
 7    1  0.6622189E-010  0.4778727E+02  0.7816164E-02  0.1312668E+00
        -11   -1    0    0    0    0  0.00000000000E+00  0.00000000000E+00  0.45593999997E+02  0.45594000000E+02  0.51100000000E-03 0. -1.
         11   -1    0    0    0    0 -0.00000000000E+00 -0.00000000000E+00 -0.45593999997E+02  0.45594000000E+02  0.51100000000E-03 0.  1.
    9900012    2    1    2    0    0 -0.70605819922E+01 -0.17299776921E+02 -0.39172558952E+02  0.47787268734E+02  0.19999989465E+02 0.  0.
         12    1    1    2    0    0  0.70605819922E+01  0.17299776921E+02  0.39172558952E+02  0.43400731266E+02  0.00000000000E+00 0. -1.
         11    1    3    3    0    0  0.65091361869E+01 -0.35482553358E+01 -0.70897247579E+01  0.10257834432E+02  0.51100000000E-03 0. -1.
        -11    1    3    3    0    0 -0.64376507336E+01 -0.57137492150E+01 -0.16344375000E+02  0.18472381315E+02  0.51100000000E-03 0.  1.
         12    1    3    3    0    0 -0.71320674455E+01 -0.80377723697E+01 -0.15738459195E+02  0.19057052987E+02  0.00000000000E+00 0. -1.
</event>
<event>
 7    1  0.6622189E-010  0.4778727E+02  0.7816164E-02  0.1312668E+00
        -11   -1    0    0    0    0  0.00000000000E+00  0.00000000000E+00  0.45593999997E+02  0.45594000000E+02  0.51100000000E-03 0. -1.
         11   -1    0    0    0    0 -0.00000000000E+00 -0.00000000000E+00 -0.45593999997E+02  0.45594000000E+02  0.51100000000E-03 0.  1.
    9900012    2    1    2    0    0 -0.22748424333E+02 -0.21074545232E+02  0.30364386240E+02  0.47787271687E+02  0.20000002930E+02 0.  0.
        -12    1    1    2    0    0  0.22748424333E+02  0.21074545232E+02 -0.30364386240E+02  0.43400728313E+02  0.00000000000E+00 0.  1.
         11    1    3    3    0    0 -0.13080920385E+02 -0.11971275965E+02  0.81363420623E+01  0.19509535842E+02  0.51100000000E-03 0. -1.
        -11    1    3    3    0    0  0.14629206285E+01 -0.68685553589E+00  0.86777295155E+01  0.88269415483E+01  0.51100000000E-03 0.  1.
        -12    1    3    3    0    0 -0.11130424576E+02 -0.84164137307E+01  0.13550314662E+02  0.19450794297E+02  0.00000000000E+00 0.  1.
</event>
<event>
 7    1  0.7227796E-010  0.4778727E+02  0.7816164E-02  0.1312668E+00
        -11   -1    0    0    0    0  0.00000000000E+00  0.00000000000E+00  0.45593999997E+02  0.45594000000E+02  0.51100000000E-03 0. -1.
         11   -1    0    0    0    0 -0.00000000000E+00 -0.00000000000E+00 -0.45593999997E+02  0.45594000000E+02  0.51100000000E-03 0.  1.
    9900012    2    1    2    0    0  0.17284801108E+02 -0.24601964001E+02  0.31298601508E+02  0.47787269149E+02  0.19999991359E+02 0.  0.
        -12    1    1    2    0    0 -0.17284801108E+02  0.24601964001E+02 -0.31298601508E+02  0.43400730851E+02  0.00000000000E+00 0.  1.
         11    1    3    3    0    0  0.10899380159E+02 -0.42199190385E+01  0.14269114732E+02  0.18444832340E+02  0.51100000000E-03 0.  1.
        -11    1    3    3    0    0 -0.29977350974E+01 -0.60680961296E+01  0.44168715799E+01  0.80818909400E+01  0.51100000000E-03 0. -1.
         12    1    3    3    0    0  0.93831560459E+01 -0.14313948833E+02  0.12612615196E+02  0.21260545869E+02  0.00000000000E+00 0. -1.
</event>
<event>
 7    1  0.6622189E-010  0.4778727E+02  0.7816164E-02  0.1312668E+00
        -11   -1    0    0    0    0  0.00000000000E+00  0.00000000000E+00  0.45593999997E+02  0.45594000000E+02  0.51100000000E-03 0. -1.
         11   -1    0    0    0    0 -0.00000000000E+00 -0.00000000000E+00 -0.45593999997E+02  0.45594000000E+02  0.51100000000E-03 0.  1.
    9900012    2    1    2    0    0 -0.87459810096E+01  0.10366382713E+02  0.41227043783E+02  0.47787271740E+02  0.20000003172E+02 0.  0.
        -12    1    1    2    0    0  0.87459810096E+01 -0.10366382713E+02 -0.41227043783E+02  0.43400728260E+02  0.00000000000E+00 0.  1.
         11    1    3    3    0    0 -0.44663954929E+00 -0.46249363974E+01  0.59417132565E+01  0.75427766937E+01  0.51100000000E-03 0.  1.
        -11    1    3    3    0    0 -0.65758079225E+01  0.15967460395E+02  0.32783698535E+02  0.37053635870E+02  0.51100000000E-03 0. -1.
         12    1    3    3    0    0 -0.17235335378E+01 -0.97614128426E+00  0.25016319921E+01  0.31908591769E+01  0.00000000000E+00 0. -1.
</event>
<event>
 7    1  0.6622189E-010  0.4778727E+02  0.7816164E-02  0.1312668E+00
        -11   -1    0    0    0    0  0.00000000000E+00  0.00000000000E+00  0.45593999997E+02  0.45594000000E+02  0.51100000000E-03 0. -1.
         11   -1    0    0    0    0 -0.00000000000E+00 -0.00000000000E+00 -0.45593999997E+02  0.45594000000E+02  0.51100000000E-03 0.  1.
    9900012    2    1    2    0    0  0.25028990694E+02  0.27759466499E+02  0.22058666545E+02  0.47787272757E+02  0.20000007808E+02 0.  0.
        -12    1    1    2    0    0 -0.25028990694E+02 -0.27759466499E+02 -0.22058666545E+02  0.43400727243E+02  0.00000000000E+00 0.  1.
         11    1    3    3    0    0  0.16204935783E+02  0.18556564467E+02  0.23748376321E+02  0.34218875006E+02  0.51100000000E-03 0. -1.
        -11    1    3    3    0    0 -0.17834060652E+00 -0.16209886903E+00  0.34390109496E+00  0.41994004276E+00  0.51100000000E-03 0.  1.
         12    1    3    3    0    0  0.90023955170E+01  0.93650009012E+01 -0.20336108706E+01  0.13148457708E+02  0.00000000000E+00 0. -1.
</event>
<event>
 7    1  0.6622189E-010  0.4778727E+02  0.7816164E-02  0.1312668E+00
        -11   -1    0    0    0    0  0.00000000000E+00  0.00000000000E+00  0.45593999997E+02  0.45594000000E+02  0.51100000000E-03 0. -1.
         11   -1    0    0    0    0 -0.00000000000E+00 -0.00000000000E+00 -0.45593999997E+02  0.45594000000E+02  0.51100000000E-03 0.  1.
    9900012    2    1    2    0    0  0.88522240265E+01  0.51574811007E+01 -0.42174183431E+02  0.47787271554E+02  0.20000002325E+02 0.  0.
         12    1    1    2    0    0 -0.88522240265E+01 -0.51574811007E+01  0.42174183431E+02  0.43400728446E+02  0.00000000000E+00 0. -1.
         11    1    3    3    0    0  0.11158181216E+02  0.76728121773E+01 -0.35746965768E+02  0.38225941671E+02  0.51100000000E-03 0. -1.
        -11    1    3    3    0    0 -0.23929157600E+01  0.15089613474E+01 -0.15101474473E+01  0.32067983653E+01  0.51100000000E-03 0.  1.
         12    1    3    3    0    0  0.86958570736E-01 -0.40242924240E+01 -0.49170702163E+01  0.63545315184E+01  0.00000000000E+00 0. -1.
</event>
<event>
 7    1  0.6622189E-010  0.4778727E+02  0.7816164E-02  0.1312668E+00
        -11   -1    0    0    0    0  0.00000000000E+00  0.00000000000E+00  0.45593999997E+02  0.45594000000E+02  0.51100000000E-03 0. -1.
         11   -1    0    0    0    0 -0.00000000000E+00 -0.00000000000E+00 -0.45593999997E+02  0.45594000000E+02  0.51100000000E-03 0.  1.
    9900012    2    1    2    0    0  0.36505460537E+02 -0.80355825991E+01 -0.22054562635E+02  0.47787274549E+02  0.20000015976E+02 0.  0.
         12    1    1    2    0    0 -0.36505460537E+02  0.80355825991E+01  0.22054562635E+02  0.43400725451E+02  0.00000000000E+00 0. -1.
         11    1    3    3    0    0  0.16380700786E+02 -0.10434533130E+02 -0.10901414064E+02  0.22272127620E+02  0.51100000000E-03 0. -1.
        -11    1    3    3    0    0  0.98640448769E+01 -0.24992788602E+01 -0.91811291954E+00  0.10217079218E+02  0.51100000000E-03 0.  1.
         12    1    3    3    0    0  0.10260714874E+02  0.48982293906E+01 -0.10235035651E+02  0.15298067710E+02  0.00000000000E+00 0. -1.
</event>
<event>
 7    1  0.6622189E-010  0.4778729E+02  0.7816164E-02  0.1312668E+00
        -11   -1    0    0    0    0  0.00000000000E+00  0.00000000000E+00  0.45593999997E+02  0.45594000000E+02  0.51100000000E-03 0. -1.
         11   -1    0    0    0    0 -0.00000000000E+00 -0.00000000000E+00 -0.45593999997E+02  0.45594000000E+02  0.51100000000E-03 0.  1.
    9900012    2    1    2    0    0 -0.22047489815E+01  0.11543498909E+02  0.41779280595E+02  0.47787290649E+02  0.20000089383E+02 0.  0.
        -12    1    1    2    0    0  0.22047489815E+01 -0.11543498909E+02 -0.41779280595E+02  0.43400709351E+02  0.00000000000E+00 0.  1.
         11    1    3    3    0    0 -0.91428131147E+00  0.44470210365E+01  0.31071849679E+02  0.31401779395E+02  0.51100000000E-03 0. -1.
        -11    1    3    3    0    0 -0.12565959186E+01  0.95427302835E+01  0.68352813832E+01  0.11805244869E+02  0.51100000000E-03 0.  1.
         12    1    3    3    0    0 -0.33871751432E-01 -0.24462524106E+01  0.38721495332E+01  0.45802663852E+01  0.00000000000E+00 0. -1.
</event>
<event>
 7    1  0.6622189E-010  0.4778727E+02  0.7816164E-02  0.1312668E+00
        -11   -1    0    0    0    0  0.00000000000E+00  0.00000000000E+00  0.45593999997E+02  0.45594000000E+02  0.51100000000E-03 0. -1.
         11   -1    0    0    0    0 -0.00000000000E+00 -0.00000000000E+00 -0.45593999997E+02  0.45594000000E+02  0.51100000000E-03 0.  1.
    9900012    2    1    2    0    0 -0.17575973908E+02 -0.93132156884E+01  0.38574246115E+02  0.47787270645E+02  0.19999998177E+02 0.  0.
        -12    1    1    2    0    0  0.17575973908E+02  0.93132156884E+01 -0.38574246115E+02  0.43400729355E+02  0.00000000000E+00 0.  1.
         11    1    3    3    0    0 -0.43148007135E+01 -0.94775044178E+01  0.22836493607E+02  0.25098725779E+02  0.51100000000E-03 0. -1.
        -11    1    3    3    0    0 -0.11287914526E+02 -0.68675284678E+00  0.61700444366E+01  0.12882472295E+02  0.51100000000E-03 0.  1.
        -12    1    3    3    0    0 -0.19732586683E+01  0.85104157621E+00  0.95677080708E+01  0.98060725709E+01  0.00000000000E+00 0.  1.
</event>
<event>
 7    1  0.6622189E-010  0.4778728E+02  0.7816164E-02  0.1312668E+00
        -11   -1    0    0    0    0  0.00000000000E+00  0.00000000000E+00  0.45593999997E+02  0.45594000000E+02  0.51100000000E-03 0. -1.
         11   -1    0    0    0    0 -0.00000000000E+00 -0.00000000000E+00 -0.45593999997E+02  0.45594000000E+02  0.51100000000E-03 0.  1.
    9900012    2    1    2    0    0  0.30288227276E+02 -0.43820335013E+01 -0.30774079579E+02  0.47787275317E+02  0.20000019478E+02 0.  0.
         12    1    1    2    0    0 -0.30288227276E+02  0.43820335013E+01  0.30774079579E+02  0.43400724683E+02  0.00000000000E+00 0. -1.
         11    1    3    3    0    0  0.39936946721E+01 -0.20984992966E+01  0.19551164092E+01  0.49168869081E+01  0.51100000000E-03 0. -1.
        -11    1    3    3    0    0  0.19563260659E+02  0.61208137287E+00 -0.18840897261E+02  0.27167539842E+02  0.51100000000E-03 0.  1.
         12    1    3    3    0    0  0.67312719457E+01 -0.28956155775E+01 -0.13888298727E+02  0.15702848567E+02  0.00000000000E+00 0. -1.
</event>
<event>
 7    1  0.6622189E-010  0.4778727E+02  0.7816164E-02  0.1312668E+00
        -11   -1    0    0    0    0  0.00000000000E+00  0.00000000000E+00  0.45593999997E+02  0.45594000000E+02  0.51100000000E-03 0. -1.
         11   -1    0    0    0    0 -0.00000000000E+00 -0.00000000000E+00 -0.45593999997E+02  0.45594000000E+02  0.51100000000E-03 0.  1.
    9900012    2    1    2    0    0 -0.34075542046E+02  0.73058051635E+01 -0.25867087449E+02  0.47787267657E+02  0.19999984555E+02 0.  0.
         12    1    1    2    0    0  0.34075542046E+02 -0.73058051635E+01  0.25867087449E+02  0.43400732343E+02  0.00000000000E+00 0. -1.
         11    1    3    3    0    0 -0.24679258964E+02 -0.33341803197E+01 -0.14117976426E+02  0.28626907623E+02  0.51100000000E-03 0. -1.
        -11    1    3    3    0    0 -0.87890133440E+01  0.11208529899E+02 -0.11454174631E+02  0.18277746436E+02  0.51100000000E-03 0.  1.
        -12    1    3    3    0    0 -0.60726973867E+00 -0.56854441570E+00 -0.29493639136E+00  0.88261359783E+00  0.00000000000E+00 0.  1.
</event>
<event>
 7    1  0.6622189E-010  0.4778727E+02  0.7816164E-02  0.1312668E+00
        -11   -1    0    0    0    0  0.00000000000E+00  0.00000000000E+00  0.45593999997E+02  0.45594000000E+02  0.51100000000E-03 0. -1.
         11   -1    0    0    0    0 -0.00000000000E+00 -0.00000000000E+00 -0.45593999997E+02  0.45594000000E+02  0.51100000000E-03 0.  1.
    9900012    2    1    2    0    0 -0.28370534373E+02  0.13644170589E+02  0.29875951827E+02  0.47787272941E+02  0.20000008648E+02 0.  0.
        -12    1    1    2    0    0  0.28370534373E+02 -0.13644170589E+02 -0.29875951827E+02  0.43400727059E+02  0.00000000000E+00 0.  1.
         11    1    3    3    0    0 -0.11842008666E+02  0.90376152929E+01  0.14694090838E+02  0.20924339063E+02  0.51100000000E-03 0. -1.
        -11    1    3    3    0    0 -0.84417870729E+01  0.89705586185E+01  0.54240023272E+01  0.13459364488E+02  0.51100000000E-03 0.  1.
         12    1    3    3    0    0 -0.80867386343E+01 -0.43640033219E+01  0.97578586615E+01  0.13403569390E+02  0.00000000000E+00 0. -1.
</event>
<event>
 7    1  0.6622189E-010  0.4778728E+02  0.7816164E-02  0.1312668E+00
        -11   -1    0    0    0    0  0.00000000000E+00  0.00000000000E+00  0.45593999997E+02  0.45594000000E+02  0.51100000000E-03 0. -1.
         11   -1    0    0    0    0 -0.00000000000E+00 -0.00000000000E+00 -0.45593999997E+02  0.45594000000E+02  0.51100000000E-03 0.  1.
    9900012    2    1    2    0    0 -0.14438716974E+02  0.24759040446E+01 -0.40853591481E+02  0.47787278974E+02  0.20000036153E+02 0.  0.
         12    1    1    2    0    0  0.14438716974E+02 -0.24759040446E+01  0.40853591481E+02  0.43400721026E+02  0.00000000000E+00 0. -1.
         11    1    3    3    0    0 -0.15422578257E+02  0.43206154586E+01 -0.33306589019E+02  0.36957441881E+02  0.51100000000E-03 0. -1.
        -11    1    3    3    0    0 -0.30341980933E+01 -0.54647842145E+00 -0.50716108353E+01  0.59351692023E+01  0.51100000000E-03 0.  1.
         12    1    3    3    0    0  0.40180593759E+01 -0.12982329926E+01 -0.24753916264E+01  0.48946678902E+01  0.00000000000E+00 0. -1.
</event>
<event>
 7    1  0.6622189E-010  0.4778727E+02  0.7816164E-02  0.1312668E+00
        -11   -1    0    0    0    0  0.00000000000E+00  0.00000000000E+00  0.45593999997E+02  0.45594000000E+02  0.51100000000E-03 0.  1.
         11   -1    0    0    0    0 -0.00000000000E+00 -0.00000000000E+00 -0.45593999997E+02  0.45594000000E+02  0.51100000000E-03 0. -1.
    9900012    2    1    2    0    0  0.23626338926E+02 -0.30903025244E+02  0.19246358763E+02  0.47787272058E+02  0.20000004621E+02 0.  0.
         12    1    1    2    0    0 -0.23626338926E+02  0.30903025244E+02 -0.19246358763E+02  0.43400727942E+02  0.00000000000E+00 0. -1.
         11    1    3    3    0    0 -0.31726511626E+01 -0.53557148980E+01  0.10549008342E+01  0.63136529442E+01  0.51100000000E-03 0. -1.
        -11    1    3    3    0    0  0.13940752230E+02 -0.10343099604E+02  0.84730484267E+01  0.19316232346E+02  0.51100000000E-03 0.  1.
         12    1    3    3    0    0  0.12858237859E+02 -0.15204210742E+02  0.97184095018E+01  0.22157386768E+02  0.00000000000E+00 0. -1.
</event>
<event>
 7    1  0.6622189E-010  0.4778727E+02  0.7816164E-02  0.1312668E+00
        -11   -1    0    0    0    0  0.00000000000E+00  0.00000000000E+00  0.45593999997E+02  0.45594000000E+02  0.51100000000E-03 0. -1.
         11   -1    0    0    0    0 -0.00000000000E+00 -0.00000000000E+00 -0.45593999997E+02  0.45594000000E+02  0.51100000000E-03 0.  1.
    9900012    2    1    2    0    0  0.23660725034E+02  0.10576336096E+02 -0.34812854350E+02  0.47787267030E+02  0.19999981696E+02 0.  0.
         12    1    1    2    0    0 -0.23660725034E+02 -0.10576336096E+02  0.34812854350E+02  0.43400732970E+02  0.00000000000E+00 0. -1.
         11    1    3    3    0    0  0.19004655398E+02  0.11407512608E+02 -0.14249043092E+02  0.26350398479E+02  0.51100000000E-03 0. -1.
        -11    1    3    3    0    0  0.48512966172E+01  0.34170768925E+00 -0.16792456139E+02  0.17482517738E+02  0.51100000000E-03 0.  1.
         12    1    3    3    0    0 -0.19522698068E+00 -0.11728842013E+01 -0.37713551186E+01  0.39543508133E+01  0.00000000000E+00 0. -1.
</event>
<event>
 7    1  0.6622189E-010  0.4778727E+02  0.7816164E-02  0.1312668E+00
        -11   -1    0    0    0    0  0.00000000000E+00  0.00000000000E+00  0.45593999997E+02  0.45594000000E+02  0.51100000000E-03 0. -1.
         11   -1    0    0    0    0 -0.00000000000E+00 -0.00000000000E+00 -0.45593999997E+02  0.45594000000E+02  0.51100000000E-03 0.  1.
    9900012    2    1    2    0    0 -0.11455465432E+02  0.13920698620E+02  0.39479233769E+02  0.47787269161E+02  0.19999991414E+02 0.  0.
        -12    1    1    2    0    0  0.11455465432E+02 -0.13920698620E+02 -0.39479233769E+02  0.43400730839E+02  0.00000000000E+00 0.  1.
         11    1    3    3    0    0 -0.92575252830E+00  0.26344387756E+01  0.28213495424E+02  0.28351342291E+02  0.51100000000E-03 0. -1.
        -11    1    3    3    0    0 -0.67713568022E+01  0.94723440991E+01  0.87269226553E+01  0.14551142738E+02  0.51100000000E-03 0.  1.
        -12    1    3    3    0    0 -0.37583561012E+01  0.18139157455E+01  0.25388156894E+01  0.48847841324E+01  0.00000000000E+00 0.  1.
</event>
<event>
 7    1  0.6622189E-010  0.4778727E+02  0.7816164E-02  0.1312668E+00
        -11   -1    0    0    0    0  0.00000000000E+00  0.00000000000E+00  0.45593999997E+02  0.45594000000E+02  0.51100000000E-03 0. -1.
         11   -1    0    0    0    0 -0.00000000000E+00 -0.00000000000E+00 -0.45593999997E+02  0.45594000000E+02  0.51100000000E-03 0.  1.
    9900012    2    1    2    0    0  0.78928944727E+01  0.31372281717E+01 -0.42561529222E+02  0.47787265519E+02  0.19999974808E+02 0.  0.
         12    1    1    2    0    0 -0.78928944727E+01 -0.31372281717E+01  0.42561529222E+02  0.43400734481E+02  0.00000000000E+00 0. -1.
         11    1    3    3    0    0  0.34069986471E+01 -0.36253376824E+01 -0.15833525641E+01  0.52208925191E+01  0.51100000000E-03 0. -1.
        -11    1    3    3    0    0  0.18383787461E+01  0.78552538255E+01 -0.23287224470E+02  0.24645069950E+02  0.51100000000E-03 0.  1.
         12    1    3    3    0    0  0.26475170795E+01 -0.10926879714E+01 -0.17690952188E+02  0.17921303050E+02  0.00000000000E+00 0. -1.
</event>
<event>
 7    1  0.6622189E-010  0.4778727E+02  0.7816164E-02  0.1312668E+00
        -11   -1    0    0    0    0  0.00000000000E+00  0.00000000000E+00  0.45593999997E+02  0.45594000000E+02  0.51100000000E-03 0. -1.
         11   -1    0    0    0    0 -0.00000000000E+00 -0.00000000000E+00 -0.45593999997E+02  0.45594000000E+02  0.51100000000E-03 0.  1.
    9900012    2    1    2    0    0  0.23385557983E+02 -0.13302815851E+02 -0.34055457280E+02  0.47787269565E+02  0.19999993255E+02 0.  0.
         12    1    1    2    0    0 -0.23385557983E+02  0.13302815851E+02  0.34055457280E+02  0.43400730435E+02  0.00000000000E+00 0. -1.
         11    1    3    3    0    0  0.19677718267E+02 -0.14871568474E+01 -0.26839675033E+02  0.33313546611E+02  0.51100000000E-03 0. -1.
        -11    1    3    3    0    0  0.68027652137E+00 -0.21451347901E+01 -0.22750497858E+01  0.32000361251E+01  0.51100000000E-03 0.  1.
         12    1    3    3    0    0  0.30275631946E+01 -0.96705242133E+01 -0.49407324611E+01  0.11273686829E+02  0.00000000000E+00 0. -1.
</event>
<event>
 7    1  0.6622189E-010  0.4778727E+02  0.7816164E-02  0.1312668E+00
        -11   -1    0    0    0    0  0.00000000000E+00  0.00000000000E+00  0.45593999997E+02  0.45594000000E+02  0.51100000000E-03 0. -1.
         11   -1    0    0    0    0 -0.00000000000E+00 -0.00000000000E+00 -0.45593999997E+02  0.45594000000E+02  0.51100000000E-03 0.  1.
    9900012    2    1    2    0    0 -0.27519022265E+02  0.19109227456E+02  0.27589205146E+02  0.47787269580E+02  0.19999993324E+02 0.  0.
        -12    1    1    2    0    0  0.27519022265E+02 -0.19109227456E+02 -0.27589205146E+02  0.43400730420E+02  0.00000000000E+00 0.  1.
         11    1    3    3    0    0 -0.20070256208E+02  0.20573801307E+02  0.26021945193E+02  0.38771614828E+02  0.51100000000E-03 0. -1.
        -11    1    3    3    0    0 -0.76211842762E+01 -0.30707873335E+00  0.93203844413E+00  0.76841032686E+01  0.51100000000E-03 0.  1.
         12    1    3    3    0    0  0.17241821864E+00 -0.11574951176E+01  0.63522150854E+00  0.13315514839E+01  0.00000000000E+00 0. -1.
</event>
<event>
 7    1  0.6622189E-010  0.4778727E+02  0.7816164E-02  0.1312668E+00
        -11   -1    0    0    0    0  0.00000000000E+00  0.00000000000E+00  0.45593999997E+02  0.45594000000E+02  0.51100000000E-03 0. -1.
         11   -1    0    0    0    0 -0.00000000000E+00 -0.00000000000E+00 -0.45593999997E+02  0.45594000000E+02  0.51100000000E-03 0.  1.
    9900012    2    1    2    0    0 -0.20698148743E+02 -0.32507285851E+02 -0.19962120020E+02  0.47787271545E+02  0.20000002280E+02 0.  0.
         12    1    1    2    0    0  0.20698148743E+02  0.32507285851E+02  0.19962120020E+02  0.43400728455E+02  0.00000000000E+00 0. -1.
         11    1    3    3    0    0 -0.65836263220E+01 -0.10985115985E+02  0.20181880497E+01  0.12964952449E+02  0.51100000000E-03 0. -1.
        -11    1    3    3    0    0 -0.54598217486E+01 -0.15353213973E+02 -0.11938153320E+02  0.20200255884E+02  0.51100000000E-03 0.  1.
         12    1    3    3    0    0 -0.86547006721E+01 -0.61689558928E+01 -0.10042154750E+02  0.14622063211E+02  0.00000000000E+00 0. -1.
</event>
<event>
 7    1  0.6622189E-010  0.4778727E+02  0.7816164E-02  0.1312668E+00
        -11   -1    0    0    0    0  0.00000000000E+00  0.00000000000E+00  0.45593999997E+02  0.45594000000E+02  0.51100000000E-03 0. -1.
         11   -1    0    0    0    0 -0.00000000000E+00 -0.00000000000E+00 -0.45593999997E+02  0.45594000000E+02  0.51100000000E-03 0.  1.
    9900012    2    1    2    0    0 -0.13930424120E+02  0.35032555591E+02  0.21500854163E+02  0.47787269624E+02  0.19999993523E+02 0.  0.
        -12    1    1    2    0    0  0.13930424120E+02 -0.35032555591E+02 -0.21500854163E+02  0.43400730376E+02  0.00000000000E+00 0.  1.
         11    1    3    3    0    0 -0.48010741811E+01  0.78023170367E+01  0.35019147553E+01  0.98076435318E+01  0.51100000000E-03 0. -1.
        -11    1    3    3    0    0  0.27646245781E+01  0.17109081189E+02  0.62016349068E+01  0.18407174796E+02  0.51100000000E-03 0.  1.
        -12    1    3    3    0    0 -0.11893974517E+02  0.10121157366E+02  0.11797304501E+02  0.19572451296E+02  0.00000000000E+00 0.  1.
</event>
<event>
 7    1  0.6622189E-010  0.4778726E+02  0.7816164E-02  0.1312668E+00
        -11   -1    0    0    0    0  0.00000000000E+00  0.00000000000E+00  0.45593999997E+02  0.45594000000E+02  0.51100000000E-03 0. -1.
         11   -1    0    0    0    0 -0.00000000000E+00 -0.00000000000E+00 -0.45593999997E+02  0.45594000000E+02  0.51100000000E-03 0.  1.
    9900012    2    1    2    0    0 -0.13108199259E+02  0.11372378168E+02 -0.39780246131E+02  0.47787264346E+02  0.19999969460E+02 0.  0.
         12    1    1    2    0    0  0.13108199259E+02 -0.11372378168E+02  0.39780246131E+02  0.43400735654E+02  0.00000000000E+00 0. -1.
         11    1    3    3    0    0  0.80772968602E+00  0.77045110403E+01 -0.62100469107E+01  0.99285749486E+01  0.51100000000E-03 0. -1.
        -11    1    3    3    0    0 -0.66874444503E+01  0.35236391702E+01 -0.27173332308E+02  0.28205104773E+02  0.51100000000E-03 0.  1.
        -12    1    3    3    0    0 -0.72284844952E+01  0.14422795767E+00 -0.63968669125E+01  0.96535846242E+01  0.00000000000E+00 0.  1.
</event>
<event>
 7    1  0.6622189E-010  0.4778727E+02  0.7816164E-02  0.1312668E+00
        -11   -1    0    0    0    0  0.00000000000E+00  0.00000000000E+00  0.45593999997E+02  0.45594000000E+02  0.51100000000E-03 0. -1.
         11   -1    0    0    0    0 -0.00000000000E+00 -0.00000000000E+00 -0.45593999997E+02  0.45594000000E+02  0.51100000000E-03 0.  1.
    9900012    2    1    2    0    0 -0.25244879445E+02 -0.11160885790E+02 -0.33492594330E+02  0.47787272072E+02  0.20000004683E+02 0.  0.
         12    1    1    2    0    0  0.25244879445E+02  0.11160885790E+02  0.33492594330E+02  0.43400727928E+02  0.00000000000E+00 0. -1.
         11    1    3    3    0    0 -0.83653760033E+01 -0.91168347686E-01 -0.47650011795E+01  0.96277237105E+01  0.51100000000E-03 0. -1.
        -11    1    3    3    0    0 -0.12854341001E+02 -0.16935051146E+01 -0.23143545941E+02  0.26527829936E+02  0.51100000000E-03 0.  1.
        -12    1    3    3    0    0 -0.40251624402E+01 -0.93762123274E+01 -0.55840472091E+01  0.11631718425E+02  0.00000000000E+00 0.  1.
</event>
<event>
 7    1  0.6622189E-010  0.4778729E+02  0.7816164E-02  0.1312668E+00
        -11   -1    0    0    0    0  0.00000000000E+00  0.00000000000E+00  0.45593999997E+02  0.45594000000E+02  0.51100000000E-03 0. -1.
         11   -1    0    0    0    0 -0.00000000000E+00 -0.00000000000E+00 -0.45593999997E+02  0.45594000000E+02  0.51100000000E-03 0.  1.
    9900012    2    1    2    0    0  0.24058326357E+02 -0.27108632480E+01  0.36020408366E+02  0.47787289574E+02  0.20000084483E+02 0.  0.
        -12    1    1    2    0    0 -0.24058326357E+02  0.27108632480E+01 -0.36020408366E+02  0.43400710426E+02  0.00000000000E+00 0.  1.
         11    1    3    3    0    0  0.10445136799E+02 -0.71943869733E+01  0.18251861175E+02  0.22225897581E+02  0.51100000000E-03 0. -1.
        -11    1    3    3    0    0  0.57545886552E+01  0.11894469894E+01  0.23258965435E-01  0.58762756889E+01  0.51100000000E-03 0.  1.
        -12    1    3    3    0    0  0.78586009027E+01  0.32940767359E+01  0.17745288226E+02  0.19685116304E+02  0.00000000000E+00 0.  1.
</event>
<event>
 7    1  0.6622189E-010  0.4778727E+02  0.7816164E-02  0.1312668E+00
        -11   -1    0    0    0    0  0.00000000000E+00  0.00000000000E+00  0.45593999997E+02  0.45594000000E+02  0.51100000000E-03 0. -1.
         11   -1    0    0    0    0 -0.00000000000E+00 -0.00000000000E+00 -0.45593999997E+02  0.45594000000E+02  0.51100000000E-03 0.  1.
    9900012    2    1    2    0    0  0.11556785277E+02 -0.14848917225E+02  0.39109770149E+02  0.47787265561E+02  0.19999975000E+02 0.  0.
        -12    1    1    2    0    0 -0.11556785277E+02  0.14848917225E+02 -0.39109770149E+02  0.43400734439E+02  0.00000000000E+00 0.  1.
         11    1    3    3    0    0  0.11239937528E+01 -0.26668790983E+01  0.19245154046E+02  0.19461540550E+02  0.51100000000E-03 0. -1.
        -11    1    3    3    0    0  0.11851577469E+02 -0.10702972024E+02  0.11410815015E+02  0.19627027239E+02  0.51100000000E-03 0.  1.
        -12    1    3    3    0    0 -0.14187859446E+01 -0.14790661021E+01  0.84538010884E+01  0.86986977723E+01  0.00000000000E+00 0.  1.
</event>
<event>
 7    1  0.6622189E-010  0.4778727E+02  0.7816164E-02  0.1312668E+00
        -11   -1    0    0    0    0  0.00000000000E+00  0.00000000000E+00  0.45593999997E+02  0.45594000000E+02  0.51100000000E-03 0.  1.
         11   -1    0    0    0    0 -0.00000000000E+00 -0.00000000000E+00 -0.45593999997E+02  0.45594000000E+02  0.51100000000E-03 0. -1.
    9900012    2    1    2    0    0 -0.38789817346E+02 -0.61358735134E+01  0.18474972471E+02  0.47787268655E+02  0.19999989105E+02 0.  0.
        -12    1    1    2    0    0  0.38789817346E+02  0.61358735134E+01 -0.18474972471E+02  0.43400731345E+02  0.00000000000E+00 0.  1.
         11    1    3    3    0    0 -0.71044639764E+01 -0.68206609186E+01  0.40213398295E+01  0.10637950839E+02  0.51100000000E-03 0. -1.
        -11    1    3    3    0    0 -0.14792017597E+02  0.24555286362E+01  0.23258794868E+00  0.14996249628E+02  0.51100000000E-03 0.  1.
        -12    1    3    3    0    0 -0.16893335772E+02 -0.17707412310E+01  0.14221044693E+02  0.22153068189E+02  0.00000000000E+00 0.  1.
</event>
<event>
 7    1  0.6622189E-010  0.4778727E+02  0.7816164E-02  0.1312668E+00
        -11   -1    0    0    0    0  0.00000000000E+00  0.00000000000E+00  0.45593999997E+02  0.45594000000E+02  0.51100000000E-03 0. -1.
         11   -1    0    0    0    0 -0.00000000000E+00 -0.00000000000E+00 -0.45593999997E+02  0.45594000000E+02  0.51100000000E-03 0.  1.
    9900012    2    1    2    0    0 -0.19513526964E+02 -0.44412079359E+01 -0.38511314421E+02  0.47787269581E+02  0.19999993327E+02 0.  0.
         12    1    1    2    0    0  0.19513526964E+02  0.44412079359E+01  0.38511314421E+02  0.43400730419E+02  0.00000000000E+00 0. -1.
         11    1    3    3    0    0  0.64657861829E+00  0.37537516198E+01 -0.35582403620E+01  0.52124648553E+01  0.51100000000E-03 0. -1.
        -11    1    3    3    0    0 -0.50520422070E+01  0.13568534384E+01 -0.31877340052E+01  0.61258330098E+01  0.51100000000E-03 0.  1.
         12    1    3    3    0    0 -0.15108063375E+02 -0.95518129940E+01 -0.31765340054E+02  0.36448971716E+02  0.00000000000E+00 0. -1.
</event>
<event>
 7    1  0.6622189E-010  0.4778727E+02  0.7816164E-02  0.1312668E+00
        -11   -1    0    0    0    0  0.00000000000E+00  0.00000000000E+00  0.45593999997E+02  0.45594000000E+02  0.51100000000E-03 0. -1.
         11   -1    0    0    0    0 -0.00000000000E+00 -0.00000000000E+00 -0.45593999997E+02  0.45594000000E+02  0.51100000000E-03 0.  1.
    9900012    2    1    2    0    0  0.63182640335E+01  0.16595993259E+02 -0.39601467526E+02  0.47787266333E+02  0.19999978519E+02 0.  0.
         12    1    1    2    0    0 -0.63182640335E+01 -0.16595993259E+02  0.39601467526E+02  0.43400733667E+02  0.00000000000E+00 0. -1.
         11    1    3    3    0    0 -0.93372254847E+00  0.15631020211E+02 -0.13919467706E+02  0.20951186413E+02  0.51100000000E-03 0. -1.
        -11    1    3    3    0    0  0.50322656672E+01  0.18589452358E+01 -0.18768962558E+02  0.19520587360E+02  0.51100000000E-03 0.  1.
         12    1    3    3    0    0  0.22197209148E+01 -0.89397218786E+00 -0.69130372616E+01  0.73154925598E+01  0.00000000000E+00 0. -1.
</event>
<event>
 7    1  0.6622189E-010  0.4778727E+02  0.7816164E-02  0.1312668E+00
        -11   -1    0    0    0    0  0.00000000000E+00  0.00000000000E+00  0.45593999997E+02  0.45594000000E+02  0.51100000000E-03 0. -1.
         11   -1    0    0    0    0 -0.00000000000E+00 -0.00000000000E+00 -0.45593999997E+02  0.45594000000E+02  0.51100000000E-03 0.  1.
    9900012    2    1    2    0    0 -0.10469948123E+02  0.27882971362E+02 -0.31568074565E+02  0.47787271465E+02  0.20000001917E+02 0.  0.
         12    1    1    2    0    0  0.10469948123E+02 -0.27882971362E+02  0.31568074565E+02  0.43400728535E+02  0.00000000000E+00 0. -1.
         11    1    3    3    0    0 -0.54000510063E+01  0.25938144387E+01 -0.10480929727E+02  0.12072212407E+02  0.51100000000E-03 0. -1.
        -11    1    3    3    0    0 -0.34646289096E+01  0.19161672455E+02 -0.77646289106E+01  0.20963368220E+02  0.51100000000E-03 0.  1.
        -12    1    3    3    0    0 -0.16052682075E+01  0.61274844680E+01 -0.13322515927E+02  0.14751690837E+02  0.00000000000E+00 0.  1.
</event>
<event>
 7    1  0.6622189E-010  0.4778727E+02  0.7816164E-02  0.1312668E+00
        -11   -1    0    0    0    0  0.00000000000E+00  0.00000000000E+00  0.45593999997E+02  0.45594000000E+02  0.51100000000E-03 0. -1.
         11   -1    0    0    0    0 -0.00000000000E+00 -0.00000000000E+00 -0.45593999997E+02  0.45594000000E+02  0.51100000000E-03 0.  1.
    9900012    2    1    2    0    0 -0.53422619091E+00 -0.15431671575E+02  0.40561083094E+02  0.47787270203E+02  0.19999996162E+02 0.  0.
        -12    1    1    2    0    0  0.53422619091E+00  0.15431671575E+02 -0.40561083094E+02  0.43400729797E+02  0.00000000000E+00 0.  1.
         11    1    3    3    0    0  0.71572831756E+01 -0.94771772717E+01  0.11236826835E+02  0.16349613729E+02  0.51100000000E-03 0.  1.
        -11    1    3    3    0    0  0.18965596401E+00 -0.18218104040E+01  0.20536365314E+01  0.27517968307E+01  0.51100000000E-03 0. -1.
         12    1    3    3    0    0 -0.78811653305E+01 -0.41326838992E+01  0.27270619727E+02  0.28685859643E+02  0.00000000000E+00 0. -1.
</event>
<event>
 7    1  0.6622189E-010  0.4778727E+02  0.7816164E-02  0.1312668E+00
        -11   -1    0    0    0    0  0.00000000000E+00  0.00000000000E+00  0.45593999997E+02  0.45594000000E+02  0.51100000000E-03 0. -1.
         11   -1    0    0    0    0 -0.00000000000E+00 -0.00000000000E+00 -0.45593999997E+02  0.45594000000E+02  0.51100000000E-03 0.  1.
    9900012    2    1    2    0    0  0.19296844643E+02 -0.87681306351E+00  0.38864974980E+02  0.47787270806E+02  0.19999998913E+02 0.  0.
        -12    1    1    2    0    0 -0.19296844643E+02  0.87681306351E+00 -0.38864974980E+02  0.43400729194E+02  0.00000000000E+00 0.  1.
         11    1    3    3    0    0  0.11012189990E+02 -0.11965526706E+01  0.35490906702E+02  0.37179356173E+02  0.51100000000E-03 0. -1.
        -11    1    3    3    0    0  0.49195192617E+01 -0.14742725384E+01 -0.51462899080E+00  0.51613944378E+01  0.51100000000E-03 0.  1.
        -12    1    3    3    0    0  0.33651353918E+01  0.17940121455E+01  0.38886972695E+01  0.54465201952E+01  0.00000000000E+00 0.  1.
</event>
<event>
 7    1  0.6622189E-010  0.4778726E+02  0.7816164E-02  0.1312668E+00
        -11   -1    0    0    0    0  0.00000000000E+00  0.00000000000E+00  0.45593999997E+02  0.45594000000E+02  0.51100000000E-03 0. -1.
         11   -1    0    0    0    0 -0.00000000000E+00 -0.00000000000E+00 -0.45593999997E+02  0.45594000000E+02  0.51100000000E-03 0.  1.
    9900012    2    1    2    0    0 -0.66715975288E+01  0.25423192512E+01  0.42809465925E+02  0.47787262983E+02  0.19999963246E+02 0.  0.
        -12    1    1    2    0    0  0.66715975288E+01 -0.25423192512E+01 -0.42809465925E+02  0.43400737017E+02  0.00000000000E+00 0.  1.
         11    1    3    3    0    0 -0.59230363696E+01  0.39953961885E+01  0.22189391825E+02  0.23311256087E+02  0.51100000000E-03 0. -1.
        -11    1    3    3    0    0  0.50731941678E+01  0.13919294355E+01  0.39130654354E+01  0.65564356155E+01  0.51100000000E-03 0.  1.
        -12    1    3    3    0    0 -0.58217553270E+01 -0.28450063728E+01  0.16707008665E+02  0.17919571281E+02  0.00000000000E+00 0.  1.
</event>
<event>
 7    1  0.6622189E-010  0.4778728E+02  0.7816164E-02  0.1312668E+00
        -11   -1    0    0    0    0  0.00000000000E+00  0.00000000000E+00  0.45593999997E+02  0.45594000000E+02  0.51100000000E-03 0. -1.
         11   -1    0    0    0    0 -0.00000000000E+00 -0.00000000000E+00 -0.45593999997E+02  0.45594000000E+02  0.51100000000E-03 0.  1.
    9900012    2    1    2    0    0 -0.30535306602E+02  0.21626209647E+01 -0.30765901731E+02  0.47787278945E+02  0.20000036023E+02 0.  0.
         12    1    1    2    0    0  0.30535306602E+02 -0.21626209647E+01  0.30765901731E+02  0.43400721055E+02  0.00000000000E+00 0. -1.
         11    1    3    3    0    0 -0.74155184273E+00 -0.38789903323E+01 -0.13020465499E+01  0.41583398866E+01  0.51100000000E-03 0. -1.
        -11    1    3    3    0    0 -0.27551738961E+02  0.69690125932E+01 -0.29800657280E+02  0.41179419992E+02  0.51100000000E-03 0.  1.
        -12    1    3    3    0    0 -0.22420157980E+01 -0.92740129626E+00  0.33680209860E+00  0.24495190663E+01  0.00000000000E+00 0.  1.
</event>
<event>
 7    1  0.6622189E-010  0.4778727E+02  0.7816164E-02  0.1312668E+00
        -11   -1    0    0    0    0  0.00000000000E+00  0.00000000000E+00  0.45593999997E+02  0.45594000000E+02  0.51100000000E-03 0. -1.
         11   -1    0    0    0    0 -0.00000000000E+00 -0.00000000000E+00 -0.45593999997E+02  0.45594000000E+02  0.51100000000E-03 0.  1.
    9900012    2    1    2    0    0  0.21316335076E+02 -0.24167038241E+00 -0.37804479919E+02  0.47787271347E+02  0.20000001379E+02 0.  0.
         12    1    1    2    0    0 -0.21316335076E+02  0.24167038241E+00  0.37804479919E+02  0.43400728653E+02  0.00000000000E+00 0. -1.
         11    1    3    3    0    0 -0.97400010448E+00 -0.67410542617E+00  0.63986574782E+00  0.13462996566E+01  0.51100000000E-03 0. -1.
        -11    1    3    3    0    0  0.13444411183E+02  0.46463415147E+01 -0.31090305957E+02  0.34189878712E+02  0.51100000000E-03 0.  1.
        -12    1    3    3    0    0  0.88459239979E+01 -0.42139064710E+01 -0.73540397096E+01  0.12251092979E+02  0.00000000000E+00 0.  1.
</event>
<event>
 7    1  0.6622189E-010  0.4778727E+02  0.7816164E-02  0.1312668E+00
        -11   -1    0    0    0    0  0.00000000000E+00  0.00000000000E+00  0.45593999997E+02  0.45594000000E+02  0.51100000000E-03 0. -1.
         11   -1    0    0    0    0 -0.00000000000E+00 -0.00000000000E+00 -0.45593999997E+02  0.45594000000E+02  0.51100000000E-03 0.  1.
    9900012    2    1    2    0    0 -0.32240316112E+02  0.10279585422E+02  0.27175648121E+02  0.47787266018E+02  0.19999977080E+02 0.  0.
        -12    1    1    2    0    0  0.32240316112E+02 -0.10279585422E+02 -0.27175648121E+02  0.43400733982E+02  0.00000000000E+00 0.  1.
         11    1    3    3    0    0 -0.15339737623E+02  0.19159768742E+01  0.10618015466E+02  0.18754220070E+02  0.51100000000E-03 0. -1.
        -11    1    3    3    0    0 -0.91732743207E+01  0.64766453331E+01  0.17735934590E+02  0.20991885875E+02  0.51100000000E-03 0.  1.
        -12    1    3    3    0    0 -0.77273041677E+01  0.18869632147E+01 -0.11783019347E+01  0.80411600733E+01  0.00000000000E+00 0.  1.
</event>
<event>
 7    1  0.6622189E-010  0.4778727E+02  0.7816164E-02  0.1312668E+00
        -11   -1    0    0    0    0  0.00000000000E+00  0.00000000000E+00  0.45593999997E+02  0.45594000000E+02  0.51100000000E-03 0.  1.
         11   -1    0    0    0    0 -0.00000000000E+00 -0.00000000000E+00 -0.45593999997E+02  0.45594000000E+02  0.51100000000E-03 0. -1.
    9900012    2    1    2    0    0 -0.37169667562E+02  0.12827185063E+02  0.18371236906E+02  0.47787271794E+02  0.20000003418E+02 0.  0.
        -12    1    1    2    0    0  0.37169667562E+02 -0.12827185063E+02 -0.18371236906E+02  0.43400728206E+02  0.00000000000E+00 0.  1.
         11    1    3    3    0    0 -0.10507008992E+02 -0.25204317779E+01  0.70864355906E+00  0.10828295816E+02  0.51100000000E-03 0. -1.
        -11    1    3    3    0    0 -0.88215932421E+01  0.98421803740E+01  0.10793691896E+02  0.17064372442E+02  0.51100000000E-03 0.  1.
         12    1    3    3    0    0 -0.17841065328E+02  0.55054364673E+01  0.68689014508E+01  0.19894603536E+02  0.00000000000E+00 0. -1.
</event>
<event>
 7    1  0.6622189E-010  0.4778727E+02  0.7816164E-02  0.1312668E+00
        -11   -1    0    0    0    0  0.00000000000E+00  0.00000000000E+00  0.45593999997E+02  0.45594000000E+02  0.51100000000E-03 0. -1.
         11   -1    0    0    0    0 -0.00000000000E+00 -0.00000000000E+00 -0.45593999997E+02  0.45594000000E+02  0.51100000000E-03 0.  1.
    9900012    2    1    2    0    0 -0.31570856321E+02 -0.11186317687E+02  0.27600195770E+02  0.47787268683E+02  0.19999989235E+02 0.  0.
        -12    1    1    2    0    0  0.31570856321E+02  0.11186317687E+02 -0.27600195770E+02  0.43400731317E+02  0.00000000000E+00 0.  1.
         11    1    3    3    0    0 -0.10993750511E+02 -0.13370821112E+02  0.92478075502E+01  0.19625579030E+02  0.51100000000E-03 0. -1.
        -11    1    3    3    0    0 -0.10126289218E+02  0.34758534285E+01  0.10766105525E+02  0.15183290777E+02  0.51100000000E-03 0.  1.
        -12    1    3    3    0    0 -0.10450816592E+02 -0.12913500039E+01  0.75862826954E+01  0.12978398877E+02  0.00000000000E+00 0.  1.
</event>
<event>
 7    1  0.6622189E-010  0.4778727E+02  0.7816164E-02  0.1312668E+00
        -11   -1    0    0    0    0  0.00000000000E+00  0.00000000000E+00  0.45593999997E+02  0.45594000000E+02  0.51100000000E-03 0. -1.
         11   -1    0    0    0    0 -0.00000000000E+00 -0.00000000000E+00 -0.45593999997E+02  0.45594000000E+02  0.51100000000E-03 0.  1.
    9900012    2    1    2    0    0  0.25588334792E+02 -0.21453656750E+02  0.27723659392E+02  0.47787267800E+02  0.19999985209E+02 0.  0.
        -12    1    1    2    0    0 -0.25588334792E+02  0.21453656750E+02 -0.27723659392E+02  0.43400732200E+02  0.00000000000E+00 0.  1.
         11    1    3    3    0    0  0.14759924059E+02 -0.42534453790E+01  0.11360789798E+02  0.19105357911E+02  0.51100000000E-03 0. -1.
        -11    1    3    3    0    0  0.64315795914E+01 -0.12052255879E+02  0.34312083723E+01  0.14085285903E+02  0.51100000000E-03 0.  1.
        -12    1    3    3    0    0  0.43968311411E+01 -0.51479554925E+01  0.12931661222E+02  0.14596623986E+02  0.00000000000E+00 0.  1.
</event>
<event>
 7    1  0.8617596E-010  0.4778727E+02  0.7816164E-02  0.1312668E+00
        -11   -1    0    0    0    0  0.00000000000E+00  0.00000000000E+00  0.45593999997E+02  0.45594000000E+02  0.51100000000E-03 0. -1.
         11   -1    0    0    0    0 -0.00000000000E+00 -0.00000000000E+00 -0.45593999997E+02  0.45594000000E+02  0.51100000000E-03 0.  1.
    9900012    2    1    2    0    0 -0.29717244882E+01 -0.18165850062E+02 -0.39303871576E+02  0.47787267567E+02  0.19999984143E+02 0.  0.
         12    1    1    2    0    0  0.29717244882E+01  0.18165850062E+02  0.39303871576E+02  0.43400732433E+02  0.00000000000E+00 0. -1.
         11    1    3    3    0    0  0.33362721338E+01 -0.12877009702E+01 -0.21267544942E+01  0.41607656121E+01  0.51100000000E-03 0. -1.
        -11    1    3    3    0    0 -0.68449748293E+01 -0.16638337126E+02 -0.21919615721E+02  0.28357670856E+02  0.51100000000E-03 0.  1.
        -12    1    3    3    0    0  0.53697820723E+00 -0.23981196627E+00 -0.15257501360E+02  0.15268831099E+02  0.00000000000E+00 0.  1.
</event>
<event>
 7    1  0.6622189E-010  0.4778727E+02  0.7816164E-02  0.1312668E+00
        -11   -1    0    0    0    0  0.00000000000E+00  0.00000000000E+00  0.45593999997E+02  0.45594000000E+02  0.51100000000E-03 0. -1.
         11   -1    0    0    0    0 -0.00000000000E+00 -0.00000000000E+00 -0.45593999997E+02  0.45594000000E+02  0.51100000000E-03 0.  1.
    9900012    2    1    2    0    0 -0.14439513861E+02 -0.22229211577E+02 -0.34365473197E+02  0.47787272403E+02  0.20000006196E+02 0.  0.
         12    1    1    2    0    0  0.14439513861E+02  0.22229211577E+02  0.34365473197E+02  0.43400727597E+02  0.00000000000E+00 0. -1.
         11    1    3    3    0    0  0.94712716414E+00 -0.26246306930E+01 -0.94642730792E+00  0.29464319184E+01  0.51100000000E-03 0. -1.
        -11    1    3    3    0    0 -0.74127942610E+01 -0.18871740757E+02 -0.29824165554E+02  0.36063457532E+02  0.51100000000E-03 0.  1.
        -12    1    3    3    0    0 -0.79738467646E+01 -0.73284012716E+00 -0.35948803348E+01  0.87773829527E+01  0.00000000000E+00 0.  1.
</event>
<event>
 7    1  0.6622189E-010  0.4778727E+02  0.7816164E-02  0.1312668E+00
        -11   -1    0    0    0    0  0.00000000000E+00  0.00000000000E+00  0.45593999997E+02  0.45594000000E+02  0.51100000000E-03 0. -1.
         11   -1    0    0    0    0 -0.00000000000E+00 -0.00000000000E+00 -0.45593999997E+02  0.45594000000E+02  0.51100000000E-03 0.  1.
    9900012    2    1    2    0    0  0.18551858876E+02  0.23825572910E+02 -0.31173611416E+02  0.47787269119E+02  0.19999991222E+02 0.  0.
         12    1    1    2    0    0 -0.18551858876E+02 -0.23825572910E+02  0.31173611416E+02  0.43400730881E+02  0.00000000000E+00 0. -1.
         11    1    3    3    0    0  0.10126688214E+02  0.17885627130E+02 -0.25933631454E+02  0.33090764765E+02  0.51100000000E-03 0. -1.
        -11    1    3    3    0    0  0.35772081154E+01 -0.20330703719E+01 -0.30224971515E+01  0.51054169594E+01  0.51100000000E-03 0.  1.
         12    1    3    3    0    0  0.48479625464E+01  0.79730161518E+01 -0.22174828103E+01  0.95910873952E+01  0.00000000000E+00 0. -1.
</event>
<event>
 7    1  0.6622189E-010  0.4778727E+02  0.7816164E-02  0.1312668E+00
        -11   -1    0    0    0    0  0.00000000000E+00  0.00000000000E+00  0.45593999997E+02  0.45594000000E+02  0.51100000000E-03 0. -1.
         11   -1    0    0    0    0 -0.00000000000E+00 -0.00000000000E+00 -0.45593999997E+02  0.45594000000E+02  0.51100000000E-03 0.  1.
    9900012    2    1    2    0    0 -0.25067772179E+02 -0.10925398010E+02 -0.33702608161E+02  0.47787270506E+02  0.19999997546E+02 0.  0.
         12    1    1    2    0    0  0.25067772179E+02  0.10925398010E+02  0.33702608161E+02  0.43400729494E+02  0.00000000000E+00 0. -1.
         11    1    3    3    0    0 -0.19804413760E+02 -0.11940029385E+02 -0.20207599752E+02  0.30710359719E+02  0.51100000000E-03 0. -1.
        -11    1    3    3    0    0 -0.49236566180E+01  0.44624567820E+01 -0.10829469732E+02  0.12705641658E+02  0.51100000000E-03 0.  1.
         12    1    3    3    0    0 -0.33970180146E+00 -0.34478254073E+01 -0.26655386777E+01  0.43712691287E+01  0.00000000000E+00 0. -1.
</event>
<event>
 7    1  0.6622189E-010  0.4778727E+02  0.7816164E-02  0.1312668E+00
        -11   -1    0    0    0    0  0.00000000000E+00  0.00000000000E+00  0.45593999997E+02  0.45594000000E+02  0.51100000000E-03 0. -1.
         11   -1    0    0    0    0 -0.00000000000E+00 -0.00000000000E+00 -0.45593999997E+02  0.45594000000E+02  0.51100000000E-03 0.  1.
    9900012    2    1    2    0    0 -0.54636056530E+01  0.24558892651E+02  0.35364295891E+02  0.47787267071E+02  0.19999981882E+02 0.  0.
        -12    1    1    2    0    0  0.54636056530E+01 -0.24558892651E+02 -0.35364295891E+02  0.43400732929E+02  0.00000000000E+00 0.  1.
         11    1    3    3    0    0 -0.34715425356E+01  0.19204824743E+02  0.20333432035E+02  0.28183778305E+02  0.51100000000E-03 0. -1.
        -11    1    3    3    0    0 -0.42006266113E+01 -0.13519593659E+01  0.21367814019E+01  0.49029473866E+01  0.51100000000E-03 0.  1.
         12    1    3    3    0    0  0.22085634939E+01  0.67060272744E+01  0.12894082453E+02  0.14700541379E+02  0.00000000000E+00 0. -1.
</event>
<event>
 7    1  0.6622189E-010  0.4778725E+02  0.7816164E-02  0.1312668E+00
        -11   -1    0    0    0    0  0.00000000000E+00  0.00000000000E+00  0.45593999997E+02  0.45594000000E+02  0.51100000000E-03 0. -1.
         11   -1    0    0    0    0 -0.00000000000E+00 -0.00000000000E+00 -0.45593999997E+02  0.45594000000E+02  0.51100000000E-03 0.  1.
    9900012    2    1    2    0    0 -0.28583593839E+02 -0.32502631637E+02 -0.31909329703E+01  0.47787251697E+02  0.19999911785E+02 0.  0.
         12    1    1    2    0    0  0.28583593839E+02  0.32502631637E+02  0.31909329703E+01  0.43400748303E+02  0.00000000000E+00 0. -1.
         11    1    3    3    0    0 -0.17621557593E+02 -0.23028915722E+02  0.14392843674E+01  0.29033115422E+02  0.51100000000E-03 0.  1.
        -11    1    3    3    0    0 -0.59132207258E+01 -0.66404074144E+01  0.28115519758E+01  0.93255570748E+01  0.51100000000E-03 0. -1.
         12    1    3    3    0    0 -0.50488155200E+01 -0.28333085006E+01 -0.74417693136E+01  0.94285792000E+01  0.00000000000E+00 0. -1.
</event>
<event>
 7    1  0.6622189E-010  0.4778727E+02  0.7816164E-02  0.1312668E+00
        -11   -1    0    0    0    0  0.00000000000E+00  0.00000000000E+00  0.45593999997E+02  0.45594000000E+02  0.51100000000E-03 0. -1.
         11   -1    0    0    0    0 -0.00000000000E+00 -0.00000000000E+00 -0.45593999997E+02  0.45594000000E+02  0.51100000000E-03 0.  1.
    9900012    2    1    2    0    0  0.42030605194E+01 -0.31676972265E+02 -0.29368807066E+02  0.47787272839E+02  0.20000008183E+02 0.  0.
         12    1    1    2    0    0 -0.42030605194E+01  0.31676972265E+02  0.29368807066E+02  0.43400727161E+02  0.00000000000E+00 0. -1.
         11    1    3    3    0    0 -0.39277982244E+01 -0.54922769320E+01 -0.12995882415E+02  0.14645329112E+02  0.51100000000E-03 0. -1.
        -11    1    3    3    0    0  0.65177182154E+01 -0.25477434822E+02 -0.12997388037E+02  0.29334492187E+02  0.51100000000E-03 0.  1.
         12    1    3    3    0    0  0.16131405284E+01 -0.70726051106E+00 -0.33755366140E+01  0.38074515397E+01  0.00000000000E+00 0. -1.
</event>
<event>
 7    1  0.6622189E-010  0.4778727E+02  0.7816164E-02  0.1312668E+00
        -11   -1    0    0    0    0  0.00000000000E+00  0.00000000000E+00  0.45593999997E+02  0.45594000000E+02  0.51100000000E-03 0.  1.
         11   -1    0    0    0    0 -0.00000000000E+00 -0.00000000000E+00 -0.45593999997E+02  0.45594000000E+02  0.51100000000E-03 0. -1.
    9900012    2    1    2    0    0 -0.36238604888E+02 -0.21980250033E+02  0.93410685930E+01  0.47787269151E+02  0.19999991368E+02 0.  0.
         12    1    1    2    0    0  0.36238604888E+02  0.21980250033E+02 -0.93410685930E+01  0.43400730849E+02  0.00000000000E+00 0. -1.
         11    1    3    3    0    0 -0.28593782844E+02 -0.21135767059E+02  0.87086350339E+01  0.36608269434E+02  0.51100000000E-03 0.  1.
        -11    1    3    3    0    0 -0.52063026921E+01  0.97370758327E+00  0.40028150244E+01  0.66389925862E+01  0.51100000000E-03 0. -1.
         12    1    3    3    0    0 -0.24385193520E+01 -0.18181905567E+01 -0.33703814654E+01  0.45400071313E+01  0.00000000000E+00 0. -1.
</event>
<event>
 7    1  0.6622189E-010  0.4778727E+02  0.7816164E-02  0.1312668E+00
        -11   -1    0    0    0    0  0.00000000000E+00  0.00000000000E+00  0.45593999997E+02  0.45594000000E+02  0.51100000000E-03 0. -1.
         11   -1    0    0    0    0 -0.00000000000E+00 -0.00000000000E+00 -0.45593999997E+02  0.45594000000E+02  0.51100000000E-03 0.  1.
    9900012    2    1    2    0    0 -0.28224059509E+02 -0.13025243408E+02 -0.30288094797E+02  0.47787272040E+02  0.20000004539E+02 0.  0.
         12    1    1    2    0    0  0.28224059509E+02  0.13025243408E+02  0.30288094797E+02  0.43400727960E+02  0.00000000000E+00 0. -1.
         11    1    3    3    0    0 -0.10423693232E+02  0.38325816194E+01 -0.92675396970E+01  0.14464762520E+02  0.51100000000E-03 0. -1.
        -11    1    3    3    0    0 -0.61723926790E+01 -0.70535742495E+01 -0.13285368527E+02  0.16258916269E+02  0.51100000000E-03 0.  1.
         12    1    3    3    0    0 -0.11627973598E+02 -0.98042507776E+01 -0.77351865727E+01  0.17063593251E+02  0.00000000000E+00 0. -1.
</event>
<event>
 7    1  0.6622189E-010  0.4778727E+02  0.7816164E-02  0.1312668E+00
        -11   -1    0    0    0    0  0.00000000000E+00  0.00000000000E+00  0.45593999997E+02  0.45594000000E+02  0.51100000000E-03 0. -1.
         11   -1    0    0    0    0 -0.00000000000E+00 -0.00000000000E+00 -0.45593999997E+02  0.45594000000E+02  0.51100000000E-03 0.  1.
    9900012    2    1    2    0    0 -0.17430057835E+02  0.26338687297E+01  0.39659543674E+02  0.47787267460E+02  0.19999983657E+02 0.  0.
        -12    1    1    2    0    0  0.17430057835E+02 -0.26338687297E+01 -0.39659543674E+02  0.43400732540E+02  0.00000000000E+00 0.  1.
         11    1    3    3    0    0 -0.41984573309E+01 -0.18220359931E+01  0.76544507844E+01  0.89183785629E+01  0.51100000000E-03 0. -1.
        -11    1    3    3    0    0 -0.50650486571E+01 -0.16193714807E+01  0.35133418827E-01  0.53177360323E+01  0.51100000000E-03 0.  1.
        -12    1    3    3    0    0 -0.81665518471E+01  0.60752762035E+01  0.31969959470E+02  0.33551152865E+02  0.00000000000E+00 0.  1.
</event>
<event>
 7    1  0.6622189E-010  0.4778727E+02  0.7816164E-02  0.1312668E+00
        -11   -1    0    0    0    0  0.00000000000E+00  0.00000000000E+00  0.45593999997E+02  0.45594000000E+02  0.51100000000E-03 0. -1.
         11   -1    0    0    0    0 -0.00000000000E+00 -0.00000000000E+00 -0.45593999997E+02  0.45594000000E+02  0.51100000000E-03 0.  1.
    9900012    2    1    2    0    0  0.27060807094E+02 -0.29079709511E+02 -0.17484477219E+02  0.47787265796E+02  0.19999976071E+02 0.  0.
         12    1    1    2    0    0 -0.27060807094E+02  0.29079709511E+02  0.17484477219E+02  0.43400734204E+02  0.00000000000E+00 0. -1.
         11    1    3    3    0    0  0.19960303432E+02 -0.20672519382E+02 -0.60477505936E+01  0.29365661208E+02  0.51100000000E-03 0. -1.
        -11    1    3    3    0    0  0.22815583155E+01 -0.56263285100E+01 -0.11333060184E+02  0.12856878869E+02  0.51100000000E-03 0.  1.
         12    1    3    3    0    0  0.48189453463E+01 -0.27808616194E+01 -0.10366644091E+00  0.55647257191E+01  0.00000000000E+00 0. -1.
</event>
<event>
 7    1  0.6622189E-010  0.4778726E+02  0.7816164E-02  0.1312668E+00
        -11   -1    0    0    0    0  0.00000000000E+00  0.00000000000E+00  0.45593999997E+02  0.45594000000E+02  0.51100000000E-03 0. -1.
         11   -1    0    0    0    0 -0.00000000000E+00 -0.00000000000E+00 -0.45593999997E+02  0.45594000000E+02  0.51100000000E-03 0.  1.
    9900012    2    1    2    0    0  0.84952407151E+01  0.16607418892E+02  0.39187354073E+02  0.47787260417E+02  0.19999951547E+02 0.  0.
        -12    1    1    2    0    0 -0.84952407151E+01 -0.16607418892E+02 -0.39187354073E+02  0.43400739583E+02  0.00000000000E+00 0.  1.
         11    1    3    3    0    0 -0.25216364847E+01  0.13046026758E+02  0.28033111155E+02  0.31022778502E+02  0.51100000000E-03 0. -1.
        -11    1    3    3    0    0  0.72036864672E+01 -0.13430992520E+00  0.63999511393E+01  0.96369348198E+01  0.51100000000E-03 0.  1.
         12    1    3    3    0    0  0.38131907326E+01  0.36957020597E+01  0.47542917787E+01  0.71275470952E+01  0.00000000000E+00 0. -1.
</event>
<event>
 7    1  0.6622189E-010  0.4778728E+02  0.7816164E-02  0.1312668E+00
        -11   -1    0    0    0    0  0.00000000000E+00  0.00000000000E+00  0.45593999997E+02  0.45594000000E+02  0.51100000000E-03 0. -1.
         11   -1    0    0    0    0 -0.00000000000E+00 -0.00000000000E+00 -0.45593999997E+02  0.45594000000E+02  0.51100000000E-03 0.  1.
    9900012    2    1    2    0    0 -0.36776556555E+02  0.77932096271E+00 -0.23032586818E+02  0.47787279859E+02  0.20000040188E+02 0.  0.
         12    1    1    2    0    0  0.36776556555E+02 -0.77932096271E+00  0.23032586818E+02  0.43400720141E+02  0.00000000000E+00 0. -1.
         11    1    3    3    0    0 -0.14760526238E+02  0.25424784430E+01 -0.12470766684E+02  0.19489929538E+02  0.51100000000E-03 0. -1.
        -11    1    3    3    0    0 -0.15454833366E+02 -0.77529152609E+01 -0.59352095855E+01  0.18280762635E+02  0.51100000000E-03 0.  1.
        -12    1    3    3    0    0 -0.65611969509E+01  0.59897577806E+01 -0.46266105491E+01  0.10016587686E+02  0.00000000000E+00 0.  1.
</event>
<event>
 7    1  0.6622189E-010  0.4778727E+02  0.7816164E-02  0.1312668E+00
        -11   -1    0    0    0    0  0.00000000000E+00  0.00000000000E+00  0.45593999997E+02  0.45594000000E+02  0.51100000000E-03 0. -1.
         11   -1    0    0    0    0 -0.00000000000E+00 -0.00000000000E+00 -0.45593999997E+02  0.45594000000E+02  0.51100000000E-03 0.  1.
    9900012    2    1    2    0    0  0.39833887218E+02  0.65834180265E+01 -0.15923050872E+02  0.47787268291E+02  0.19999987446E+02 0.  0.
         12    1    1    2    0    0 -0.39833887218E+02 -0.65834180265E+01  0.15923050872E+02  0.43400731709E+02  0.00000000000E+00 0. -1.
         11    1    3    3    0    0  0.18194049501E+02  0.30594301260E+01 -0.94211578478E+00  0.18473525174E+02  0.51100000000E-03 0. -1.
        -11    1    3    3    0    0  0.84734055769E+01  0.16072012539E+01 -0.13371417573E+02  0.15911521176E+02  0.51100000000E-03 0.  1.
        -12    1    3    3    0    0  0.13166432140E+02  0.19167866466E+01 -0.16095175144E+01  0.13402221942E+02  0.00000000000E+00 0.  1.
</event>
<event>
 7    1  0.6622189E-010  0.4778728E+02  0.7816164E-02  0.1312668E+00
        -11   -1    0    0    0    0  0.00000000000E+00  0.00000000000E+00  0.45593999997E+02  0.45594000000E+02  0.51100000000E-03 0. -1.
         11   -1    0    0    0    0 -0.00000000000E+00 -0.00000000000E+00 -0.45593999997E+02  0.45594000000E+02  0.51100000000E-03 0.  1.
    9900012    2    1    2    0    0 -0.23751781912E+02  0.23049673023E+02  0.28074689721E+02  0.47787276810E+02  0.20000026290E+02 0.  0.
        -12    1    1    2    0    0  0.23751781912E+02 -0.23049673023E+02 -0.28074689721E+02  0.43400723190E+02  0.00000000000E+00 0.  1.
         11    1    3    3    0    0 -0.88077543057E+01  0.27230231286E+00  0.14078876509E+02  0.16609197707E+02  0.51100000000E-03 0. -1.
        -11    1    3    3    0    0 -0.10643894966E+02  0.18758131035E+02  0.86860287073E+01  0.23250958581E+02  0.51100000000E-03 0.  1.
        -12    1    3    3    0    0 -0.43001326400E+01  0.40192396751E+01  0.53097845043E+01  0.79271205219E+01  0.00000000000E+00 0.  1.
</event>
<event>
 7    1  0.6622189E-010  0.4778727E+02  0.7816164E-02  0.1312668E+00
        -11   -1    0    0    0    0  0.00000000000E+00  0.00000000000E+00  0.45593999997E+02  0.45594000000E+02  0.51100000000E-03 0. -1.
         11   -1    0    0    0    0 -0.00000000000E+00 -0.00000000000E+00 -0.45593999997E+02  0.45594000000E+02  0.51100000000E-03 0.  1.
    9900012    2    1    2    0    0 -0.25014663648E+02 -0.25022960477E+02 -0.25134465860E+02  0.47787270484E+02  0.19999997444E+02 0.  0.
         12    1    1    2    0    0  0.25014663648E+02  0.25022960477E+02  0.25134465860E+02  0.43400729516E+02  0.00000000000E+00 0. -1.
         11    1    3    3    0    0 -0.59179604601E+01 -0.14903084951E+02 -0.17519947088E+02  0.23750215647E+02  0.51100000000E-03 0. -1.
        -11    1    3    3    0    0 -0.54811723891E+01 -0.54900906681E+01 -0.54804924901E+01  0.94984285278E+01  0.51100000000E-03 0.  1.
         12    1    3    3    0    0 -0.13615530799E+02 -0.46297848573E+01 -0.21340262824E+01  0.14538626309E+02  0.00000000000E+00 0. -1.
</event>
<event>
 7    1  0.7529201E-010  0.4778727E+02  0.7816164E-02  0.1312668E+00
        -11   -1    0    0    0    0  0.00000000000E+00  0.00000000000E+00  0.45593999997E+02  0.45594000000E+02  0.51100000000E-03 0. -1.
         11   -1    0    0    0    0 -0.00000000000E+00 -0.00000000000E+00 -0.45593999997E+02  0.45594000000E+02  0.51100000000E-03 0.  1.
    9900012    2    1    2    0    0  0.62948174099E+01 -0.78595024609E+01 -0.42216429664E+02  0.47787269145E+02  0.19999991341E+02 0.  0.
         12    1    1    2    0    0 -0.62948174099E+01  0.78595024609E+01  0.42216429664E+02  0.43400730855E+02  0.00000000000E+00 0. -1.
         11    1    3    3    0    0 -0.52069835868E-01 -0.52831819867E+01 -0.26285715187E+01  0.59011957825E+01  0.51100000000E-03 0. -1.
        -11    1    3    3    0    0 -0.62576436464E+00 -0.22556425518E+01 -0.29647805628E+02  0.29740072011E+02  0.51100000000E-03 0.  1.
        -12    1    3    3    0    0  0.69726516104E+01 -0.32067792232E+00 -0.99400525168E+01  0.12146001352E+02  0.00000000000E+00 0.  1.
</event>
<event>
 7    1  0.6622189E-010  0.4778728E+02  0.7816164E-02  0.1312668E+00
        -11   -1    0    0    0    0  0.00000000000E+00  0.00000000000E+00  0.45593999997E+02  0.45594000000E+02  0.51100000000E-03 0. -1.
         11   -1    0    0    0    0 -0.00000000000E+00 -0.00000000000E+00 -0.45593999997E+02  0.45594000000E+02  0.51100000000E-03 0.  1.
    9900012    2    1    2    0    0  0.18937954737E+02 -0.23583521310E+02 -0.31125453618E+02  0.47787280307E+02  0.20000042230E+02 0.  0.
         12    1    1    2    0    0 -0.18937954737E+02  0.23583521310E+02  0.31125453618E+02  0.43400719693E+02  0.00000000000E+00 0. -1.
         11    1    3    3    0    0  0.95271986973E+01 -0.30758769094E+01 -0.73854939582E+01  0.12440822121E+02  0.51100000000E-03 0. -1.
        -11    1    3    3    0    0 -0.29097411462E+01 -0.81948431776E+01 -0.66835950758E+01  0.10967793381E+02  0.51100000000E-03 0.  1.
        -12    1    3    3    0    0  0.12320497186E+02 -0.12312801223E+02 -0.17056364584E+02  0.24378664805E+02  0.00000000000E+00 0.  1.
</event>
<event>
 7    1  0.6622189E-010  0.4778727E+02  0.7816164E-02  0.1312668E+00
        -11   -1    0    0    0    0  0.00000000000E+00  0.00000000000E+00  0.45593999997E+02  0.45594000000E+02  0.51100000000E-03 0.  1.
         11   -1    0    0    0    0 -0.00000000000E+00 -0.00000000000E+00 -0.45593999997E+02  0.45594000000E+02  0.51100000000E-03 0. -1.
    9900012    2    1    2    0    0 -0.21091733955E+02  0.37811821625E+02 -0.30047118721E+01  0.47787269715E+02  0.19999993940E+02 0.  0.
        -12    1    1    2    0    0  0.21091733955E+02 -0.37811821625E+02  0.30047118721E+01  0.43400730285E+02  0.00000000000E+00 0.  1.
         11    1    3    3    0    0 -0.48410221350E+00  0.62978302550E+01 -0.51665916175E+00  0.63375040690E+01  0.51100000000E-03 0. -1.
        -11    1    3    3    0    0 -0.20813845314E+02  0.32546901769E+02  0.12403749079E+00  0.38633306318E+02  0.51100000000E-03 0.  1.
        -12    1    3    3    0    0  0.20621357202E+00 -0.10329103992E+01 -0.26120902012E+01  0.28164593285E+01  0.00000000000E+00 0.  1.
</event>
<event>
 7    1  0.6622189E-010  0.4778727E+02  0.7816164E-02  0.1312668E+00
        -11   -1    0    0    0    0  0.00000000000E+00  0.00000000000E+00  0.45593999997E+02  0.45594000000E+02  0.51100000000E-03 0.  1.
         11   -1    0    0    0    0 -0.00000000000E+00 -0.00000000000E+00 -0.45593999997E+02  0.45594000000E+02  0.51100000000E-03 0. -1.
    9900012    2    1    2    0    0 -0.27346460012E+01 -0.43264872061E+02  0.20726550295E+01  0.47787270259E+02  0.19999996417E+02 0.  0.
         12    1    1    2    0    0  0.27346460012E+01  0.43264872061E+02 -0.20726550295E+01  0.43400729741E+02  0.00000000000E+00 0. -1.
         11    1    3    3    0    0 -0.15640418168E+01 -0.44478013833E+01 -0.32893564910E+01  0.57488286055E+01  0.51100000000E-03 0. -1.
        -11    1    3    3    0    0 -0.54514275954E+01 -0.10596479776E+02  0.63004719621E+01  0.13479591747E+02  0.51100000000E-03 0.  1.
        -12    1    3    3    0    0  0.42808234110E+01 -0.28220590902E+02 -0.93846044162E+00  0.28558849906E+02  0.00000000000E+00 0.  1.
</event>
<event>
 7    1  0.6622189E-010  0.4778727E+02  0.7816164E-02  0.1312668E+00
        -11   -1    0    0    0    0  0.00000000000E+00  0.00000000000E+00  0.45593999997E+02  0.45594000000E+02  0.51100000000E-03 0. -1.
         11   -1    0    0    0    0 -0.00000000000E+00 -0.00000000000E+00 -0.45593999997E+02  0.45594000000E+02  0.51100000000E-03 0.  1.
    9900012    2    1    2    0    0 -0.15631780270E+02 -0.20643751167E+02  0.34829677926E+02  0.47787268657E+02  0.19999989116E+02 0.  0.
        -12    1    1    2    0    0  0.15631780270E+02  0.20643751167E+02 -0.34829677926E+02  0.43400731343E+02  0.00000000000E+00 0.  1.
         11    1    3    3    0    0  0.69190077658E+00  0.17653846760E+01  0.57097774113E+01  0.60163833061E+01  0.51100000000E-03 0. -1.
        -11    1    3    3    0    0 -0.83264539449E+00  0.30397423825E+00  0.53627346529E+01  0.54354964731E+01  0.51100000000E-03 0.  1.
         12    1    3    3    0    0 -0.15491035652E+02 -0.22713110081E+02  0.23757165862E+02  0.36335388878E+02  0.00000000000E+00 0. -1.
</event>
<event>
 7    1  0.6622189E-010  0.4778727E+02  0.7816164E-02  0.1312668E+00
        -11   -1    0    0    0    0  0.00000000000E+00  0.00000000000E+00  0.45593999997E+02  0.45594000000E+02  0.51100000000E-03 0.  1.
         11   -1    0    0    0    0 -0.00000000000E+00 -0.00000000000E+00 -0.45593999997E+02  0.45594000000E+02  0.51100000000E-03 0. -1.
    9900012    2    1    2    0    0  0.20868284300E+02  0.17000601808E+02 -0.34045818966E+02  0.47787267972E+02  0.19999985993E+02 0.  0.
         12    1    1    2    0    0 -0.20868284300E+02 -0.17000601808E+02  0.34045818966E+02  0.43400732028E+02  0.00000000000E+00 0. -1.
         11    1    3    3    0    0  0.28974725262E+00  0.15476877995E+01 -0.10133171657E+02  0.10254777378E+02  0.51100000000E-03 0. -1.
        -11    1    3    3    0    0  0.18916870831E+02  0.69518312878E+01 -0.18208049035E+02  0.27160799145E+02  0.51100000000E-03 0.  1.
        -12    1    3    3    0    0  0.16616662170E+01  0.85010827207E+01 -0.57045982746E+01  0.10371691449E+02  0.00000000000E+00 0.  1.
</event>
<event>
 7    1  0.6622189E-010  0.4778727E+02  0.7816164E-02  0.1312668E+00
        -11   -1    0    0    0    0  0.00000000000E+00  0.00000000000E+00  0.45593999997E+02  0.45594000000E+02  0.51100000000E-03 0. -1.
         11   -1    0    0    0    0 -0.00000000000E+00 -0.00000000000E+00 -0.45593999997E+02  0.45594000000E+02  0.51100000000E-03 0.  1.
    9900012    2    1    2    0    0  0.38605108962E+01  0.32841277561E+02 -0.28109967191E+02  0.47787270608E+02  0.19999998012E+02 0.  0.
         12    1    1    2    0    0 -0.38605108962E+01 -0.32841277561E+02  0.28109967191E+02  0.43400729392E+02  0.00000000000E+00 0. -1.
         11    1    3    3    0    0  0.80146875299E+01  0.22925235812E+02 -0.11701120677E+02  0.26957705366E+02  0.51100000000E-03 0. -1.
        -11    1    3    3    0    0 -0.52121721629E+01  0.10423167712E+02 -0.14764447430E+02  0.18809520780E+02  0.51100000000E-03 0.  1.
         12    1    3    3    0    0  0.10579955293E+01 -0.50712596286E+00 -0.16443990839E+01  0.20200444622E+01  0.00000000000E+00 0. -1.
</event>
<event>
 7    1  0.6622189E-010  0.4778727E+02  0.7816164E-02  0.1312668E+00
        -11   -1    0    0    0    0  0.00000000000E+00  0.00000000000E+00  0.45593999997E+02  0.45594000000E+02  0.51100000000E-03 0. -1.
         11   -1    0    0    0    0 -0.00000000000E+00 -0.00000000000E+00 -0.45593999997E+02  0.45594000000E+02  0.51100000000E-03 0.  1.
    9900012    2    1    2    0    0 -0.12026865498E+02 -0.20112650665E+02  0.36530246007E+02  0.47787273234E+02  0.20000009981E+02 0.  0.
        -12    1    1    2    0    0  0.12026865498E+02  0.20112650665E+02 -0.36530246007E+02  0.43400726766E+02  0.00000000000E+00 0.  1.
         11    1    3    3    0    0 -0.10437332613E+01 -0.99544916087E+01  0.27699153612E+02  0.29452069425E+02  0.51100000000E-03 0. -1.
        -11    1    3    3    0    0 -0.71892833115E+01 -0.80564846824E+01  0.32685378387E+01  0.11281670082E+02  0.51100000000E-03 0.  1.
         12    1    3    3    0    0 -0.37938489255E+01 -0.21016743743E+01  0.55625545567E+01  0.70535337272E+01  0.00000000000E+00 0. -1.
</event>
<event>
 7    1  0.6622189E-010  0.4778727E+02  0.7816164E-02  0.1312668E+00
        -11   -1    0    0    0    0  0.00000000000E+00  0.00000000000E+00  0.45593999997E+02  0.45594000000E+02  0.51100000000E-03 0. -1.
         11   -1    0    0    0    0 -0.00000000000E+00 -0.00000000000E+00 -0.45593999997E+02  0.45594000000E+02  0.51100000000E-03 0.  1.
    9900012    2    1    2    0    0  0.66831724177E+01  0.23420702082E+02 -0.35922545406E+02  0.47787270190E+02  0.19999996104E+02 0.  0.
         12    1    1    2    0    0 -0.66831724177E+01 -0.23420702082E+02  0.35922545406E+02  0.43400729810E+02  0.00000000000E+00 0. -1.
         11    1    3    3    0    0 -0.36502421436E+01  0.14058157737E+02 -0.20860844106E+02  0.25419104700E+02  0.51100000000E-03 0. -1.
        -11    1    3    3    0    0  0.11907195446E+02  0.77492917317E+01 -0.13692378734E+02  0.19731043089E+02  0.51100000000E-03 0.  1.
        -12    1    3    3    0    0 -0.15737808843E+01  0.16132526139E+01 -0.13693225663E+01  0.26371224011E+01  0.00000000000E+00 0.  1.
</event>
<event>
 7    1  0.6622189E-010  0.4778727E+02  0.7816164E-02  0.1312668E+00
        -11   -1    0    0    0    0  0.00000000000E+00  0.00000000000E+00  0.45593999997E+02  0.45594000000E+02  0.51100000000E-03 0. -1.
         11   -1    0    0    0    0 -0.00000000000E+00 -0.00000000000E+00 -0.45593999997E+02  0.45594000000E+02  0.51100000000E-03 0.  1.
    9900012    2    1    2    0    0 -0.30553347256E+02  0.32168592074E+01  0.30655637364E+02  0.47787270584E+02  0.19999997899E+02 0.  0.
        -12    1    1    2    0    0  0.30553347256E+02 -0.32168592074E+01 -0.30655637364E+02  0.43400729416E+02  0.00000000000E+00 0.  1.
         11    1    3    3    0    0 -0.21533528738E+02 -0.89259160754E+00  0.10752795596E+02  0.24085518327E+02  0.51100000000E-03 0. -1.
        -11    1    3    3    0    0 -0.19984749403E+01  0.45306387185E+01  0.41911410146E+01  0.64873918141E+01  0.51100000000E-03 0.  1.
         12    1    3    3    0    0 -0.70213435773E+01 -0.42118790353E+00  0.15711700753E+02  0.17214360443E+02  0.00000000000E+00 0. -1.
</event>
<event>
 7    1  0.6622189E-010  0.4778727E+02  0.7816164E-02  0.1312668E+00
        -11   -1    0    0    0    0  0.00000000000E+00  0.00000000000E+00  0.45593999997E+02  0.45594000000E+02  0.51100000000E-03 0. -1.
         11   -1    0    0    0    0 -0.00000000000E+00 -0.00000000000E+00 -0.45593999997E+02  0.45594000000E+02  0.51100000000E-03 0.  1.
    9900012    2    1    2    0    0  0.37677522412E+02  0.26674527024E+01 -0.21375510646E+02  0.47787268965E+02  0.19999990519E+02 0.  0.
         12    1    1    2    0    0 -0.37677522412E+02 -0.26674527024E+01  0.21375510646E+02  0.43400731035E+02  0.00000000000E+00 0. -1.
         11    1    3    3    0    0  0.17980347501E+02 -0.58123282000E+01 -0.82670632963E+01  0.20625721592E+02  0.51100000000E-03 0. -1.
        -11    1    3    3    0    0  0.94013636457E+01  0.53281208633E+00 -0.11373963519E+01  0.94848931381E+01  0.51100000000E-03 0.  1.
         12    1    3    3    0    0  0.10295811265E+02  0.79469688161E+01 -0.11971050998E+02  0.17676654235E+02  0.00000000000E+00 0. -1.
</event>
<event>
 7    1  0.6622189E-010  0.4778727E+02  0.7816164E-02  0.1312668E+00
        -11   -1    0    0    0    0  0.00000000000E+00  0.00000000000E+00  0.45593999997E+02  0.45594000000E+02  0.51100000000E-03 0.  1.
         11   -1    0    0    0    0 -0.00000000000E+00 -0.00000000000E+00 -0.45593999997E+02  0.45594000000E+02  0.51100000000E-03 0. -1.
    9900012    2    1    2    0    0  0.43289020623E+02  0.24759142332E+01  0.18851065566E+01  0.47787273226E+02  0.20000009945E+02 0.  0.
         12    1    1    2    0    0 -0.43289020623E+02 -0.24759142332E+01 -0.18851065566E+01  0.43400726774E+02  0.00000000000E+00 0. -1.
         11    1    3    3    0    0  0.32768841017E+01  0.32446194723E+01  0.38437217151E+01  0.60033092391E+01  0.51100000000E-03 0. -1.
        -11    1    3    3    0    0  0.13756900912E+02 -0.45287491177E+01 -0.44311496409E+01  0.15145856816E+02  0.51100000000E-03 0.  1.
        -12    1    3    3    0    0  0.26255235610E+02  0.37600438786E+01  0.24725344824E+01  0.26638107171E+02  0.00000000000E+00 0.  1.
</event>
<event>
 7    1  0.6622189E-010  0.4778727E+02  0.7816164E-02  0.1312668E+00
        -11   -1    0    0    0    0  0.00000000000E+00  0.00000000000E+00  0.45593999997E+02  0.45594000000E+02  0.51100000000E-03 0. -1.
         11   -1    0    0    0    0 -0.00000000000E+00 -0.00000000000E+00 -0.45593999997E+02  0.45594000000E+02  0.51100000000E-03 0.  1.
    9900012    2    1    2    0    0  0.50610484181E+01 -0.38893648396E+02 -0.18582067622E+02  0.47787270354E+02  0.19999996854E+02 0.  0.
         12    1    1    2    0    0 -0.50610484181E+01  0.38893648396E+02  0.18582067622E+02  0.43400729646E+02  0.00000000000E+00 0. -1.
         11    1    3    3    0    0  0.36472976550E+01 -0.67867013289E+01  0.35732559350E+00  0.77129616201E+01  0.51100000000E-03 0. -1.
        -11    1    3    3    0    0  0.63137797005E+01 -0.23889850641E+02 -0.17769426790E+02  0.30435855607E+02  0.51100000000E-03 0.  1.
        -12    1    3    3    0    0 -0.49000289374E+01 -0.82170964259E+01 -0.11699664251E+01  0.96384531278E+01  0.00000000000E+00 0.  1.
</event>
<event>
 7    1  0.6622189E-010  0.4778727E+02  0.7816164E-02  0.1312668E+00
        -11   -1    0    0    0    0  0.00000000000E+00  0.00000000000E+00  0.45593999997E+02  0.45594000000E+02  0.51100000000E-03 0. -1.
         11   -1    0    0    0    0 -0.00000000000E+00 -0.00000000000E+00 -0.45593999997E+02  0.45594000000E+02  0.51100000000E-03 0.  1.
    9900012    2    1    2    0    0  0.41860371285E+02 -0.77356927060E+01 -0.84552642204E+01  0.47787272831E+02  0.20000008145E+02 0.  0.
         12    1    1    2    0    0 -0.41860371285E+02  0.77356927060E+01  0.84552642204E+01  0.43400727169E+02  0.00000000000E+00 0. -1.
         11    1    3    3    0    0  0.92849566894E+01 -0.12696086594E+01  0.59477391775E+01  0.11099456224E+02  0.51100000000E-03 0. -1.
        -11    1    3    3    0    0  0.30324777647E+02 -0.75252537420E+01 -0.13098393614E+02  0.33879042176E+02  0.51100000000E-03 0.  1.
        -12    1    3    3    0    0  0.22506369486E+01  0.10591696954E+01 -0.13046097841E+01  0.28087744315E+01  0.00000000000E+00 0.  1.
</event>
<event>
 7    1  0.6622189E-010  0.4778727E+02  0.7816164E-02  0.1312668E+00
        -11   -1    0    0    0    0  0.00000000000E+00  0.00000000000E+00  0.45593999997E+02  0.45594000000E+02  0.51100000000E-03 0. -1.
         11   -1    0    0    0    0 -0.00000000000E+00 -0.00000000000E+00 -0.45593999997E+02  0.45594000000E+02  0.51100000000E-03 0.  1.
    9900012    2    1    2    0    0 -0.40010253195E+02 -0.67423656014E+01  0.15405958105E+02  0.47787269594E+02  0.19999993388E+02 0.  0.
        -12    1    1    2    0    0  0.40010253195E+02  0.67423656014E+01 -0.15405958105E+02  0.43400730406E+02  0.00000000000E+00 0.  1.
         11    1    3    3    0    0 -0.25409462647E+02  0.34572777522E+01  0.70722740894E+01  0.26600951534E+02  0.51100000000E-03 0. -1.
        -11    1    3    3    0    0 -0.75998117896E+00 -0.33990223561E+01 -0.32910000300E+00  0.34984612965E+01  0.51100000000E-03 0.  1.
         12    1    3    3    0    0 -0.13840809368E+02 -0.68006209975E+01  0.86627840190E+01  0.17687856763E+02  0.00000000000E+00 0. -1.
</event>
<event>
 7    1  0.6622189E-010  0.4778727E+02  0.7816164E-02  0.1312668E+00
        -11   -1    0    0    0    0  0.00000000000E+00  0.00000000000E+00  0.45593999997E+02  0.45594000000E+02  0.51100000000E-03 0. -1.
         11   -1    0    0    0    0 -0.00000000000E+00 -0.00000000000E+00 -0.45593999997E+02  0.45594000000E+02  0.51100000000E-03 0.  1.
    9900012    2    1    2    0    0  0.43347980042E+01 -0.13273007960E+02 -0.41093310983E+02  0.47787269343E+02  0.19999992242E+02 0.  0.
         12    1    1    2    0    0 -0.43347980042E+01  0.13273007960E+02  0.41093310983E+02  0.43400730657E+02  0.00000000000E+00 0. -1.
         11    1    3    3    0    0  0.54280756828E+01 -0.86053126081E+00 -0.48386002850E+01  0.73223338252E+01  0.51100000000E-03 0. -1.
        -11    1    3    3    0    0 -0.19348643841E+01 -0.41575469449E+01 -0.29246029256E+02  0.29603363394E+02  0.51100000000E-03 0.  1.
        -12    1    3    3    0    0  0.84158670561E+00 -0.82549297543E+01 -0.70086814421E+01  0.10861572123E+02  0.00000000000E+00 0.  1.
</event>
<event>
 7    1  0.6622189E-010  0.4778727E+02  0.7816164E-02  0.1312668E+00
        -11   -1    0    0    0    0  0.00000000000E+00  0.00000000000E+00  0.45593999997E+02  0.45594000000E+02  0.51100000000E-03 0.  1.
         11   -1    0    0    0    0 -0.00000000000E+00 -0.00000000000E+00 -0.45593999997E+02  0.45594000000E+02  0.51100000000E-03 0. -1.
    9900012    2    1    2    0    0  0.29289948042E+02 -0.16900125962E+02  0.27204925571E+02  0.47787270869E+02  0.19999999198E+02 0.  0.
        -12    1    1    2    0    0 -0.29289948042E+02  0.16900125962E+02 -0.27204925571E+02  0.43400729131E+02  0.00000000000E+00 0.  1.
         11    1    3    3    0    0  0.19820893059E+02 -0.54137311786E+01  0.89911703945E+01  0.22428050122E+02  0.51100000000E-03 0. -1.
        -11    1    3    3    0    0  0.88430027817E+00  0.15144109683E+01  0.35722436276E+01  0.39794914699E+01  0.51100000000E-03 0.  1.
         12    1    3    3    0    0  0.85847547047E+01 -0.13000805751E+02  0.14641511549E+02  0.21379729277E+02  0.00000000000E+00 0. -1.
</event>
<event>
 7    1  0.6622189E-010  0.4778727E+02  0.7816164E-02  0.1312668E+00
        -11   -1    0    0    0    0  0.00000000000E+00  0.00000000000E+00  0.45593999997E+02  0.45594000000E+02  0.51100000000E-03 0. -1.
         11   -1    0    0    0    0 -0.00000000000E+00 -0.00000000000E+00 -0.45593999997E+02  0.45594000000E+02  0.51100000000E-03 0.  1.
    9900012    2    1    2    0    0 -0.11949245214E+01 -0.18871100775E+02  0.39065036063E+02  0.47787270378E+02  0.19999996963E+02 0.  0.
        -12    1    1    2    0    0  0.11949245214E+01  0.18871100775E+02 -0.39065036063E+02  0.43400729622E+02  0.00000000000E+00 0.  1.
         11    1    3    3    0    0 -0.43943250483E+01 -0.19946861395E+02  0.37225554243E+02  0.42460914511E+02  0.51100000000E-03 0. -1.
        -11    1    3    3    0    0 -0.66629211995E+00 -0.48384634278E+00  0.20228350026E+00  0.84792178184E+00  0.51100000000E-03 0.  1.
         12    1    3    3    0    0  0.38656926469E+01  0.15596069627E+01  0.16371983197E+01  0.44784340853E+01  0.00000000000E+00 0. -1.
</event>
<event>
 7    1  0.6622189E-010  0.4778723E+02  0.7816164E-02  0.1312668E+00
        -11   -1    0    0    0    0  0.00000000000E+00  0.00000000000E+00  0.45593999997E+02  0.45594000000E+02  0.51100000000E-03 0. -1.
         11   -1    0    0    0    0 -0.00000000000E+00 -0.00000000000E+00 -0.45593999997E+02  0.45594000000E+02  0.51100000000E-03 0.  1.
    9900012    2    1    2    0    0 -0.27717285840E+02 -0.22984641180E+02 -0.24229837181E+02  0.47787231870E+02  0.19999821387E+02 0.  0.
         12    1    1    2    0    0  0.27717285840E+02  0.22984641180E+02  0.24229837181E+02  0.43400768130E+02  0.00000000000E+00 0. -1.
         11    1    3    3    0    0 -0.16738970094E+02 -0.22541571695E+02 -0.17590526343E+02  0.33132192676E+02  0.51100000000E-03 0. -1.
        -11    1    3    3    0    0 -0.10256560514E+02 -0.20192933754E+01 -0.73527576498E+01  0.12780360896E+02  0.51100000000E-03 0.  1.
         12    1    3    3    0    0 -0.72175523216E+00  0.15762238901E+01  0.71344681193E+00  0.18746782978E+01  0.00000000000E+00 0. -1.
</event>
<event>
 7    1  0.6622189E-010  0.4778727E+02  0.7816164E-02  0.1312668E+00
        -11   -1    0    0    0    0  0.00000000000E+00  0.00000000000E+00  0.45593999997E+02  0.45594000000E+02  0.51100000000E-03 0. -1.
         11   -1    0    0    0    0 -0.00000000000E+00 -0.00000000000E+00 -0.45593999997E+02  0.45594000000E+02  0.51100000000E-03 0.  1.
    9900012    2    1    2    0    0  0.24906367281E+01  0.12997469619E+02 -0.41333835414E+02  0.47787269155E+02  0.19999991385E+02 0.  0.
         12    1    1    2    0    0 -0.24906367281E+01 -0.12997469619E+02  0.41333835414E+02  0.43400730845E+02  0.00000000000E+00 0. -1.
         11    1    3    3    0    0  0.38044809506E+01  0.91311351910E+01 -0.49593669431E+01  0.11065578427E+02  0.51100000000E-03 0. -1.
        -11    1    3    3    0    0 -0.22240634852E+01  0.26347726711E+01 -0.22444887070E+02  0.22708180052E+02  0.51100000000E-03 0.  1.
         12    1    3    3    0    0  0.91021926267E+00  0.12315617571E+01 -0.13929581401E+02  0.14013510676E+02  0.00000000000E+00 0. -1.
</event>
<event>
 7    1  0.6622189E-010  0.4778727E+02  0.7816164E-02  0.1312668E+00
        -11   -1    0    0    0    0  0.00000000000E+00  0.00000000000E+00  0.45593999997E+02  0.45594000000E+02  0.51100000000E-03 0. -1.
         11   -1    0    0    0    0 -0.00000000000E+00 -0.00000000000E+00 -0.45593999997E+02  0.45594000000E+02  0.51100000000E-03 0.  1.
    9900012    2    1    2    0    0 -0.10184919193E+02 -0.25675274434E+02 -0.33476429323E+02  0.47787267098E+02  0.19999982006E+02 0.  0.
         12    1    1    2    0    0  0.10184919193E+02  0.25675274434E+02  0.33476429323E+02  0.43400732902E+02  0.00000000000E+00 0. -1.
         11    1    3    3    0    0  0.17985237643E+01 -0.31926946251E+01  0.36541833112E-01  0.36646039713E+01  0.51100000000E-03 0. -1.
        -11    1    3    3    0    0 -0.41370783965E+00 -0.12128297671E+02 -0.20687181142E+02  0.23983874217E+02  0.51100000000E-03 0.  1.
        -12    1    3    3    0    0 -0.11569735117E+02 -0.10354282138E+02 -0.12825790013E+02  0.20138788910E+02  0.00000000000E+00 0.  1.
</event>
<event>
 7    1  0.6622189E-010  0.4778727E+02  0.7816164E-02  0.1312668E+00
        -11   -1    0    0    0    0  0.00000000000E+00  0.00000000000E+00  0.45593999997E+02  0.45594000000E+02  0.51100000000E-03 0.  1.
         11   -1    0    0    0    0 -0.00000000000E+00 -0.00000000000E+00 -0.45593999997E+02  0.45594000000E+02  0.51100000000E-03 0. -1.
    9900012    2    1    2    0    0  0.16119214308E+02 -0.40112279321E+02 -0.38469433460E+01  0.47787274254E+02  0.20000014632E+02 0.  0.
         12    1    1    2    0    0 -0.16119214308E+02  0.40112279321E+02  0.38469433460E+01  0.43400725746E+02  0.00000000000E+00 0. -1.
         11    1    3    3    0    0 -0.16263701112E+01 -0.17247375182E+02 -0.34128248312E+01  0.17656851475E+02  0.51100000000E-03 0. -1.
        -11    1    3    3    0    0  0.12728472299E+02 -0.10693860196E+02 -0.24780480882E+01  0.16808134208E+02  0.51100000000E-03 0.  1.
        -12    1    3    3    0    0  0.50171121205E+01 -0.12171043942E+02  0.20439295734E+01  0.13322288571E+02  0.00000000000E+00 0.  1.
</event>
<event>
 7    1  0.6622189E-010  0.4778728E+02  0.7816164E-02  0.1312668E+00
        -11   -1    0    0    0    0  0.00000000000E+00  0.00000000000E+00  0.45593999997E+02  0.45594000000E+02  0.51100000000E-03 0.  1.
         11   -1    0    0    0    0 -0.00000000000E+00 -0.00000000000E+00 -0.45593999997E+02  0.45594000000E+02  0.51100000000E-03 0. -1.
    9900012    2    1    2    0    0 -0.23944860954E+02 -0.35452457515E+02 -0.73068312530E+01  0.47787275433E+02  0.20000020010E+02 0.  0.
        -12    1    1    2    0    0  0.23944860954E+02  0.35452457515E+02  0.73068312530E+01  0.43400724567E+02  0.00000000000E+00 0.  1.
         11    1    3    3    0    0 -0.17942869208E+02 -0.20064910922E+02  0.13609518988E+01  0.26951797640E+02  0.51100000000E-03 0. -1.
        -11    1    3    3    0    0 -0.55058822119E+01 -0.16651059118E+02 -0.84252927918E+01  0.19456568751E+02  0.51100000000E-03 0.  1.
        -12    1    3    3    0    0 -0.49610953430E+00  0.12635125249E+01 -0.24249035995E+00  0.13789090417E+01  0.00000000000E+00 0.  1.
</event>
<event>
 7    1  0.6622189E-010  0.4778727E+02  0.7816164E-02  0.1312668E+00
        -11   -1    0    0    0    0  0.00000000000E+00  0.00000000000E+00  0.45593999997E+02  0.45594000000E+02  0.51100000000E-03 0. -1.
         11   -1    0    0    0    0 -0.00000000000E+00 -0.00000000000E+00 -0.45593999997E+02  0.45594000000E+02  0.51100000000E-03 0.  1.
    9900012    2    1    2    0    0  0.18986078145E+01 -0.23077683059E+01 -0.43297720352E+02  0.47787273119E+02  0.20000009457E+02 0.  0.
         12    1    1    2    0    0 -0.18986078145E+01  0.23077683059E+01  0.43297720352E+02  0.43400726881E+02  0.00000000000E+00 0. -1.
         11    1    3    3    0    0 -0.54138250319E+00 -0.93697127454E+01 -0.19160010943E+02  0.21335197012E+02  0.51100000000E-03 0. -1.
        -11    1    3    3    0    0  0.72623038241E+00  0.47519009375E+01 -0.22761305545E+02  0.23263383319E+02  0.51100000000E-03 0.  1.
         12    1    3    3    0    0  0.17137599353E+01  0.23100435019E+01 -0.13764038640E+01  0.31886927875E+01  0.00000000000E+00 0. -1.
</event>
<event>
 7    1  0.6622189E-010  0.4778724E+02  0.7816164E-02  0.1312668E+00
        -11   -1    0    0    0    0  0.00000000000E+00  0.00000000000E+00  0.45593999997E+02  0.45594000000E+02  0.51100000000E-03 0. -1.
         11   -1    0    0    0    0 -0.00000000000E+00 -0.00000000000E+00 -0.45593999997E+02  0.45594000000E+02  0.51100000000E-03 0.  1.
    9900012    2    1    2    0    0 -0.21001329795E+02 -0.17443720506E+01  0.37941102269E+02  0.47787240463E+02  0.19999860567E+02 0.  0.
        -12    1    1    2    0    0  0.21001329795E+02  0.17443720506E+01 -0.37941102269E+02  0.43400759537E+02  0.00000000000E+00 0.  1.
         11    1    3    3    0    0 -0.10221168956E+02 -0.60820849956E+01  0.18350463624E+02  0.21867866110E+02  0.51100000000E-03 0.  1.
        -11    1    3    3    0    0 -0.11006322307E+02  0.68033499294E+01  0.19548683189E+02  0.23443031282E+02  0.51100000000E-03 0. -1.
         12    1    3    3    0    0  0.22616146738E+00 -0.24656369844E+01  0.41955455397E-01  0.24763430716E+01  0.00000000000E+00 0. -1.
</event>
<event>
 7    1  0.6622189E-010  0.4778728E+02  0.7816164E-02  0.1312668E+00
        -11   -1    0    0    0    0  0.00000000000E+00  0.00000000000E+00  0.45593999997E+02  0.45594000000E+02  0.51100000000E-03 0.  1.
         11   -1    0    0    0    0 -0.00000000000E+00 -0.00000000000E+00 -0.45593999997E+02  0.45594000000E+02  0.51100000000E-03 0. -1.
    9900012    2    1    2    0    0 -0.42304229532E+02 -0.18339001156E+01 -0.95190169389E+01  0.47787277547E+02  0.20000029650E+02 0.  0.
        -12    1    1    2    0    0  0.42304229532E+02  0.18339001156E+01  0.95190169389E+01  0.43400722453E+02  0.00000000000E+00 0.  1.
         11    1    3    3    0    0 -0.38763507823E+02 -0.20570696613E+01 -0.11937269432E+02  0.40612060722E+02  0.51100000000E-03 0. -1.
        -11    1    3    3    0    0 -0.32772866162E+01 -0.23750617097E+01  0.20527701428E+01  0.45382145398E+01  0.51100000000E-03 0.  1.
         12    1    3    3    0    0 -0.26343509229E+00  0.25982312554E+01  0.36548235006E+00  0.26370022853E+01  0.00000000000E+00 0. -1.
</event>
<event>
 7    1  0.6622189E-010  0.4778727E+02  0.7816164E-02  0.1312668E+00
        -11   -1    0    0    0    0  0.00000000000E+00  0.00000000000E+00  0.45593999997E+02  0.45594000000E+02  0.51100000000E-03 0. -1.
         11   -1    0    0    0    0 -0.00000000000E+00 -0.00000000000E+00 -0.45593999997E+02  0.45594000000E+02  0.51100000000E-03 0.  1.
    9900012    2    1    2    0    0  0.39656398983E+01  0.16633229166E+02  0.39890256648E+02  0.47787272036E+02  0.20000004523E+02 0.  0.
        -12    1    1    2    0    0 -0.39656398983E+01 -0.16633229166E+02 -0.39890256648E+02  0.43400727964E+02  0.00000000000E+00 0.  1.
         11    1    3    3    0    0 -0.36015140473E+01  0.42007860093E+01  0.24834029868E+02  0.25443005842E+02  0.51100000000E-03 0. -1.
        -11    1    3    3    0    0  0.33000915059E+01  0.11705906730E+02  0.11570357499E+02  0.16786662242E+02  0.51100000000E-03 0.  1.
         12    1    3    3    0    0  0.42670624397E+01  0.72653642713E+00  0.34858692813E+01  0.55576039523E+01  0.00000000000E+00 0. -1.
</event>
<event>
 7    1  0.6622189E-010  0.4778727E+02  0.7816164E-02  0.1312668E+00
        -11   -1    0    0    0    0  0.00000000000E+00  0.00000000000E+00  0.45593999997E+02  0.45594000000E+02  0.51100000000E-03 0. -1.
         11   -1    0    0    0    0 -0.00000000000E+00 -0.00000000000E+00 -0.45593999997E+02  0.45594000000E+02  0.51100000000E-03 0.  1.
    9900012    2    1    2    0    0  0.11882260789E+02 -0.34610429654E+02  0.23335664037E+02  0.47787272145E+02  0.20000005019E+02 0.  0.
        -12    1    1    2    0    0 -0.11882260789E+02  0.34610429654E+02 -0.23335664037E+02  0.43400727855E+02  0.00000000000E+00 0.  1.
         11    1    3    3    0    0 -0.24862781917E+01 -0.11136121915E+02  0.37182854829E+01  0.12000851542E+02  0.51100000000E-03 0. -1.
        -11    1    3    3    0    0  0.11900679705E+02 -0.13602109842E+02  0.65486094625E+01  0.19223107339E+02  0.51100000000E-03 0.  1.
         12    1    3    3    0    0  0.24678592753E+01 -0.98721978977E+01  0.13068769091E+02  0.16563313264E+02  0.00000000000E+00 0. -1.
</event>
<event>
 7    1  0.6622189E-010  0.4778728E+02  0.7816164E-02  0.1312668E+00
        -11   -1    0    0    0    0  0.00000000000E+00  0.00000000000E+00  0.45593999997E+02  0.45594000000E+02  0.51100000000E-03 0. -1.
         11   -1    0    0    0    0 -0.00000000000E+00 -0.00000000000E+00 -0.45593999997E+02  0.45594000000E+02  0.51100000000E-03 0.  1.
    9900012    2    1    2    0    0 -0.81771655812E+01  0.14588537719E+02 -0.40049109695E+02  0.47787278150E+02  0.20000032396E+02 0.  0.
         12    1    1    2    0    0  0.81771655812E+01 -0.14588537719E+02  0.40049109695E+02  0.43400721850E+02  0.00000000000E+00 0. -1.
         11    1    3    3    0    0  0.32371829119E+01  0.57152324628E+01 -0.26504631836E+01  0.70829507027E+01  0.51100000000E-03 0. -1.
        -11    1    3    3    0    0 -0.12078438281E+02  0.88326284487E+01 -0.37040439118E+02  0.39948693683E+02  0.51100000000E-03 0.  1.
        -12    1    3    3    0    0  0.66408978792E+00  0.40676807900E-01 -0.35820739341E+00  0.75563376434E+00  0.00000000000E+00 0.  1.
</event>
<event>
 7    1  0.6622189E-010  0.4778727E+02  0.7816164E-02  0.1312668E+00
        -11   -1    0    0    0    0  0.00000000000E+00  0.00000000000E+00  0.45593999997E+02  0.45594000000E+02  0.51100000000E-03 0. -1.
         11   -1    0    0    0    0 -0.00000000000E+00 -0.00000000000E+00 -0.45593999997E+02  0.45594000000E+02  0.51100000000E-03 0.  1.
    9900012    2    1    2    0    0  0.24072913602E+02  0.28161143888E+02 -0.22606812518E+02  0.47787272281E+02  0.20000005637E+02 0.  0.
         12    1    1    2    0    0 -0.24072913602E+02 -0.28161143888E+02  0.22606812518E+02  0.43400727719E+02  0.00000000000E+00 0. -1.
         11    1    3    3    0    0  0.21212244095E+02  0.19371059587E+02 -0.97704010174E+01  0.30342346405E+02  0.51100000000E-03 0. -1.
        -11    1    3    3    0    0 -0.16231236692E+01  0.40428580214E+01 -0.86587123088E+01  0.96929113549E+01  0.51100000000E-03 0.  1.
        -12    1    3    3    0    0  0.44837931761E+01  0.47472262794E+01 -0.41776991915E+01  0.77520145206E+01  0.00000000000E+00 0.  1.
</event>
<event>
 7    1  0.6622189E-010  0.4778727E+02  0.7816164E-02  0.1312668E+00
        -11   -1    0    0    0    0  0.00000000000E+00  0.00000000000E+00  0.45593999997E+02  0.45594000000E+02  0.51100000000E-03 0. -1.
         11   -1    0    0    0    0 -0.00000000000E+00 -0.00000000000E+00 -0.45593999997E+02  0.45594000000E+02  0.51100000000E-03 0.  1.
    9900012    2    1    2    0    0 -0.58649767504E+01 -0.21572994067E+02  0.37199882177E+02  0.47787271212E+02  0.20000000765E+02 0.  0.
        -12    1    1    2    0    0  0.58649767504E+01  0.21572994067E+02 -0.37199882177E+02  0.43400728788E+02  0.00000000000E+00 0.  1.
         11    1    3    3    0    0  0.37654410553E+01 -0.72144847035E+01  0.17478524929E+02  0.19280201499E+02  0.51100000000E-03 0. -1.
        -11    1    3    3    0    0 -0.20522824305E+01 -0.10776144250E+02  0.15845418851E+02  0.19272115786E+02  0.51100000000E-03 0.  1.
         12    1    3    3    0    0 -0.75781353751E+01 -0.35823651137E+01  0.38759383971E+01  0.92349539267E+01  0.00000000000E+00 0. -1.
</event>
<event>
 7    1  0.6622189E-010  0.4778726E+02  0.7816164E-02  0.1312668E+00
        -11   -1    0    0    0    0  0.00000000000E+00  0.00000000000E+00  0.45593999997E+02  0.45594000000E+02  0.51100000000E-03 0. -1.
         11   -1    0    0    0    0 -0.00000000000E+00 -0.00000000000E+00 -0.45593999997E+02  0.45594000000E+02  0.51100000000E-03 0.  1.
    9900012    2    1    2    0    0 -0.72346254206E+01  0.92513096340E+01  0.41781543757E+02  0.47787263443E+02  0.19999965343E+02 0.  0.
        -12    1    1    2    0    0  0.72346254206E+01 -0.92513096340E+01 -0.41781543757E+02  0.43400736557E+02  0.00000000000E+00 0.  1.
         11    1    3    3    0    0 -0.36635025158E+01 -0.23001641620E+01  0.39242742909E+01  0.58405423401E+01  0.51100000000E-03 0. -1.
        -11    1    3    3    0    0 -0.16803088280E+01  0.14468068604E+02  0.29677703935E+02  0.33059258280E+02  0.51100000000E-03 0.  1.
        -12    1    3    3    0    0 -0.18908140767E+01 -0.29165948082E+01  0.81795655318E+01  0.88874628234E+01  0.00000000000E+00 0.  1.
</event>
<event>
 7    1  0.6622189E-010  0.4778727E+02  0.7816164E-02  0.1312668E+00
        -11   -1    0    0    0    0  0.00000000000E+00  0.00000000000E+00  0.45593999997E+02  0.45594000000E+02  0.51100000000E-03 0.  1.
         11   -1    0    0    0    0 -0.00000000000E+00 -0.00000000000E+00 -0.45593999997E+02  0.45594000000E+02  0.51100000000E-03 0. -1.
    9900012    2    1    2    0    0 -0.42316037635E+02 -0.68674406248E+01 -0.67686344127E+01  0.47787271969E+02  0.20000004214E+02 0.  0.
         12    1    1    2    0    0  0.42316037635E+02  0.68674406248E+01  0.67686344127E+01  0.43400728031E+02  0.00000000000E+00 0. -1.
         11    1    3    3    0    0  0.16544040899E+01 -0.12992716536E+01 -0.24548787498E+01  0.32328918417E+01  0.51100000000E-03 0. -1.
        -11    1    3    3    0    0 -0.37251488241E+02 -0.46209078477E+01 -0.41649088553E+01  0.37767348749E+02  0.51100000000E-03 0.  1.
         12    1    3    3    0    0 -0.67189534838E+01 -0.94726112357E+00 -0.14884680761E+00  0.67870313780E+01  0.00000000000E+00 0. -1.
</event>
<event>
 7    1  0.6622189E-010  0.4778727E+02  0.7816164E-02  0.1312668E+00
        -11   -1    0    0    0    0  0.00000000000E+00  0.00000000000E+00  0.45593999997E+02  0.45594000000E+02  0.51100000000E-03 0.  1.
         11   -1    0    0    0    0 -0.00000000000E+00 -0.00000000000E+00 -0.45593999997E+02  0.45594000000E+02  0.51100000000E-03 0. -1.
    9900012    2    1    2    0    0 -0.31704232818E+02 -0.29313560230E+02 -0.43794949849E+01  0.47787272261E+02  0.20000005547E+02 0.  0.
        -12    1    1    2    0    0  0.31704232818E+02  0.29313560230E+02  0.43794949849E+01  0.43400727739E+02  0.00000000000E+00 0.  1.
         11    1    3    3    0    0 -0.10592594852E+01  0.19652983762E+01 -0.16153100407E+01  0.27556587512E+01  0.51100000000E-03 0. -1.
        -11    1    3    3    0    0 -0.19472246112E+02 -0.24988641012E+02 -0.48261010675E+01  0.32045152520E+02  0.51100000000E-03 0.  1.
        -12    1    3    3    0    0 -0.11172727221E+02 -0.62902175940E+01  0.20619161233E+01  0.12986460989E+02  0.00000000000E+00 0.  1.
</event>
<event>
 7    1  0.6622189E-010  0.4778727E+02  0.7816164E-02  0.1312668E+00
        -11   -1    0    0    0    0  0.00000000000E+00  0.00000000000E+00  0.45593999997E+02  0.45594000000E+02  0.51100000000E-03 0. -1.
         11   -1    0    0    0    0 -0.00000000000E+00 -0.00000000000E+00 -0.45593999997E+02  0.45594000000E+02  0.51100000000E-03 0.  1.
    9900012    2    1    2    0    0 -0.31879651355E+02  0.41674943405E+01  0.29153779889E+02  0.47787273493E+02  0.20000011162E+02 0.  0.
        -12    1    1    2    0    0  0.31879651355E+02 -0.41674943405E+01 -0.29153779889E+02  0.43400726507E+02  0.00000000000E+00 0.  1.
         11    1    3    3    0    0 -0.10922015953E+02  0.35414430751E+01  0.74788051613E+01  0.13702728868E+02  0.51100000000E-03 0. -1.
        -11    1    3    3    0    0 -0.17614087126E+02  0.25647236743E+01  0.23764048268E+02  0.29691141156E+02  0.51100000000E-03 0.  1.
        -12    1    3    3    0    0 -0.33435482755E+01 -0.19386724088E+01 -0.20890735404E+01  0.43934034684E+01  0.00000000000E+00 0.  1.
</event>
<event>
 7    1  0.6622189E-010  0.4778727E+02  0.7816164E-02  0.1312668E+00
        -11   -1    0    0    0    0  0.00000000000E+00  0.00000000000E+00  0.45593999997E+02  0.45594000000E+02  0.51100000000E-03 0. -1.
         11   -1    0    0    0    0 -0.00000000000E+00 -0.00000000000E+00 -0.45593999997E+02  0.45594000000E+02  0.51100000000E-03 0.  1.
    9900012    2    1    2    0    0  0.16363639370E+02  0.26952537344E+02 -0.29823073185E+02  0.47787266632E+02  0.19999979882E+02 0.  0.
         12    1    1    2    0    0 -0.16363639370E+02 -0.26952537344E+02  0.29823073185E+02  0.43400733368E+02  0.00000000000E+00 0. -1.
         11    1    3    3    0    0  0.83282132511E-01  0.23259303706E+01 -0.28053870427E+01  0.36451453638E+01  0.51100000000E-03 0. -1.
        -11    1    3    3    0    0  0.81571448892E+01  0.16770929384E+02 -0.27032891025E+02  0.32841746034E+02  0.51100000000E-03 0.  1.
        -12    1    3    3    0    0  0.81232123479E+01  0.78556775895E+01  0.15204882917E-01  0.11300375234E+02  0.00000000000E+00 0.  1.
</event>
<event>
 7    1  0.6622189E-010  0.4778727E+02  0.7816164E-02  0.1312668E+00
        -11   -1    0    0    0    0  0.00000000000E+00  0.00000000000E+00  0.45593999997E+02  0.45594000000E+02  0.51100000000E-03 0. -1.
         11   -1    0    0    0    0 -0.00000000000E+00 -0.00000000000E+00 -0.45593999997E+02  0.45594000000E+02  0.51100000000E-03 0.  1.
    9900012    2    1    2    0    0 -0.13087882594E+02 -0.98013513882E+01 -0.40202788262E+02  0.47787270238E+02  0.19999996325E+02 0.  0.
         12    1    1    2    0    0  0.13087882594E+02  0.98013513882E+01  0.40202788262E+02  0.43400729762E+02  0.00000000000E+00 0. -1.
         11    1    3    3    0    0 -0.14839347579E+02 -0.42824001013E+01 -0.18640824930E+02  0.24207964423E+02  0.51100000000E-03 0. -1.
        -11    1    3    3    0    0  0.36283890077E+01 -0.19123580269E+01 -0.47177671955E+01  0.62513716564E+01  0.51100000000E-03 0.  1.
         12    1    3    3    0    0 -0.18769240231E+01 -0.36065932600E+01 -0.16844196136E+02  0.17327934159E+02  0.00000000000E+00 0. -1.
</event>
<event>
 7    1  0.6622189E-010  0.4778727E+02  0.7816164E-02  0.1312668E+00
        -11   -1    0    0    0    0  0.00000000000E+00  0.00000000000E+00  0.45593999997E+02  0.45594000000E+02  0.51100000000E-03 0. -1.
         11   -1    0    0    0    0 -0.00000000000E+00 -0.00000000000E+00 -0.45593999997E+02  0.45594000000E+02  0.51100000000E-03 0.  1.
    9900012    2    1    2    0    0  0.19613761011E+02  0.12330281942E+02 -0.36699971633E+02  0.47787269688E+02  0.19999993816E+02 0.  0.
         12    1    1    2    0    0 -0.19613761011E+02 -0.12330281942E+02  0.36699971633E+02  0.43400730312E+02  0.00000000000E+00 0. -1.
         11    1    3    3    0    0 -0.47871134732E+00 -0.27672641461E+01 -0.40123067851E+00  0.28368823956E+01  0.51100000000E-03 0. -1.
        -11    1    3    3    0    0  0.20811398891E+02  0.13668484759E+02 -0.33733212075E+02  0.41926976955E+02  0.51100000000E-03 0.  1.
        -12    1    3    3    0    0 -0.71892653253E+00  0.14290613281E+01 -0.25655288792E+01  0.30234103375E+01  0.00000000000E+00 0.  1.
</event>
<event>
 7    1  0.6622189E-010  0.4778727E+02  0.7816164E-02  0.1312668E+00
        -11   -1    0    0    0    0  0.00000000000E+00  0.00000000000E+00  0.45593999997E+02  0.45594000000E+02  0.51100000000E-03 0.  1.
         11   -1    0    0    0    0 -0.00000000000E+00 -0.00000000000E+00 -0.45593999997E+02  0.45594000000E+02  0.51100000000E-03 0. -1.
    9900012    2    1    2    0    0  0.29979773761E+00 -0.43287990735E+02 -0.31117593242E+01  0.47787273432E+02  0.20000010885E+02 0.  0.
        -12    1    1    2    0    0 -0.29979773761E+00  0.43287990735E+02  0.31117593242E+01  0.43400726568E+02  0.00000000000E+00 0.  1.
         11    1    3    3    0    0 -0.64055008902E+01 -0.22128921996E+02 -0.51345244790E+01  0.23602605201E+02  0.51100000000E-03 0. -1.
        -11    1    3    3    0    0  0.49552472707E+01 -0.21323908691E+02  0.31188470868E+01  0.22113135571E+02  0.51100000000E-03 0.  1.
        -12    1    3    3    0    0  0.17500513571E+01  0.16483995186E+00 -0.10960819320E+01  0.20715326606E+01  0.00000000000E+00 0.  1.
</event>
<event>
 7    1  0.6622189E-010  0.4778727E+02  0.7816164E-02  0.1312668E+00
        -11   -1    0    0    0    0  0.00000000000E+00  0.00000000000E+00  0.45593999997E+02  0.45594000000E+02  0.51100000000E-03 0.  1.
         11   -1    0    0    0    0 -0.00000000000E+00 -0.00000000000E+00 -0.45593999997E+02  0.45594000000E+02  0.51100000000E-03 0. -1.
    9900012    2    1    2    0    0  0.30692866443E+01 -0.40047643258E+02  0.16443508550E+02  0.47787271614E+02  0.20000002595E+02 0.  0.
         12    1    1    2    0    0 -0.30692866443E+01  0.40047643258E+02 -0.16443508550E+02  0.43400728386E+02  0.00000000000E+00 0. -1.
         11    1    3    3    0    0 -0.47683093970E+00 -0.95792976476E+01 -0.19397314764E+01  0.97853395254E+01  0.51100000000E-03 0. -1.
        -11    1    3    3    0    0  0.83016078839E+01 -0.21965924396E+02  0.13782652572E+02  0.27228294846E+02  0.51100000000E-03 0.  1.
        -12    1    3    3    0    0 -0.47554902998E+01 -0.85024212148E+01  0.46005874544E+01  0.10773637242E+02  0.00000000000E+00 0.  1.
</event>
<event>
 7    1  0.6622189E-010  0.4778726E+02  0.7816164E-02  0.1312668E+00
        -11   -1    0    0    0    0  0.00000000000E+00  0.00000000000E+00  0.45593999997E+02  0.45594000000E+02  0.51100000000E-03 0.  1.
         11   -1    0    0    0    0 -0.00000000000E+00 -0.00000000000E+00 -0.45593999997E+02  0.45594000000E+02  0.51100000000E-03 0. -1.
    9900012    2    1    2    0    0 -0.41121260613E+02  0.13761402822E+02  0.18137122022E+01  0.47787264591E+02  0.19999970578E+02 0.  0.
        -12    1    1    2    0    0  0.41121260613E+02 -0.13761402822E+02 -0.18137122022E+01  0.43400735409E+02  0.00000000000E+00 0.  1.
         11    1    3    3    0    0 -0.99016543400E+01  0.11024358577E+02  0.33316696521E+01  0.15188129036E+02  0.51100000000E-03 0. -1.
        -11    1    3    3    0    0 -0.22566167162E+02 -0.57478021272E+00  0.20588457301E+01  0.22667181534E+02  0.51100000000E-03 0.  1.
         12    1    3    3    0    0 -0.86534391110E+01  0.33118244585E+01 -0.35768031800E+01  0.99319540212E+01  0.00000000000E+00 0. -1.
</event>
<event>
 7    1  0.6622189E-010  0.4778727E+02  0.7816164E-02  0.1312668E+00
        -11   -1    0    0    0    0  0.00000000000E+00  0.00000000000E+00  0.45593999997E+02  0.45594000000E+02  0.51100000000E-03 0. -1.
         11   -1    0    0    0    0 -0.00000000000E+00 -0.00000000000E+00 -0.45593999997E+02  0.45594000000E+02  0.51100000000E-03 0.  1.
    9900012    2    1    2    0    0  0.19949636774E+01 -0.14605150822E+01 -0.43330247776E+02  0.47787270090E+02  0.19999995649E+02 0.  0.
         12    1    1    2    0    0 -0.19949636774E+01  0.14605150822E+01  0.43330247776E+02  0.43400729910E+02  0.00000000000E+00 0. -1.
         11    1    3    3    0    0  0.79712340488E+01 -0.11753172131E+01 -0.12856200010E+02  0.15172469204E+02  0.51100000000E-03 0. -1.
        -11    1    3    3    0    0 -0.71325843173E+01 -0.21574495121E+01 -0.29057417634E+02  0.29997697700E+02  0.51100000000E-03 0.  1.
         12    1    3    3    0    0  0.11563139459E+01  0.18722516430E+01 -0.14166301320E+01  0.26171031862E+01  0.00000000000E+00 0. -1.
</event>
<event>
 7    1  0.6622189E-010  0.4778727E+02  0.7816164E-02  0.1312668E+00
        -11   -1    0    0    0    0  0.00000000000E+00  0.00000000000E+00  0.45593999997E+02  0.45594000000E+02  0.51100000000E-03 0. -1.
         11   -1    0    0    0    0 -0.00000000000E+00 -0.00000000000E+00 -0.45593999997E+02  0.45594000000E+02  0.51100000000E-03 0.  1.
    9900012    2    1    2    0    0 -0.31761593467E+02  0.13926892347E+02  0.26093411591E+02  0.47787270992E+02  0.19999999760E+02 0.  0.
        -12    1    1    2    0    0  0.31761593467E+02 -0.13926892347E+02 -0.26093411591E+02  0.43400729008E+02  0.00000000000E+00 0.  1.
         11    1    3    3    0    0 -0.22121697308E+02  0.16026355876E+01  0.14426729110E+02  0.26458806581E+02  0.51100000000E-03 0. -1.
        -11    1    3    3    0    0  0.13439692558E+01  0.21720815148E+01  0.33566816839E+01  0.42179975884E+01  0.51100000000E-03 0.  1.
         12    1    3    3    0    0 -0.10983865414E+02  0.10152175244E+02  0.83100007967E+01  0.17110466822E+02  0.00000000000E+00 0. -1.
</event>
<event>
 7    1  0.6622189E-010  0.4778729E+02  0.7816164E-02  0.1312668E+00
        -11   -1    0    0    0    0  0.00000000000E+00  0.00000000000E+00  0.45593999997E+02  0.45594000000E+02  0.51100000000E-03 0. -1.
         11   -1    0    0    0    0 -0.00000000000E+00 -0.00000000000E+00 -0.45593999997E+02  0.45594000000E+02  0.51100000000E-03 0.  1.
    9900012    2    1    2    0    0 -0.26904457884E+01  0.81255468101E+00  0.43309620848E+02  0.47787285701E+02  0.20000066825E+02 0.  0.
        -12    1    1    2    0    0  0.26904457884E+01 -0.81255468101E+00 -0.43309620848E+02  0.43400714299E+02  0.00000000000E+00 0.  1.
         11    1    3    3    0    0  0.24149912444E+01 -0.20452393132E+01  0.12256603399E+02  0.12658574711E+02  0.51100000000E-03 0. -1.
        -11    1    3    3    0    0  0.44439153543E+01 -0.27007455368E+01  0.12439010531E+02  0.13482262176E+02  0.51100000000E-03 0.  1.
        -12    1    3    3    0    0 -0.95493523871E+01  0.55585395310E+01  0.18614006918E+02  0.21646448814E+02  0.00000000000E+00 0.  1.
</event>
<event>
 7    1  0.6622189E-010  0.4778727E+02  0.7816164E-02  0.1312668E+00
        -11   -1    0    0    0    0  0.00000000000E+00  0.00000000000E+00  0.45593999997E+02  0.45594000000E+02  0.51100000000E-03 0. -1.
         11   -1    0    0    0    0 -0.00000000000E+00 -0.00000000000E+00 -0.45593999997E+02  0.45594000000E+02  0.51100000000E-03 0.  1.
    9900012    2    1    2    0    0  0.57116681326E+01 -0.86225485955E+01 -0.42150345272E+02  0.47787273005E+02  0.20000008941E+02 0.  0.
         12    1    1    2    0    0 -0.57116681326E+01  0.86225485955E+01  0.42150345272E+02  0.43400726995E+02  0.00000000000E+00 0. -1.
         11    1    3    3    0    0  0.20404211438E+01  0.12917877784E+01 -0.41123086551E+01  0.47689744017E+01  0.51100000000E-03 0. -1.
        -11    1    3    3    0    0 -0.21971237355E+01  0.40591185454E+01 -0.12458754522E+02  0.13286247046E+02  0.51100000000E-03 0.  1.
        -12    1    3    3    0    0  0.58683707243E+01 -0.13973454919E+02 -0.25579282095E+02  0.29732051557E+02  0.00000000000E+00 0.  1.
</event>
<event>
 7    1  0.6622189E-010  0.4778727E+02  0.7816164E-02  0.1312668E+00
        -11   -1    0    0    0    0  0.00000000000E+00  0.00000000000E+00  0.45593999997E+02  0.45594000000E+02  0.51100000000E-03 0. -1.
         11   -1    0    0    0    0 -0.00000000000E+00 -0.00000000000E+00 -0.45593999997E+02  0.45594000000E+02  0.51100000000E-03 0.  1.
    9900012    2    1    2    0    0 -0.31747282037E+02  0.11157027359E+02 -0.27409014900E+02  0.47787271043E+02  0.19999999993E+02 0.  0.
         12    1    1    2    0    0  0.31747282037E+02 -0.11157027359E+02  0.27409014900E+02  0.43400728957E+02  0.00000000000E+00 0. -1.
         11    1    3    3    0    0 -0.12099891581E+02 -0.31342727312E+01 -0.61269929418E+01  0.13920168268E+02  0.51100000000E-03 0. -1.
        -11    1    3    3    0    0 -0.17250688582E+02  0.14189434975E+02 -0.14392725215E+02  0.26572106820E+02  0.51100000000E-03 0.  1.
        -12    1    3    3    0    0 -0.23967018736E+01  0.10186511520E+00 -0.68892967435E+01  0.72949959557E+01  0.00000000000E+00 0.  1.
</event>
<event>
 7    1  0.6622189E-010  0.4778727E+02  0.7816164E-02  0.1312668E+00
        -11   -1    0    0    0    0  0.00000000000E+00  0.00000000000E+00  0.45593999997E+02  0.45594000000E+02  0.51100000000E-03 0. -1.
         11   -1    0    0    0    0 -0.00000000000E+00 -0.00000000000E+00 -0.45593999997E+02  0.45594000000E+02  0.51100000000E-03 0.  1.
    9900012    2    1    2    0    0 -0.38882165639E+01 -0.15173038075E+02 -0.40475725811E+02  0.47787266223E+02  0.19999978018E+02 0.  0.
         12    1    1    2    0    0  0.38882165639E+01  0.15173038075E+02  0.40475725811E+02  0.43400733777E+02  0.00000000000E+00 0. -1.
         11    1    3    3    0    0 -0.65413454934E+01 -0.59856221336E+01 -0.28808566176E+02  0.30142169109E+02  0.51100000000E-03 0. -1.
        -11    1    3    3    0    0  0.45667104501E+01 -0.92458720379E+00 -0.31436960403E+01  0.56207233420E+01  0.51100000000E-03 0.  1.
        -12    1    3    3    0    0 -0.19135815206E+01 -0.82628287371E+01 -0.85234635941E+01  0.12024373772E+02  0.00000000000E+00 0.  1.
</event>
<event>
 7    1  0.6622189E-010  0.4778727E+02  0.7816164E-02  0.1312668E+00
        -11   -1    0    0    0    0  0.00000000000E+00  0.00000000000E+00  0.45593999997E+02  0.45594000000E+02  0.51100000000E-03 0.  1.
         11   -1    0    0    0    0 -0.00000000000E+00 -0.00000000000E+00 -0.45593999997E+02  0.45594000000E+02  0.51100000000E-03 0. -1.
    9900012    2    1    2    0    0  0.82839154257E+01 -0.41794139101E+02  0.82613483503E+01  0.47787271959E+02  0.20000004169E+02 0.  0.
        -12    1    1    2    0    0 -0.82839154257E+01  0.41794139101E+02 -0.82613483503E+01  0.43400728041E+02  0.00000000000E+00 0.  1.
         11    1    3    3    0    0 -0.46943299862E+01 -0.11212742562E+02  0.17264090057E+01  0.12277736685E+02  0.51100000000E-03 0.  1.
        -11    1    3    3    0    0  0.19791109113E+00 -0.41843153142E+01  0.44436816136E+01  0.61068789076E+01  0.51100000000E-03 0. -1.
         12    1    3    3    0    0  0.12780334321E+02 -0.26397081224E+02  0.20912577310E+01  0.29402656366E+02  0.00000000000E+00 0. -1.
</event>
<event>
 7    1  0.6622189E-010  0.4778727E+02  0.7816164E-02  0.1312668E+00
        -11   -1    0    0    0    0  0.00000000000E+00  0.00000000000E+00  0.45593999997E+02  0.45594000000E+02  0.51100000000E-03 0. -1.
         11   -1    0    0    0    0 -0.00000000000E+00 -0.00000000000E+00 -0.45593999997E+02  0.45594000000E+02  0.51100000000E-03 0.  1.
    9900012    2    1    2    0    0 -0.13416699558E+02 -0.29024831856E+02 -0.29345774672E+02  0.47787272098E+02  0.20000004804E+02 0.  0.
         12    1    1    2    0    0  0.13416699558E+02  0.29024831856E+02  0.29345774672E+02  0.43400727902E+02  0.00000000000E+00 0. -1.
         11    1    3    3    0    0 -0.15269542665E+02 -0.14889064268E+02 -0.19630062245E+02  0.28985901952E+02  0.51100000000E-03 0.  1.
        -11    1    3    3    0    0 -0.28360188934E+01 -0.53656900652E+01 -0.46171444244E+01  0.76257233058E+01  0.51100000000E-03 0. -1.
         12    1    3    3    0    0  0.46888620006E+01 -0.87700775233E+01 -0.50985680032E+01  0.11175646841E+02  0.00000000000E+00 0. -1.
</event>
<event>
 7    1  0.6622189E-010  0.4778727E+02  0.7816164E-02  0.1312668E+00
        -11   -1    0    0    0    0  0.00000000000E+00  0.00000000000E+00  0.45593999997E+02  0.45594000000E+02  0.51100000000E-03 0. -1.
         11   -1    0    0    0    0 -0.00000000000E+00 -0.00000000000E+00 -0.45593999997E+02  0.45594000000E+02  0.51100000000E-03 0.  1.
    9900012    2    1    2    0    0  0.64795398624E+01 -0.36596294664E+02  0.22413166664E+02  0.47787271205E+02  0.20000000734E+02 0.  0.
        -12    1    1    2    0    0 -0.64795398624E+01  0.36596294664E+02 -0.22413166664E+02  0.43400728795E+02  0.00000000000E+00 0.  1.
         11    1    3    3    0    0  0.12299071756E+00 -0.25145671875E+02  0.19208548704E+02  0.31643139609E+02  0.51100000000E-03 0. -1.
        -11    1    3    3    0    0  0.40441228352E+01 -0.12602360812E+02  0.25439117458E+01  0.13477607902E+02  0.51100000000E-03 0.  1.
         12    1    3    3    0    0  0.23124263097E+01  0.11517380222E+01  0.66070621417E+00  0.26665236940E+01  0.00000000000E+00 0. -1.
</event>
<event>
 7    1  0.6622189E-010  0.4778727E+02  0.7816164E-02  0.1312668E+00
        -11   -1    0    0    0    0  0.00000000000E+00  0.00000000000E+00  0.45593999997E+02  0.45594000000E+02  0.51100000000E-03 0. -1.
         11   -1    0    0    0    0 -0.00000000000E+00 -0.00000000000E+00 -0.45593999997E+02  0.45594000000E+02  0.51100000000E-03 0.  1.
    9900012    2    1    2    0    0 -0.40825427334E+02  0.30333258202E+01 -0.14412040580E+02  0.47787268483E+02  0.19999988321E+02 0.  0.
         12    1    1    2    0    0  0.40825427334E+02 -0.30333258202E+01  0.14412040580E+02  0.43400731517E+02  0.00000000000E+00 0. -1.
         11    1    3    3    0    0 -0.14441364987E+02 -0.61170384944E+01 -0.30078861781E+01  0.15969300616E+02  0.51100000000E-03 0. -1.
        -11    1    3    3    0    0 -0.19533191311E+01  0.43260176366E+01 -0.11297062342E+01  0.48791516329E+01  0.51100000000E-03 0.  1.
         12    1    3    3    0    0 -0.24430743216E+02  0.48243466780E+01 -0.10274448168E+02  0.26938816234E+02  0.00000000000E+00 0. -1.
</event>
<event>
 7    1  0.6622189E-010  0.4778726E+02  0.7816164E-02  0.1312668E+00
        -11   -1    0    0    0    0  0.00000000000E+00  0.00000000000E+00  0.45593999997E+02  0.45594000000E+02  0.51100000000E-03 0. -1.
         11   -1    0    0    0    0 -0.00000000000E+00 -0.00000000000E+00 -0.45593999997E+02  0.45594000000E+02  0.51100000000E-03 0.  1.
    9900012    2    1    2    0    0 -0.50718421572E+01  0.24723403879E+02  0.35307989932E+02  0.47787257664E+02  0.19999938995E+02 0.  0.
        -12    1    1    2    0    0  0.50718421572E+01 -0.24723403879E+02 -0.35307989932E+02  0.43400742336E+02  0.00000000000E+00 0.  1.
         11    1    3    3    0    0 -0.11463834793E+02  0.12736773630E+02  0.18346567282E+02  0.25104609974E+02  0.51100000000E-03 0. -1.
        -11    1    3    3    0    0  0.58346508769E+01  0.11384241962E+02  0.11631022014E+02  0.17289441554E+02  0.51100000000E-03 0.  1.
        -12    1    3    3    0    0  0.55734175901E+00  0.60238828758E+00  0.53304006357E+01  0.53932061358E+01  0.00000000000E+00 0.  1.
</event>
<event>
 7    1  0.6622189E-010  0.4778727E+02  0.7816164E-02  0.1312668E+00
        -11   -1    0    0    0    0  0.00000000000E+00  0.00000000000E+00  0.45593999997E+02  0.45594000000E+02  0.51100000000E-03 0. -1.
         11   -1    0    0    0    0 -0.00000000000E+00 -0.00000000000E+00 -0.45593999997E+02  0.45594000000E+02  0.51100000000E-03 0.  1.
    9900012    2    1    2    0    0 -0.10643199536E+02 -0.30733381033E+02 -0.28736816985E+02  0.47787273549E+02  0.20000011418E+02 0.  0.
         12    1    1    2    0    0  0.10643199536E+02  0.30733381033E+02  0.28736816985E+02  0.43400726451E+02  0.00000000000E+00 0. -1.
         11    1    3    3    0    0  0.48376758422E+01 -0.59578808483E+01 -0.50008295668E+01  0.91601172685E+01  0.51100000000E-03 0. -1.
        -11    1    3    3    0    0 -0.13799342697E+02 -0.14537354915E+02 -0.14529265074E+02  0.24755930413E+02  0.51100000000E-03 0.  1.
        -12    1    3    3    0    0 -0.16815326809E+01 -0.10238145270E+02 -0.92067223446E+01  0.13871225867E+02  0.00000000000E+00 0.  1.
</event>
<event>
 7    1  0.6622189E-010  0.4778728E+02  0.7816164E-02  0.1312668E+00
        -11   -1    0    0    0    0  0.00000000000E+00  0.00000000000E+00  0.45593999997E+02  0.45594000000E+02  0.51100000000E-03 0.  1.
         11   -1    0    0    0    0 -0.00000000000E+00 -0.00000000000E+00 -0.45593999997E+02  0.45594000000E+02  0.51100000000E-03 0. -1.
    9900012    2    1    2    0    0 -0.23162466612E+02  0.32576100569E+02  0.16909180760E+02  0.47787279018E+02  0.20000036352E+02 0.  0.
        -12    1    1    2    0    0  0.23162466612E+02 -0.32576100569E+02 -0.16909180760E+02  0.43400720982E+02  0.00000000000E+00 0.  1.
         11    1    3    3    0    0 -0.50381984057E+01  0.97809899533E+01  0.11561830038E+01  0.11062909520E+02  0.51100000000E-03 0. -1.
        -11    1    3    3    0    0 -0.13344784417E+02  0.23352224099E+02  0.88600288087E+01  0.28318011093E+02  0.51100000000E-03 0.  1.
        -12    1    3    3    0    0 -0.47794837889E+01 -0.55711348308E+00  0.68929689475E+01  0.84063584049E+01  0.00000000000E+00 0.  1.
</event>
<event>
 7    1  0.6622189E-010  0.4778727E+02  0.7816164E-02  0.1312668E+00
        -11   -1    0    0    0    0  0.00000000000E+00  0.00000000000E+00  0.45593999997E+02  0.45594000000E+02  0.51100000000E-03 0. -1.
         11   -1    0    0    0    0 -0.00000000000E+00 -0.00000000000E+00 -0.45593999997E+02  0.45594000000E+02  0.51100000000E-03 0.  1.
    9900012    2    1    2    0    0  0.17753015215E+02 -0.17291480328E+02 -0.35629458163E+02  0.47787272701E+02  0.20000007551E+02 0.  0.
         12    1    1    2    0    0 -0.17753015215E+02  0.17291480328E+02  0.35629458163E+02  0.43400727299E+02  0.00000000000E+00 0. -1.
         11    1    3    3    0    0  0.58228516812E+01 -0.10419189348E+01 -0.80525371988E+01  0.99917241939E+01  0.51100000000E-03 0. -1.
        -11    1    3    3    0    0 -0.30599660820E+01  0.71154857975E+00 -0.25131440816E+01  0.40231315217E+01  0.51100000000E-03 0.  1.
        -12    1    3    3    0    0  0.14990129615E+02 -0.16961109973E+02 -0.25063776882E+02  0.33772416985E+02  0.00000000000E+00 0.  1.
</event>
<event>
 7    1  0.6622189E-010  0.4778727E+02  0.7816164E-02  0.1312668E+00
        -11   -1    0    0    0    0  0.00000000000E+00  0.00000000000E+00  0.45593999997E+02  0.45594000000E+02  0.51100000000E-03 0.  1.
         11   -1    0    0    0    0 -0.00000000000E+00 -0.00000000000E+00 -0.45593999997E+02  0.45594000000E+02  0.51100000000E-03 0. -1.
    9900012    2    1    2    0    0 -0.37039573811E+02  0.12008391635E+02  0.19170074742E+02  0.47787271166E+02  0.20000000552E+02 0.  0.
        -12    1    1    2    0    0  0.37039573811E+02 -0.12008391635E+02 -0.19170074742E+02  0.43400728834E+02  0.00000000000E+00 0.  1.
         11    1    3    3    0    0 -0.18230441763E+02  0.65224336750E+01  0.18002030146E+01  0.19445613364E+02  0.51100000000E-03 0. -1.
        -11    1    3    3    0    0 -0.24338175710E+01  0.48974740795E+01  0.72547321720E+01  0.90851449893E+01  0.51100000000E-03 0.  1.
         12    1    3    3    0    0 -0.16375314476E+02  0.58848388036E+00  0.10115139556E+02  0.19256512813E+02  0.00000000000E+00 0. -1.
</event>
<event>
 7    1  0.6622189E-010  0.4778727E+02  0.7816164E-02  0.1312668E+00
        -11   -1    0    0    0    0  0.00000000000E+00  0.00000000000E+00  0.45593999997E+02  0.45594000000E+02  0.51100000000E-03 0. -1.
         11   -1    0    0    0    0 -0.00000000000E+00 -0.00000000000E+00 -0.45593999997E+02  0.45594000000E+02  0.51100000000E-03 0.  1.
    9900012    2    1    2    0    0 -0.13770678448E+02 -0.25343378384E+02 -0.32430001175E+02  0.47787269717E+02  0.19999993949E+02 0.  0.
         12    1    1    2    0    0  0.13770678448E+02  0.25343378384E+02  0.32430001175E+02  0.43400730283E+02  0.00000000000E+00 0. -1.
         11    1    3    3    0    0  0.19325587965E+01 -0.16189249560E+02 -0.17616159032E+02  0.24003242367E+02  0.51100000000E-03 0. -1.
        -11    1    3    3    0    0 -0.10164533288E+02 -0.36541706674E+01 -0.85355830469E+01  0.13766876132E+02  0.51100000000E-03 0.  1.
        -12    1    3    3    0    0 -0.55387039573E+01 -0.54999581564E+01 -0.62782590961E+01  0.10017151218E+02  0.00000000000E+00 0.  1.
</event>
<event>
 7    1  0.6622189E-010  0.4778727E+02  0.7816164E-02  0.1312668E+00
        -11   -1    0    0    0    0  0.00000000000E+00  0.00000000000E+00  0.45593999997E+02  0.45594000000E+02  0.51100000000E-03 0. -1.
         11   -1    0    0    0    0 -0.00000000000E+00 -0.00000000000E+00 -0.45593999997E+02  0.45594000000E+02  0.51100000000E-03 0.  1.
    9900012    2    1    2    0    0 -0.94885296104E+01  0.38278054062E+02  0.18121303219E+02  0.47787271351E+02  0.20000001396E+02 0.  0.
        -12    1    1    2    0    0  0.94885296104E+01 -0.38278054062E+02 -0.18121303219E+02  0.43400728649E+02  0.00000000000E+00 0.  1.
         11    1    3    3    0    0 -0.78950429869E+01  0.35477680520E+02  0.20928706798E+02  0.41940532749E+02  0.51100000000E-03 0. -1.
        -11    1    3    3    0    0 -0.17647793907E+01  0.51348201626E+00 -0.30287320821E+01  0.35427853965E+01  0.51100000000E-03 0.  1.
         12    1    3    3    0    0  0.17129276729E+00  0.22868915259E+01  0.22132850368E+00  0.23039532048E+01  0.00000000000E+00 0. -1.
</event>
<event>
 7    1  0.6622189E-010  0.4778726E+02  0.7816164E-02  0.1312668E+00
        -11   -1    0    0    0    0  0.00000000000E+00  0.00000000000E+00  0.45593999997E+02  0.45594000000E+02  0.51100000000E-03 0.  1.
         11   -1    0    0    0    0 -0.00000000000E+00 -0.00000000000E+00 -0.45593999997E+02  0.45594000000E+02  0.51100000000E-03 0. -1.
    9900012    2    1    2    0    0  0.35928918521E+02  0.14877895545E+02 -0.19271351593E+02  0.47787263207E+02  0.19999964268E+02 0.  0.
        -12    1    1    2    0    0 -0.35928918521E+02 -0.14877895545E+02  0.19271351593E+02  0.43400736793E+02  0.00000000000E+00 0.  1.
         11    1    3    3    0    0  0.20319739283E+02  0.12338871884E+02 -0.18272802774E+02  0.29983910442E+02  0.51100000000E-03 0. -1.
        -11    1    3    3    0    0  0.37226041713E+01 -0.25387196905E+01  0.12669447475E+01  0.46806013222E+01  0.51100000000E-03 0.  1.
        -12    1    3    3    0    0  0.11886575066E+02  0.50777433512E+01 -0.22654935672E+01  0.13122751444E+02  0.00000000000E+00 0.  1.
</event>
<event>
 7    1  0.6622189E-010  0.4778727E+02  0.7816164E-02  0.1312668E+00
        -11   -1    0    0    0    0  0.00000000000E+00  0.00000000000E+00  0.45593999997E+02  0.45594000000E+02  0.51100000000E-03 0.  1.
         11   -1    0    0    0    0 -0.00000000000E+00 -0.00000000000E+00 -0.45593999997E+02  0.45594000000E+02  0.51100000000E-03 0. -1.
    9900012    2    1    2    0    0  0.43255359496E+02  0.33481770537E+00 -0.35333873100E+01  0.47787273579E+02  0.20000011555E+02 0.  0.
         12    1    1    2    0    0 -0.43255359496E+02 -0.33481770537E+00  0.35333873100E+01  0.43400726421E+02  0.00000000000E+00 0. -1.
         11    1    3    3    0    0  0.68813762806E+00 -0.28194003755E+01  0.35984104897E+00  0.29243867245E+01  0.51100000000E-03 0. -1.
        -11    1    3    3    0    0  0.24556561197E+02  0.67557334478E+01  0.20674466172E+01  0.25552670468E+02  0.51100000000E-03 0.  1.
        -12    1    3    3    0    0  0.18010660671E+02 -0.36015153669E+01 -0.59606749762E+01  0.19310216387E+02  0.00000000000E+00 0.  1.
</event>
<event>
 7    1  0.6622189E-010  0.4778727E+02  0.7816164E-02  0.1312668E+00
        -11   -1    0    0    0    0  0.00000000000E+00  0.00000000000E+00  0.45593999997E+02  0.45594000000E+02  0.51100000000E-03 0. -1.
         11   -1    0    0    0    0 -0.00000000000E+00 -0.00000000000E+00 -0.45593999997E+02  0.45594000000E+02  0.51100000000E-03 0.  1.
    9900012    2    1    2    0    0 -0.23680825423E+02 -0.29234795294E+02  0.21637200997E+02  0.47787271716E+02  0.20000003063E+02 0.  0.
        -12    1    1    2    0    0  0.23680825423E+02  0.29234795294E+02 -0.21637200997E+02  0.43400728284E+02  0.00000000000E+00 0.  1.
         11    1    3    3    0    0 -0.17451720059E+02 -0.13117126291E+02  0.18340022284E+02  0.28512768241E+02  0.51100000000E-03 0. -1.
        -11    1    3    3    0    0 -0.30422901876E+01 -0.15394648166E+02  0.23145151224E+01  0.15862146836E+02  0.51100000000E-03 0.  1.
        -12    1    3    3    0    0 -0.31868151766E+01 -0.72302083758E+00  0.98266359059E+00  0.34123566393E+01  0.00000000000E+00 0.  1.
</event>
<event>
 7    1  0.6622189E-010  0.4778726E+02  0.7816164E-02  0.1312668E+00
        -11   -1    0    0    0    0  0.00000000000E+00  0.00000000000E+00  0.45593999997E+02  0.45594000000E+02  0.51100000000E-03 0. -1.
         11   -1    0    0    0    0 -0.00000000000E+00 -0.00000000000E+00 -0.45593999997E+02  0.45594000000E+02  0.51100000000E-03 0.  1.
    9900012    2    1    2    0    0  0.18981614038E+02 -0.99160434314E+01  0.37749103305E+02  0.47787258196E+02  0.19999941417E+02 0.  0.
        -12    1    1    2    0    0 -0.18981614038E+02  0.99160434314E+01 -0.37749103305E+02  0.43400741804E+02  0.00000000000E+00 0.  1.
         11    1    3    3    0    0  0.73308375608E+01 -0.29080560402E+01  0.13619576462E+02  0.15738196610E+02  0.51100000000E-03 0. -1.
        -11    1    3    3    0    0  0.93011214168E+01  0.62391867232E+00  0.21833210624E+02  0.23740034131E+02  0.51100000000E-03 0.  1.
        -12    1    3    3    0    0  0.23496550608E+01 -0.76319060635E+01  0.22963162195E+01  0.83090274550E+01  0.00000000000E+00 0.  1.
</event>
<event>
 7    1  0.8889969E-010  0.4778727E+02  0.7816164E-02  0.1312668E+00
        -11   -1    0    0    0    0  0.00000000000E+00  0.00000000000E+00  0.45593999997E+02  0.45594000000E+02  0.51100000000E-03 0. -1.
         11   -1    0    0    0    0 -0.00000000000E+00 -0.00000000000E+00 -0.45593999997E+02  0.45594000000E+02  0.51100000000E-03 0.  1.
    9900012    2    1    2    0    0 -0.23963426385E+02  0.56624214578E+01  0.35739537329E+02  0.47787270175E+02  0.19999996034E+02 0.  0.
        -12    1    1    2    0    0  0.23963426385E+02 -0.56624214578E+01 -0.35739537329E+02  0.43400729825E+02  0.00000000000E+00 0.  1.
         11    1    3    3    0    0 -0.71229349169E+01  0.78570624139E+01  0.21740477120E+02  0.24189212002E+02  0.51100000000E-03 0. -1.
        -11    1    3    3    0    0 -0.52920086261E+00  0.13742570767E+01 -0.42572901517E+00  0.15329323277E+01  0.51100000000E-03 0.  1.
         12    1    3    3    0    0 -0.16311290606E+02 -0.35688980327E+01  0.14424789224E+02  0.22065125845E+02  0.00000000000E+00 0. -1.
</event>
<event>
 7    1  0.7240386E-010  0.4778728E+02  0.7816164E-02  0.1312668E+00
        -11   -1    0    0    0    0  0.00000000000E+00  0.00000000000E+00  0.45593999997E+02  0.45594000000E+02  0.51100000000E-03 0. -1.
         11   -1    0    0    0    0 -0.00000000000E+00 -0.00000000000E+00 -0.45593999997E+02  0.45594000000E+02  0.51100000000E-03 0.  1.
    9900012    2    1    2    0    0 -0.92499441725E+01 -0.18618885062E+02 -0.38097221290E+02  0.47787278599E+02  0.20000034445E+02 0.  0.
         12    1    1    2    0    0  0.92499441725E+01  0.18618885062E+02  0.38097221290E+02  0.43400721401E+02  0.00000000000E+00 0. -1.
         11    1    3    3    0    0 -0.12586279996E+01  0.25779851486E+00 -0.70303167912E+01  0.71467446408E+01  0.51100000000E-03 0. -1.
        -11    1    3    3    0    0 -0.74732499688E+01 -0.11858586140E+01 -0.47773758399E+01  0.89486896205E+01  0.51100000000E-03 0.  1.
        -12    1    3    3    0    0 -0.51806620416E+00 -0.17690824962E+02 -0.26289528658E+02  0.31691844338E+02  0.00000000000E+00 0.  1.
</event>
<event>
 7    1  0.6622189E-010  0.4778727E+02  0.7816164E-02  0.1312668E+00
        -11   -1    0    0    0    0  0.00000000000E+00  0.00000000000E+00  0.45593999997E+02  0.45594000000E+02  0.51100000000E-03 0. -1.
         11   -1    0    0    0    0 -0.00000000000E+00 -0.00000000000E+00 -0.45593999997E+02  0.45594000000E+02  0.51100000000E-03 0.  1.
    9900012    2    1    2    0    0  0.16636580667E+02 -0.11835547882E+01  0.40068027161E+02  0.47787269375E+02  0.19999992389E+02 0.  0.
        -12    1    1    2    0    0 -0.16636580667E+02  0.11835547882E+01 -0.40068027161E+02  0.43400730625E+02  0.00000000000E+00 0.  1.
         11    1    3    3    0    0 -0.10113537364E-01 -0.13069215288E+01  0.12120962553E+02  0.12191221417E+02  0.51100000000E-03 0. -1.
        -11    1    3    3    0    0  0.17173702350E+02  0.12024778237E+01  0.15729185514E+02  0.23319289923E+02  0.51100000000E-03 0.  1.
        -12    1    3    3    0    0 -0.52700814507E+00 -0.10791110831E+01  0.12217879093E+02  0.12276758035E+02  0.00000000000E+00 0.  1.
</event>
<event>
 7    1  0.7597975E-010  0.4778731E+02  0.7816164E-02  0.1312668E+00
        -11   -1    0    0    0    0  0.00000000000E+00  0.00000000000E+00  0.45593999997E+02  0.45594000000E+02  0.51100000000E-03 0. -1.
         11   -1    0    0    0    0 -0.00000000000E+00 -0.00000000000E+00 -0.45593999997E+02  0.45594000000E+02  0.51100000000E-03 0.  1.
    9900012    2    1    2    0    0 -0.20891300347E+02  0.60490920504E+01  0.37557715931E+02  0.47787309098E+02  0.20000173499E+02 0.  0.
        -12    1    1    2    0    0  0.20891300347E+02 -0.60490920504E+01 -0.37557715931E+02  0.43400690902E+02  0.00000000000E+00 0.  1.
         11    1    3    3    0    0 -0.74377839119E+01  0.23301299442E+01  0.93875196148E+01  0.12201461382E+02  0.51100000000E-03 0. -1.
        -11    1    3    3    0    0 -0.10236644518E+02  0.99303297554E+01  0.22216316521E+02  0.26400095834E+02  0.51100000000E-03 0.  1.
        -12    1    3    3    0    0 -0.32168719166E+01 -0.62113676492E+01  0.59538797960E+01  0.91857518814E+01  0.00000000000E+00 0.  1.
</event>
<event>
 7    1  0.6622189E-010  0.4778727E+02  0.7816164E-02  0.1312668E+00
        -11   -1    0    0    0    0  0.00000000000E+00  0.00000000000E+00  0.45593999997E+02  0.45594000000E+02  0.51100000000E-03 0. -1.
         11   -1    0    0    0    0 -0.00000000000E+00 -0.00000000000E+00 -0.45593999997E+02  0.45594000000E+02  0.51100000000E-03 0.  1.
    9900012    2    1    2    0    0 -0.18275475766E+02 -0.15061917762E+01 -0.39336514680E+02  0.47787274023E+02  0.20000013582E+02 0.  0.
         12    1    1    2    0    0  0.18275475766E+02  0.15061917762E+01  0.39336514680E+02  0.43400725977E+02  0.00000000000E+00 0. -1.
         11    1    3    3    0    0  0.11580705917E+01  0.44450206858E+01 -0.49792354823E+01  0.67743724907E+01  0.51100000000E-03 0. -1.
        -11    1    3    3    0    0 -0.16064311763E+02 -0.91784673053E+00 -0.22058183658E+02  0.27303260275E+02  0.51100000000E-03 0.  1.
         12    1    3    3    0    0 -0.33692345943E+01 -0.50333657316E+01 -0.12299095539E+02  0.13709641258E+02  0.00000000000E+00 0. -1.
</event>
<event>
 7    1  0.6622189E-010  0.4778727E+02  0.7816164E-02  0.1312668E+00
        -11   -1    0    0    0    0  0.00000000000E+00  0.00000000000E+00  0.45593999997E+02  0.45594000000E+02  0.51100000000E-03 0.  1.
         11   -1    0    0    0    0 -0.00000000000E+00 -0.00000000000E+00 -0.45593999997E+02  0.45594000000E+02  0.51100000000E-03 0. -1.
    9900012    2    1    2    0    0 -0.30232854959E+02  0.30123246992E+02 -0.78859260799E+01  0.47787270070E+02  0.19999995557E+02 0.  0.
         12    1    1    2    0    0  0.30232854959E+02 -0.30123246992E+02  0.78859260799E+01  0.43400729930E+02  0.00000000000E+00 0. -1.
         11    1    3    3    0    0 -0.54584564788E+01  0.67861239658E-01  0.18541946559E+01  0.57651877993E+01  0.51100000000E-03 0. -1.
        -11    1    3    3    0    0 -0.26014738656E+02  0.26618670755E+02 -0.90386450574E+01  0.38301662691E+02  0.51100000000E-03 0.  1.
         12    1    3    3    0    0  0.12403401762E+01  0.34367149969E+01 -0.70147567841E+00  0.37204195798E+01  0.00000000000E+00 0. -1.
</event>
<event>
 7    1  0.6893797E-010  0.4778727E+02  0.7816164E-02  0.1312668E+00
        -11   -1    0    0    0    0  0.00000000000E+00  0.00000000000E+00  0.45593999997E+02  0.45594000000E+02  0.51100000000E-03 0. -1.
         11   -1    0    0    0    0 -0.00000000000E+00 -0.00000000000E+00 -0.45593999997E+02  0.45594000000E+02  0.51100000000E-03 0.  1.
    9900012    2    1    2    0    0 -0.84687763986E+01 -0.13553052699E+02  0.40351182077E+02  0.47787270673E+02  0.19999998305E+02 0.  0.
        -12    1    1    2    0    0  0.84687763986E+01  0.13553052699E+02 -0.40351182077E+02  0.43400729327E+02  0.00000000000E+00 0.  1.
         11    1    3    3    0    0 -0.65626804967E+01 -0.11220177556E+02  0.26825155988E+02  0.29808558398E+02  0.51100000000E-03 0. -1.
        -11    1    3    3    0    0 -0.34018703450E+01 -0.59276595459E+00 -0.73815769261E+00  0.35311429256E+01  0.51100000000E-03 0.  1.
         12    1    3    3    0    0  0.14957744431E+01 -0.17401091889E+01  0.14264183781E+02  0.14447569349E+02  0.00000000000E+00 0. -1.
</event>
<event>
 7    1  0.6622189E-010  0.4778726E+02  0.7816164E-02  0.1312668E+00
        -11   -1    0    0    0    0  0.00000000000E+00  0.00000000000E+00  0.45593999997E+02  0.45594000000E+02  0.51100000000E-03 0. -1.
         11   -1    0    0    0    0 -0.00000000000E+00 -0.00000000000E+00 -0.45593999997E+02  0.45594000000E+02  0.51100000000E-03 0.  1.
    9900012    2    1    2    0    0 -0.82732450443E+01  0.29637058903E+02  0.30607548063E+02  0.47787264495E+02  0.19999970138E+02 0.  0.
        -12    1    1    2    0    0  0.82732450443E+01 -0.29637058903E+02 -0.30607548063E+02  0.43400735505E+02  0.00000000000E+00 0.  1.
         11    1    3    3    0    0 -0.77899444796E+01  0.18894688101E+02  0.26168732696E+02  0.33203840811E+02  0.51100000000E-03 0. -1.
        -11    1    3    3    0    0 -0.36697797205E+01  0.65330022543E+01  0.53750256791E+01  0.92216214932E+01  0.51100000000E-03 0.  1.
         12    1    3    3    0    0  0.31864791558E+01  0.42093685478E+01 -0.93621031280E+00  0.53618021906E+01  0.00000000000E+00 0. -1.
</event>
