<event>
 7    1  0.2097247E-008  0.4614232E+02  0.7816164E-02  0.1320468E+00
        -11   -1    0    0    0    0  0.00000000000E+00  0.00000000000E+00  0.45593999997E+02  0.45594000000E+02  0.51100000000E-03 0. -1.
         11   -1    0    0    0    0 -0.00000000000E+00 -0.00000000000E+00 -0.45593999997E+02  0.45594000000E+02  0.51100000000E-03 0.  1.
    9900012    2    1    2    0    0 -0.38747269971E+02  0.60772682391E+01 -0.22154669708E+02  0.46142317528E+02  0.99999978773E+01 0.  0.
         12    1    1    2    0    0  0.38747269971E+02 -0.60772682391E+01  0.22154669708E+02  0.45045682472E+02  0.00000000000E+00 0. -1.
         11    1    3    3    0    0 -0.11284807956E+02  0.48171100544E+01 -0.72454815456E+01  0.14249506763E+02  0.51100000000E-03 0. -1.
        -11    1    3    3    0    0 -0.78092876251E+01 -0.15569976301E+00 -0.12328885356E+01  0.79075426038E+01  0.51100000000E-03 0.  1.
        -12    1    3    3    0    0 -0.19653174389E+02  0.14158579477E+01 -0.13676299627E+02  0.23985268162E+02  0.00000000000E+00 0.  1.
</event>
<event>
 7    1  0.2097247E-008  0.4614232E+02  0.7816164E-02  0.1320468E+00
        -11   -1    0    0    0    0  0.00000000000E+00  0.00000000000E+00  0.45593999997E+02  0.45594000000E+02  0.51100000000E-03 0. -1.
         11   -1    0    0    0    0 -0.00000000000E+00 -0.00000000000E+00 -0.45593999997E+02  0.45594000000E+02  0.51100000000E-03 0.  1.
    9900012    2    1    2    0    0 -0.10199692684E+02 -0.30491401158E+02 -0.31549234263E+02  0.46142318098E+02  0.10000003073E+02 0.  0.
         12    1    1    2    0    0  0.10199692684E+02  0.30491401158E+02  0.31549234263E+02  0.45045681902E+02  0.00000000000E+00 0. -1.
         11    1    3    3    0    0 -0.25737244777E+01 -0.95241463731E+01 -0.99217675780E+01  0.13991958189E+02  0.51100000000E-03 0.  1.
        -11    1    3    3    0    0 -0.19921679083E+00  0.78161869589E+00 -0.72053966129E+00  0.10815695910E+01  0.51100000000E-03 0. -1.
         12    1    3    3    0    0 -0.74267514157E+01 -0.21748873481E+02 -0.20906927024E+02  0.31068790318E+02  0.00000000000E+00 0. -1.
</event>
<event>
 7    1  0.2097247E-008  0.4614232E+02  0.7816164E-02  0.1320468E+00
        -11   -1    0    0    0    0  0.00000000000E+00  0.00000000000E+00  0.45593999997E+02  0.45594000000E+02  0.51100000000E-03 0.  1.
         11   -1    0    0    0    0 -0.00000000000E+00 -0.00000000000E+00 -0.45593999997E+02  0.45594000000E+02  0.51100000000E-03 0. -1.
    9900012    2    1    2    0    0 -0.43630103594E+01 -0.42245483458E+02  0.15013220539E+02  0.46142317377E+02  0.99999965018E+01 0.  0.
         12    1    1    2    0    0  0.43630103594E+01  0.42245483458E+02 -0.15013220539E+02  0.45045682623E+02  0.00000000000E+00 0. -1.
         11    1    3    3    0    0 -0.60772342251E+00  0.11545052509E+00  0.11425598255E+00  0.62905585815E+00  0.51100000000E-03 0. -1.
        -11    1    3    3    0    0 -0.21806175360E+01 -0.13017541997E+02  0.76159543250E+01  0.15238577789E+02  0.51100000000E-03 0.  1.
        -12    1    3    3    0    0 -0.15746694008E+01 -0.29343391986E+02  0.72830102316E+01  0.30274683730E+02  0.00000000000E+00 0.  1.
</event>
<event>
 7    1  0.2097247E-008  0.4614232E+02  0.7816164E-02  0.1320468E+00
        -11   -1    0    0    0    0  0.00000000000E+00  0.00000000000E+00  0.45593999997E+02  0.45594000000E+02  0.51100000000E-03 0.  1.
         11   -1    0    0    0    0 -0.00000000000E+00 -0.00000000000E+00 -0.45593999997E+02  0.45594000000E+02  0.51100000000E-03 0. -1.
    9900012    2    1    2    0    0 -0.18467243485E+02  0.21682483619E+00  0.41085610036E+02  0.46142318220E+02  0.10000004184E+02 0.  0.
         12    1    1    2    0    0  0.18467243485E+02 -0.21682483619E+00 -0.41085610036E+02  0.45045681780E+02  0.00000000000E+00 0. -1.
         11    1    3    3    0    0 -0.50269526821E+01  0.97044052748E+00  0.77687853349E+01  0.93040869475E+01  0.51100000000E-03 0. -1.
        -11    1    3    3    0    0 -0.84297467774E+01  0.21362619121E+01  0.12462779379E+02  0.15196878489E+02  0.51100000000E-03 0.  1.
         12    1    3    3    0    0 -0.50105440258E+01 -0.28898776034E+01  0.20854045323E+02  0.21641352784E+02  0.00000000000E+00 0. -1.
</event>
<event>
 7    1  0.2097247E-008  0.4614232E+02  0.7816164E-02  0.1320468E+00
        -11   -1    0    0    0    0  0.00000000000E+00  0.00000000000E+00  0.45593999997E+02  0.45594000000E+02  0.51100000000E-03 0.  1.
         11   -1    0    0    0    0 -0.00000000000E+00 -0.00000000000E+00 -0.45593999997E+02  0.45594000000E+02  0.51100000000E-03 0. -1.
    9900012    2    1    2    0    0  0.12356614779E+02  0.42812401250E+02  0.65973720678E+01  0.46142323762E+02  0.10000054718E+02 0.  0.
         12    1    1    2    0    0 -0.12356614779E+02 -0.42812401250E+02 -0.65973720678E+01  0.45045676238E+02  0.00000000000E+00 0. -1.
         11    1    3    3    0    0  0.45033954960E+01  0.58711260868E+01  0.34419144615E+01  0.81607271699E+01  0.51100000000E-03 0. -1.
        -11    1    3    3    0    0  0.40351696980E+01  0.14646283344E+02  0.42589314921E+00  0.15197947083E+02  0.51100000000E-03 0.  1.
         12    1    3    3    0    0  0.38180495847E+01  0.22294991819E+02  0.27295644571E+01  0.22783649509E+02  0.00000000000E+00 0. -1.
</event>
<event>
 7    1  0.2097247E-008  0.4614232E+02  0.7816164E-02  0.1320468E+00
        -11   -1    0    0    0    0  0.00000000000E+00  0.00000000000E+00  0.45593999997E+02  0.45594000000E+02  0.51100000000E-03 0.  1.
         11   -1    0    0    0    0 -0.00000000000E+00 -0.00000000000E+00 -0.45593999997E+02  0.45594000000E+02  0.51100000000E-03 0. -1.
    9900012    2    1    2    0    0 -0.28359024982E+02  0.12464110546E+02  0.32703596923E+02  0.46142316507E+02  0.99999885657E+01 0.  0.
         12    1    1    2    0    0  0.28359024982E+02 -0.12464110546E+02 -0.32703596923E+02  0.45045683493E+02  0.00000000000E+00 0. -1.
         11    1    3    3    0    0 -0.21847725968E+01 -0.12603006340E+01  0.19576985865E+01  0.31928315027E+01  0.51100000000E-03 0. -1.
        -11    1    3    3    0    0 -0.16099101798E+02  0.63750345331E+01  0.15378388081E+02  0.23158518178E+02  0.51100000000E-03 0.  1.
        -12    1    3    3    0    0 -0.10075150588E+02  0.73493766469E+01  0.15367510256E+02  0.19790966826E+02  0.00000000000E+00 0.  1.
</event>
<event>
 7    1  0.2097247E-008  0.4614232E+02  0.7816164E-02  0.1320468E+00
        -11   -1    0    0    0    0  0.00000000000E+00  0.00000000000E+00  0.45593999997E+02  0.45594000000E+02  0.51100000000E-03 0. -1.
         11   -1    0    0    0    0 -0.00000000000E+00 -0.00000000000E+00 -0.45593999997E+02  0.45594000000E+02  0.51100000000E-03 0.  1.
    9900012    2    1    2    0    0  0.40280983157E+02  0.97009991010E+01 -0.17676155452E+02  0.46142318085E+02  0.10000002950E+02 0.  0.
         12    1    1    2    0    0 -0.40280983157E+02 -0.97009991010E+01  0.17676155452E+02  0.45045681915E+02  0.00000000000E+00 0. -1.
         11    1    3    3    0    0  0.70997356413E+01  0.28148289909E+01 -0.14740333866E+01  0.77783213556E+01  0.51100000000E-03 0. -1.
        -11    1    3    3    0    0  0.25999450443E+02  0.66573407037E+01 -0.15851764770E+02  0.31170018530E+02  0.51100000000E-03 0.  1.
        -12    1    3    3    0    0  0.71817970732E+01  0.22882940636E+00 -0.35035729553E+00  0.71939781993E+01  0.00000000000E+00 0.  1.
</event>
<event>
 7    1  0.2097247E-008  0.4614232E+02  0.7816164E-02  0.1320468E+00
        -11   -1    0    0    0    0  0.00000000000E+00  0.00000000000E+00  0.45593999997E+02  0.45594000000E+02  0.51100000000E-03 0.  1.
         11   -1    0    0    0    0 -0.00000000000E+00 -0.00000000000E+00 -0.45593999997E+02  0.45594000000E+02  0.51100000000E-03 0. -1.
    9900012    2    1    2    0    0 -0.29119890610E+02 -0.22375324788E+02  0.26086204638E+02  0.46142320286E+02  0.10000023023E+02 0.  0.
         12    1    1    2    0    0  0.29119890610E+02  0.22375324788E+02 -0.26086204638E+02  0.45045679714E+02  0.00000000000E+00 0. -1.
         11    1    3    3    0    0 -0.42723166248E+01 -0.48994615013E+01  0.33678090099E+01  0.73211713635E+01  0.51100000000E-03 0. -1.
        -11    1    3    3    0    0 -0.24221172180E+02 -0.18289545909E+02  0.21339252851E+02  0.37101703246E+02  0.51100000000E-03 0.  1.
        -12    1    3    3    0    0 -0.62640180514E+00  0.81368262217E+00  0.13791427778E+01  0.17194456760E+01  0.00000000000E+00 0.  1.
</event>
<event>
 7    1  0.2097247E-008  0.4614232E+02  0.7816164E-02  0.1320468E+00
        -11   -1    0    0    0    0  0.00000000000E+00  0.00000000000E+00  0.45593999997E+02  0.45594000000E+02  0.51100000000E-03 0.  1.
         11   -1    0    0    0    0 -0.00000000000E+00 -0.00000000000E+00 -0.45593999997E+02  0.45594000000E+02  0.51100000000E-03 0. -1.
    9900012    2    1    2    0    0 -0.41204451936E+01 -0.21475414297E+02  0.39382001469E+02  0.46142317326E+02  0.99999960364E+01 0.  0.
         12    1    1    2    0    0  0.41204451936E+01  0.21475414297E+02 -0.39382001469E+02  0.45045682674E+02  0.00000000000E+00 0. -1.
         11    1    3    3    0    0 -0.20785065527E+01 -0.17442929590E+02  0.27388760552E+02  0.32537980684E+02  0.51100000000E-03 0. -1.
        -11    1    3    3    0    0  0.87586398859E+00 -0.32821472220E+01  0.67715651421E+01  0.75758644951E+01  0.51100000000E-03 0.  1.
        -12    1    3    3    0    0 -0.29178026295E+01 -0.75033748414E+00  0.52216757757E+01  0.60284721473E+01  0.00000000000E+00 0.  1.
</event>
<event>
 7    1  0.2097247E-008  0.4614232E+02  0.7816164E-02  0.1320468E+00
        -11   -1    0    0    0    0  0.00000000000E+00  0.00000000000E+00  0.45593999997E+02  0.45594000000E+02  0.51100000000E-03 0.  1.
         11   -1    0    0    0    0 -0.00000000000E+00 -0.00000000000E+00 -0.45593999997E+02  0.45594000000E+02  0.51100000000E-03 0. -1.
    9900012    2    1    2    0    0 -0.19535219402E+02 -0.82391960256E+01  0.39744236165E+02  0.46142318114E+02  0.10000003219E+02 0.  0.
         12    1    1    2    0    0  0.19535219402E+02  0.82391960256E+01 -0.39744236165E+02  0.45045681886E+02  0.00000000000E+00 0. -1.
         11    1    3    3    0    0 -0.73376277204E+00 -0.13322148731E+01  0.51784860384E+00  0.16066647788E+01  0.51100000000E-03 0. -1.
        -11    1    3    3    0    0 -0.52053244193E+01 -0.49256624585E+01  0.16327066020E+02  0.17830609582E+02  0.51100000000E-03 0.  1.
        -12    1    3    3    0    0 -0.13596132210E+02 -0.19813186941E+01  0.22899321541E+02  0.26705043753E+02  0.00000000000E+00 0.  1.
</event>
<event>
 7    1  0.2097247E-008  0.4614232E+02  0.7816164E-02  0.1320468E+00
        -11   -1    0    0    0    0  0.00000000000E+00  0.00000000000E+00  0.45593999997E+02  0.45594000000E+02  0.51100000000E-03 0. -1.
         11   -1    0    0    0    0 -0.00000000000E+00 -0.00000000000E+00 -0.45593999997E+02  0.45594000000E+02  0.51100000000E-03 0.  1.
    9900012    2    1    2    0    0 -0.26207962195E+02 -0.77184811604E+01 -0.35814539429E+02  0.46142317983E+02  0.10000002026E+02 0.  0.
         12    1    1    2    0    0  0.26207962195E+02  0.77184811604E+01  0.35814539429E+02  0.45045682017E+02  0.00000000000E+00 0. -1.
         11    1    3    3    0    0 -0.86419712139E+00 -0.62914774888E+00 -0.33093079834E+01  0.34776692115E+01  0.51100000000E-03 0. -1.
        -11    1    3    3    0    0 -0.15168684141E+02 -0.69813660503E+01 -0.24814226244E+02  0.29909434546E+02  0.51100000000E-03 0.  1.
        -12    1    3    3    0    0 -0.10175080933E+02 -0.10796736128E+00 -0.76910052015E+01  0.12755214226E+02  0.00000000000E+00 0.  1.
</event>
<event>
 7    1  0.2097247E-008  0.4614232E+02  0.7816164E-02  0.1320468E+00
        -11   -1    0    0    0    0  0.00000000000E+00  0.00000000000E+00  0.45593999997E+02  0.45594000000E+02  0.51100000000E-03 0.  1.
         11   -1    0    0    0    0 -0.00000000000E+00 -0.00000000000E+00 -0.45593999997E+02  0.45594000000E+02  0.51100000000E-03 0. -1.
    9900012    2    1    2    0    0  0.22377762598E+02 -0.21927618131E+02  0.32365548416E+02  0.46142318519E+02  0.10000006910E+02 0.  0.
         12    1    1    2    0    0 -0.22377762598E+02  0.21927618131E+02 -0.32365548416E+02  0.45045681481E+02  0.00000000000E+00 0. -1.
         11    1    3    3    0    0  0.87107589896E+01 -0.48342199677E+01  0.57895423372E+01  0.11522404506E+02  0.51100000000E-03 0. -1.
        -11    1    3    3    0    0  0.96835618028E-01 -0.10380363068E+01  0.59882938969E+00  0.12022867421E+01  0.51100000000E-03 0.  1.
        -12    1    3    3    0    0  0.13570167990E+02 -0.16055361856E+02  0.25977176689E+02  0.33417627270E+02  0.00000000000E+00 0.  1.
</event>
<event>
 7    1  0.2097247E-008  0.4614232E+02  0.7816164E-02  0.1320468E+00
        -11   -1    0    0    0    0  0.00000000000E+00  0.00000000000E+00  0.45593999997E+02  0.45594000000E+02  0.51100000000E-03 0. -1.
         11   -1    0    0    0    0 -0.00000000000E+00 -0.00000000000E+00 -0.45593999997E+02  0.45594000000E+02  0.51100000000E-03 0.  1.
    9900012    2    1    2    0    0 -0.35386745389E+02  0.25405727964E+02 -0.11464740295E+02  0.46142322819E+02  0.10000046125E+02 0.  0.
         12    1    1    2    0    0  0.35386745389E+02 -0.25405727964E+02  0.11464740295E+02  0.45045677181E+02  0.00000000000E+00 0. -1.
         11    1    3    3    0    0 -0.16301095078E+02  0.10044796507E+02 -0.76950398995E+01  0.20635825085E+02  0.51100000000E-03 0. -1.
        -11    1    3    3    0    0 -0.13667321947E+02  0.14078157544E+02 -0.35076445686E+01  0.19932229672E+02  0.51100000000E-03 0.  1.
         12    1    3    3    0    0 -0.54183283639E+01  0.12827739133E+01 -0.26205582735E+00  0.55742680621E+01  0.00000000000E+00 0. -1.
</event>
<event>
 7    1  0.2097247E-008  0.4614232E+02  0.7816164E-02  0.1320468E+00
        -11   -1    0    0    0    0  0.00000000000E+00  0.00000000000E+00  0.45593999997E+02  0.45594000000E+02  0.51100000000E-03 0.  1.
         11   -1    0    0    0    0 -0.00000000000E+00 -0.00000000000E+00 -0.45593999997E+02  0.45594000000E+02  0.51100000000E-03 0. -1.
    9900012    2    1    2    0    0  0.44505955398E+02 -0.50900976828E+01  0.47354309123E+01  0.46142318007E+02  0.10000002239E+02 0.  0.
         12    1    1    2    0    0 -0.44505955398E+02  0.50900976828E+01 -0.47354309123E+01  0.45045681993E+02  0.00000000000E+00 0. -1.
         11    1    3    3    0    0  0.24387512776E+02  0.18096939181E+01  0.17884819586E+01  0.24519878455E+02  0.51100000000E-03 0. -1.
        -11    1    3    3    0    0  0.14919626118E+02 -0.40893050495E+01  0.27275103595E+01  0.15708500002E+02  0.51100000000E-03 0.  1.
         12    1    3    3    0    0  0.51988165040E+01 -0.28104865514E+01  0.21943859421E+00  0.59139395495E+01  0.00000000000E+00 0. -1.
</event>
<event>
 7    1  0.2097247E-008  0.4614232E+02  0.7816164E-02  0.1320468E+00
        -11   -1    0    0    0    0  0.00000000000E+00  0.00000000000E+00  0.45593999997E+02  0.45594000000E+02  0.51100000000E-03 0. -1.
         11   -1    0    0    0    0 -0.00000000000E+00 -0.00000000000E+00 -0.45593999997E+02  0.45594000000E+02  0.51100000000E-03 0.  1.
    9900012    2    1    2    0    0 -0.14275679695E+02 -0.42411014802E+02 -0.51598755696E+01  0.46142317375E+02  0.99999964800E+01 0.  0.
         12    1    1    2    0    0  0.14275679695E+02  0.42411014802E+02  0.51598755696E+01  0.45045682625E+02  0.00000000000E+00 0. -1.
         11    1    3    3    0    0 -0.50956923411E+01 -0.66710677811E+01 -0.27359210238E+01  0.88291839875E+01  0.51100000000E-03 0. -1.
        -11    1    3    3    0    0 -0.95817333574E+01 -0.32053448156E+02 -0.14855050853E+01  0.33487906450E+02  0.51100000000E-03 0.  1.
         12    1    3    3    0    0  0.40174600386E+00 -0.36864988649E+01 -0.93844946050E+00  0.38252269374E+01  0.00000000000E+00 0. -1.
</event>
<event>
 7    1  0.2097247E-008  0.4614232E+02  0.7816164E-02  0.1320468E+00
        -11   -1    0    0    0    0  0.00000000000E+00  0.00000000000E+00  0.45593999997E+02  0.45594000000E+02  0.51100000000E-03 0.  1.
         11   -1    0    0    0    0 -0.00000000000E+00 -0.00000000000E+00 -0.45593999997E+02  0.45594000000E+02  0.51100000000E-03 0. -1.
    9900012    2    1    2    0    0 -0.33277737237E+02 -0.29181027846E+02  0.83769272159E+01  0.46142322168E+02  0.10000040186E+02 0.  0.
         12    1    1    2    0    0  0.33277737237E+02  0.29181027846E+02 -0.83769272159E+01  0.45045677832E+02  0.00000000000E+00 0. -1.
         11    1    3    3    0    0 -0.23701490975E+01 -0.44434079967E+01  0.33529254320E+01  0.60500901301E+01  0.51100000000E-03 0. -1.
        -11    1    3    3    0    0 -0.20895064365E+02 -0.18543221888E+02  0.45844434624E+01  0.28310279315E+02  0.51100000000E-03 0.  1.
         12    1    3    3    0    0 -0.10012523774E+02 -0.61943979619E+01  0.43955832149E+00  0.11781952723E+02  0.00000000000E+00 0. -1.
</event>
<event>
 7    1  0.2097247E-008  0.4614232E+02  0.7816164E-02  0.1320468E+00
        -11   -1    0    0    0    0  0.00000000000E+00  0.00000000000E+00  0.45593999997E+02  0.45594000000E+02  0.51100000000E-03 0. -1.
         11   -1    0    0    0    0 -0.00000000000E+00 -0.00000000000E+00 -0.45593999997E+02  0.45594000000E+02  0.51100000000E-03 0.  1.
    9900012    2    1    2    0    0 -0.22025987870E+02 -0.39177833630E+02  0.30110983530E+01  0.46142317600E+02  0.99999985322E+01 0.  0.
         12    1    1    2    0    0  0.22025987870E+02  0.39177833630E+02 -0.30110983530E+01  0.45045682400E+02  0.00000000000E+00 0. -1.
         11    1    3    3    0    0 -0.13375445092E+02 -0.20407811291E+02  0.13141280959E+00  0.24400790206E+02  0.51100000000E-03 0. -1.
        -11    1    3    3    0    0 -0.71697428012E+01 -0.17580319017E+02  0.91413863496E+00  0.19008116116E+02  0.51100000000E-03 0.  1.
         12    1    3    3    0    0 -0.14807999763E+01 -0.11897033219E+01  0.19655469084E+01  0.27334112778E+01  0.00000000000E+00 0. -1.
</event>
<event>
 7    1  0.2097247E-008  0.4614232E+02  0.7816164E-02  0.1320468E+00
        -11   -1    0    0    0    0  0.00000000000E+00  0.00000000000E+00  0.45593999997E+02  0.45594000000E+02  0.51100000000E-03 0.  1.
         11   -1    0    0    0    0 -0.00000000000E+00 -0.00000000000E+00 -0.45593999997E+02  0.45594000000E+02  0.51100000000E-03 0. -1.
    9900012    2    1    2    0    0  0.74385232351E-01 -0.94605095121E+01  0.44040965500E+02  0.46142318569E+02  0.10000007365E+02 0.  0.
         12    1    1    2    0    0 -0.74385232351E-01  0.94605095121E+01 -0.44040965500E+02  0.45045681431E+02  0.00000000000E+00 0. -1.
         11    1    3    3    0    0 -0.31056474847E+01 -0.53695688896E+01  0.15438663503E+02  0.16638198442E+02  0.51100000000E-03 0. -1.
        -11    1    3    3    0    0 -0.26804169918E+00  0.94389685978E+00  0.65489808153E+01  0.66220795536E+01  0.51100000000E-03 0.  1.
        -12    1    3    3    0    0  0.34480744162E+01 -0.50348374823E+01  0.22053321182E+02  0.22882040574E+02  0.00000000000E+00 0.  1.
</event>
<event>
 7    1  0.2097247E-008  0.4614232E+02  0.7816164E-02  0.1320468E+00
        -11   -1    0    0    0    0  0.00000000000E+00  0.00000000000E+00  0.45593999997E+02  0.45594000000E+02  0.51100000000E-03 0.  1.
         11   -1    0    0    0    0 -0.00000000000E+00 -0.00000000000E+00 -0.45593999997E+02  0.45594000000E+02  0.51100000000E-03 0. -1.
    9900012    2    1    2    0    0 -0.16435832671E+02 -0.29903513084E+02  0.29406748702E+02  0.46142316970E+02  0.99999927902E+01 0.  0.
         12    1    1    2    0    0  0.16435832671E+02  0.29903513084E+02 -0.29406748702E+02  0.45045683030E+02  0.00000000000E+00 0. -1.
         11    1    3    3    0    0 -0.61139323743E+01 -0.18040857218E+02  0.19566564082E+02  0.27307565407E+02  0.51100000000E-03 0.  1.
        -11    1    3    3    0    0 -0.36547089247E+01 -0.31204186345E+01  0.14980666939E+01  0.50336978315E+01  0.51100000000E-03 0. -1.
        -12    1    3    3    0    0 -0.66671913723E+01 -0.87422372319E+01  0.83421179261E+01  0.13801053732E+02  0.00000000000E+00 0.  1.
</event>
<event>
 7    1  0.2097247E-008  0.4614232E+02  0.7816164E-02  0.1320468E+00
        -11   -1    0    0    0    0  0.00000000000E+00  0.00000000000E+00  0.45593999997E+02  0.45594000000E+02  0.51100000000E-03 0.  1.
         11   -1    0    0    0    0 -0.00000000000E+00 -0.00000000000E+00 -0.45593999997E+02  0.45594000000E+02  0.51100000000E-03 0. -1.
    9900012    2    1    2    0    0 -0.41842152776E+02  0.12377572723E+02  0.11186751261E+02  0.46142318085E+02  0.10000002951E+02 0.  0.
         12    1    1    2    0    0  0.41842152776E+02 -0.12377572723E+02 -0.11186751261E+02  0.45045681915E+02  0.00000000000E+00 0. -1.
         11    1    3    3    0    0 -0.24233739411E+02  0.80716063002E+01  0.79719283822E+01  0.26757739002E+02  0.51100000000E-03 0. -1.
        -11    1    3    3    0    0 -0.17188988952E+02  0.45348752625E+01  0.42204088943E+01  0.18271242058E+02  0.51100000000E-03 0.  1.
         12    1    3    3    0    0 -0.41942441255E+00 -0.22890883958E+00 -0.10055860159E+01  0.11133370245E+01  0.00000000000E+00 0. -1.
</event>
<event>
 7    1  0.2097247E-008  0.4614232E+02  0.7816164E-02  0.1320468E+00
        -11   -1    0    0    0    0  0.00000000000E+00  0.00000000000E+00  0.45593999997E+02  0.45594000000E+02  0.51100000000E-03 0.  1.
         11   -1    0    0    0    0 -0.00000000000E+00 -0.00000000000E+00 -0.45593999997E+02  0.45594000000E+02  0.51100000000E-03 0. -1.
    9900012    2    1    2    0    0 -0.27024953265E+02 -0.29905296190E+02  0.20110659991E+02  0.46142317804E+02  0.10000000395E+02 0.  0.
         12    1    1    2    0    0  0.27024953265E+02  0.29905296190E+02 -0.20110659991E+02  0.45045682196E+02  0.00000000000E+00 0. -1.
         11    1    3    3    0    0 -0.96546531213E+01 -0.11778590114E+02  0.10390401929E+02  0.18436593082E+02  0.51100000000E-03 0. -1.
        -11    1    3    3    0    0 -0.14384755607E+02 -0.13000427530E+02  0.99009979880E+01  0.21770669977E+02  0.51100000000E-03 0.  1.
         12    1    3    3    0    0 -0.29855445364E+01 -0.51262785460E+01 -0.18073992533E+00  0.59350547454E+01  0.00000000000E+00 0. -1.
</event>
<event>
 7    1  0.2097247E-008  0.4614232E+02  0.7816164E-02  0.1320468E+00
        -11   -1    0    0    0    0  0.00000000000E+00  0.00000000000E+00  0.45593999997E+02  0.45594000000E+02  0.51100000000E-03 0.  1.
         11   -1    0    0    0    0 -0.00000000000E+00 -0.00000000000E+00 -0.45593999997E+02  0.45594000000E+02  0.51100000000E-03 0. -1.
    9900012    2    1    2    0    0 -0.32538724789E+02  0.39004904997E+01  0.30905194250E+02  0.46142317980E+02  0.10000001999E+02 0.  0.
         12    1    1    2    0    0  0.32538724789E+02 -0.39004904997E+01 -0.30905194250E+02  0.45045682020E+02  0.00000000000E+00 0. -1.
         11    1    3    3    0    0 -0.11232292858E+02  0.14622687340E+01  0.12049860765E+02  0.16537889146E+02  0.51100000000E-03 0. -1.
        -11    1    3    3    0    0 -0.20387459043E+02  0.21758761192E+01  0.19621663531E+02  0.28379439796E+02  0.51100000000E-03 0.  1.
         12    1    3    3    0    0 -0.91897288745E+00  0.26234564643E+00 -0.76633004592E+00  0.12249890389E+01  0.00000000000E+00 0. -1.
</event>
<event>
 7    1  0.2097247E-008  0.4614231E+02  0.7816164E-02  0.1320468E+00
        -11   -1    0    0    0    0  0.00000000000E+00  0.00000000000E+00  0.45593999997E+02  0.45594000000E+02  0.51100000000E-03 0.  1.
         11   -1    0    0    0    0 -0.00000000000E+00 -0.00000000000E+00 -0.45593999997E+02  0.45594000000E+02  0.51100000000E-03 0. -1.
    9900012    2    1    2    0    0  0.92620573480E+01 -0.36496366578E+02  0.24725359003E+02  0.46142313663E+02  0.99999626331E+01 0.  0.
         12    1    1    2    0    0 -0.92620573480E+01  0.36496366578E+02 -0.24725359003E+02  0.45045686337E+02  0.00000000000E+00 0. -1.
         11    1    3    3    0    0  0.40565115822E+01 -0.13866186446E+02  0.93492600981E+01  0.17208575694E+02  0.51100000000E-03 0. -1.
        -11    1    3    3    0    0  0.44142853972E+01 -0.67459798701E+01  0.81549489682E+01  0.11467229522E+02  0.51100000000E-03 0.  1.
         12    1    3    3    0    0  0.79126036859E+00 -0.15884200262E+02  0.72211499365E+01  0.17466508447E+02  0.00000000000E+00 0. -1.
</event>
<event>
 7    1  0.2097247E-008  0.4614232E+02  0.7816164E-02  0.1320468E+00
        -11   -1    0    0    0    0  0.00000000000E+00  0.00000000000E+00  0.45593999997E+02  0.45594000000E+02  0.51100000000E-03 0.  1.
         11   -1    0    0    0    0 -0.00000000000E+00 -0.00000000000E+00 -0.45593999997E+02  0.45594000000E+02  0.51100000000E-03 0. -1.
    9900012    2    1    2    0    0  0.23217578123E+01  0.69298480622E+01  0.44448848592E+02  0.46142317691E+02  0.99999993617E+01 0.  0.
         12    1    1    2    0    0 -0.23217578123E+01 -0.69298480622E+01 -0.44448848592E+02  0.45045682309E+02  0.00000000000E+00 0. -1.
         11    1    3    3    0    0  0.91929239468E+00 -0.11590106217E+01  0.60376684830E+01  0.62162565182E+01  0.51100000000E-03 0. -1.
        -11    1    3    3    0    0 -0.17895293146E+01  0.30208271626E+01  0.24906562416E+02  0.25152826154E+02  0.51100000000E-03 0.  1.
        -12    1    3    3    0    0  0.31919947323E+01  0.50680315213E+01  0.13504617693E+02  0.14773235019E+02  0.00000000000E+00 0.  1.
</event>
<event>
 7    1  0.2097247E-008  0.4614232E+02  0.7816164E-02  0.1320468E+00
        -11   -1    0    0    0    0  0.00000000000E+00  0.00000000000E+00  0.45593999997E+02  0.45594000000E+02  0.51100000000E-03 0.  1.
         11   -1    0    0    0    0 -0.00000000000E+00 -0.00000000000E+00 -0.45593999997E+02  0.45594000000E+02  0.51100000000E-03 0. -1.
    9900012    2    1    2    0    0 -0.20686031700E+02  0.32622878835E+02  0.23172166020E+02  0.46142318642E+02  0.10000008031E+02 0.  0.
         12    1    1    2    0    0  0.20686031700E+02 -0.32622878835E+02 -0.23172166020E+02  0.45045681358E+02  0.00000000000E+00 0. -1.
         11    1    3    3    0    0 -0.23155337998E+01  0.58875545174E+01  0.83234419108E+01  0.10454887875E+02  0.51100000000E-03 0. -1.
        -11    1    3    3    0    0 -0.78626192076E+01  0.11123683229E+02  0.66968238996E+01  0.15179082976E+02  0.51100000000E-03 0.  1.
         12    1    3    3    0    0 -0.10507878693E+02  0.15611641089E+02  0.81519002091E+01  0.20508347791E+02  0.00000000000E+00 0. -1.
</event>
<event>
 7    1  0.2097247E-008  0.4614232E+02  0.7816164E-02  0.1320468E+00
        -11   -1    0    0    0    0  0.00000000000E+00  0.00000000000E+00  0.45593999997E+02  0.45594000000E+02  0.51100000000E-03 0. -1.
         11   -1    0    0    0    0 -0.00000000000E+00 -0.00000000000E+00 -0.45593999997E+02  0.45594000000E+02  0.51100000000E-03 0.  1.
    9900012    2    1    2    0    0  0.39936054602E+02 -0.59792567306E+01 -0.19961800029E+02  0.46142318424E+02  0.10000006048E+02 0.  0.
         12    1    1    2    0    0 -0.39936054602E+02  0.59792567306E+01  0.19961800029E+02  0.45045681576E+02  0.00000000000E+00 0. -1.
         11    1    3    3    0    0  0.18250251620E+01  0.37104748368E+00  0.51481012139E+00  0.19322067175E+01  0.51100000000E-03 0. -1.
        -11    1    3    3    0    0  0.21800306862E+02 -0.41161908301E+00 -0.10702020145E+02  0.24289010786E+02  0.51100000000E-03 0.  1.
        -12    1    3    3    0    0  0.16310722578E+02 -0.59386851313E+01 -0.97745900059E+01  0.19921100920E+02  0.00000000000E+00 0.  1.
</event>
<event>
 7    1  0.2097247E-008  0.4614231E+02  0.7816164E-02  0.1320468E+00
        -11   -1    0    0    0    0  0.00000000000E+00  0.00000000000E+00  0.45593999997E+02  0.45594000000E+02  0.51100000000E-03 0. -1.
         11   -1    0    0    0    0 -0.00000000000E+00 -0.00000000000E+00 -0.45593999997E+02  0.45594000000E+02  0.51100000000E-03 0.  1.
    9900012    2    1    2    0    0  0.16480218047E+02 -0.29592098677E+02 -0.29695530044E+02  0.46142307691E+02  0.99999081749E+01 0.  0.
         12    1    1    2    0    0 -0.16480218047E+02  0.29592098677E+02  0.29695530044E+02  0.45045692309E+02  0.00000000000E+00 0. -1.
         11    1    3    3    0    0  0.11634400377E+01 -0.60091971025E+01 -0.17759639688E+01  0.63732323681E+01  0.51100000000E-03 0. -1.
        -11    1    3    3    0    0  0.12087406478E+01 -0.63345091486E+00 -0.16593340501E+01  0.21484188991E+01  0.51100000000E-03 0.  1.
        -12    1    3    3    0    0  0.14108037361E+02 -0.22949450660E+02 -0.26260232025E+02  0.37620656424E+02  0.00000000000E+00 0.  1.
</event>
<event>
 7    1  0.2097247E-008  0.4614232E+02  0.7816164E-02  0.1320468E+00
        -11   -1    0    0    0    0  0.00000000000E+00  0.00000000000E+00  0.45593999997E+02  0.45594000000E+02  0.51100000000E-03 0.  1.
         11   -1    0    0    0    0 -0.00000000000E+00 -0.00000000000E+00 -0.45593999997E+02  0.45594000000E+02  0.51100000000E-03 0. -1.
    9900012    2    1    2    0    0  0.10017171248E+02  0.28662390982E+02  0.33275171031E+02  0.46142318922E+02  0.10000010586E+02 0.  0.
         12    1    1    2    0    0 -0.10017171248E+02 -0.28662390982E+02 -0.33275171031E+02  0.45045681078E+02  0.00000000000E+00 0. -1.
         11    1    3    3    0    0  0.22438876439E+01  0.40941634803E+01  0.73976316083E+01  0.87476945554E+01  0.51100000000E-03 0. -1.
        -11    1    3    3    0    0  0.52555719473E+01  0.23766149393E+02  0.23003293400E+02  0.33490332948E+02  0.51100000000E-03 0.  1.
        -12    1    3    3    0    0  0.25177116572E+01  0.80207810875E+00  0.28742460236E+01  0.39042914191E+01  0.00000000000E+00 0.  1.
</event>
<event>
 7    1  0.2097247E-008  0.4614232E+02  0.7816164E-02  0.1320468E+00
        -11   -1    0    0    0    0  0.00000000000E+00  0.00000000000E+00  0.45593999997E+02  0.45594000000E+02  0.51100000000E-03 0.  1.
         11   -1    0    0    0    0 -0.00000000000E+00 -0.00000000000E+00 -0.45593999997E+02  0.45594000000E+02  0.51100000000E-03 0. -1.
    9900012    2    1    2    0    0 -0.20034168868E+02  0.31934525796E+02  0.24656268631E+02  0.46142318266E+02  0.10000004607E+02 0.  0.
         12    1    1    2    0    0  0.20034168868E+02 -0.31934525796E+02 -0.24656268631E+02  0.45045681734E+02  0.00000000000E+00 0. -1.
         11    1    3    3    0    0  0.26146014944E+00  0.89417073717E-01 -0.14837528109E+00  0.31364360025E+00  0.51100000000E-03 0. -1.
        -11    1    3    3    0    0 -0.86698650926E+01  0.18824584297E+02  0.10352661804E+02  0.23166983864E+02  0.51100000000E-03 0.  1.
        -12    1    3    3    0    0 -0.11625763925E+02  0.13020524425E+02  0.14451982109E+02  0.22661690802E+02  0.00000000000E+00 0.  1.
</event>
<event>
 7    1  0.2097247E-008  0.4614232E+02  0.7816164E-02  0.1320468E+00
        -11   -1    0    0    0    0  0.00000000000E+00  0.00000000000E+00  0.45593999997E+02  0.45594000000E+02  0.51100000000E-03 0.  1.
         11   -1    0    0    0    0 -0.00000000000E+00 -0.00000000000E+00 -0.45593999997E+02  0.45594000000E+02  0.51100000000E-03 0. -1.
    9900012    2    1    2    0    0 -0.31995225746E+02  0.31707996593E+02  0.14823304391E+00  0.46142317726E+02  0.99999996815E+01 0.  0.
         12    1    1    2    0    0  0.31995225746E+02 -0.31707996593E+02 -0.14823304391E+00  0.45045682274E+02  0.00000000000E+00 0. -1.
         11    1    3    3    0    0  0.19911632088E+00  0.59505466414E+00  0.83088505819E+00  0.10412048807E+01  0.51100000000E-03 0. -1.
        -11    1    3    3    0    0 -0.14064769137E+02  0.12561501854E+02  0.22732660555E+01  0.18994125369E+02  0.51100000000E-03 0.  1.
         12    1    3    3    0    0 -0.18129572929E+02  0.18551440075E+02 -0.29559180698E+01  0.26106987477E+02  0.00000000000E+00 0. -1.
</event>
<event>
 7    1  0.2097247E-008  0.4614232E+02  0.7816164E-02  0.1320468E+00
        -11   -1    0    0    0    0  0.00000000000E+00  0.00000000000E+00  0.45593999997E+02  0.45594000000E+02  0.51100000000E-03 0. -1.
         11   -1    0    0    0    0 -0.00000000000E+00 -0.00000000000E+00 -0.45593999997E+02  0.45594000000E+02  0.51100000000E-03 0.  1.
    9900012    2    1    2    0    0 -0.22564349288E+02 -0.32833067031E+02 -0.21022689505E+02  0.46142316261E+02  0.99999863234E+01 0.  0.
         12    1    1    2    0    0  0.22564349288E+02  0.32833067031E+02  0.21022689505E+02  0.45045683739E+02  0.00000000000E+00 0. -1.
         11    1    3    3    0    0 -0.15868631897E+02 -0.23372503028E+02 -0.14670048845E+02  0.31832337480E+02  0.51100000000E-03 0. -1.
        -11    1    3    3    0    0 -0.67159180118E+01 -0.69220717472E+01 -0.67060792806E+01  0.11746920090E+02  0.51100000000E-03 0.  1.
         12    1    3    3    0    0  0.20200621028E-01 -0.25384922554E+01  0.35343862015E+00  0.25630586911E+01  0.00000000000E+00 0. -1.
</event>
<event>
 7    1  0.2097247E-008  0.4614232E+02  0.7816164E-02  0.1320468E+00
        -11   -1    0    0    0    0  0.00000000000E+00  0.00000000000E+00  0.45593999997E+02  0.45594000000E+02  0.51100000000E-03 0.  1.
         11   -1    0    0    0    0 -0.00000000000E+00 -0.00000000000E+00 -0.45593999997E+02  0.45594000000E+02  0.51100000000E-03 0. -1.
    9900012    2    1    2    0    0  0.35725568005E+01 -0.43076160972E+02  0.12680480552E+02  0.46142318818E+02  0.10000009636E+02 0.  0.
         12    1    1    2    0    0 -0.35725568005E+01  0.43076160972E+02 -0.12680480552E+02  0.45045681182E+02  0.00000000000E+00 0. -1.
         11    1    3    3    0    0  0.10750262182E+01 -0.18799980502E+02  0.84044466147E+01  0.20621097725E+02  0.51100000000E-03 0. -1.
        -11    1    3    3    0    0  0.73313104905E+00 -0.59791072032E+00  0.12761247231E+01  0.15885442816E+01  0.51100000000E-03 0.  1.
        -12    1    3    3    0    0  0.17643995332E+01 -0.23678269750E+02  0.29999092142E+01  0.23932676811E+02  0.00000000000E+00 0.  1.
</event>
<event>
 7    1  0.2097247E-008  0.4614232E+02  0.7816164E-02  0.1320468E+00
        -11   -1    0    0    0    0  0.00000000000E+00  0.00000000000E+00  0.45593999997E+02  0.45594000000E+02  0.51100000000E-03 0.  1.
         11   -1    0    0    0    0 -0.00000000000E+00 -0.00000000000E+00 -0.45593999997E+02  0.45594000000E+02  0.51100000000E-03 0. -1.
    9900012    2    1    2    0    0 -0.82482171355E+01 -0.35277110936E+02  0.26769494570E+02  0.46142317838E+02  0.10000000702E+02 0.  0.
         12    1    1    2    0    0  0.82482171355E+01  0.35277110936E+02 -0.26769494570E+02  0.45045682162E+02  0.00000000000E+00 0. -1.
         11    1    3    3    0    0 -0.48762709434E+01 -0.75292585140E+01  0.33612689079E+01  0.95794509768E+01  0.51100000000E-03 0. -1.
        -11    1    3    3    0    0  0.31926355953E+00 -0.74329603472E+01  0.61928028212E+01  0.96799605260E+01  0.51100000000E-03 0.  1.
         12    1    3    3    0    0 -0.36912097516E+01 -0.20314892075E+02  0.17215422841E+02  0.26882906335E+02  0.00000000000E+00 0. -1.
</event>
<event>
 7    1  0.2097247E-008  0.4614232E+02  0.7816164E-02  0.1320468E+00
        -11   -1    0    0    0    0  0.00000000000E+00  0.00000000000E+00  0.45593999997E+02  0.45594000000E+02  0.51100000000E-03 0.  1.
         11   -1    0    0    0    0 -0.00000000000E+00 -0.00000000000E+00 -0.45593999997E+02  0.45594000000E+02  0.51100000000E-03 0. -1.
    9900012    2    1    2    0    0  0.27136932807E+02  0.24751511403E+02  0.26078012979E+02  0.46142320964E+02  0.10000029205E+02 0.  0.
         12    1    1    2    0    0 -0.27136932807E+02 -0.24751511403E+02 -0.26078012979E+02  0.45045679036E+02  0.00000000000E+00 0. -1.
         11    1    3    3    0    0  0.66591551101E+01  0.22604210105E+01  0.42481679566E+01  0.82158859031E+01  0.51100000000E-03 0. -1.
        -11    1    3    3    0    0  0.15692917016E+02  0.14206078025E+02  0.12608439614E+02  0.24638446524E+02  0.51100000000E-03 0.  1.
         12    1    3    3    0    0  0.47848606808E+01  0.82850123674E+01  0.92214054079E+01  0.13287988537E+02  0.00000000000E+00 0. -1.
</event>
<event>
 7    1  0.2097247E-008  0.4614232E+02  0.7816164E-02  0.1320468E+00
        -11   -1    0    0    0    0  0.00000000000E+00  0.00000000000E+00  0.45593999997E+02  0.45594000000E+02  0.51100000000E-03 0. -1.
         11   -1    0    0    0    0 -0.00000000000E+00 -0.00000000000E+00 -0.45593999997E+02  0.45594000000E+02  0.51100000000E-03 0.  1.
    9900012    2    1    2    0    0  0.11177983183E+02 -0.41803647822E+02  0.12514840062E+02  0.46142317620E+02  0.99999987152E+01 0.  0.
         12    1    1    2    0    0 -0.11177983183E+02  0.41803647822E+02 -0.12514840062E+02  0.45045682380E+02  0.00000000000E+00 0. -1.
         11    1    3    3    0    0 -0.45890410257E+00 -0.57945611331E+00 -0.62302831835E+00  0.96670931991E+00  0.51100000000E-03 0. -1.
        -11    1    3    3    0    0  0.47543363575E+01 -0.13295134167E+02  0.17049700918E+01  0.14222209041E+02  0.51100000000E-03 0.  1.
         12    1    3    3    0    0  0.68825509277E+01 -0.27929057542E+02  0.11432898288E+02  0.30953399260E+02  0.00000000000E+00 0. -1.
</event>
<event>
 7    1  0.2097247E-008  0.4614232E+02  0.7816164E-02  0.1320468E+00
        -11   -1    0    0    0    0  0.00000000000E+00  0.00000000000E+00  0.45593999997E+02  0.45594000000E+02  0.51100000000E-03 0.  1.
         11   -1    0    0    0    0 -0.00000000000E+00 -0.00000000000E+00 -0.45593999997E+02  0.45594000000E+02  0.51100000000E-03 0. -1.
    9900012    2    1    2    0    0 -0.30867147286E+02  0.29160222150E+02  0.15033766000E+02  0.46142318103E+02  0.10000003115E+02 0.  0.
         12    1    1    2    0    0  0.30867147286E+02 -0.29160222150E+02 -0.15033766000E+02  0.45045681897E+02  0.00000000000E+00 0. -1.
         11    1    3    3    0    0 -0.24381136303E+02  0.25105689685E+02  0.11862380690E+02  0.36952016695E+02  0.51100000000E-03 0.  1.
        -11    1    3    3    0    0 -0.24781501201E+01  0.13673950053E+01  0.33199634098E+01  0.43627003590E+01  0.51100000000E-03 0. -1.
        -12    1    3    3    0    0 -0.40078608632E+01  0.26871374606E+01 -0.14857809961E+00  0.48276010484E+01  0.00000000000E+00 0.  1.
</event>
<event>
 7    1  0.2097247E-008  0.4614232E+02  0.7816164E-02  0.1320468E+00
        -11   -1    0    0    0    0  0.00000000000E+00  0.00000000000E+00  0.45593999997E+02  0.45594000000E+02  0.51100000000E-03 0. -1.
         11   -1    0    0    0    0 -0.00000000000E+00 -0.00000000000E+00 -0.45593999997E+02  0.45594000000E+02  0.51100000000E-03 0.  1.
    9900012    2    1    2    0    0 -0.30322941614E+02  0.32442285888E+02  0.75585007270E+01  0.46142316133E+02  0.99999851564E+01 0.  0.
         12    1    1    2    0    0  0.30322941614E+02 -0.32442285888E+02 -0.75585007270E+01  0.45045683867E+02  0.00000000000E+00 0. -1.
         11    1    3    3    0    0 -0.89788824620E+01  0.10495587703E+02 -0.10539482218E+01  0.13852382417E+02  0.51100000000E-03 0. -1.
        -11    1    3    3    0    0 -0.12330517207E+02  0.88710080960E+01  0.51143517352E+01  0.16027882991E+02  0.51100000000E-03 0.  1.
        -12    1    3    3    0    0 -0.90135419451E+01  0.13075690089E+02  0.34980972136E+01  0.16262050726E+02  0.00000000000E+00 0.  1.
</event>
<event>
 7    1  0.2097247E-008  0.4614232E+02  0.7816164E-02  0.1320468E+00
        -11   -1    0    0    0    0  0.00000000000E+00  0.00000000000E+00  0.45593999997E+02  0.45594000000E+02  0.51100000000E-03 0.  1.
         11   -1    0    0    0    0 -0.00000000000E+00 -0.00000000000E+00 -0.45593999997E+02  0.45594000000E+02  0.51100000000E-03 0. -1.
    9900012    2    1    2    0    0  0.20964803497E+02  0.38604777170E+02  0.99630142881E+01  0.46142318079E+02  0.10000002899E+02 0.  0.
         12    1    1    2    0    0 -0.20964803497E+02 -0.38604777170E+02 -0.99630142881E+01  0.45045681921E+02  0.00000000000E+00 0. -1.
         11    1    3    3    0    0 -0.65362165488E+00  0.39694522482E+01  0.13194973499E+01  0.42337744314E+01  0.51100000000E-03 0. -1.
        -11    1    3    3    0    0  0.13524354020E+02  0.23473022728E+02  0.72903066313E+01  0.28054224614E+02  0.51100000000E-03 0.  1.
         12    1    3    3    0    0  0.80940711316E+01  0.11162302194E+02  0.13532103070E+01  0.13854319034E+02  0.00000000000E+00 0. -1.
</event>
<event>
 7    1  0.2097247E-008  0.4614232E+02  0.7816164E-02  0.1320468E+00
        -11   -1    0    0    0    0  0.00000000000E+00  0.00000000000E+00  0.45593999997E+02  0.45594000000E+02  0.51100000000E-03 0.  1.
         11   -1    0    0    0    0 -0.00000000000E+00 -0.00000000000E+00 -0.45593999997E+02  0.45594000000E+02  0.51100000000E-03 0. -1.
    9900012    2    1    2    0    0 -0.29029931665E+02  0.26963725520E+02  0.21432080431E+02  0.46142317654E+02  0.99999990229E+01 0.  0.
         12    1    1    2    0    0  0.29029931665E+02 -0.26963725520E+02 -0.21432080431E+02  0.45045682346E+02  0.00000000000E+00 0. -1.
         11    1    3    3    0    0 -0.14991067755E+02  0.13215844677E+02  0.81969751068E+01  0.21600487591E+02  0.51100000000E-03 0. -1.
        -11    1    3    3    0    0 -0.43956535758E+01  0.63036815637E+01  0.85333161802E+01  0.11483712680E+02  0.51100000000E-03 0.  1.
        -12    1    3    3    0    0 -0.96432103342E+01  0.74441992791E+01  0.47017891436E+01  0.13058117384E+02  0.00000000000E+00 0.  1.
</event>
<event>
 7    1  0.2097247E-008  0.4614232E+02  0.7816164E-02  0.1320468E+00
        -11   -1    0    0    0    0  0.00000000000E+00  0.00000000000E+00  0.45593999997E+02  0.45594000000E+02  0.51100000000E-03 0. -1.
         11   -1    0    0    0    0 -0.00000000000E+00 -0.00000000000E+00 -0.45593999997E+02  0.45594000000E+02  0.51100000000E-03 0.  1.
    9900012    2    1    2    0    0 -0.22181127337E+02 -0.48139640370E+01 -0.38909343106E+02  0.46142316071E+02  0.99999845881E+01 0.  0.
         12    1    1    2    0    0  0.22181127337E+02  0.48139640370E+01  0.38909343106E+02  0.45045683929E+02  0.00000000000E+00 0. -1.
         11    1    3    3    0    0 -0.11826420911E+02 -0.30683826616E+01 -0.15324185553E+02  0.19598721052E+02  0.51100000000E-03 0.  1.
        -11    1    3    3    0    0 -0.20752375671E+01  0.48633141291E+00 -0.11673224001E+02  0.11866224676E+02  0.51100000000E-03 0. -1.
         12    1    3    3    0    0 -0.82794688589E+01 -0.22319127884E+01 -0.11911933551E+02  0.14677370344E+02  0.00000000000E+00 0. -1.
</event>
<event>
 7    1  0.2097247E-008  0.4614231E+02  0.7816164E-02  0.1320468E+00
        -11   -1    0    0    0    0  0.00000000000E+00  0.00000000000E+00  0.45593999997E+02  0.45594000000E+02  0.51100000000E-03 0.  1.
         11   -1    0    0    0    0 -0.00000000000E+00 -0.00000000000E+00 -0.45593999997E+02  0.45594000000E+02  0.51100000000E-03 0. -1.
    9900012    2    1    2    0    0  0.48771295166E+01 -0.94408082088E+01  0.43774407186E+02  0.46142312344E+02  0.99999506025E+01 0.  0.
         12    1    1    2    0    0 -0.48771295166E+01  0.94408082088E+01 -0.43774407186E+02  0.45045687656E+02  0.00000000000E+00 0. -1.
         11    1    3    3    0    0  0.11127625385E+01 -0.15978498199E+01  0.14017955546E+02  0.14152541908E+02  0.51100000000E-03 0. -1.
        -11    1    3    3    0    0  0.19705812238E+01 -0.80615667622E+01  0.28744776749E+02  0.29918794087E+02  0.51100000000E-03 0.  1.
        -12    1    3    3    0    0  0.17937857543E+01  0.21860837330E+00  0.10116748910E+01  0.20709763491E+01  0.00000000000E+00 0.  1.
</event>
<event>
 7    1  0.2476819E-008  0.4614232E+02  0.7816164E-02  0.1320468E+00
        -11   -1    0    0    0    0  0.00000000000E+00  0.00000000000E+00  0.45593999997E+02  0.45594000000E+02  0.51100000000E-03 0.  1.
         11   -1    0    0    0    0 -0.00000000000E+00 -0.00000000000E+00 -0.45593999997E+02  0.45594000000E+02  0.51100000000E-03 0. -1.
    9900012    2    1    2    0    0 -0.35713520384E+02  0.19893355033E+02  0.18918573662E+02  0.46142317165E+02  0.99999945601E+01 0.  0.
         12    1    1    2    0    0  0.35713520384E+02 -0.19893355033E+02 -0.18918573662E+02  0.45045682835E+02  0.00000000000E+00 0. -1.
         11    1    3    3    0    0  0.24038820257E+00  0.39917615113E+00  0.16281457790E+00  0.49359592326E+00  0.51100000000E-03 0. -1.
        -11    1    3    3    0    0 -0.12299098794E+02  0.27094222774E+01  0.50506014610E+01  0.13568985798E+02  0.51100000000E-03 0.  1.
        -12    1    3    3    0    0 -0.23654809793E+02  0.16784756604E+02  0.13705157623E+02  0.32079735443E+02  0.00000000000E+00 0.  1.
</event>
<event>
 7    1  0.2097247E-008  0.4614232E+02  0.7816164E-02  0.1320468E+00
        -11   -1    0    0    0    0  0.00000000000E+00  0.00000000000E+00  0.45593999997E+02  0.45594000000E+02  0.51100000000E-03 0.  1.
         11   -1    0    0    0    0 -0.00000000000E+00 -0.00000000000E+00 -0.45593999997E+02  0.45594000000E+02  0.51100000000E-03 0. -1.
    9900012    2    1    2    0    0 -0.23574230207E+02  0.28092605956E+02  0.26156731451E+02  0.46142318304E+02  0.10000004953E+02 0.  0.
         12    1    1    2    0    0  0.23574230207E+02 -0.28092605956E+02 -0.26156731451E+02  0.45045681696E+02  0.00000000000E+00 0. -1.
         11    1    3    3    0    0 -0.77438036863E+00 -0.40086214061E+00  0.50866123231E-01  0.87346610393E+00  0.51100000000E-03 0. -1.
        -11    1    3    3    0    0 -0.16659185329E+02  0.16608102456E+02  0.15180438227E+02  0.27996485995E+02  0.51100000000E-03 0.  1.
         12    1    3    3    0    0 -0.61406645097E+01  0.11885365640E+02  0.10925427100E+02  0.17272366206E+02  0.00000000000E+00 0. -1.
</event>
<event>
 7    1  0.2097247E-008  0.4614232E+02  0.7816164E-02  0.1320468E+00
        -11   -1    0    0    0    0  0.00000000000E+00  0.00000000000E+00  0.45593999997E+02  0.45594000000E+02  0.51100000000E-03 0.  1.
         11   -1    0    0    0    0 -0.00000000000E+00 -0.00000000000E+00 -0.45593999997E+02  0.45594000000E+02  0.51100000000E-03 0. -1.
    9900012    2    1    2    0    0  0.30762800509E+02  0.10960830765E+02  0.31026177795E+02  0.46142318578E+02  0.10000007450E+02 0.  0.
         12    1    1    2    0    0 -0.30762800509E+02 -0.10960830765E+02 -0.31026177795E+02  0.45045681422E+02  0.00000000000E+00 0. -1.
         11    1    3    3    0    0  0.13476588889E+02  0.61634398273E+01  0.10613351206E+02  0.18227716881E+02  0.51100000000E-03 0. -1.
        -11    1    3    3    0    0  0.15242424777E+02  0.17731810651E+01  0.17219429222E+02  0.23064787603E+02  0.51100000000E-03 0.  1.
        -12    1    3    3    0    0  0.20437868421E+01  0.30242098723E+01  0.31933973668E+01  0.48498140943E+01  0.00000000000E+00 0.  1.
</event>
<event>
 7    1  0.2097247E-008  0.4614232E+02  0.7816164E-02  0.1320468E+00
        -11   -1    0    0    0    0  0.00000000000E+00  0.00000000000E+00  0.45593999997E+02  0.45594000000E+02  0.51100000000E-03 0.  1.
         11   -1    0    0    0    0 -0.00000000000E+00 -0.00000000000E+00 -0.45593999997E+02  0.45594000000E+02  0.51100000000E-03 0. -1.
    9900012    2    1    2    0    0  0.22714000883E+02 -0.34986941500E+00  0.38898138954E+02  0.46142318089E+02  0.10000002988E+02 0.  0.
         12    1    1    2    0    0 -0.22714000883E+02  0.34986941500E+00 -0.38898138954E+02  0.45045681911E+02  0.00000000000E+00 0. -1.
         11    1    3    3    0    0  0.55819426246E+01 -0.22824104377E+01  0.79286134311E+01  0.99614452803E+01  0.51100000000E-03 0. -1.
        -11    1    3    3    0    0  0.13538036695E+02  0.14027430317E+01  0.17164515175E+02  0.21905860107E+02  0.51100000000E-03 0.  1.
        -12    1    3    3    0    0  0.35940215633E+01  0.52979799096E+00  0.13805010348E+02  0.14275012701E+02  0.00000000000E+00 0.  1.
</event>
<event>
 7    1  0.2097247E-008  0.4614232E+02  0.7816164E-02  0.1320468E+00
        -11   -1    0    0    0    0  0.00000000000E+00  0.00000000000E+00  0.45593999997E+02  0.45594000000E+02  0.51100000000E-03 0.  1.
         11   -1    0    0    0    0 -0.00000000000E+00 -0.00000000000E+00 -0.45593999997E+02  0.45594000000E+02  0.51100000000E-03 0. -1.
    9900012    2    1    2    0    0 -0.28063978090E+02 -0.14453673839E+02  0.32134372814E+02  0.46142317967E+02  0.10000001876E+02 0.  0.
         12    1    1    2    0    0  0.28063978090E+02  0.14453673839E+02 -0.32134372814E+02  0.45045682033E+02  0.00000000000E+00 0. -1.
         11    1    3    3    0    0 -0.35354632491E+01 -0.31029340350E+01  0.86547282508E+01  0.98504833063E+01  0.51100000000E-03 0. -1.
        -11    1    3    3    0    0 -0.50977569498E+01  0.30217401160E-01  0.34612779538E+01  0.61618572156E+01  0.51100000000E-03 0.  1.
         12    1    3    3    0    0 -0.19430757891E+02 -0.11380957205E+02  0.20018366610E+02  0.30129977445E+02  0.00000000000E+00 0. -1.
</event>
<event>
 7    1  0.2097247E-008  0.4614232E+02  0.7816164E-02  0.1320468E+00
        -11   -1    0    0    0    0  0.00000000000E+00  0.00000000000E+00  0.45593999997E+02  0.45594000000E+02  0.51100000000E-03 0.  1.
         11   -1    0    0    0    0 -0.00000000000E+00 -0.00000000000E+00 -0.45593999997E+02  0.45594000000E+02  0.51100000000E-03 0. -1.
    9900012    2    1    2    0    0 -0.10580558380E+02  0.72308668677E+01  0.43184254413E+02  0.46142317849E+02  0.10000000800E+02 0.  0.
         12    1    1    2    0    0  0.10580558380E+02 -0.72308668677E+01 -0.43184254413E+02  0.45045682151E+02  0.00000000000E+00 0. -1.
         11    1    3    3    0    0 -0.19138432229E+00  0.50456622226E+01  0.16046815987E+02  0.16822474218E+02  0.51100000000E-03 0. -1.
        -11    1    3    3    0    0 -0.14745815237E+01 -0.78424360868E+00  0.49742755666E+01  0.52471750858E+01  0.51100000000E-03 0.  1.
         12    1    3    3    0    0 -0.89145925341E+01  0.29694482538E+01  0.22163162859E+02  0.24072668545E+02  0.00000000000E+00 0. -1.
</event>
<event>
 7    1  0.2097247E-008  0.4614232E+02  0.7816164E-02  0.1320468E+00
        -11   -1    0    0    0    0  0.00000000000E+00  0.00000000000E+00  0.45593999997E+02  0.45594000000E+02  0.51100000000E-03 0.  1.
         11   -1    0    0    0    0 -0.00000000000E+00 -0.00000000000E+00 -0.45593999997E+02  0.45594000000E+02  0.51100000000E-03 0. -1.
    9900012    2    1    2    0    0  0.32169180679E+02 -0.21710888224E+02  0.22866887649E+02  0.46142318700E+02  0.10000008564E+02 0.  0.
         12    1    1    2    0    0 -0.32169180679E+02  0.21710888224E+02 -0.22866887649E+02  0.45045681300E+02  0.00000000000E+00 0. -1.
         11    1    3    3    0    0  0.15878866428E+02 -0.12048783988E+02  0.66696311241E+01  0.21018933708E+02  0.51100000000E-03 0. -1.
        -11    1    3    3    0    0  0.37765250432E+01 -0.38385720379E+01  0.50367417591E+01  0.73732994311E+01  0.51100000000E-03 0.  1.
         12    1    3    3    0    0  0.12513789207E+02 -0.58235321981E+01  0.11160514766E+02  0.17750085561E+02  0.00000000000E+00 0. -1.
</event>
<event>
 7    1  0.2097247E-008  0.4614232E+02  0.7816164E-02  0.1320468E+00
        -11   -1    0    0    0    0  0.00000000000E+00  0.00000000000E+00  0.45593999997E+02  0.45594000000E+02  0.51100000000E-03 0. -1.
         11   -1    0    0    0    0 -0.00000000000E+00 -0.00000000000E+00 -0.45593999997E+02  0.45594000000E+02  0.51100000000E-03 0.  1.
    9900012    2    1    2    0    0  0.43034604264E+02 -0.18526815465E+01 -0.13179674678E+02  0.46142318545E+02  0.10000007151E+02 0.  0.
         12    1    1    2    0    0 -0.43034604264E+02  0.18526815465E+01  0.13179674678E+02  0.45045681455E+02  0.00000000000E+00 0. -1.
         11    1    3    3    0    0  0.30994567808E+01  0.10900381498E+01 -0.34646626007E+01  0.47747987080E+01  0.51100000000E-03 0. -1.
        -11    1    3    3    0    0  0.29577758738E+01  0.21863113840E+00  0.13972439582E+00  0.29691346992E+01  0.51100000000E-03 0.  1.
         12    1    3    3    0    0  0.36977371610E+02 -0.31613508347E+01 -0.98547364736E+01  0.38398385138E+02  0.00000000000E+00 0. -1.
</event>
<event>
 7    1  0.2097247E-008  0.4614232E+02  0.7816164E-02  0.1320468E+00
        -11   -1    0    0    0    0  0.00000000000E+00  0.00000000000E+00  0.45593999997E+02  0.45594000000E+02  0.51100000000E-03 0.  1.
         11   -1    0    0    0    0 -0.00000000000E+00 -0.00000000000E+00 -0.45593999997E+02  0.45594000000E+02  0.51100000000E-03 0. -1.
    9900012    2    1    2    0    0 -0.34905602831E+02 -0.24160920130E+02  0.15065269081E+02  0.46142317598E+02  0.99999985168E+01 0.  0.
         12    1    1    2    0    0  0.34905602831E+02  0.24160920130E+02 -0.15065269081E+02  0.45045682402E+02  0.00000000000E+00 0. -1.
         11    1    3    3    0    0 -0.90869086592E+00 -0.35781542967E+00 -0.21081935343E+00  0.99909760905E+00  0.51100000000E-03 0. -1.
        -11    1    3    3    0    0 -0.27653620902E+02 -0.15655900480E+02  0.88720583479E+01  0.32993080918E+02  0.51100000000E-03 0.  1.
        -12    1    3    3    0    0 -0.63432910631E+01 -0.81472042197E+01  0.64040300865E+01  0.12150139072E+02  0.00000000000E+00 0.  1.
</event>
<event>
 7    1  0.2097247E-008  0.4614232E+02  0.7816164E-02  0.1320468E+00
        -11   -1    0    0    0    0  0.00000000000E+00  0.00000000000E+00  0.45593999997E+02  0.45594000000E+02  0.51100000000E-03 0.  1.
         11   -1    0    0    0    0 -0.00000000000E+00 -0.00000000000E+00 -0.45593999997E+02  0.45594000000E+02  0.51100000000E-03 0. -1.
    9900012    2    1    2    0    0  0.20815793754E+02 -0.26790361659E+02  0.29632622766E+02  0.46142322301E+02  0.10000041397E+02 0.  0.
         12    1    1    2    0    0 -0.20815793754E+02  0.26790361659E+02 -0.29632622766E+02  0.45045677699E+02  0.00000000000E+00 0. -1.
         11    1    3    3    0    0  0.40111177893E+01 -0.62582147269E+01  0.66749049686E+01  0.99904291243E+01  0.51100000000E-03 0.  1.
        -11    1    3    3    0    0  0.10301666824E+02 -0.18354958308E+02  0.17906566380E+02  0.27634651321E+02  0.51100000000E-03 0. -1.
         12    1    3    3    0    0  0.65030091408E+01 -0.21771886235E+01  0.50511514172E+01  0.85172418556E+01  0.00000000000E+00 0. -1.
</event>
<event>
 7    1  0.2097247E-008  0.4614232E+02  0.7816164E-02  0.1320468E+00
        -11   -1    0    0    0    0  0.00000000000E+00  0.00000000000E+00  0.45593999997E+02  0.45594000000E+02  0.51100000000E-03 0.  1.
         11   -1    0    0    0    0 -0.00000000000E+00 -0.00000000000E+00 -0.45593999997E+02  0.45594000000E+02  0.51100000000E-03 0. -1.
    9900012    2    1    2    0    0 -0.38208145857E+02 -0.11799231760E+02  0.20737144555E+02  0.46142318250E+02  0.10000004462E+02 0.  0.
         12    1    1    2    0    0  0.38208145857E+02  0.11799231760E+02 -0.20737144555E+02  0.45045681750E+02  0.00000000000E+00 0. -1.
         11    1    3    3    0    0 -0.49958126100E+01 -0.30086447765E+01  0.33752258172E+01  0.67381181797E+01  0.51100000000E-03 0. -1.
        -11    1    3    3    0    0 -0.29114038761E+02 -0.10447238476E+02  0.15631409960E+02  0.34657077522E+02  0.51100000000E-03 0.  1.
        -12    1    3    3    0    0 -0.40982944864E+01  0.16566514924E+01  0.17305087780E+01  0.47471225490E+01  0.00000000000E+00 0.  1.
</event>
<event>
 7    1  0.2097247E-008  0.4614232E+02  0.7816164E-02  0.1320468E+00
        -11   -1    0    0    0    0  0.00000000000E+00  0.00000000000E+00  0.45593999997E+02  0.45594000000E+02  0.51100000000E-03 0. -1.
         11   -1    0    0    0    0 -0.00000000000E+00 -0.00000000000E+00 -0.45593999997E+02  0.45594000000E+02  0.51100000000E-03 0.  1.
    9900012    2    1    2    0    0 -0.11734158291E+02 -0.42958539331E+02 -0.67813479377E+01  0.46142320384E+02  0.10000023918E+02 0.  0.
         12    1    1    2    0    0  0.11734158291E+02  0.42958539331E+02  0.67813479377E+01  0.45045679616E+02  0.00000000000E+00 0. -1.
         11    1    3    3    0    0  0.90357971581E+00 -0.11739253420E+02 -0.25057128966E+01  0.12037654445E+02  0.51100000000E-03 0. -1.
        -11    1    3    3    0    0 -0.59875850004E+01 -0.18673717777E+02 -0.18162727974E+01  0.19694104623E+02  0.51100000000E-03 0.  1.
         12    1    3    3    0    0 -0.66501530064E+01 -0.12545568134E+02 -0.24593622438E+01  0.14410561316E+02  0.00000000000E+00 0. -1.
</event>
<event>
 7    1  0.2097247E-008  0.4614232E+02  0.7816164E-02  0.1320468E+00
        -11   -1    0    0    0    0  0.00000000000E+00  0.00000000000E+00  0.45593999997E+02  0.45594000000E+02  0.51100000000E-03 0.  1.
         11   -1    0    0    0    0 -0.00000000000E+00 -0.00000000000E+00 -0.45593999997E+02  0.45594000000E+02  0.51100000000E-03 0. -1.
    9900012    2    1    2    0    0 -0.28309419241E+02  0.29205248059E+02  0.19358304972E+02  0.46142315375E+02  0.99999782445E+01 0.  0.
         12    1    1    2    0    0  0.28309419241E+02 -0.29205248059E+02 -0.19358304972E+02  0.45045684625E+02  0.00000000000E+00 0. -1.
         11    1    3    3    0    0 -0.11105723922E+02  0.16243535169E+02  0.98387878574E+01  0.21999801939E+02  0.51100000000E-03 0.  1.
        -11    1    3    3    0    0 -0.53386246785E+00  0.13063493490E+01 -0.46214111453E+00  0.14849688304E+01  0.51100000000E-03 0. -1.
        -12    1    3    3    0    0 -0.16669832851E+02  0.11655363541E+02  0.99816582290E+01  0.22657544606E+02  0.00000000000E+00 0.  1.
</event>
<event>
 7    1  0.2097247E-008  0.4614232E+02  0.7816164E-02  0.1320468E+00
        -11   -1    0    0    0    0  0.00000000000E+00  0.00000000000E+00  0.45593999997E+02  0.45594000000E+02  0.51100000000E-03 0. -1.
         11   -1    0    0    0    0 -0.00000000000E+00 -0.00000000000E+00 -0.45593999997E+02  0.45594000000E+02  0.51100000000E-03 0.  1.
    9900012    2    1    2    0    0  0.14224195708E+02 -0.28727233695E+02 -0.31646987535E+02  0.46142317417E+02  0.99999968659E+01 0.  0.
         12    1    1    2    0    0 -0.14224195708E+02  0.28727233695E+02  0.31646987535E+02  0.45045682583E+02  0.00000000000E+00 0. -1.
         11    1    3    3    0    0  0.55397259630E+01 -0.15138283175E+02 -0.10817152720E+02  0.19413061955E+02  0.51100000000E-03 0. -1.
        -11    1    3    3    0    0  0.28591347623E+00 -0.14026675984E+01 -0.37170516874E+00  0.14789820489E+01  0.51100000000E-03 0.  1.
        -12    1    3    3    0    0  0.83985562691E+01 -0.12186282921E+02 -0.20458129646E+02  0.25250273413E+02  0.00000000000E+00 0.  1.
</event>
<event>
 7    1  0.2097247E-008  0.4614232E+02  0.7816164E-02  0.1320468E+00
        -11   -1    0    0    0    0  0.00000000000E+00  0.00000000000E+00  0.45593999997E+02  0.45594000000E+02  0.51100000000E-03 0.  1.
         11   -1    0    0    0    0 -0.00000000000E+00 -0.00000000000E+00 -0.45593999997E+02  0.45594000000E+02  0.51100000000E-03 0. -1.
    9900012    2    1    2    0    0 -0.26849554460E+02 -0.11067365845E+02  0.34434408206E+02  0.46142316190E+02  0.99999856719E+01 0.  0.
         12    1    1    2    0    0  0.26849554460E+02  0.11067365845E+02 -0.34434408206E+02  0.45045683810E+02  0.00000000000E+00 0. -1.
         11    1    3    3    0    0  0.58214920689E+00 -0.84656670869E+00  0.27180154580E+00  0.10627554906E+01  0.51100000000E-03 0. -1.
        -11    1    3    3    0    0 -0.14522595787E+02 -0.57977685578E+01  0.20339388749E+02  0.25655616219E+02  0.51100000000E-03 0.  1.
         12    1    3    3    0    0 -0.12909107880E+02 -0.44230305783E+01  0.13823217911E+02  0.19423944480E+02  0.00000000000E+00 0. -1.
</event>
<event>
 7    1  0.2097247E-008  0.4614232E+02  0.7816164E-02  0.1320468E+00
        -11   -1    0    0    0    0  0.00000000000E+00  0.00000000000E+00  0.45593999997E+02  0.45594000000E+02  0.51100000000E-03 0.  1.
         11   -1    0    0    0    0 -0.00000000000E+00 -0.00000000000E+00 -0.45593999997E+02  0.45594000000E+02  0.51100000000E-03 0. -1.
    9900012    2    1    2    0    0  0.23824204680E+01 -0.16343316527E+02  0.41908632833E+02  0.46142318428E+02  0.10000006083E+02 0.  0.
         12    1    1    2    0    0 -0.23824204680E+01  0.16343316527E+02 -0.41908632833E+02  0.45045681572E+02  0.00000000000E+00 0. -1.
         11    1    3    3    0    0  0.19767800123E+01 -0.14263208041E+02  0.25838856397E+02  0.29580285039E+02  0.51100000000E-03 0. -1.
        -11    1    3    3    0    0 -0.18562333325E+00  0.81363027979E+00  0.63157490096E+01  0.63706464403E+01  0.51100000000E-03 0.  1.
        -12    1    3    3    0    0  0.59126378895E+00 -0.28937387656E+01  0.97540274260E+01  0.10191386949E+02  0.00000000000E+00 0.  1.
</event>
<event>
 7    1  0.2097247E-008  0.4614232E+02  0.7816164E-02  0.1320468E+00
        -11   -1    0    0    0    0  0.00000000000E+00  0.00000000000E+00  0.45593999997E+02  0.45594000000E+02  0.51100000000E-03 0. -1.
         11   -1    0    0    0    0 -0.00000000000E+00 -0.00000000000E+00 -0.45593999997E+02  0.45594000000E+02  0.51100000000E-03 0.  1.
    9900012    2    1    2    0    0  0.14241512270E+02  0.41336264198E+02 -0.10844633611E+02  0.46142317769E+02  0.10000000068E+02 0.  0.
         12    1    1    2    0    0 -0.14241512270E+02 -0.41336264198E+02  0.10844633611E+02  0.45045682231E+02  0.00000000000E+00 0. -1.
         11    1    3    3    0    0  0.92036547265E+01  0.34877699665E+02 -0.97369330629E+01  0.37362669337E+02  0.51100000000E-03 0. -1.
        -11    1    3    3    0    0  0.42839680062E+01  0.66069998926E+01 -0.68846612665E+00  0.79043542005E+01  0.51100000000E-03 0.  1.
         12    1    3    3    0    0  0.75388953690E+00 -0.14843536042E+00 -0.41923442143E+00  0.87529423063E+00  0.00000000000E+00 0. -1.
</event>
<event>
 7    1  0.2097247E-008  0.4614232E+02  0.7816164E-02  0.1320468E+00
        -11   -1    0    0    0    0  0.00000000000E+00  0.00000000000E+00  0.45593999997E+02  0.45594000000E+02  0.51100000000E-03 0.  1.
         11   -1    0    0    0    0 -0.00000000000E+00 -0.00000000000E+00 -0.45593999997E+02  0.45594000000E+02  0.51100000000E-03 0. -1.
    9900012    2    1    2    0    0 -0.74089156120E+01 -0.24202652718E+02  0.37261949636E+02  0.46142319633E+02  0.10000017066E+02 0.  0.
         12    1    1    2    0    0  0.74089156120E+01  0.24202652718E+02 -0.37261949636E+02  0.45045680367E+02  0.00000000000E+00 0. -1.
         11    1    3    3    0    0 -0.32547951760E+01 -0.45464626276E+01  0.37962258093E+01  0.67583536988E+01  0.51100000000E-03 0. -1.
        -11    1    3    3    0    0 -0.14389939865E+01 -0.18148984886E+01  0.68153320940E+01  0.71981464302E+01  0.51100000000E-03 0.  1.
        -12    1    3    3    0    0 -0.27151264495E+01 -0.17841291601E+02  0.26650391732E+02  0.32185819504E+02  0.00000000000E+00 0.  1.
</event>
<event>
 7    1  0.2097247E-008  0.4614232E+02  0.7816164E-02  0.1320468E+00
        -11   -1    0    0    0    0  0.00000000000E+00  0.00000000000E+00  0.45593999997E+02  0.45594000000E+02  0.51100000000E-03 0.  1.
         11   -1    0    0    0    0 -0.00000000000E+00 -0.00000000000E+00 -0.45593999997E+02  0.45594000000E+02  0.51100000000E-03 0. -1.
    9900012    2    1    2    0    0 -0.13402539593E+02  0.42581761900E+02  0.60231981119E+01  0.46142318414E+02  0.10000005957E+02 0.  0.
         12    1    1    2    0    0  0.13402539593E+02 -0.42581761900E+02 -0.60231981119E+01  0.45045681586E+02  0.00000000000E+00 0. -1.
         11    1    3    3    0    0 -0.93688395186E+01  0.27243201806E+02  0.17113729489E+01  0.28859937564E+02  0.51100000000E-03 0. -1.
        -11    1    3    3    0    0 -0.14886362676E+01  0.28809647402E+01 -0.11545177598E+01  0.34422241778E+01  0.51100000000E-03 0.  1.
        -12    1    3    3    0    0 -0.25450638067E+01  0.12457595353E+02  0.54663429227E+01  0.13840156672E+02  0.00000000000E+00 0.  1.
</event>
<event>
 7    1  0.2097247E-008  0.4614231E+02  0.7816164E-02  0.1320468E+00
        -11   -1    0    0    0    0  0.00000000000E+00  0.00000000000E+00  0.45593999997E+02  0.45594000000E+02  0.51100000000E-03 0. -1.
         11   -1    0    0    0    0 -0.00000000000E+00 -0.00000000000E+00 -0.45593999997E+02  0.45594000000E+02  0.51100000000E-03 0.  1.
    9900012    2    1    2    0    0 -0.29950383700E+02 -0.21494369906E+02 -0.25885910852E+02  0.46142314279E+02  0.99999682455E+01 0.  0.
         12    1    1    2    0    0  0.29950383700E+02  0.21494369906E+02  0.25885910852E+02  0.45045685721E+02  0.00000000000E+00 0. -1.
         11    1    3    3    0    0 -0.31828261676E+01 -0.13438874611E+01 -0.66496183447E+01  0.74935866121E+01  0.51100000000E-03 0. -1.
        -11    1    3    3    0    0 -0.11540782532E+02 -0.89500547277E+01 -0.78233892888E+01  0.16567998108E+02  0.51100000000E-03 0.  1.
         12    1    3    3    0    0 -0.15226775001E+02 -0.11200427717E+02 -0.11412903218E+02  0.22080729559E+02  0.00000000000E+00 0. -1.
</event>
<event>
 7    1  0.2097247E-008  0.4614232E+02  0.7816164E-02  0.1320468E+00
        -11   -1    0    0    0    0  0.00000000000E+00  0.00000000000E+00  0.45593999997E+02  0.45594000000E+02  0.51100000000E-03 0.  1.
         11   -1    0    0    0    0 -0.00000000000E+00 -0.00000000000E+00 -0.45593999997E+02  0.45594000000E+02  0.51100000000E-03 0. -1.
    9900012    2    1    2    0    0  0.14347051097E+02  0.40512848972E+02 -0.13490172903E+02  0.46142316833E+02  0.99999915373E+01 0.  0.
         12    1    1    2    0    0 -0.14347051097E+02 -0.40512848972E+02  0.13490172903E+02  0.45045683167E+02  0.00000000000E+00 0. -1.
         11    1    3    3    0    0  0.28427394603E+01  0.70758656183E+01 -0.14194628173E+01  0.77565402621E+01  0.51100000000E-03 0. -1.
        -11    1    3    3    0    0  0.56566918202E+01  0.26974388466E+02 -0.75961436072E+01  0.28588759914E+02  0.51100000000E-03 0.  1.
         12    1    3    3    0    0  0.58476198163E+01  0.64625948878E+01 -0.44745664789E+01  0.97970166568E+01  0.00000000000E+00 0. -1.
</event>
<event>
 7    1  0.2097247E-008  0.4614232E+02  0.7816164E-02  0.1320468E+00
        -11   -1    0    0    0    0  0.00000000000E+00  0.00000000000E+00  0.45593999997E+02  0.45594000000E+02  0.51100000000E-03 0.  1.
         11   -1    0    0    0    0 -0.00000000000E+00 -0.00000000000E+00 -0.45593999997E+02  0.45594000000E+02  0.51100000000E-03 0. -1.
    9900012    2    1    2    0    0 -0.29549366555E+02  0.25225862843E+01  0.33905530495E+02  0.46142317593E+02  0.99999984699E+01 0.  0.
         12    1    1    2    0    0  0.29549366555E+02 -0.25225862843E+01 -0.33905530495E+02  0.45045682407E+02  0.00000000000E+00 0. -1.
         11    1    3    3    0    0 -0.84091432290E+01  0.18548880190E+01  0.46483461528E+01  0.97857764958E+01  0.51100000000E-03 0. -1.
        -11    1    3    3    0    0 -0.16827000420E+02 -0.12140255909E+01  0.22511844986E+02  0.28131920770E+02  0.51100000000E-03 0.  1.
        -12    1    3    3    0    0 -0.43132229062E+01  0.18817238562E+01  0.67453393558E+01  0.82246203277E+01  0.00000000000E+00 0.  1.
</event>
<event>
 7    1  0.2097247E-008  0.4614232E+02  0.7816164E-02  0.1320468E+00
        -11   -1    0    0    0    0  0.00000000000E+00  0.00000000000E+00  0.45593999997E+02  0.45594000000E+02  0.51100000000E-03 0.  1.
         11   -1    0    0    0    0 -0.00000000000E+00 -0.00000000000E+00 -0.45593999997E+02  0.45594000000E+02  0.51100000000E-03 0. -1.
    9900012    2    1    2    0    0 -0.11214748258E+01 -0.16435750786E+02  0.41925194482E+02  0.46142317165E+02  0.99999945667E+01 0.  0.
         12    1    1    2    0    0  0.11214748258E+01  0.16435750786E+02 -0.41925194482E+02  0.45045682835E+02  0.00000000000E+00 0. -1.
         11    1    3    3    0    0 -0.18341094712E+01 -0.25728580616E+01  0.25200779827E+01  0.40415775951E+01  0.51100000000E-03 0. -1.
        -11    1    3    3    0    0 -0.12744482346E+01 -0.28344875963E+01  0.13887422427E+02  0.14230918458E+02  0.51100000000E-03 0.  1.
        -12    1    3    3    0    0  0.19870828800E+01 -0.11028405128E+02  0.25517694072E+02  0.27869821112E+02  0.00000000000E+00 0.  1.
</event>
<event>
 7    1  0.2097247E-008  0.4614232E+02  0.7816164E-02  0.1320468E+00
        -11   -1    0    0    0    0  0.00000000000E+00  0.00000000000E+00  0.45593999997E+02  0.45594000000E+02  0.51100000000E-03 0.  1.
         11   -1    0    0    0    0 -0.00000000000E+00 -0.00000000000E+00 -0.45593999997E+02  0.45594000000E+02  0.51100000000E-03 0. -1.
    9900012    2    1    2    0    0 -0.18972620118E+02 -0.38079873140E+02  0.14801230318E+02  0.46142317948E+02  0.10000001709E+02 0.  0.
         12    1    1    2    0    0  0.18972620118E+02  0.38079873140E+02 -0.14801230318E+02  0.45045682052E+02  0.00000000000E+00 0. -1.
         11    1    3    3    0    0 -0.10407326631E+02 -0.18249605004E+02  0.49894858344E+01  0.21592950229E+02  0.51100000000E-03 0.  1.
        -11    1    3    3    0    0  0.65164938562E+00 -0.24668532577E+01 -0.59268557778E-01  0.25521608374E+01  0.51100000000E-03 0. -1.
        -12    1    3    3    0    0 -0.92169428728E+01 -0.17363414878E+02  0.98710130417E+01  0.21997206882E+02  0.00000000000E+00 0.  1.
</event>
<event>
 7    1  0.2097247E-008  0.4614232E+02  0.7816164E-02  0.1320468E+00
        -11   -1    0    0    0    0  0.00000000000E+00  0.00000000000E+00  0.45593999997E+02  0.45594000000E+02  0.51100000000E-03 0. -1.
         11   -1    0    0    0    0 -0.00000000000E+00 -0.00000000000E+00 -0.45593999997E+02  0.45594000000E+02  0.51100000000E-03 0.  1.
    9900012    2    1    2    0    0  0.42438523951E+02 -0.14966383686E+02 -0.20230111014E+01  0.46142317303E+02  0.99999958200E+01 0.  0.
         12    1    1    2    0    0 -0.42438523951E+02  0.14966383686E+02  0.20230111014E+01  0.45045682697E+02  0.00000000000E+00 0. -1.
         11    1    3    3    0    0  0.15305060127E+02 -0.46037574267E+01 -0.51818517094E+01  0.16801518840E+02  0.51100000000E-03 0.  1.
        -11    1    3    3    0    0  0.34788065623E+01 -0.19070743133E+01 -0.32199531692E+00  0.39802900371E+01  0.51100000000E-03 0. -1.
        -12    1    3    3    0    0  0.23654657261E+02 -0.84555519459E+01  0.34808359249E+01  0.25360508425E+02  0.00000000000E+00 0.  1.
</event>
<event>
 7    1  0.2097247E-008  0.4614232E+02  0.7816164E-02  0.1320468E+00
        -11   -1    0    0    0    0  0.00000000000E+00  0.00000000000E+00  0.45593999997E+02  0.45594000000E+02  0.51100000000E-03 0.  1.
         11   -1    0    0    0    0 -0.00000000000E+00 -0.00000000000E+00 -0.45593999997E+02  0.45594000000E+02  0.51100000000E-03 0. -1.
    9900012    2    1    2    0    0  0.23604867708E+02  0.38242385775E+02 -0.30730492191E+01  0.46142317845E+02  0.10000000769E+02 0.  0.
         12    1    1    2    0    0 -0.23604867708E+02 -0.38242385775E+02  0.30730492191E+01  0.45045682155E+02  0.00000000000E+00 0. -1.
         11    1    3    3    0    0  0.25899994099E+01  0.53176078920E+01 -0.11708869879E+01  0.60295959430E+01  0.51100000000E-03 0. -1.
        -11    1    3    3    0    0 -0.88007042257E+00  0.18944377875E+01 -0.17592557645E+00  0.20962749220E+01  0.51100000000E-03 0.  1.
        -12    1    3    3    0    0  0.21894938721E+02  0.31030340095E+02 -0.17262366548E+01  0.38016446980E+02  0.00000000000E+00 0.  1.
</event>
<event>
 7    1  0.2097247E-008  0.4614232E+02  0.7816164E-02  0.1320468E+00
        -11   -1    0    0    0    0  0.00000000000E+00  0.00000000000E+00  0.45593999997E+02  0.45594000000E+02  0.51100000000E-03 0. -1.
         11   -1    0    0    0    0 -0.00000000000E+00 -0.00000000000E+00 -0.45593999997E+02  0.45594000000E+02  0.51100000000E-03 0.  1.
    9900012    2    1    2    0    0 -0.35790425765E+01 -0.41383861774E+02 -0.17426413631E+02  0.46142318153E+02  0.10000003569E+02 0.  0.
         12    1    1    2    0    0  0.35790425765E+01  0.41383861774E+02  0.17426413631E+02  0.45045681847E+02  0.00000000000E+00 0. -1.
         11    1    3    3    0    0 -0.11810923019E+01 -0.88011909998E+01 -0.17276053862E+01  0.90465774010E+01  0.51100000000E-03 0. -1.
        -11    1    3    3    0    0  0.94668950958E+00 -0.26759809836E+02 -0.11269528545E+02  0.29051435720E+02  0.51100000000E-03 0.  1.
        -12    1    3    3    0    0 -0.33446397841E+01 -0.58228609380E+01 -0.44292796997E+01  0.80443050320E+01  0.00000000000E+00 0.  1.
</event>
<event>
 7    1  0.2097247E-008  0.4614232E+02  0.7816164E-02  0.1320468E+00
        -11   -1    0    0    0    0  0.00000000000E+00  0.00000000000E+00  0.45593999997E+02  0.45594000000E+02  0.51100000000E-03 0.  1.
         11   -1    0    0    0    0 -0.00000000000E+00 -0.00000000000E+00 -0.45593999997E+02  0.45594000000E+02  0.51100000000E-03 0. -1.
    9900012    2    1    2    0    0 -0.20647183108E+02 -0.37677953419E+02 -0.13534369225E+02  0.46142317693E+02  0.99999993813E+01 0.  0.
         12    1    1    2    0    0  0.20647183108E+02  0.37677953419E+02  0.13534369225E+02  0.45045682307E+02  0.00000000000E+00 0. -1.
         11    1    3    3    0    0 -0.93643162550E+01 -0.23395770623E+02 -0.63277544660E+01  0.25982551430E+02  0.51100000000E-03 0.  1.
        -11    1    3    3    0    0 -0.62299583896E-01 -0.26987893946E+01 -0.11160329195E+01  0.29211085521E+01  0.51100000000E-03 0. -1.
        -12    1    3    3    0    0 -0.11220567270E+02 -0.11583393402E+02 -0.60905818396E+01  0.17238657712E+02  0.00000000000E+00 0.  1.
</event>
<event>
 7    1  0.2097247E-008  0.4614232E+02  0.7816164E-02  0.1320468E+00
        -11   -1    0    0    0    0  0.00000000000E+00  0.00000000000E+00  0.45593999997E+02  0.45594000000E+02  0.51100000000E-03 0.  1.
         11   -1    0    0    0    0 -0.00000000000E+00 -0.00000000000E+00 -0.45593999997E+02  0.45594000000E+02  0.51100000000E-03 0. -1.
    9900012    2    1    2    0    0  0.16921313821E+02 -0.41072897108E+02  0.74699095950E+01  0.46142319990E+02  0.10000020322E+02 0.  0.
         12    1    1    2    0    0 -0.16921313821E+02  0.41072897108E+02 -0.74699095950E+01  0.45045680010E+02  0.00000000000E+00 0. -1.
         11    1    3    3    0    0  0.28013818078E+01 -0.24940393679E+01 -0.95610717413E+00  0.38706735320E+01  0.51100000000E-03 0. -1.
        -11    1    3    3    0    0  0.64158781787E+01 -0.23674916656E+02  0.65594053501E+01  0.25390765453E+02  0.51100000000E-03 0.  1.
        -12    1    3    3    0    0  0.77040538342E+01 -0.14903941084E+02  0.18666114190E+01  0.16880881005E+02  0.00000000000E+00 0.  1.
</event>
<event>
 7    1  0.2097247E-008  0.4614232E+02  0.7816164E-02  0.1320468E+00
        -11   -1    0    0    0    0  0.00000000000E+00  0.00000000000E+00  0.45593999997E+02  0.45594000000E+02  0.51100000000E-03 0.  1.
         11   -1    0    0    0    0 -0.00000000000E+00 -0.00000000000E+00 -0.45593999997E+02  0.45594000000E+02  0.51100000000E-03 0. -1.
    9900012    2    1    2    0    0  0.34858236797E+02  0.15902247043E+02  0.23688293157E+02  0.46142319116E+02  0.10000012355E+02 0.  0.
         12    1    1    2    0    0 -0.34858236797E+02 -0.15902247043E+02 -0.23688293157E+02  0.45045680884E+02  0.00000000000E+00 0. -1.
         11    1    3    3    0    0  0.21429845905E+02  0.82808783717E+01  0.15948308033E+02  0.27967119471E+02  0.51100000000E-03 0. -1.
        -11    1    3    3    0    0  0.98220546210E+01  0.50495220351E+01  0.81517193638E+01  0.13726651398E+02  0.51100000000E-03 0.  1.
         12    1    3    3    0    0  0.36063362708E+01  0.25718466360E+01 -0.41173424023E+00  0.44485482466E+01  0.00000000000E+00 0. -1.
</event>
<event>
 7    1  0.2097247E-008  0.4614232E+02  0.7816164E-02  0.1320468E+00
        -11   -1    0    0    0    0  0.00000000000E+00  0.00000000000E+00  0.45593999997E+02  0.45594000000E+02  0.51100000000E-03 0.  1.
         11   -1    0    0    0    0 -0.00000000000E+00 -0.00000000000E+00 -0.45593999997E+02  0.45594000000E+02  0.51100000000E-03 0. -1.
    9900012    2    1    2    0    0  0.10853450088E+02 -0.19461701853E+02  0.39147902277E+02  0.46142317959E+02  0.10000001809E+02 0.  0.
         12    1    1    2    0    0 -0.10853450088E+02  0.19461701853E+02 -0.39147902277E+02  0.45045682041E+02  0.00000000000E+00 0. -1.
         11    1    3    3    0    0  0.17180211318E-01 -0.43145253204E+01  0.11508111054E+02  0.12290323193E+02  0.51100000000E-03 0. -1.
        -11    1    3    3    0    0  0.95210580302E+00  0.19668933548E+00  0.32291194076E+01  0.33722995959E+01  0.51100000000E-03 0.  1.
        -12    1    3    3    0    0  0.98841640741E+01 -0.15343865868E+02  0.24410671815E+02  0.30479695170E+02  0.00000000000E+00 0.  1.
</event>
<event>
 7    1  0.2097247E-008  0.4614232E+02  0.7816164E-02  0.1320468E+00
        -11   -1    0    0    0    0  0.00000000000E+00  0.00000000000E+00  0.45593999997E+02  0.45594000000E+02  0.51100000000E-03 0.  1.
         11   -1    0    0    0    0 -0.00000000000E+00 -0.00000000000E+00 -0.45593999997E+02  0.45594000000E+02  0.51100000000E-03 0. -1.
    9900012    2    1    2    0    0 -0.42628456952E+02  0.14140258821E+02  0.34613680029E+01  0.46142319518E+02  0.10000016024E+02 0.  0.
         12    1    1    2    0    0  0.42628456952E+02 -0.14140258821E+02 -0.34613680029E+01  0.45045680482E+02  0.00000000000E+00 0. -1.
         11    1    3    3    0    0 -0.98485299784E+01 -0.42725730975E+00  0.73771924633E+00  0.98853589460E+01  0.51100000000E-03 0.  1.
        -11    1    3    3    0    0 -0.18338359025E+02  0.68109018865E+01 -0.41349625243E+00  0.19566675130E+02  0.51100000000E-03 0. -1.
        -12    1    3    3    0    0 -0.14441567949E+02  0.77566142438E+01  0.31371450090E+01  0.16690285443E+02  0.00000000000E+00 0.  1.
</event>
<event>
 7    1  0.2097247E-008  0.4614232E+02  0.7816164E-02  0.1320468E+00
        -11   -1    0    0    0    0  0.00000000000E+00  0.00000000000E+00  0.45593999997E+02  0.45594000000E+02  0.51100000000E-03 0. -1.
         11   -1    0    0    0    0 -0.00000000000E+00 -0.00000000000E+00 -0.45593999997E+02  0.45594000000E+02  0.51100000000E-03 0.  1.
    9900012    2    1    2    0    0 -0.44006677837E+02  0.51716621298E+01  0.81104446861E+01  0.46142322112E+02  0.10000039673E+02 0.  0.
         12    1    1    2    0    0  0.44006677837E+02 -0.51716621298E+01 -0.81104446861E+01  0.45045677888E+02  0.00000000000E+00 0. -1.
         11    1    3    3    0    0 -0.44105728769E+01  0.93861852762E+00 -0.14211600189E+01  0.47279862419E+01  0.51100000000E-03 0. -1.
        -11    1    3    3    0    0 -0.13716044127E+02  0.30616908252E+01  0.59504098402E+01  0.15261428332E+02  0.51100000000E-03 0.  1.
         12    1    3    3    0    0 -0.25880060832E+02  0.11713527770E+01  0.35811948647E+01  0.26152907538E+02  0.00000000000E+00 0. -1.
</event>
<event>
 7    1  0.2097247E-008  0.4614232E+02  0.7816164E-02  0.1320468E+00
        -11   -1    0    0    0    0  0.00000000000E+00  0.00000000000E+00  0.45593999997E+02  0.45594000000E+02  0.51100000000E-03 0.  1.
         11   -1    0    0    0    0 -0.00000000000E+00 -0.00000000000E+00 -0.45593999997E+02  0.45594000000E+02  0.51100000000E-03 0. -1.
    9900012    2    1    2    0    0  0.14029940997E+02 -0.42690484896E+02 -0.31299100234E+01  0.46142322274E+02  0.10000041148E+02 0.  0.
         12    1    1    2    0    0 -0.14029940997E+02  0.42690484896E+02  0.31299100234E+01  0.45045677726E+02  0.00000000000E+00 0. -1.
         11    1    3    3    0    0  0.47590286582E+00  0.36322276179E-01 -0.10153123166E+01  0.11219011573E+01  0.51100000000E-03 0. -1.
        -11    1    3    3    0    0  0.86819554604E+01 -0.21411449215E+02 -0.93881100999E+00  0.23123751307E+02  0.51100000000E-03 0.  1.
         12    1    3    3    0    0  0.48720826712E+01 -0.21315357957E+02 -0.11757866969E+01  0.21896669810E+02  0.00000000000E+00 0. -1.
</event>
<event>
 7    1  0.2097247E-008  0.4614232E+02  0.7816164E-02  0.1320468E+00
        -11   -1    0    0    0    0  0.00000000000E+00  0.00000000000E+00  0.45593999997E+02  0.45594000000E+02  0.51100000000E-03 0.  1.
         11   -1    0    0    0    0 -0.00000000000E+00 -0.00000000000E+00 -0.45593999997E+02  0.45594000000E+02  0.51100000000E-03 0. -1.
    9900012    2    1    2    0    0  0.28363614796E+02  0.33637727446E+02  0.96499917901E+01  0.46142315483E+02  0.99999792292E+01 0.  0.
         12    1    1    2    0    0 -0.28363614796E+02 -0.33637727446E+02 -0.96499917901E+01  0.45045684517E+02  0.00000000000E+00 0. -1.
         11    1    3    3    0    0  0.81634044116E+01  0.94634689424E+01  0.25901085658E+00  0.12500620100E+02  0.51100000000E-03 0. -1.
        -11    1    3    3    0    0  0.19987528887E+02  0.22285055947E+02  0.72938975664E+01  0.30811133890E+02  0.51100000000E-03 0.  1.
        -12    1    3    3    0    0  0.21268149702E+00  0.18892025565E+01  0.20970833671E+01  0.28305614933E+01  0.00000000000E+00 0.  1.
</event>
<event>
 7    1  0.2097247E-008  0.4614232E+02  0.7816164E-02  0.1320468E+00
        -11   -1    0    0    0    0  0.00000000000E+00  0.00000000000E+00  0.45593999997E+02  0.45594000000E+02  0.51100000000E-03 0. -1.
         11   -1    0    0    0    0 -0.00000000000E+00 -0.00000000000E+00 -0.45593999997E+02  0.45594000000E+02  0.51100000000E-03 0.  1.
    9900012    2    1    2    0    0  0.20394853666E+02 -0.39972498272E+02 -0.39195357391E+01  0.46142318358E+02  0.10000005444E+02 0.  0.
         12    1    1    2    0    0 -0.20394853666E+02  0.39972498272E+02  0.39195357391E+01  0.45045681642E+02  0.00000000000E+00 0. -1.
         11    1    3    3    0    0  0.62443143120E+01 -0.74369556963E+01 -0.43097663992E+01  0.10624210932E+02  0.51100000000E-03 0. -1.
        -11    1    3    3    0    0  0.33744081588E+01 -0.95793957611E+01  0.12091618326E+00  0.10157070176E+02  0.51100000000E-03 0.  1.
        -12    1    3    3    0    0  0.10776131195E+02 -0.22956146815E+02  0.26931447685E+00  0.25361037250E+02  0.00000000000E+00 0.  1.
</event>
<event>
 7    1  0.2097247E-008  0.4614232E+02  0.7816164E-02  0.1320468E+00
        -11   -1    0    0    0    0  0.00000000000E+00  0.00000000000E+00  0.45593999997E+02  0.45594000000E+02  0.51100000000E-03 0.  1.
         11   -1    0    0    0    0 -0.00000000000E+00 -0.00000000000E+00 -0.45593999997E+02  0.45594000000E+02  0.51100000000E-03 0. -1.
    9900012    2    1    2    0    0  0.20573061876E+02 -0.28754569978E+02  0.27911239809E+02  0.46142317884E+02  0.10000001123E+02 0.  0.
         12    1    1    2    0    0 -0.20573061876E+02  0.28754569978E+02 -0.27911239809E+02  0.45045682116E+02  0.00000000000E+00 0. -1.
         11    1    3    3    0    0  0.11350015804E+02 -0.19701156195E+02  0.14642552778E+02  0.27043719535E+02  0.51100000000E-03 0. -1.
        -11    1    3    3    0    0  0.91379337686E+01 -0.76660267477E+01  0.13069987337E+02  0.17694472835E+02  0.51100000000E-03 0.  1.
         12    1    3    3    0    0  0.85112303695E-01 -0.13873870357E+01  0.19869969334E+00  0.14041255140E+01  0.00000000000E+00 0. -1.
</event>
<event>
 7    1  0.2097247E-008  0.4614231E+02  0.7816164E-02  0.1320468E+00
        -11   -1    0    0    0    0  0.00000000000E+00  0.00000000000E+00  0.45593999997E+02  0.45594000000E+02  0.51100000000E-03 0. -1.
         11   -1    0    0    0    0 -0.00000000000E+00 -0.00000000000E+00 -0.45593999997E+02  0.45594000000E+02  0.51100000000E-03 0.  1.
    9900012    2    1    2    0    0 -0.16636315272E+02 -0.29839674163E+02 -0.29358828265E+02  0.46142312781E+02  0.99999545836E+01 0.  0.
         12    1    1    2    0    0  0.16636315272E+02  0.29839674163E+02  0.29358828265E+02  0.45045687219E+02  0.00000000000E+00 0. -1.
         11    1    3    3    0    0 -0.13499460743E+01 -0.18209531143E+01 -0.13639424270E+01  0.26454798909E+01  0.51100000000E-03 0. -1.
        -11    1    3    3    0    0 -0.15404521524E+02 -0.25788113345E+02 -0.22395813555E+02  0.37468634061E+02  0.51100000000E-03 0.  1.
         12    1    3    3    0    0  0.11815232686E+00 -0.22306077038E+01 -0.55990722822E+01  0.60281988290E+01  0.00000000000E+00 0. -1.
</event>
<event>
 7    1  0.2097247E-008  0.4614232E+02  0.7816164E-02  0.1320468E+00
        -11   -1    0    0    0    0  0.00000000000E+00  0.00000000000E+00  0.45593999997E+02  0.45594000000E+02  0.51100000000E-03 0.  1.
         11   -1    0    0    0    0 -0.00000000000E+00 -0.00000000000E+00 -0.45593999997E+02  0.45594000000E+02  0.51100000000E-03 0. -1.
    9900012    2    1    2    0    0 -0.21774229361E+01  0.83876278715E+01  0.44204300286E+02  0.46142316126E+02  0.99999850869E+01 0.  0.
         12    1    1    2    0    0  0.21774229361E+01 -0.83876278715E+01 -0.44204300286E+02  0.45045683874E+02  0.00000000000E+00 0. -1.
         11    1    3    3    0    0  0.26627944071E+01  0.48950206017E+01  0.21841070855E+02  0.22540720421E+02  0.51100000000E-03 0. -1.
        -11    1    3    3    0    0 -0.37397743334E+01  0.45730662960E+01  0.19091720690E+02  0.19984810397E+02  0.51100000000E-03 0.  1.
        -12    1    3    3    0    0 -0.11004430099E+01 -0.10804590262E+01  0.32715087405E+01  0.36167853081E+01  0.00000000000E+00 0.  1.
</event>
<event>
 7    1  0.2097247E-008  0.4614232E+02  0.7816164E-02  0.1320468E+00
        -11   -1    0    0    0    0  0.00000000000E+00  0.00000000000E+00  0.45593999997E+02  0.45594000000E+02  0.51100000000E-03 0. -1.
         11   -1    0    0    0    0 -0.00000000000E+00 -0.00000000000E+00 -0.45593999997E+02  0.45594000000E+02  0.51100000000E-03 0.  1.
    9900012    2    1    2    0    0  0.37291770427E+02 -0.16606301537E+02  0.19043849592E+02  0.46142316527E+02  0.99999887432E+01 0.  0.
         12    1    1    2    0    0 -0.37291770427E+02  0.16606301537E+02 -0.19043849592E+02  0.45045683473E+02  0.00000000000E+00 0. -1.
         11    1    3    3    0    0  0.74297894922E+01 -0.71720816401E+01  0.41275369253E+01  0.11121020110E+02  0.51100000000E-03 0.  1.
        -11    1    3    3    0    0  0.11920944659E+02 -0.62544325054E+01  0.60928542484E+01  0.14776661351E+02  0.51100000000E-03 0. -1.
        -12    1    3    3    0    0  0.17941036275E+02 -0.31797873916E+01  0.88234584184E+01  0.20244635066E+02  0.00000000000E+00 0.  1.
</event>
<event>
 7    1  0.2097247E-008  0.4614232E+02  0.7816164E-02  0.1320468E+00
        -11   -1    0    0    0    0  0.00000000000E+00  0.00000000000E+00  0.45593999997E+02  0.45594000000E+02  0.51100000000E-03 0.  1.
         11   -1    0    0    0    0 -0.00000000000E+00 -0.00000000000E+00 -0.45593999997E+02  0.45594000000E+02  0.51100000000E-03 0. -1.
    9900012    2    1    2    0    0 -0.16036217796E+01 -0.33981098238E+02  0.29526714186E+02  0.46142317733E+02  0.99999997399E+01 0.  0.
         12    1    1    2    0    0  0.16036217796E+01  0.33981098238E+02 -0.29526714186E+02  0.45045682267E+02  0.00000000000E+00 0. -1.
         11    1    3    3    0    0  0.74363483812E+00 -0.14501056789E+02  0.15292503022E+02  0.21087775836E+02  0.51100000000E-03 0. -1.
        -11    1    3    3    0    0 -0.20183199780E+01 -0.15873061479E+02  0.14259197419E+02  0.21432508196E+02  0.51100000000E-03 0.  1.
         12    1    3    3    0    0 -0.32893663967E+00 -0.36069799697E+01 -0.24986255013E-01  0.36220337005E+01  0.00000000000E+00 0. -1.
</event>
<event>
 7    1  0.2097247E-008  0.4614232E+02  0.7816164E-02  0.1320468E+00
        -11   -1    0    0    0    0  0.00000000000E+00  0.00000000000E+00  0.45593999997E+02  0.45594000000E+02  0.51100000000E-03 0.  1.
         11   -1    0    0    0    0 -0.00000000000E+00 -0.00000000000E+00 -0.45593999997E+02  0.45594000000E+02  0.51100000000E-03 0. -1.
    9900012    2    1    2    0    0 -0.33054618908E+02 -0.13692555022E+02  0.27368221400E+02  0.46142318334E+02  0.10000005221E+02 0.  0.
         12    1    1    2    0    0  0.33054618908E+02  0.13692555022E+02 -0.27368221400E+02  0.45045681666E+02  0.00000000000E+00 0. -1.
         11    1    3    3    0    0 -0.40564565765E+00  0.64608782151E-01 -0.63881856445E+00  0.75948147687E+00  0.51100000000E-03 0. -1.
        -11    1    3    3    0    0 -0.22955464914E+02 -0.74063086495E+01  0.19050771632E+02  0.30736601590E+02  0.51100000000E-03 0.  1.
        -12    1    3    3    0    0 -0.96935083360E+01 -0.63508551547E+01  0.89562683320E+01  0.14646235267E+02  0.00000000000E+00 0.  1.
</event>
<event>
 7    1  0.2097247E-008  0.4614232E+02  0.7816164E-02  0.1320468E+00
        -11   -1    0    0    0    0  0.00000000000E+00  0.00000000000E+00  0.45593999997E+02  0.45594000000E+02  0.51100000000E-03 0.  1.
         11   -1    0    0    0    0 -0.00000000000E+00 -0.00000000000E+00 -0.45593999997E+02  0.45594000000E+02  0.51100000000E-03 0. -1.
    9900012    2    1    2    0    0 -0.24917640532E+02  0.14749133982E+02  0.34506345081E+02  0.46142316369E+02  0.99999873088E+01 0.  0.
         12    1    1    2    0    0  0.24917640532E+02 -0.14749133982E+02 -0.34506345081E+02  0.45045683631E+02  0.00000000000E+00 0. -1.
         11    1    3    3    0    0 -0.38824536786E+01 -0.10488424612E+01  0.52344305309E+01  0.66009681350E+01  0.51100000000E-03 0. -1.
        -11    1    3    3    0    0 -0.10062274587E+01  0.29497567820E+00  0.23749634084E+01  0.25961424849E+01  0.51100000000E-03 0.  1.
        -12    1    3    3    0    0 -0.20028959395E+02  0.15503000765E+02  0.26896951142E+02  0.36945205749E+02  0.00000000000E+00 0.  1.
</event>
<event>
 7    1  0.2097247E-008  0.4614232E+02  0.7816164E-02  0.1320468E+00
        -11   -1    0    0    0    0  0.00000000000E+00  0.00000000000E+00  0.45593999997E+02  0.45594000000E+02  0.51100000000E-03 0.  1.
         11   -1    0    0    0    0 -0.00000000000E+00 -0.00000000000E+00 -0.45593999997E+02  0.45594000000E+02  0.51100000000E-03 0. -1.
    9900012    2    1    2    0    0  0.29650661354E+02  0.31627507059E+02 -0.12233258162E+02  0.46142317335E+02  0.99999961111E+01 0.  0.
         12    1    1    2    0    0 -0.29650661354E+02 -0.31627507059E+02  0.12233258162E+02  0.45045682665E+02  0.00000000000E+00 0. -1.
         11    1    3    3    0    0  0.67459084053E+01  0.76345678772E+01 -0.57911039827E+01  0.11718822146E+02  0.51100000000E-03 0. -1.
        -11    1    3    3    0    0  0.88924578765E+01  0.95500454887E+01  0.70668192133E+00  0.13068227712E+02  0.51100000000E-03 0.  1.
        -12    1    3    3    0    0  0.14012295072E+02  0.14442893694E+02 -0.71488361001E+01  0.21355267477E+02  0.00000000000E+00 0.  1.
</event>
<event>
 7    1  0.2097247E-008  0.4614231E+02  0.7816164E-02  0.1320468E+00
        -11   -1    0    0    0    0  0.00000000000E+00  0.00000000000E+00  0.45593999997E+02  0.45594000000E+02  0.51100000000E-03 0.  1.
         11   -1    0    0    0    0 -0.00000000000E+00 -0.00000000000E+00 -0.45593999997E+02  0.45594000000E+02  0.51100000000E-03 0. -1.
    9900012    2    1    2    0    0  0.29850673225E+02 -0.17305716355E+02  0.28957963158E+02  0.46142310519E+02  0.99999339598E+01 0.  0.
         12    1    1    2    0    0 -0.29850673225E+02  0.17305716355E+02 -0.28957963158E+02  0.45045689481E+02  0.00000000000E+00 0. -1.
         11    1    3    3    0    0  0.78938286301E+00 -0.62078041897E+00  0.20873333437E-01  0.10044548721E+01  0.51100000000E-03 0. -1.
        -11    1    3    3    0    0  0.13598711500E+02 -0.12542789006E+02  0.13524688552E+02  0.22916450668E+02  0.51100000000E-03 0.  1.
        -12    1    3    3    0    0  0.15462578862E+02 -0.41421469301E+01  0.15412401272E+02  0.22221404979E+02  0.00000000000E+00 0.  1.
</event>
<event>
 7    1  0.2097247E-008  0.4614232E+02  0.7816164E-02  0.1320468E+00
        -11   -1    0    0    0    0  0.00000000000E+00  0.00000000000E+00  0.45593999997E+02  0.45594000000E+02  0.51100000000E-03 0.  1.
         11   -1    0    0    0    0 -0.00000000000E+00 -0.00000000000E+00 -0.45593999997E+02  0.45594000000E+02  0.51100000000E-03 0. -1.
    9900012    2    1    2    0    0  0.25598309177E+02  0.88698343953E+01  0.35988416172E+02  0.46142317704E+02  0.99999994823E+01 0.  0.
         12    1    1    2    0    0 -0.25598309177E+02 -0.88698343953E+01 -0.35988416172E+02  0.45045682296E+02  0.00000000000E+00 0. -1.
         11    1    3    3    0    0  0.14205251392E+02  0.34569776317E+01  0.20151135134E+02  0.24895945632E+02  0.51100000000E-03 0. -1.
        -11    1    3    3    0    0  0.77438498152E+01  0.20003544158E+01  0.53288260089E+01  0.96106719142E+01  0.51100000000E-03 0.  1.
         12    1    3    3    0    0  0.36492079707E+01  0.34125023478E+01  0.10508455029E+02  0.11635700159E+02  0.00000000000E+00 0. -1.
</event>
<event>
 7    1  0.2097247E-008  0.4614232E+02  0.7816164E-02  0.1320468E+00
        -11   -1    0    0    0    0  0.00000000000E+00  0.00000000000E+00  0.45593999997E+02  0.45594000000E+02  0.51100000000E-03 0.  1.
         11   -1    0    0    0    0 -0.00000000000E+00 -0.00000000000E+00 -0.45593999997E+02  0.45594000000E+02  0.51100000000E-03 0. -1.
    9900012    2    1    2    0    0  0.11091943130E+02 -0.35838719083E+02  0.24933281245E+02  0.46142317615E+02  0.99999986663E+01 0.  0.
         12    1    1    2    0    0 -0.11091943130E+02  0.35838719083E+02 -0.24933281245E+02  0.45045682385E+02  0.00000000000E+00 0. -1.
         11    1    3    3    0    0 -0.14018181694E+01 -0.44734018857E+01  0.29145464328E+01  0.55200543277E+01  0.51100000000E-03 0. -1.
        -11    1    3    3    0    0  0.92342466507E+01 -0.26917211554E+02  0.16893489384E+02  0.33093769397E+02  0.51100000000E-03 0.  1.
        -12    1    3    3    0    0  0.32595146488E+01 -0.44481056429E+01  0.51252454285E+01  0.75284938905E+01  0.00000000000E+00 0.  1.
</event>
<event>
 7    1  0.2097247E-008  0.4614232E+02  0.7816164E-02  0.1320468E+00
        -11   -1    0    0    0    0  0.00000000000E+00  0.00000000000E+00  0.45593999997E+02  0.45594000000E+02  0.51100000000E-03 0.  1.
         11   -1    0    0    0    0 -0.00000000000E+00 -0.00000000000E+00 -0.45593999997E+02  0.45594000000E+02  0.51100000000E-03 0. -1.
    9900012    2    1    2    0    0 -0.28282696392E+01 -0.22376298303E+02  0.38992507843E+02  0.46142317601E+02  0.99999985392E+01 0.  0.
         12    1    1    2    0    0  0.28282696392E+01  0.22376298303E+02 -0.38992507843E+02  0.45045682399E+02  0.00000000000E+00 0. -1.
         11    1    3    3    0    0  0.66910722200E+00 -0.30480217312E+01  0.38373904315E+01  0.49460799158E+01  0.51100000000E-03 0. -1.
        -11    1    3    3    0    0  0.14582342131E-01 -0.11099451813E+02  0.11867940722E+02  0.16249494159E+02  0.51100000000E-03 0.  1.
         12    1    3    3    0    0 -0.35119592034E+01 -0.82288247586E+01  0.23287176690E+02  0.24946743526E+02  0.00000000000E+00 0. -1.
</event>
<event>
 7    1  0.2097247E-008  0.4614232E+02  0.7816164E-02  0.1320468E+00
        -11   -1    0    0    0    0  0.00000000000E+00  0.00000000000E+00  0.45593999997E+02  0.45594000000E+02  0.51100000000E-03 0.  1.
         11   -1    0    0    0    0 -0.00000000000E+00 -0.00000000000E+00 -0.45593999997E+02  0.45594000000E+02  0.51100000000E-03 0. -1.
    9900012    2    1    2    0    0 -0.34507514322E+02 -0.83506682788E+01  0.27723838040E+02  0.46142318730E+02  0.10000008837E+02 0.  0.
         12    1    1    2    0    0  0.34507514322E+02  0.83506682788E+01 -0.27723838040E+02  0.45045681270E+02  0.00000000000E+00 0. -1.
         11    1    3    3    0    0 -0.20850938762E+02 -0.46837193425E+01  0.16442735324E+02  0.26964095003E+02  0.51100000000E-03 0. -1.
        -11    1    3    3    0    0 -0.98954078342E+01  0.48000596558E+00  0.74111124931E+01  0.12372311449E+02  0.51100000000E-03 0.  1.
        -12    1    3    3    0    0 -0.37611677260E+01 -0.41469549018E+01  0.38699902231E+01  0.68059122789E+01  0.00000000000E+00 0.  1.
</event>
<event>
 7    1  0.2097247E-008  0.4614232E+02  0.7816164E-02  0.1320468E+00
        -11   -1    0    0    0    0  0.00000000000E+00  0.00000000000E+00  0.45593999997E+02  0.45594000000E+02  0.51100000000E-03 0. -1.
         11   -1    0    0    0    0 -0.00000000000E+00 -0.00000000000E+00 -0.45593999997E+02  0.45594000000E+02  0.51100000000E-03 0.  1.
    9900012    2    1    2    0    0 -0.26806091255E+02  0.52765094472E+01 -0.35814875083E+02  0.46142319213E+02  0.10000013241E+02 0.  0.
         12    1    1    2    0    0  0.26806091255E+02 -0.52765094472E+01  0.35814875083E+02  0.45045680787E+02  0.00000000000E+00 0. -1.
         11    1    3    3    0    0 -0.13864558921E+02  0.11907988676E+01 -0.16490218785E+02  0.21577101563E+02  0.51100000000E-03 0. -1.
        -11    1    3    3    0    0 -0.12191516200E+02  0.19736543043E+01 -0.18355040109E+02  0.22123197694E+02  0.51100000000E-03 0.  1.
         12    1    3    3    0    0 -0.75001613461E+00  0.21120562752E+01 -0.96961618967E+00  0.24420199564E+01  0.00000000000E+00 0. -1.
</event>
<event>
 7    1  0.2097247E-008  0.4614232E+02  0.7816164E-02  0.1320468E+00
        -11   -1    0    0    0    0  0.00000000000E+00  0.00000000000E+00  0.45593999997E+02  0.45594000000E+02  0.51100000000E-03 0.  1.
         11   -1    0    0    0    0 -0.00000000000E+00 -0.00000000000E+00 -0.45593999997E+02  0.45594000000E+02  0.51100000000E-03 0. -1.
    9900012    2    1    2    0    0 -0.44668445513E+02 -0.27213004941E+00  0.58111290111E+01  0.46142319856E+02  0.10000019100E+02 0.  0.
         12    1    1    2    0    0  0.44668445513E+02  0.27213004941E+00 -0.58111290111E+01  0.45045680144E+02  0.00000000000E+00 0. -1.
         11    1    3    3    0    0 -0.11534110115E+02 -0.19983489293E+00  0.18117166981E+01  0.11677240589E+02  0.51100000000E-03 0.  1.
        -11    1    3    3    0    0 -0.24948338415E+02 -0.37980282679E+01  0.31311564645E+01  0.25429289205E+02  0.51100000000E-03 0. -1.
         12    1    3    3    0    0 -0.81859969829E+01  0.37257331114E+01  0.86825584846E+00  0.90357900617E+01  0.00000000000E+00 0. -1.
</event>
<event>
 7    1  0.2097247E-008  0.4614232E+02  0.7816164E-02  0.1320468E+00
        -11   -1    0    0    0    0  0.00000000000E+00  0.00000000000E+00  0.45593999997E+02  0.45594000000E+02  0.51100000000E-03 0.  1.
         11   -1    0    0    0    0 -0.00000000000E+00 -0.00000000000E+00 -0.45593999997E+02  0.45594000000E+02  0.51100000000E-03 0. -1.
    9900012    2    1    2    0    0 -0.96822133051E+01  0.31499306512E+02  0.30710933383E+02  0.46142323243E+02  0.10000049992E+02 0.  0.
         12    1    1    2    0    0  0.96822133051E+01 -0.31499306512E+02 -0.30710933383E+02  0.45045676757E+02  0.00000000000E+00 0. -1.
         11    1    3    3    0    0 -0.17805671101E+01  0.13233956114E+02  0.13031687137E+02  0.18658319419E+02  0.51100000000E-03 0. -1.
        -11    1    3    3    0    0  0.55587686137E+00  0.39974635819E+01  0.14776369513E+01  0.42979210550E+01  0.51100000000E-03 0.  1.
         12    1    3    3    0    0 -0.84575230564E+01  0.14267886816E+02  0.16201609295E+02  0.23186082769E+02  0.00000000000E+00 0. -1.
</event>
<event>
 7    1  0.2097247E-008  0.4614232E+02  0.7816164E-02  0.1320468E+00
        -11   -1    0    0    0    0  0.00000000000E+00  0.00000000000E+00  0.45593999997E+02  0.45594000000E+02  0.51100000000E-03 0.  1.
         11   -1    0    0    0    0 -0.00000000000E+00 -0.00000000000E+00 -0.45593999997E+02  0.45594000000E+02  0.51100000000E-03 0. -1.
    9900012    2    1    2    0    0  0.26317359573E+02  0.22130686137E+02  0.29098845170E+02  0.46142317921E+02  0.10000001454E+02 0.  0.
         12    1    1    2    0    0 -0.26317359573E+02 -0.22130686137E+02 -0.29098845170E+02  0.45045682079E+02  0.00000000000E+00 0. -1.
         11    1    3    3    0    0  0.39100256705E+01  0.71445491706E+01  0.57906355609E+01  0.99932149009E+01  0.51100000000E-03 0. -1.
        -11    1    3    3    0    0  0.84068330656E+01  0.37352646714E+01  0.48702009971E+01  0.10408933777E+02  0.51100000000E-03 0.  1.
        -12    1    3    3    0    0  0.14000500837E+02  0.11250872295E+02  0.18438008612E+02  0.25740169243E+02  0.00000000000E+00 0.  1.
</event>
<event>
 7    1  0.2097247E-008  0.4614232E+02  0.7816164E-02  0.1320468E+00
        -11   -1    0    0    0    0  0.00000000000E+00  0.00000000000E+00  0.45593999997E+02  0.45594000000E+02  0.51100000000E-03 0. -1.
         11   -1    0    0    0    0 -0.00000000000E+00 -0.00000000000E+00 -0.45593999997E+02  0.45594000000E+02  0.51100000000E-03 0.  1.
    9900012    2    1    2    0    0  0.20993691436E+02  0.38664258402E+02 -0.96671379994E+01  0.46142317466E+02  0.99999973082E+01 0.  0.
         12    1    1    2    0    0 -0.20993691436E+02 -0.38664258402E+02  0.96671379994E+01  0.45045682534E+02  0.00000000000E+00 0. -1.
         11    1    3    3    0    0  0.49498342756E+01  0.50044630837E+01 -0.29472424788E+01  0.76309729787E+01  0.51100000000E-03 0. -1.
        -11    1    3    3    0    0  0.12675605445E+02  0.27101700847E+02 -0.81318885912E+01  0.31004850823E+02  0.51100000000E-03 0.  1.
         12    1    3    3    0    0  0.33682517154E+01  0.65580944707E+01  0.14119930706E+01  0.75064936646E+01  0.00000000000E+00 0. -1.
</event>
<event>
 7    1  0.2097247E-008  0.4614232E+02  0.7816164E-02  0.1320468E+00
        -11   -1    0    0    0    0  0.00000000000E+00  0.00000000000E+00  0.45593999997E+02  0.45594000000E+02  0.51100000000E-03 0.  1.
         11   -1    0    0    0    0 -0.00000000000E+00 -0.00000000000E+00 -0.45593999997E+02  0.45594000000E+02  0.51100000000E-03 0. -1.
    9900012    2    1    2    0    0  0.29450243683E+02  0.31052833350E+02  0.14054121132E+02  0.46142316157E+02  0.99999853768E+01 0.  0.
         12    1    1    2    0    0 -0.29450243683E+02 -0.31052833350E+02 -0.14054121132E+02  0.45045683843E+02  0.00000000000E+00 0. -1.
         11    1    3    3    0    0  0.58581763138E+01  0.31024698836E+01  0.94828085583E+00  0.66964756361E+01  0.51100000000E-03 0. -1.
        -11    1    3    3    0    0  0.18922704829E+02  0.25657684633E+02  0.12350276014E+02  0.34189396846E+02  0.51100000000E-03 0.  1.
        -12    1    3    3    0    0  0.46693625398E+01  0.22926788336E+01  0.75556426151E+00  0.52564436757E+01  0.00000000000E+00 0.  1.
</event>
<event>
 7    1  0.2097247E-008  0.4614232E+02  0.7816164E-02  0.1320468E+00
        -11   -1    0    0    0    0  0.00000000000E+00  0.00000000000E+00  0.45593999997E+02  0.45594000000E+02  0.51100000000E-03 0. -1.
         11   -1    0    0    0    0 -0.00000000000E+00 -0.00000000000E+00 -0.45593999997E+02  0.45594000000E+02  0.51100000000E-03 0.  1.
    9900012    2    1    2    0    0 -0.15776736648E+02 -0.39300654144E+02 -0.15351438140E+02  0.46142317761E+02  0.99999999983E+01 0.  0.
         12    1    1    2    0    0  0.15776736648E+02  0.39300654144E+02  0.15351438140E+02  0.45045682239E+02  0.00000000000E+00 0. -1.
         11    1    3    3    0    0 -0.68809931208E+00 -0.21124919289E+01  0.51050535902E+00  0.22796312851E+01  0.51100000000E-03 0. -1.
        -11    1    3    3    0    0 -0.15960034492E+02 -0.34816917389E+02 -0.14248577805E+02  0.40865173524E+02  0.51100000000E-03 0.  1.
        -12    1    3    3    0    0  0.87139715680E+00 -0.23712448269E+01 -0.16133656934E+01  0.29975129515E+01  0.00000000000E+00 0.  1.
</event>
<event>
 7    1  0.2097247E-008  0.4614232E+02  0.7816164E-02  0.1320468E+00
        -11   -1    0    0    0    0  0.00000000000E+00  0.00000000000E+00  0.45593999997E+02  0.45594000000E+02  0.51100000000E-03 0. -1.
         11   -1    0    0    0    0 -0.00000000000E+00 -0.00000000000E+00 -0.45593999997E+02  0.45594000000E+02  0.51100000000E-03 0.  1.
    9900012    2    1    2    0    0 -0.38388870363E+02  0.21148528513E+02 -0.10399414795E+02  0.46142318142E+02  0.10000003472E+02 0.  0.
         12    1    1    2    0    0  0.38388870363E+02 -0.21148528513E+02  0.10399414795E+02  0.45045681858E+02  0.00000000000E+00 0. -1.
         11    1    3    3    0    0 -0.14470435304E+02  0.11628428815E+02 -0.73022491574E+01  0.19948350749E+02  0.51100000000E-03 0. -1.
        -11    1    3    3    0    0 -0.74007113959E+01  0.39113818933E+01 -0.25144420806E+01  0.87402435160E+01  0.51100000000E-03 0.  1.
         12    1    3    3    0    0 -0.16517723663E+02  0.56087178041E+01 -0.58272355689E+00  0.17453723877E+02  0.00000000000E+00 0. -1.
</event>
<event>
 7    1  0.2097247E-008  0.4614232E+02  0.7816164E-02  0.1320468E+00
        -11   -1    0    0    0    0  0.00000000000E+00  0.00000000000E+00  0.45593999997E+02  0.45594000000E+02  0.51100000000E-03 0. -1.
         11   -1    0    0    0    0 -0.00000000000E+00 -0.00000000000E+00 -0.45593999997E+02  0.45594000000E+02  0.51100000000E-03 0.  1.
    9900012    2    1    2    0    0 -0.44566397941E+02  0.59502475484E+01 -0.27466773585E+01  0.46142317545E+02  0.99999980274E+01 0.  0.
         12    1    1    2    0    0  0.44566397941E+02 -0.59502475484E+01  0.27466773585E+01  0.45045682455E+02  0.00000000000E+00 0. -1.
         11    1    3    3    0    0 -0.18751242503E+02  0.45999945899E+01 -0.30711022054E+01  0.19549954339E+02  0.51100000000E-03 0. -1.
        -11    1    3    3    0    0 -0.41127542964E+01  0.35802777537E+00 -0.22727981942E+01  0.47125941565E+01  0.51100000000E-03 0.  1.
         12    1    3    3    0    0 -0.21702401142E+02  0.99222518313E+00  0.25972230411E+01  0.21879769049E+02  0.00000000000E+00 0. -1.
</event>
<event>
 7    1  0.2097247E-008  0.4614232E+02  0.7816164E-02  0.1320468E+00
        -11   -1    0    0    0    0  0.00000000000E+00  0.00000000000E+00  0.45593999997E+02  0.45594000000E+02  0.51100000000E-03 0.  1.
         11   -1    0    0    0    0 -0.00000000000E+00 -0.00000000000E+00 -0.45593999997E+02  0.45594000000E+02  0.51100000000E-03 0. -1.
    9900012    2    1    2    0    0  0.58249331774E+01 -0.67038524550E+01  0.44161546682E+02  0.46142315527E+02  0.99999796280E+01 0.  0.
         12    1    1    2    0    0 -0.58249331774E+01  0.67038524550E+01 -0.44161546682E+02  0.45045684473E+02  0.00000000000E+00 0. -1.
         11    1    3    3    0    0  0.23547873178E+01 -0.32369753563E+01  0.10077781978E+02  0.10843648953E+02  0.51100000000E-03 0. -1.
        -11    1    3    3    0    0  0.41689337013E+01 -0.54468598148E+01  0.28963351475E+02  0.29764475789E+02  0.51100000000E-03 0.  1.
         12    1    3    3    0    0 -0.69878784171E+00  0.19799827162E+01  0.51204132294E+01  0.55341907850E+01  0.00000000000E+00 0. -1.
</event>
<event>
 7    1  0.2097247E-008  0.4614232E+02  0.7816164E-02  0.1320468E+00
        -11   -1    0    0    0    0  0.00000000000E+00  0.00000000000E+00  0.45593999997E+02  0.45594000000E+02  0.51100000000E-03 0.  1.
         11   -1    0    0    0    0 -0.00000000000E+00 -0.00000000000E+00 -0.45593999997E+02  0.45594000000E+02  0.51100000000E-03 0. -1.
    9900012    2    1    2    0    0  0.16638921939E+02  0.40664560502E+02  0.99324355897E+01  0.46142317845E+02  0.10000000765E+02 0.  0.
         12    1    1    2    0    0 -0.16638921939E+02 -0.40664560502E+02 -0.99324355897E+01  0.45045682155E+02  0.00000000000E+00 0. -1.
         11    1    3    3    0    0  0.56249366929E+01  0.22971586215E+02  0.52068605855E+01  0.24216628243E+02  0.51100000000E-03 0. -1.
        -11    1    3    3    0    0  0.64039539296E+01  0.13930347591E+02  0.23161722920E+01  0.15505800988E+02  0.51100000000E-03 0.  1.
         12    1    3    3    0    0  0.46100313161E+01  0.37626266952E+01  0.24094027122E+01  0.64198886137E+01  0.00000000000E+00 0. -1.
</event>
<event>
 7    1  0.2097247E-008  0.4614232E+02  0.7816164E-02  0.1320468E+00
        -11   -1    0    0    0    0  0.00000000000E+00  0.00000000000E+00  0.45593999997E+02  0.45594000000E+02  0.51100000000E-03 0.  1.
         11   -1    0    0    0    0 -0.00000000000E+00 -0.00000000000E+00 -0.45593999997E+02  0.45594000000E+02  0.51100000000E-03 0. -1.
    9900012    2    1    2    0    0 -0.46797159616E+01  0.44590255787E+02  0.43500361983E+01  0.46142317992E+02  0.10000002106E+02 0.  0.
         12    1    1    2    0    0  0.46797159616E+01 -0.44590255787E+02 -0.43500361983E+01  0.45045682008E+02  0.00000000000E+00 0. -1.
         11    1    3    3    0    0 -0.23170532882E+01  0.50699608141E+01 -0.42706796217E+00  0.55906731171E+01  0.51100000000E-03 0. -1.
        -11    1    3    3    0    0  0.86553839937E+00  0.94985198051E+01  0.40114133243E+01  0.10347099706E+02  0.51100000000E-03 0.  1.
         12    1    3    3    0    0 -0.32282010728E+01  0.30021775168E+02  0.76569083614E+00  0.30204545169E+02  0.00000000000E+00 0. -1.
</event>
<event>
 7    1  0.2097247E-008  0.4614232E+02  0.7816164E-02  0.1320468E+00
        -11   -1    0    0    0    0  0.00000000000E+00  0.00000000000E+00  0.45593999997E+02  0.45594000000E+02  0.51100000000E-03 0.  1.
         11   -1    0    0    0    0 -0.00000000000E+00 -0.00000000000E+00 -0.45593999997E+02  0.45594000000E+02  0.51100000000E-03 0. -1.
    9900012    2    1    2    0    0 -0.37040457186E+01 -0.17008120950E+02  0.41546568162E+02  0.46142318087E+02  0.10000002973E+02 0.  0.
         12    1    1    2    0    0  0.37040457186E+01  0.17008120950E+02 -0.41546568162E+02  0.45045681913E+02  0.00000000000E+00 0. -1.
         11    1    3    3    0    0  0.80706744758E-01 -0.32035909029E+01  0.13605418548E+02  0.13977729515E+02  0.51100000000E-03 0. -1.
        -11    1    3    3    0    0  0.29978813134E+00  0.11026409495E+00  0.50913521784E+01  0.51013624023E+01  0.51100000000E-03 0.  1.
        -12    1    3    3    0    0 -0.40845405947E+01 -0.13914794142E+02  0.22849797435E+02  0.27063226170E+02  0.00000000000E+00 0.  1.
</event>
<event>
 7    1  0.2097247E-008  0.4614232E+02  0.7816164E-02  0.1320468E+00
        -11   -1    0    0    0    0  0.00000000000E+00  0.00000000000E+00  0.45593999997E+02  0.45594000000E+02  0.51100000000E-03 0.  1.
         11   -1    0    0    0    0 -0.00000000000E+00 -0.00000000000E+00 -0.45593999997E+02  0.45594000000E+02  0.51100000000E-03 0. -1.
    9900012    2    1    2    0    0 -0.24872187811E+01  0.25977996593E+02  0.36716085803E+02  0.46142317400E+02  0.99999967050E+01 0.  0.
         12    1    1    2    0    0  0.24872187811E+01 -0.25977996593E+02 -0.36716085803E+02  0.45045682600E+02  0.00000000000E+00 0. -1.
         11    1    3    3    0    0  0.12422277387E+00  0.11241010132E+02  0.20297382158E+02  0.23202574486E+02  0.51100000000E-03 0. -1.
        -11    1    3    3    0    0 -0.32586739472E+01  0.13212624083E+02  0.11726765093E+02  0.17964114531E+02  0.51100000000E-03 0.  1.
        -12    1    3    3    0    0  0.64723239219E+00  0.15243623778E+01  0.46919385521E+01  0.49756283829E+01  0.00000000000E+00 0.  1.
</event>
<event>
 7    1  0.2097247E-008  0.4614231E+02  0.7816164E-02  0.1320468E+00
        -11   -1    0    0    0    0  0.00000000000E+00  0.00000000000E+00  0.45593999997E+02  0.45594000000E+02  0.51100000000E-03 0.  1.
         11   -1    0    0    0    0 -0.00000000000E+00 -0.00000000000E+00 -0.45593999997E+02  0.45594000000E+02  0.51100000000E-03 0. -1.
    9900012    2    1    2    0    0 -0.40272330215E+02 -0.20102701072E+02  0.17706669895E+01  0.46142307277E+02  0.99999043969E+01 0.  0.
         12    1    1    2    0    0  0.40272330215E+02  0.20102701072E+02 -0.17706669895E+01  0.45045692723E+02  0.00000000000E+00 0. -1.
         11    1    3    3    0    0 -0.17058616040E+02 -0.68453784461E+01  0.21742543444E+01  0.18508996988E+02  0.51100000000E-03 0. -1.
        -11    1    3    3    0    0 -0.11219771811E+02 -0.69523026915E+01 -0.36602084707E+01  0.13697259526E+02  0.51100000000E-03 0.  1.
        -12    1    3    3    0    0 -0.11993942363E+02 -0.63050199342E+01  0.32566211158E+01  0.13936050763E+02  0.00000000000E+00 0.  1.
</event>
<event>
 7    1  0.2097247E-008  0.4614232E+02  0.7816164E-02  0.1320468E+00
        -11   -1    0    0    0    0  0.00000000000E+00  0.00000000000E+00  0.45593999997E+02  0.45594000000E+02  0.51100000000E-03 0.  1.
         11   -1    0    0    0    0 -0.00000000000E+00 -0.00000000000E+00 -0.45593999997E+02  0.45594000000E+02  0.51100000000E-03 0. -1.
    9900012    2    1    2    0    0 -0.17314702378E+01 -0.16624842911E+02  0.41829772228E+02  0.46142320566E+02  0.10000025581E+02 0.  0.
         12    1    1    2    0    0  0.17314702378E+01  0.16624842911E+02 -0.41829772228E+02  0.45045679434E+02  0.00000000000E+00 0. -1.
         11    1    3    3    0    0  0.48390409669E+00 -0.53805864699E+01  0.81324067532E+01  0.97632429958E+01  0.51100000000E-03 0.  1.
        -11    1    3    3    0    0 -0.22433159706E+01 -0.60580030785E+01  0.86255117744E+01  0.10776424336E+02  0.51100000000E-03 0. -1.
         12    1    3    3    0    0  0.27941636124E-01 -0.51862533629E+01  0.25071853700E+02  0.25602653234E+02  0.00000000000E+00 0. -1.
</event>
<event>
 7    1  0.2097247E-008  0.4614232E+02  0.7816164E-02  0.1320468E+00
        -11   -1    0    0    0    0  0.00000000000E+00  0.00000000000E+00  0.45593999997E+02  0.45594000000E+02  0.51100000000E-03 0. -1.
         11   -1    0    0    0    0 -0.00000000000E+00 -0.00000000000E+00 -0.45593999997E+02  0.45594000000E+02  0.51100000000E-03 0.  1.
    9900012    2    1    2    0    0 -0.38097104894E+02  0.19630285940E+02 -0.13869961856E+02  0.46142319083E+02  0.10000012053E+02 0.  0.
         12    1    1    2    0    0  0.38097104894E+02 -0.19630285940E+02  0.13869961856E+02  0.45045680917E+02  0.00000000000E+00 0. -1.
         11    1    3    3    0    0 -0.12637124759E+02  0.98742433980E+01 -0.68360602052E+01  0.17433568890E+02  0.51100000000E-03 0. -1.
        -11    1    3    3    0    0 -0.15933376429E+02  0.89429837485E+01 -0.47299654645E+01  0.18873844767E+02  0.51100000000E-03 0.  1.
         12    1    3    3    0    0 -0.95266037060E+01  0.81305879376E+00 -0.23039361858E+01  0.98349054251E+01  0.00000000000E+00 0. -1.
</event>
<event>
 7    1  0.2097247E-008  0.4614232E+02  0.7816164E-02  0.1320468E+00
        -11   -1    0    0    0    0  0.00000000000E+00  0.00000000000E+00  0.45593999997E+02  0.45594000000E+02  0.51100000000E-03 0. -1.
         11   -1    0    0    0    0 -0.00000000000E+00 -0.00000000000E+00 -0.45593999997E+02  0.45594000000E+02  0.51100000000E-03 0.  1.
    9900012    2    1    2    0    0  0.22752653213E+02  0.28934003984E+02 -0.25966394453E+02  0.46142318124E+02  0.10000003308E+02 0.  0.
         12    1    1    2    0    0 -0.22752653213E+02 -0.28934003984E+02  0.25966394453E+02  0.45045681876E+02  0.00000000000E+00 0. -1.
         11    1    3    3    0    0  0.37460984018E+01  0.12591840640E+01 -0.47283348185E+01  0.61624628324E+01  0.51100000000E-03 0. -1.
        -11    1    3    3    0    0 -0.11304688557E+00  0.12327534652E+01 -0.66318572359E+00  0.14043775381E+01  0.51100000000E-03 0.  1.
        -12    1    3    3    0    0  0.19119601697E+02  0.26442066455E+02 -0.20574873911E+02  0.38575477753E+02  0.00000000000E+00 0.  1.
</event>
<event>
 7    1  0.2097247E-008  0.4614232E+02  0.7816164E-02  0.1320468E+00
        -11   -1    0    0    0    0  0.00000000000E+00  0.00000000000E+00  0.45593999997E+02  0.45594000000E+02  0.51100000000E-03 0.  1.
         11   -1    0    0    0    0 -0.00000000000E+00 -0.00000000000E+00 -0.45593999997E+02  0.45594000000E+02  0.51100000000E-03 0. -1.
    9900012    2    1    2    0    0 -0.43935833308E+01 -0.46476235142E+01  0.44589343244E+02  0.46142317524E+02  0.99999978400E+01 0.  0.
         12    1    1    2    0    0  0.43935833308E+01  0.46476235142E+01 -0.44589343244E+02  0.45045682476E+02  0.00000000000E+00 0. -1.
         11    1    3    3    0    0 -0.17864393184E+01  0.32170954582E+00  0.44088436210E+01  0.47678889255E+01  0.51100000000E-03 0. -1.
        -11    1    3    3    0    0 -0.40431131542E+01 -0.61996468468E+01  0.24882137229E+02  0.25959644418E+02  0.51100000000E-03 0.  1.
         12    1    3    3    0    0  0.14359691419E+01  0.12303137868E+01  0.15298362394E+02  0.15414784180E+02  0.00000000000E+00 0. -1.
</event>
<event>
 7    1  0.2097247E-008  0.4614232E+02  0.7816164E-02  0.1320468E+00
        -11   -1    0    0    0    0  0.00000000000E+00  0.00000000000E+00  0.45593999997E+02  0.45594000000E+02  0.51100000000E-03 0. -1.
         11   -1    0    0    0    0 -0.00000000000E+00 -0.00000000000E+00 -0.45593999997E+02  0.45594000000E+02  0.51100000000E-03 0.  1.
    9900012    2    1    2    0    0 -0.26719345695E+02 -0.28980052666E+02 -0.21802446977E+02  0.46142316732E+02  0.99999906123E+01 0.  0.
         12    1    1    2    0    0  0.26719345695E+02  0.28980052666E+02  0.21802446977E+02  0.45045683268E+02  0.00000000000E+00 0. -1.
         11    1    3    3    0    0 -0.25360248720E+01 -0.49838485814E+01 -0.53314465489E+01  0.77262210296E+01  0.51100000000E-03 0.  1.
        -11    1    3    3    0    0 -0.38998056240E+01 -0.76107437105E+01 -0.52066537189E+01  0.10012050087E+02  0.51100000000E-03 0. -1.
         12    1    3    3    0    0 -0.20283515199E+02 -0.16385460374E+02 -0.11264346710E+02  0.28404045615E+02  0.00000000000E+00 0. -1.
</event>
<event>
 7    1  0.2097247E-008  0.4614232E+02  0.7816164E-02  0.1320468E+00
        -11   -1    0    0    0    0  0.00000000000E+00  0.00000000000E+00  0.45593999997E+02  0.45594000000E+02  0.51100000000E-03 0.  1.
         11   -1    0    0    0    0 -0.00000000000E+00 -0.00000000000E+00 -0.45593999997E+02  0.45594000000E+02  0.51100000000E-03 0. -1.
    9900012    2    1    2    0    0 -0.19023271543E+02  0.18342527382E+02  0.36479859504E+02  0.46142319625E+02  0.10000017000E+02 0.  0.
         12    1    1    2    0    0  0.19023271543E+02 -0.18342527382E+02 -0.36479859504E+02  0.45045680375E+02  0.00000000000E+00 0. -1.
         11    1    3    3    0    0 -0.50199875706E+01  0.69296736357E+01  0.57156696053E+01  0.10290263904E+02  0.51100000000E-03 0. -1.
        -11    1    3    3    0    0 -0.37794614840E+01  0.32899920142E+01  0.56923340601E+01  0.75836036207E+01  0.51100000000E-03 0.  1.
         12    1    3    3    0    0 -0.10223822488E+02  0.81228617323E+01  0.25071855839E+02  0.28268452101E+02  0.00000000000E+00 0. -1.
</event>
<event>
 7    1  0.2097247E-008  0.4614232E+02  0.7816164E-02  0.1320468E+00
        -11   -1    0    0    0    0  0.00000000000E+00  0.00000000000E+00  0.45593999997E+02  0.45594000000E+02  0.51100000000E-03 0.  1.
         11   -1    0    0    0    0 -0.00000000000E+00 -0.00000000000E+00 -0.45593999997E+02  0.45594000000E+02  0.51100000000E-03 0. -1.
    9900012    2    1    2    0    0  0.15902182843E+02  0.22460663680E+02  0.35661642370E+02  0.46142316870E+02  0.99999918747E+01 0.  0.
         12    1    1    2    0    0 -0.15902182843E+02 -0.22460663680E+02 -0.35661642370E+02  0.45045683130E+02  0.00000000000E+00 0. -1.
         11    1    3    3    0    0  0.63111350388E+00  0.44143290435E+01  0.29298401328E+01  0.53355944959E+01  0.51100000000E-03 0. -1.
        -11    1    3    3    0    0  0.15351213993E+01  0.33710408828E+01  0.88356277704E+01  0.95806488664E+01  0.51100000000E-03 0.  1.
        -12    1    3    3    0    0  0.13735947940E+02  0.14675293753E+02  0.23896174467E+02  0.31226073508E+02  0.00000000000E+00 0.  1.
</event>
<event>
 7    1  0.2097247E-008  0.4614232E+02  0.7816164E-02  0.1320468E+00
        -11   -1    0    0    0    0  0.00000000000E+00  0.00000000000E+00  0.45593999997E+02  0.45594000000E+02  0.51100000000E-03 0.  1.
         11   -1    0    0    0    0 -0.00000000000E+00 -0.00000000000E+00 -0.45593999997E+02  0.45594000000E+02  0.51100000000E-03 0. -1.
    9900012    2    1    2    0    0  0.41734000218E+02 -0.48764665567E+01 -0.16235970625E+02  0.46142318271E+02  0.10000004650E+02 0.  0.
         12    1    1    2    0    0 -0.41734000218E+02  0.48764665567E+01  0.16235970625E+02  0.45045681729E+02  0.00000000000E+00 0. -1.
         11    1    3    3    0    0  0.19835023411E+02 -0.75593874118E+00 -0.68665188471E+01  0.21003539664E+02  0.51100000000E-03 0.  1.
        -11    1    3    3    0    0  0.48723204201E+01 -0.24446138682E+01  0.34887175552E+00  0.54623580076E+01  0.51100000000E-03 0. -1.
        -12    1    3    3    0    0  0.17026656387E+02 -0.16759139473E+01 -0.97183235338E+01  0.19676420599E+02  0.00000000000E+00 0.  1.
</event>
<event>
 7    1  0.2097247E-008  0.4614232E+02  0.7816164E-02  0.1320468E+00
        -11   -1    0    0    0    0  0.00000000000E+00  0.00000000000E+00  0.45593999997E+02  0.45594000000E+02  0.51100000000E-03 0.  1.
         11   -1    0    0    0    0 -0.00000000000E+00 -0.00000000000E+00 -0.45593999997E+02  0.45594000000E+02  0.51100000000E-03 0. -1.
    9900012    2    1    2    0    0 -0.16916860202E+01 -0.26342005331E+02  0.36501374828E+02  0.46142318622E+02  0.10000007851E+02 0.  0.
         12    1    1    2    0    0  0.16916860202E+01  0.26342005331E+02 -0.36501374828E+02  0.45045681378E+02  0.00000000000E+00 0. -1.
         11    1    3    3    0    0  0.29683652802E+01 -0.54626941636E+01  0.84243810406E+01  0.10470072404E+02  0.51100000000E-03 0. -1.
        -11    1    3    3    0    0 -0.14501187238E+01 -0.11920116685E+02  0.11913846571E+02  0.16915429834E+02  0.51100000000E-03 0.  1.
         12    1    3    3    0    0 -0.32099325767E+01 -0.89591944826E+01  0.16163147216E+02  0.18756816384E+02  0.00000000000E+00 0. -1.
</event>
<event>
 7    1  0.2097247E-008  0.4614232E+02  0.7816164E-02  0.1320468E+00
        -11   -1    0    0    0    0  0.00000000000E+00  0.00000000000E+00  0.45593999997E+02  0.45594000000E+02  0.51100000000E-03 0.  1.
         11   -1    0    0    0    0 -0.00000000000E+00 -0.00000000000E+00 -0.45593999997E+02  0.45594000000E+02  0.51100000000E-03 0. -1.
    9900012    2    1    2    0    0  0.17527932356E+01 -0.22925105790E+02  0.38736040441E+02  0.46142316648E+02  0.99999898471E+01 0.  0.
         12    1    1    2    0    0 -0.17527932356E+01  0.22925105790E+02 -0.38736040441E+02  0.45045683352E+02  0.00000000000E+00 0. -1.
         11    1    3    3    0    0 -0.98977673888E+00 -0.13047690972E+02  0.21112233689E+02  0.24838444180E+02  0.51100000000E-03 0.  1.
        -11    1    3    3    0    0  0.13484508973E+01 -0.10354438892E+02  0.16052139777E+02  0.19149514779E+02  0.51100000000E-03 0. -1.
         12    1    3    3    0    0  0.13941190772E+01  0.47702407405E+00  0.15716669750E+01  0.21543576883E+01  0.00000000000E+00 0. -1.
</event>
<event>
 7    1  0.2097247E-008  0.4614233E+02  0.7816164E-02  0.1320468E+00
        -11   -1    0    0    0    0  0.00000000000E+00  0.00000000000E+00  0.45593999997E+02  0.45594000000E+02  0.51100000000E-03 0. -1.
         11   -1    0    0    0    0 -0.00000000000E+00 -0.00000000000E+00 -0.45593999997E+02  0.45594000000E+02  0.51100000000E-03 0.  1.
    9900012    2    1    2    0    0  0.23931148910E+02 -0.33264364387E+02  0.18705480187E+02  0.46142325233E+02  0.10000068135E+02 0.  0.
         12    1    1    2    0    0 -0.23931148910E+02  0.33264364387E+02 -0.18705480187E+02  0.45045674767E+02  0.00000000000E+00 0. -1.
         11    1    3    3    0    0  0.39000273541E+00 -0.37213191099E+01  0.14118206575E+01  0.39991944040E+01  0.51100000000E-03 0. -1.
        -11    1    3    3    0    0  0.17278777537E+02 -0.26004178686E+02  0.13562557250E+02  0.34039923939E+02  0.51100000000E-03 0.  1.
         12    1    3    3    0    0  0.62623686367E+01 -0.35388665906E+01  0.37311022795E+01  0.81032068904E+01  0.00000000000E+00 0. -1.
</event>
<event>
 7    1  0.2097247E-008  0.4614232E+02  0.7816164E-02  0.1320468E+00
        -11   -1    0    0    0    0  0.00000000000E+00  0.00000000000E+00  0.45593999997E+02  0.45594000000E+02  0.51100000000E-03 0. -1.
         11   -1    0    0    0    0 -0.00000000000E+00 -0.00000000000E+00 -0.45593999997E+02  0.45594000000E+02  0.51100000000E-03 0.  1.
    9900012    2    1    2    0    0 -0.14584053288E+02 -0.41311895396E+02 -0.10475983138E+02  0.46142317252E+02  0.99999953601E+01 0.  0.
         12    1    1    2    0    0  0.14584053288E+02  0.41311895396E+02  0.10475983138E+02  0.45045682748E+02  0.00000000000E+00 0. -1.
         11    1    3    3    0    0 -0.91341846789E+01 -0.26514714225E+02 -0.75397242048E+01  0.29039814764E+02  0.51100000000E-03 0.  1.
        -11    1    3    3    0    0 -0.39667703138E+01 -0.36931940905E+01  0.34039779553E+00  0.54305451137E+01  0.51100000000E-03 0. -1.
         12    1    3    3    0    0 -0.14830982950E+01 -0.11103987080E+02 -0.32766567286E+01  0.11671957374E+02  0.00000000000E+00 0. -1.
</event>
<event>
 7    1  0.2097247E-008  0.4614232E+02  0.7816164E-02  0.1320468E+00
        -11   -1    0    0    0    0  0.00000000000E+00  0.00000000000E+00  0.45593999997E+02  0.45594000000E+02  0.51100000000E-03 0.  1.
         11   -1    0    0    0    0 -0.00000000000E+00 -0.00000000000E+00 -0.45593999997E+02  0.45594000000E+02  0.51100000000E-03 0. -1.
    9900012    2    1    2    0    0 -0.36087797195E+02  0.26509563578E+02  0.49017769220E+01  0.46142317804E+02  0.10000000392E+02 0.  0.
         12    1    1    2    0    0  0.36087797195E+02 -0.26509563578E+02 -0.49017769220E+01  0.45045682196E+02  0.00000000000E+00 0. -1.
         11    1    3    3    0    0 -0.13295656270E+02  0.87514950391E+01 -0.14039388103E+01  0.15979179751E+02  0.51100000000E-03 0. -1.
        -11    1    3    3    0    0 -0.22695510335E+02  0.17804433073E+02  0.55189175415E+01  0.29369073488E+02  0.51100000000E-03 0.  1.
        -12    1    3    3    0    0 -0.96630589793E-01 -0.46364534138E-01  0.78679819073E+00  0.79406456528E+00  0.00000000000E+00 0.  1.
</event>
<event>
 7    1  0.2097247E-008  0.4614232E+02  0.7816164E-02  0.1320468E+00
        -11   -1    0    0    0    0  0.00000000000E+00  0.00000000000E+00  0.45593999997E+02  0.45594000000E+02  0.51100000000E-03 0. -1.
         11   -1    0    0    0    0 -0.00000000000E+00 -0.00000000000E+00 -0.45593999997E+02  0.45594000000E+02  0.51100000000E-03 0.  1.
    9900012    2    1    2    0    0 -0.18479882394E+02 -0.40832974368E+02 -0.45028422843E+01  0.46142318324E+02  0.10000005136E+02 0.  0.
         12    1    1    2    0    0  0.18479882394E+02  0.40832974368E+02  0.45028422843E+01  0.45045681676E+02  0.00000000000E+00 0. -1.
         11    1    3    3    0    0 -0.21522511317E+01 -0.12594866512E+02 -0.61958290582E+00  0.12792448188E+02  0.51100000000E-03 0. -1.
        -11    1    3    3    0    0 -0.69556781823E+00 -0.36854316787E+01  0.88951344501E+00  0.38545370251E+01  0.51100000000E-03 0.  1.
        -12    1    3    3    0    0 -0.15632063444E+02 -0.24552676177E+02 -0.47727728235E+01  0.29495333112E+02  0.00000000000E+00 0.  1.
</event>
<event>
 7    1  0.2097247E-008  0.4614231E+02  0.7816164E-02  0.1320468E+00
        -11   -1    0    0    0    0  0.00000000000E+00  0.00000000000E+00  0.45593999997E+02  0.45594000000E+02  0.51100000000E-03 0.  1.
         11   -1    0    0    0    0 -0.00000000000E+00 -0.00000000000E+00 -0.45593999997E+02  0.45594000000E+02  0.51100000000E-03 0. -1.
    9900012    2    1    2    0    0  0.20181256279E+02  0.30590872040E+02  0.26192160179E+02  0.46142314169E+02  0.99999672440E+01 0.  0.
         12    1    1    2    0    0 -0.20181256279E+02 -0.30590872040E+02 -0.26192160179E+02  0.45045685831E+02  0.00000000000E+00 0. -1.
         11    1    3    3    0    0  0.16055143745E+01  0.23130687351E+01  0.30646527065E+00  0.28322931704E+01  0.51100000000E-03 0. -1.
        -11    1    3    3    0    0  0.15835546945E+02  0.27489381715E+02  0.22552306936E+02  0.38923478808E+02  0.51100000000E-03 0.  1.
         12    1    3    3    0    0  0.27401949595E+01  0.78842159013E+00  0.33333879716E+01  0.43865421905E+01  0.00000000000E+00 0. -1.
</event>
<event>
 7    1  0.2097247E-008  0.4614232E+02  0.7816164E-02  0.1320468E+00
        -11   -1    0    0    0    0  0.00000000000E+00  0.00000000000E+00  0.45593999997E+02  0.45594000000E+02  0.51100000000E-03 0.  1.
         11   -1    0    0    0    0 -0.00000000000E+00 -0.00000000000E+00 -0.45593999997E+02  0.45594000000E+02  0.51100000000E-03 0. -1.
    9900012    2    1    2    0    0  0.13806480049E+02  0.22108130695E+02  0.36738605247E+02  0.46142318190E+02  0.10000003913E+02 0.  0.
         12    1    1    2    0    0 -0.13806480049E+02 -0.22108130695E+02 -0.36738605247E+02  0.45045681810E+02  0.00000000000E+00 0. -1.
         11    1    3    3    0    0  0.79497948762E+00  0.36983302194E+01  0.10889420135E+02  0.11527753898E+02  0.51100000000E-03 0. -1.
        -11    1    3    3    0    0  0.46587800172E+01  0.32631473838E+01  0.72582338026E+01  0.92214055486E+01  0.51100000000E-03 0.  1.
        -12    1    3    3    0    0  0.83527205444E+01  0.15146653092E+02  0.18590951310E+02  0.25393158744E+02  0.00000000000E+00 0.  1.
</event>
<event>
 7    1  0.2097247E-008  0.4614232E+02  0.7816164E-02  0.1320468E+00
        -11   -1    0    0    0    0  0.00000000000E+00  0.00000000000E+00  0.45593999997E+02  0.45594000000E+02  0.51100000000E-03 0.  1.
         11   -1    0    0    0    0 -0.00000000000E+00 -0.00000000000E+00 -0.45593999997E+02  0.45594000000E+02  0.51100000000E-03 0. -1.
    9900012    2    1    2    0    0 -0.40459800924E+02  0.74824607410E+01  0.18333869835E+02  0.46142317713E+02  0.99999995640E+01 0.  0.
         12    1    1    2    0    0  0.40459800924E+02 -0.74824607410E+01 -0.18333869835E+02  0.45045682287E+02  0.00000000000E+00 0. -1.
         11    1    3    3    0    0 -0.31670951278E+00  0.10577216944E+01  0.39431635359E+00  0.11724187589E+01  0.51100000000E-03 0. -1.
        -11    1    3    3    0    0 -0.35762730858E+02  0.53274817409E+01  0.13382584781E+02  0.38554488140E+02  0.51100000000E-03 0.  1.
        -12    1    3    3    0    0 -0.43803605537E+01  0.10972573057E+01  0.45569687006E+01  0.64154108141E+01  0.00000000000E+00 0.  1.
</event>
<event>
 7    1  0.2097247E-008  0.4614232E+02  0.7816164E-02  0.1320468E+00
        -11   -1    0    0    0    0  0.00000000000E+00  0.00000000000E+00  0.45593999997E+02  0.45594000000E+02  0.51100000000E-03 0.  1.
         11   -1    0    0    0    0 -0.00000000000E+00 -0.00000000000E+00 -0.45593999997E+02  0.45594000000E+02  0.51100000000E-03 0. -1.
    9900012    2    1    2    0    0  0.96332117573E+01 -0.43350029044E+02  0.75557721853E+01  0.46142317851E+02  0.10000000823E+02 0.  0.
         12    1    1    2    0    0 -0.96332117573E+01  0.43350029044E+02 -0.75557721853E+01  0.45045682149E+02  0.00000000000E+00 0. -1.
         11    1    3    3    0    0  0.25900356891E+01 -0.16151931615E+02 -0.77320733867E+00  0.16376539000E+02  0.51100000000E-03 0. -1.
        -11    1    3    3    0    0  0.11320700438E+00 -0.10178063633E+02  0.24208072830E+01  0.10462604996E+02  0.51100000000E-03 0.  1.
         12    1    3    3    0    0  0.69299690637E+01 -0.17020033796E+02  0.59081722410E+01  0.19303173855E+02  0.00000000000E+00 0. -1.
</event>
<event>
 7    1  0.2097247E-008  0.4614232E+02  0.7816164E-02  0.1320468E+00
        -11   -1    0    0    0    0  0.00000000000E+00  0.00000000000E+00  0.45593999997E+02  0.45594000000E+02  0.51100000000E-03 0.  1.
         11   -1    0    0    0    0 -0.00000000000E+00 -0.00000000000E+00 -0.45593999997E+02  0.45594000000E+02  0.51100000000E-03 0. -1.
    9900012    2    1    2    0    0  0.22011514664E+02 -0.29617715553E+02 -0.25834041730E+02  0.46142316916E+02  0.99999922980E+01 0.  0.
         12    1    1    2    0    0 -0.22011514664E+02  0.29617715553E+02  0.25834041730E+02  0.45045683084E+02  0.00000000000E+00 0. -1.
         11    1    3    3    0    0  0.39473796460E+00 -0.21098422324E+01 -0.17851984299E+01  0.27918069420E+01  0.51100000000E-03 0. -1.
        -11    1    3    3    0    0 -0.30508038025E+00  0.43172339345E+00 -0.57156360472E+00  0.77855272283E+00  0.51100000000E-03 0.  1.
        -12    1    3    3    0    0  0.21921857080E+02 -0.27939596714E+02 -0.23477279695E+02  0.42571957252E+02  0.00000000000E+00 0.  1.
</event>
<event>
 7    1  0.2097247E-008  0.4614232E+02  0.7816164E-02  0.1320468E+00
        -11   -1    0    0    0    0  0.00000000000E+00  0.00000000000E+00  0.45593999997E+02  0.45594000000E+02  0.51100000000E-03 0. -1.
         11   -1    0    0    0    0 -0.00000000000E+00 -0.00000000000E+00 -0.45593999997E+02  0.45594000000E+02  0.51100000000E-03 0.  1.
    9900012    2    1    2    0    0 -0.44597914745E+02  0.53436456007E+01 -0.34036591599E+01  0.46142318259E+02  0.10000004537E+02 0.  0.
         12    1    1    2    0    0  0.44597914745E+02 -0.53436456007E+01  0.34036591599E+01  0.45045681741E+02  0.00000000000E+00 0. -1.
         11    1    3    3    0    0 -0.58336221666E+00  0.27056902289E+00 -0.96531099944E+00  0.11598899339E+01  0.51100000000E-03 0. -1.
        -11    1    3    3    0    0 -0.23380455426E+02  0.45978688497E+01 -0.44671722743E+01  0.24243385124E+02  0.51100000000E-03 0.  1.
        -12    1    3    3    0    0 -0.20634097102E+02  0.47520772811E+00  0.20288241138E+01  0.20739043201E+02  0.00000000000E+00 0.  1.
</event>
<event>
 7    1  0.2097247E-008  0.4614232E+02  0.7816164E-02  0.1320468E+00
        -11   -1    0    0    0    0  0.00000000000E+00  0.00000000000E+00  0.45593999997E+02  0.45594000000E+02  0.51100000000E-03 0. -1.
         11   -1    0    0    0    0 -0.00000000000E+00 -0.00000000000E+00 -0.45593999997E+02  0.45594000000E+02  0.51100000000E-03 0.  1.
    9900012    2    1    2    0    0 -0.48473153880E+01 -0.42481227466E+02 -0.14176119767E+02  0.46142317353E+02  0.99999962771E+01 0.  0.
         12    1    1    2    0    0  0.48473153880E+01  0.42481227466E+02  0.14176119767E+02  0.45045682647E+02  0.00000000000E+00 0. -1.
         11    1    3    3    0    0  0.17843685888E+01 -0.62625428765E+01 -0.34494565578E+01  0.73690002948E+01  0.51100000000E-03 0. -1.
        -11    1    3    3    0    0 -0.49830896986E+01 -0.34511319703E+02 -0.10328653879E+02  0.36366790645E+02  0.51100000000E-03 0.  1.
        -12    1    3    3    0    0 -0.16485942782E+01 -0.17073648862E+01 -0.39800933061E+00  0.24065264129E+01  0.00000000000E+00 0.  1.
</event>
<event>
 7    1  0.2097247E-008  0.4614232E+02  0.7816164E-02  0.1320468E+00
        -11   -1    0    0    0    0  0.00000000000E+00  0.00000000000E+00  0.45593999997E+02  0.45594000000E+02  0.51100000000E-03 0.  1.
         11   -1    0    0    0    0 -0.00000000000E+00 -0.00000000000E+00 -0.45593999997E+02  0.45594000000E+02  0.51100000000E-03 0. -1.
    9900012    2    1    2    0    0  0.33346067846E+02  0.15918098206E+02  0.25763682700E+02  0.46142318325E+02  0.10000005141E+02 0.  0.
         12    1    1    2    0    0 -0.33346067846E+02 -0.15918098206E+02 -0.25763682700E+02  0.45045681675E+02  0.00000000000E+00 0. -1.
         11    1    3    3    0    0  0.14554620126E+02  0.86034909410E+01  0.11439119068E+02  0.20413487422E+02  0.51100000000E-03 0.  1.
        -11    1    3    3    0    0  0.15341018358E+02  0.86899483663E+01  0.11332484004E+02  0.20959180348E+02  0.51100000000E-03 0. -1.
         12    1    3    3    0    0  0.34504293614E+01 -0.13753411012E+01  0.29920796277E+01  0.47696505555E+01  0.00000000000E+00 0. -1.
</event>
<event>
 7    1  0.2097247E-008  0.4614232E+02  0.7816164E-02  0.1320468E+00
        -11   -1    0    0    0    0  0.00000000000E+00  0.00000000000E+00  0.45593999997E+02  0.45594000000E+02  0.51100000000E-03 0.  1.
         11   -1    0    0    0    0 -0.00000000000E+00 -0.00000000000E+00 -0.45593999997E+02  0.45594000000E+02  0.51100000000E-03 0. -1.
    9900012    2    1    2    0    0 -0.66441597468E+01  0.11783876313E+02  0.42966369228E+02  0.46142317805E+02  0.10000000404E+02 0.  0.
         12    1    1    2    0    0  0.66441597468E+01 -0.11783876313E+02 -0.42966369228E+02  0.45045682195E+02  0.00000000000E+00 0. -1.
         11    1    3    3    0    0  0.57767531220E+00  0.59260972267E+00 -0.48584724438E-01  0.82900891811E+00  0.51100000000E-03 0. -1.
        -11    1    3    3    0    0 -0.78119091602E+00 -0.36099825484E+00  0.47408871048E+01  0.48183596575E+01  0.51100000000E-03 0.  1.
        -12    1    3    3    0    0 -0.64406441430E+01  0.11552264845E+02  0.38274066848E+02  0.40494949230E+02  0.00000000000E+00 0.  1.
</event>
<event>
 7    1  0.2097247E-008  0.4614232E+02  0.7816164E-02  0.1320468E+00
        -11   -1    0    0    0    0  0.00000000000E+00  0.00000000000E+00  0.45593999997E+02  0.45594000000E+02  0.51100000000E-03 0.  1.
         11   -1    0    0    0    0 -0.00000000000E+00 -0.00000000000E+00 -0.45593999997E+02  0.45594000000E+02  0.51100000000E-03 0. -1.
    9900012    2    1    2    0    0  0.24763244749E+02  0.34744030468E+02  0.14448098362E+02  0.46142317744E+02  0.99999998443E+01 0.  0.
         12    1    1    2    0    0 -0.24763244749E+02 -0.34744030468E+02 -0.14448098362E+02  0.45045682256E+02  0.00000000000E+00 0. -1.
         11    1    3    3    0    0 -0.80019795191E+00  0.13768432003E+01  0.11564202743E+01  0.19680757284E+01  0.51100000000E-03 0. -1.
        -11    1    3    3    0    0  0.10620681805E+02  0.14203528642E+02  0.70456719441E+01  0.19083516481E+02  0.51100000000E-03 0.  1.
         12    1    3    3    0    0  0.14942760895E+02  0.19163658626E+02  0.62460061432E+01  0.25090725535E+02  0.00000000000E+00 0. -1.
</event>
<event>
 7    1  0.2097247E-008  0.4614232E+02  0.7816164E-02  0.1320468E+00
        -11   -1    0    0    0    0  0.00000000000E+00  0.00000000000E+00  0.45593999997E+02  0.45594000000E+02  0.51100000000E-03 0.  1.
         11   -1    0    0    0    0 -0.00000000000E+00 -0.00000000000E+00 -0.45593999997E+02  0.45594000000E+02  0.51100000000E-03 0. -1.
    9900012    2    1    2    0    0  0.66310768443E+01 -0.10906997793E+02  0.43199302797E+02  0.46142317154E+02  0.99999944597E+01 0.  0.
         12    1    1    2    0    0 -0.66310768443E+01  0.10906997793E+02 -0.43199302797E+02  0.45045682846E+02  0.00000000000E+00 0. -1.
         11    1    3    3    0    0  0.11507509018E+01 -0.82095901952E+00  0.66710912916E+00  0.15630854746E+01  0.51100000000E-03 0. -1.
        -11    1    3    3    0    0  0.58648422690E+01 -0.81872373377E+01  0.40646857453E+02  0.41875938809E+02  0.51100000000E-03 0.  1.
        -12    1    3    3    0    0 -0.38451632644E+00 -0.18988014361E+01  0.18853362148E+01  0.27032928701E+01  0.00000000000E+00 0.  1.
</event>
<event>
 7    1  0.2097247E-008  0.4614232E+02  0.7816164E-02  0.1320468E+00
        -11   -1    0    0    0    0  0.00000000000E+00  0.00000000000E+00  0.45593999997E+02  0.45594000000E+02  0.51100000000E-03 0.  1.
         11   -1    0    0    0    0 -0.00000000000E+00 -0.00000000000E+00 -0.45593999997E+02  0.45594000000E+02  0.51100000000E-03 0. -1.
    9900012    2    1    2    0    0 -0.10414730278E+02 -0.19989287256E+02  0.39000965333E+02  0.46142317536E+02  0.99999979435E+01 0.  0.
         12    1    1    2    0    0  0.10414730278E+02  0.19989287256E+02 -0.39000965333E+02  0.45045682464E+02  0.00000000000E+00 0. -1.
         11    1    3    3    0    0 -0.45105330215E+01 -0.36999438501E+01  0.91294363230E+01  0.10834255880E+02  0.51100000000E-03 0. -1.
        -11    1    3    3    0    0 -0.22725932018E+01 -0.19457126000E+01  0.15856137250E+01  0.33859486896E+01  0.51100000000E-03 0.  1.
        -12    1    3    3    0    0 -0.36316040547E+01 -0.14343630806E+02  0.28285915285E+02  0.31922112966E+02  0.00000000000E+00 0.  1.
</event>
<event>
 7    1  0.2097247E-008  0.4614232E+02  0.7816164E-02  0.1320468E+00
        -11   -1    0    0    0    0  0.00000000000E+00  0.00000000000E+00  0.45593999997E+02  0.45594000000E+02  0.51100000000E-03 0.  1.
         11   -1    0    0    0    0 -0.00000000000E+00 -0.00000000000E+00 -0.45593999997E+02  0.45594000000E+02  0.51100000000E-03 0. -1.
    9900012    2    1    2    0    0 -0.47789402910E+01 -0.13053768899E+02  0.42847104321E+02  0.46142317615E+02  0.99999986714E+01 0.  0.
         12    1    1    2    0    0  0.47789402910E+01  0.13053768899E+02 -0.42847104321E+02  0.45045682385E+02  0.00000000000E+00 0. -1.
         11    1    3    3    0    0 -0.40469967724E+00 -0.53470695242E+01  0.84054025852E+01  0.99702420836E+01  0.51100000000E-03 0. -1.
        -11    1    3    3    0    0 -0.21071244784E+01 -0.56775145359E+01  0.11203044560E+02  0.12735083531E+02  0.51100000000E-03 0.  1.
        -12    1    3    3    0    0 -0.22671161354E+01 -0.20291848384E+01  0.23238657176E+02  0.23436992001E+02  0.00000000000E+00 0.  1.
</event>
<event>
 7    1  0.2097247E-008  0.4614232E+02  0.7816164E-02  0.1320468E+00
        -11   -1    0    0    0    0  0.00000000000E+00  0.00000000000E+00  0.45593999997E+02  0.45594000000E+02  0.51100000000E-03 0.  1.
         11   -1    0    0    0    0 -0.00000000000E+00 -0.00000000000E+00 -0.45593999997E+02  0.45594000000E+02  0.51100000000E-03 0. -1.
    9900012    2    1    2    0    0  0.68412487369E+01  0.80141499530E+01  0.43795938450E+02  0.46142317538E+02  0.99999979667E+01 0.  0.
         12    1    1    2    0    0 -0.68412487369E+01 -0.80141499530E+01 -0.43795938450E+02  0.45045682462E+02  0.00000000000E+00 0. -1.
         11    1    3    3    0    0  0.45594465516E+01  0.34113012073E+01  0.13770267778E+02  0.14901201419E+02  0.51100000000E-03 0. -1.
        -11    1    3    3    0    0  0.21742847184E+01  0.18948911128E-01  0.24039908024E+01  0.32414572552E+01  0.51100000000E-03 0.  1.
        -12    1    3    3    0    0  0.10751746697E+00  0.45838998345E+01  0.27621679870E+02  0.27999658864E+02  0.00000000000E+00 0.  1.
</event>
<event>
 7    1  0.2097247E-008  0.4614232E+02  0.7816164E-02  0.1320468E+00
        -11   -1    0    0    0    0  0.00000000000E+00  0.00000000000E+00  0.45593999997E+02  0.45594000000E+02  0.51100000000E-03 0. -1.
         11   -1    0    0    0    0 -0.00000000000E+00 -0.00000000000E+00 -0.45593999997E+02  0.45594000000E+02  0.51100000000E-03 0.  1.
    9900012    2    1    2    0    0  0.14030472348E+02  0.34361930125E+02 -0.25524832038E+02  0.46142318223E+02  0.10000004213E+02 0.  0.
         12    1    1    2    0    0 -0.14030472348E+02 -0.34361930125E+02  0.25524832038E+02  0.45045681777E+02  0.00000000000E+00 0. -1.
         11    1    3    3    0    0  0.36311956602E+01  0.92892148672E+01 -0.82464779098E+01  0.12941386825E+02  0.51100000000E-03 0.  1.
        -11    1    3    3    0    0 -0.13672754725E+01  0.22187341703E+01 -0.11034713341E+01  0.28301718645E+01  0.51100000000E-03 0. -1.
         12    1    3    3    0    0  0.11766552160E+02  0.22853981087E+02 -0.16174882794E+02  0.30370759534E+02  0.00000000000E+00 0. -1.
</event>
<event>
 7    1  0.2097247E-008  0.4614232E+02  0.7816164E-02  0.1320468E+00
        -11   -1    0    0    0    0  0.00000000000E+00  0.00000000000E+00  0.45593999997E+02  0.45594000000E+02  0.51100000000E-03 0.  1.
         11   -1    0    0    0    0 -0.00000000000E+00 -0.00000000000E+00 -0.45593999997E+02  0.45594000000E+02  0.51100000000E-03 0. -1.
    9900012    2    1    2    0    0 -0.25388003694E+02 -0.30460315986E+01  0.37084826739E+02  0.46142318583E+02  0.10000007492E+02 0.  0.
         12    1    1    2    0    0  0.25388003694E+02  0.30460315986E+01 -0.37084826739E+02  0.45045681417E+02  0.00000000000E+00 0. -1.
         11    1    3    3    0    0 -0.21871762136E+02 -0.32730263866E-01  0.26984151634E+02  0.34734989418E+02  0.51100000000E-03 0. -1.
        -11    1    3    3    0    0 -0.23563432525E+01 -0.33386829717E+00  0.46792091945E+01  0.52496495607E+01  0.51100000000E-03 0.  1.
         12    1    3    3    0    0 -0.11598983052E+01 -0.26794330376E+01  0.54214659105E+01  0.61576796036E+01  0.00000000000E+00 0. -1.
</event>
<event>
 7    1  0.2097247E-008  0.4614232E+02  0.7816164E-02  0.1320468E+00
        -11   -1    0    0    0    0  0.00000000000E+00  0.00000000000E+00  0.45593999997E+02  0.45594000000E+02  0.51100000000E-03 0.  1.
         11   -1    0    0    0    0 -0.00000000000E+00 -0.00000000000E+00 -0.45593999997E+02  0.45594000000E+02  0.51100000000E-03 0. -1.
    9900012    2    1    2    0    0 -0.23271036275E+02 -0.37629622411E+02 -0.84607220878E+01  0.46142318405E+02  0.10000005874E+02 0.  0.
         12    1    1    2    0    0  0.23271036275E+02  0.37629622411E+02  0.84607220878E+01  0.45045681595E+02  0.00000000000E+00 0. -1.
         11    1    3    3    0    0 -0.47758649257E+01 -0.24946644030E+01 -0.12311221263E+01  0.55270153087E+01  0.51100000000E-03 0. -1.
        -11    1    3    3    0    0 -0.65384304877E+01 -0.16442560665E+02 -0.19140169780E+01  0.17798099216E+02  0.51100000000E-03 0.  1.
         12    1    3    3    0    0 -0.11956740861E+02 -0.18692397343E+02 -0.53155829835E+01  0.22817203880E+02  0.00000000000E+00 0. -1.
</event>
<event>
 7    1  0.2097247E-008  0.4614232E+02  0.7816164E-02  0.1320468E+00
        -11   -1    0    0    0    0  0.00000000000E+00  0.00000000000E+00  0.45593999997E+02  0.45594000000E+02  0.51100000000E-03 0.  1.
         11   -1    0    0    0    0 -0.00000000000E+00 -0.00000000000E+00 -0.45593999997E+02  0.45594000000E+02  0.51100000000E-03 0. -1.
    9900012    2    1    2    0    0 -0.35767459679E+02  0.27346442703E+02  0.14051397766E+01  0.46142317430E+02  0.99999969803E+01 0.  0.
         12    1    1    2    0    0  0.35767459679E+02 -0.27346442703E+02 -0.14051397766E+01  0.45045682570E+02  0.00000000000E+00 0. -1.
         11    1    3    3    0    0 -0.20171346723E+02  0.17614665314E+02  0.49768726189E+01  0.27238372273E+02  0.51100000000E-03 0. -1.
        -11    1    3    3    0    0 -0.98863491152E+01  0.54613818501E+01 -0.10589705346E+01  0.11344073757E+02  0.51100000000E-03 0.  1.
         12    1    3    3    0    0 -0.57097638407E+01  0.42703955387E+01 -0.25127623078E+01  0.75598714003E+01  0.00000000000E+00 0. -1.
</event>
<event>
 7    1  0.2097247E-008  0.4614232E+02  0.7816164E-02  0.1320468E+00
        -11   -1    0    0    0    0  0.00000000000E+00  0.00000000000E+00  0.45593999997E+02  0.45594000000E+02  0.51100000000E-03 0.  1.
         11   -1    0    0    0    0 -0.00000000000E+00 -0.00000000000E+00 -0.45593999997E+02  0.45594000000E+02  0.51100000000E-03 0. -1.
    9900012    2    1    2    0    0  0.40051012802E+02  0.27596494037E+01  0.20430717506E+02  0.46142317531E+02  0.99999978983E+01 0.  0.
         12    1    1    2    0    0 -0.40051012802E+02 -0.27596494037E+01 -0.20430717506E+02  0.45045682469E+02  0.00000000000E+00 0. -1.
         11    1    3    3    0    0  0.75686408153E+01 -0.19486788630E+01  0.48314933055E+01  0.91883078379E+01  0.51100000000E-03 0. -1.
        -11    1    3    3    0    0  0.10800039009E+02 -0.15149365833E+01  0.58999552757E+01  0.12399409178E+02  0.51100000000E-03 0.  1.
         12    1    3    3    0    0  0.21682332978E+02  0.62232648500E+01  0.96992689250E+01  0.24554600515E+02  0.00000000000E+00 0. -1.
</event>
<event>
 7    1  0.2097247E-008  0.4614232E+02  0.7816164E-02  0.1320468E+00
        -11   -1    0    0    0    0  0.00000000000E+00  0.00000000000E+00  0.45593999997E+02  0.45594000000E+02  0.51100000000E-03 0. -1.
         11   -1    0    0    0    0 -0.00000000000E+00 -0.00000000000E+00 -0.45593999997E+02  0.45594000000E+02  0.51100000000E-03 0.  1.
    9900012    2    1    2    0    0 -0.26288686543E+02  0.28349815801E+02 -0.23115068002E+02  0.46142318022E+02  0.10000002380E+02 0.  0.
         12    1    1    2    0    0  0.26288686543E+02 -0.28349815801E+02  0.23115068002E+02  0.45045681978E+02  0.00000000000E+00 0. -1.
         11    1    3    3    0    0 -0.56703354099E+01  0.69520761484E+01 -0.77233700686E+01  0.11837842367E+02  0.51100000000E-03 0. -1.
        -11    1    3    3    0    0 -0.18180921563E+02  0.17051218902E+02 -0.15441077148E+02  0.29320928340E+02  0.51100000000E-03 0.  1.
         12    1    3    3    0    0 -0.24374295694E+01  0.43465207501E+01  0.49379213764E-01  0.49835473153E+01  0.00000000000E+00 0. -1.
</event>
<event>
 7    1  0.2097247E-008  0.4614232E+02  0.7816164E-02  0.1320468E+00
        -11   -1    0    0    0    0  0.00000000000E+00  0.00000000000E+00  0.45593999997E+02  0.45594000000E+02  0.51100000000E-03 0. -1.
         11   -1    0    0    0    0 -0.00000000000E+00 -0.00000000000E+00 -0.45593999997E+02  0.45594000000E+02  0.51100000000E-03 0.  1.
    9900012    2    1    2    0    0 -0.42040280820E+02 -0.14958658580E+02 -0.61617101660E+01  0.46142319296E+02  0.10000013994E+02 0.  0.
         12    1    1    2    0    0  0.42040280820E+02  0.14958658580E+02  0.61617101660E+01  0.45045680704E+02  0.00000000000E+00 0. -1.
         11    1    3    3    0    0 -0.13709683361E+02 -0.23093453613E+01 -0.56275634969E+01  0.14998598769E+02  0.51100000000E-03 0. -1.
        -11    1    3    3    0    0 -0.37334679548E+01 -0.16714298825E+01  0.82837374012E+00  0.41735673154E+01  0.51100000000E-03 0.  1.
        -12    1    3    3    0    0 -0.24597129505E+02 -0.10977883336E+02 -0.13625204092E+01  0.26970153212E+02  0.00000000000E+00 0.  1.
</event>
<event>
 7    1  0.2097247E-008  0.4614232E+02  0.7816164E-02  0.1320468E+00
        -11   -1    0    0    0    0  0.00000000000E+00  0.00000000000E+00  0.45593999997E+02  0.45594000000E+02  0.51100000000E-03 0.  1.
         11   -1    0    0    0    0 -0.00000000000E+00 -0.00000000000E+00 -0.45593999997E+02  0.45594000000E+02  0.51100000000E-03 0. -1.
    9900012    2    1    2    0    0  0.13468910923E+02  0.37167765633E+02  0.21593034096E+02  0.46142317798E+02  0.10000000336E+02 0.  0.
         12    1    1    2    0    0 -0.13468910923E+02 -0.37167765633E+02 -0.21593034096E+02  0.45045682202E+02  0.00000000000E+00 0. -1.
         11    1    3    3    0    0  0.64130159833E+01  0.70291974933E+01  0.49948454298E+01  0.10746388813E+02  0.51100000000E-03 0. -1.
        -11    1    3    3    0    0  0.36429570763E+01  0.75171079382E+01  0.51580680558E+01  0.98175207840E+01  0.51100000000E-03 0.  1.
        -12    1    3    3    0    0  0.34129378632E+01  0.22621460201E+02  0.11440120610E+02  0.25578408201E+02  0.00000000000E+00 0.  1.
</event>
<event>
 7    1  0.2097247E-008  0.4614232E+02  0.7816164E-02  0.1320468E+00
        -11   -1    0    0    0    0  0.00000000000E+00  0.00000000000E+00  0.45593999997E+02  0.45594000000E+02  0.51100000000E-03 0.  1.
         11   -1    0    0    0    0 -0.00000000000E+00 -0.00000000000E+00 -0.45593999997E+02  0.45594000000E+02  0.51100000000E-03 0. -1.
    9900012    2    1    2    0    0 -0.36762594457E+02 -0.11571208939E+02  0.23318066614E+02  0.46142318096E+02  0.10000003057E+02 0.  0.
         12    1    1    2    0    0  0.36762594457E+02  0.11571208939E+02 -0.23318066614E+02  0.45045681904E+02  0.00000000000E+00 0. -1.
         11    1    3    3    0    0 -0.83348646094E+01 -0.50441620585E+01  0.75810191881E+01  0.12344447785E+02  0.51100000000E-03 0. -1.
        -11    1    3    3    0    0 -0.28401280872E+02 -0.64984811710E+01  0.14470786285E+02  0.32531010877E+02  0.51100000000E-03 0.  1.
         12    1    3    3    0    0 -0.26448975955E-01 -0.28565709039E-01  0.12662611416E+01  0.12668594345E+01  0.00000000000E+00 0. -1.
</event>
<event>
 7    1  0.2097247E-008  0.4614232E+02  0.7816164E-02  0.1320468E+00
        -11   -1    0    0    0    0  0.00000000000E+00  0.00000000000E+00  0.45593999997E+02  0.45594000000E+02  0.51100000000E-03 0. -1.
         11   -1    0    0    0    0 -0.00000000000E+00 -0.00000000000E+00 -0.45593999997E+02  0.45594000000E+02  0.51100000000E-03 0.  1.
    9900012    2    1    2    0    0 -0.81479945611E+01 -0.43719057110E+02  0.71671145759E+01  0.46142319838E+02  0.10000018937E+02 0.  0.
         12    1    1    2    0    0  0.81479945611E+01  0.43719057110E+02 -0.71671145759E+01  0.45045680162E+02  0.00000000000E+00 0. -1.
         11    1    3    3    0    0  0.91594839238E+00 -0.76630629172E+00  0.89728341741E+00  0.14937551950E+01  0.51100000000E-03 0. -1.
        -11    1    3    3    0    0 -0.10219105194E+01 -0.66795303556E+01  0.28627866655E+01  0.73386630004E+01  0.51100000000E-03 0.  1.
        -12    1    3    3    0    0 -0.80420324340E+01 -0.36273220462E+02  0.34070444929E+01  0.37309901642E+02  0.00000000000E+00 0.  1.
</event>
<event>
 7    1  0.2097247E-008  0.4614232E+02  0.7816164E-02  0.1320468E+00
        -11   -1    0    0    0    0  0.00000000000E+00  0.00000000000E+00  0.45593999997E+02  0.45594000000E+02  0.51100000000E-03 0.  1.
         11   -1    0    0    0    0 -0.00000000000E+00 -0.00000000000E+00 -0.45593999997E+02  0.45594000000E+02  0.51100000000E-03 0. -1.
    9900012    2    1    2    0    0 -0.37297154194E+02  0.94294670454E+01  0.23433330502E+02  0.46142317209E+02  0.99999949628E+01 0.  0.
         12    1    1    2    0    0  0.37297154194E+02 -0.94294670454E+01 -0.23433330502E+02  0.45045682791E+02  0.00000000000E+00 0. -1.
         11    1    3    3    0    0 -0.33975714915E+02  0.60575643700E+01  0.18052015616E+02  0.38947638672E+02  0.51100000000E-03 0.  1.
        -11    1    3    3    0    0 -0.11592662486E+01  0.10840847365E+01  0.22599882774E+01  0.27616453838E+01  0.51100000000E-03 0. -1.
        -12    1    3    3    0    0 -0.21621730304E+01  0.22878179389E+01  0.31213266093E+01  0.44330331532E+01  0.00000000000E+00 0.  1.
</event>
<event>
 7    1  0.2097247E-008  0.4614232E+02  0.7816164E-02  0.1320468E+00
        -11   -1    0    0    0    0  0.00000000000E+00  0.00000000000E+00  0.45593999997E+02  0.45594000000E+02  0.51100000000E-03 0.  1.
         11   -1    0    0    0    0 -0.00000000000E+00 -0.00000000000E+00 -0.45593999997E+02  0.45594000000E+02  0.51100000000E-03 0. -1.
    9900012    2    1    2    0    0 -0.30244161951E+02 -0.12375868507E+02  0.31003903341E+02  0.46142317900E+02  0.10000001268E+02 0.  0.
         12    1    1    2    0    0  0.30244161951E+02  0.12375868507E+02 -0.31003903341E+02  0.45045682100E+02  0.00000000000E+00 0. -1.
         11    1    3    3    0    0 -0.27935253813E+01 -0.26348360335E+01  0.15966049231E+01  0.41587609358E+01  0.51100000000E-03 0. -1.
        -11    1    3    3    0    0 -0.31669187460E+01 -0.30098849711E+01  0.21735752414E+01  0.48798782233E+01  0.51100000000E-03 0.  1.
        -12    1    3    3    0    0 -0.24283717824E+02 -0.67311475028E+01  0.27233723177E+02  0.37103678741E+02  0.00000000000E+00 0.  1.
</event>
<event>
 7    1  0.2097247E-008  0.4614232E+02  0.7816164E-02  0.1320468E+00
        -11   -1    0    0    0    0  0.00000000000E+00  0.00000000000E+00  0.45593999997E+02  0.45594000000E+02  0.51100000000E-03 0.  1.
         11   -1    0    0    0    0 -0.00000000000E+00 -0.00000000000E+00 -0.45593999997E+02  0.45594000000E+02  0.51100000000E-03 0. -1.
    9900012    2    1    2    0    0  0.17729055573E+02 -0.14634147725E+02  0.38738039983E+02  0.46142318377E+02  0.10000005617E+02 0.  0.
         12    1    1    2    0    0 -0.17729055573E+02  0.14634147725E+02 -0.38738039983E+02  0.45045681623E+02  0.00000000000E+00 0. -1.
         11    1    3    3    0    0  0.12096869208E+02 -0.80216887580E+01  0.19385916480E+02  0.24217669029E+02  0.51100000000E-03 0. -1.
        -11    1    3    3    0    0 -0.10196561983E+01 -0.77992060515E+00  0.13313767919E+01  0.18494700149E+01  0.51100000000E-03 0.  1.
        -12    1    3    3    0    0  0.66518425631E+01 -0.58325383618E+01  0.18020746711E+02  0.20075179333E+02  0.00000000000E+00 0.  1.
</event>
<event>
 7    1  0.2097247E-008  0.4614232E+02  0.7816164E-02  0.1320468E+00
        -11   -1    0    0    0    0  0.00000000000E+00  0.00000000000E+00  0.45593999997E+02  0.45594000000E+02  0.51100000000E-03 0. -1.
         11   -1    0    0    0    0 -0.00000000000E+00 -0.00000000000E+00 -0.45593999997E+02  0.45594000000E+02  0.51100000000E-03 0.  1.
    9900012    2    1    2    0    0 -0.15063308618E+02  0.27898446249E+02 -0.31998233810E+02  0.46142317226E+02  0.99999951204E+01 0.  0.
         12    1    1    2    0    0  0.15063308618E+02 -0.27898446249E+02  0.31998233810E+02  0.45045682774E+02  0.00000000000E+00 0. -1.
         11    1    3    3    0    0 -0.73773159188E+00  0.15759848629E+01 -0.37564634244E+01  0.41399268001E+01  0.51100000000E-03 0. -1.
        -11    1    3    3    0    0 -0.82581925865E+01  0.13608408331E+02 -0.94342951063E+01  0.18503849505E+02  0.51100000000E-03 0.  1.
         12    1    3    3    0    0 -0.60673844393E+01  0.12714053055E+02 -0.18807475280E+02  0.23498540921E+02  0.00000000000E+00 0. -1.
</event>
<event>
 7    1  0.2097247E-008  0.4614232E+02  0.7816164E-02  0.1320468E+00
        -11   -1    0    0    0    0  0.00000000000E+00  0.00000000000E+00  0.45593999997E+02  0.45594000000E+02  0.51100000000E-03 0.  1.
         11   -1    0    0    0    0 -0.00000000000E+00 -0.00000000000E+00 -0.45593999997E+02  0.45594000000E+02  0.51100000000E-03 0. -1.
    9900012    2    1    2    0    0 -0.65805888446E+00  0.15314387161E+02  0.42357407935E+02  0.46142317604E+02  0.99999985665E+01 0.  0.
         12    1    1    2    0    0  0.65805888446E+00 -0.15314387161E+02 -0.42357407935E+02  0.45045682396E+02  0.00000000000E+00 0. -1.
         11    1    3    3    0    0 -0.17210290169E+01  0.56697739893E+01  0.21725800553E+02  0.22519295901E+02  0.51100000000E-03 0. -1.
        -11    1    3    3    0    0  0.27336855431E+00  0.10367134964E+02  0.19344349575E+02  0.21948942536E+02  0.51100000000E-03 0.  1.
        -12    1    3    3    0    0  0.78960157816E+00 -0.72252179290E+00  0.12872578067E+01  0.16740791661E+01  0.00000000000E+00 0.  1.
</event>
<event>
 7    1  0.2097247E-008  0.4614232E+02  0.7816164E-02  0.1320468E+00
        -11   -1    0    0    0    0  0.00000000000E+00  0.00000000000E+00  0.45593999997E+02  0.45594000000E+02  0.51100000000E-03 0.  1.
         11   -1    0    0    0    0 -0.00000000000E+00 -0.00000000000E+00 -0.45593999997E+02  0.45594000000E+02  0.51100000000E-03 0. -1.
    9900012    2    1    2    0    0 -0.25637411841E+02  0.34231315571E+02  0.14144033222E+02  0.46142317328E+02  0.99999960504E+01 0.  0.
         12    1    1    2    0    0  0.25637411841E+02 -0.34231315571E+02 -0.14144033222E+02  0.45045682672E+02  0.00000000000E+00 0. -1.
         11    1    3    3    0    0 -0.10125519512E+02  0.80894084667E+01  0.45664910707E+01  0.13741088592E+02  0.51100000000E-03 0. -1.
        -11    1    3    3    0    0 -0.68362342275E+01  0.73899891312E+01  0.49923705442E+01  0.11236983656E+02  0.51100000000E-03 0.  1.
        -12    1    3    3    0    0 -0.86756581019E+01  0.18751917973E+02  0.45851716070E+01  0.21164245080E+02  0.00000000000E+00 0.  1.
</event>
<event>
 7    1  0.2097247E-008  0.4614232E+02  0.7816164E-02  0.1320468E+00
        -11   -1    0    0    0    0  0.00000000000E+00  0.00000000000E+00  0.45593999997E+02  0.45594000000E+02  0.51100000000E-03 0.  1.
         11   -1    0    0    0    0 -0.00000000000E+00 -0.00000000000E+00 -0.45593999997E+02  0.45594000000E+02  0.51100000000E-03 0. -1.
    9900012    2    1    2    0    0  0.29463981428E+02  0.15318990686E+02  0.30435436795E+02  0.46142317742E+02  0.99999998233E+01 0.  0.
         12    1    1    2    0    0 -0.29463981428E+02 -0.15318990686E+02 -0.30435436795E+02  0.45045682258E+02  0.00000000000E+00 0. -1.
         11    1    3    3    0    0  0.56083476136E+00 -0.68645539372E+00  0.32915800000E+00  0.94556960992E+00  0.51100000000E-03 0. -1.
        -11    1    3    3    0    0  0.27500882944E+02  0.13066175708E+02  0.26936242331E+02  0.40651994557E+02  0.51100000000E-03 0.  1.
        -12    1    3    3    0    0  0.14022637219E+01  0.29392703721E+01  0.31700364644E+01  0.45447535743E+01  0.00000000000E+00 0.  1.
</event>
<event>
 7    1  0.2097247E-008  0.4614232E+02  0.7816164E-02  0.1320468E+00
        -11   -1    0    0    0    0  0.00000000000E+00  0.00000000000E+00  0.45593999997E+02  0.45594000000E+02  0.51100000000E-03 0. -1.
         11   -1    0    0    0    0 -0.00000000000E+00 -0.00000000000E+00 -0.45593999997E+02  0.45594000000E+02  0.51100000000E-03 0.  1.
    9900012    2    1    2    0    0 -0.43375706806E+02  0.69871985764E+01 -0.99418611103E+01  0.46142317774E+02  0.10000000119E+02 0.  0.
         12    1    1    2    0    0  0.43375706806E+02 -0.69871985764E+01  0.99418611103E+01  0.45045682226E+02  0.00000000000E+00 0. -1.
         11    1    3    3    0    0 -0.23043479419E+01  0.17767501990E+01 -0.26608631057E+01  0.39429752010E+01  0.51100000000E-03 0. -1.
        -11    1    3    3    0    0 -0.33580540638E+02  0.41516602439E+01 -0.44768232651E+01  0.34131084646E+02  0.51100000000E-03 0.  1.
         12    1    3    3    0    0 -0.74908182258E+01  0.10587881335E+01 -0.28041747395E+01  0.80682579268E+01  0.00000000000E+00 0. -1.
</event>
<event>
 7    1  0.2097247E-008  0.4614232E+02  0.7816164E-02  0.1320468E+00
        -11   -1    0    0    0    0  0.00000000000E+00  0.00000000000E+00  0.45593999997E+02  0.45594000000E+02  0.51100000000E-03 0. -1.
         11   -1    0    0    0    0 -0.00000000000E+00 -0.00000000000E+00 -0.45593999997E+02  0.45594000000E+02  0.51100000000E-03 0.  1.
    9900012    2    1    2    0    0  0.40539154392E+02  0.15449441045E+02  0.12124571881E+02  0.46142317513E+02  0.99999977369E+01 0.  0.
         12    1    1    2    0    0 -0.40539154392E+02 -0.15449441045E+02 -0.12124571881E+02  0.45045682487E+02  0.00000000000E+00 0. -1.
         11    1    3    3    0    0  0.74872544138E+01  0.46409018514E+01  0.42697207376E+00  0.88192547341E+01  0.51100000000E-03 0. -1.
        -11    1    3    3    0    0  0.30941839747E+02  0.11523519155E+02  0.99292831110E+01  0.34478683328E+02  0.51100000000E-03 0.  1.
         12    1    3    3    0    0  0.21100602312E+01 -0.71497996136E+00  0.17683166962E+01  0.28443794512E+01  0.00000000000E+00 0. -1.
</event>
<event>
 7    1  0.2097247E-008  0.4614232E+02  0.7816164E-02  0.1320468E+00
        -11   -1    0    0    0    0  0.00000000000E+00  0.00000000000E+00  0.45593999997E+02  0.45594000000E+02  0.51100000000E-03 0. -1.
         11   -1    0    0    0    0 -0.00000000000E+00 -0.00000000000E+00 -0.45593999997E+02  0.45594000000E+02  0.51100000000E-03 0.  1.
    9900012    2    1    2    0    0 -0.40116941439E+02  0.63345648682E+01 -0.19483781030E+02  0.46142318457E+02  0.10000006343E+02 0.  0.
         12    1    1    2    0    0  0.40116941439E+02 -0.63345648682E+01  0.19483781030E+02  0.45045681543E+02  0.00000000000E+00 0. -1.
         11    1    3    3    0    0 -0.22724010159E+02  0.79271261104E+01 -0.11815721760E+02  0.26811028459E+02  0.51100000000E-03 0. -1.
        -11    1    3    3    0    0 -0.13924451870E+02 -0.10040789239E-01 -0.57717509822E+01  0.15073273379E+02  0.51100000000E-03 0.  1.
         12    1    3    3    0    0 -0.34684794101E+01 -0.15825204529E+01 -0.18963082872E+01  0.42580166184E+01  0.00000000000E+00 0. -1.
</event>
<event>
 7    1  0.2097247E-008  0.4614232E+02  0.7816164E-02  0.1320468E+00
        -11   -1    0    0    0    0  0.00000000000E+00  0.00000000000E+00  0.45593999997E+02  0.45594000000E+02  0.51100000000E-03 0.  1.
         11   -1    0    0    0    0 -0.00000000000E+00 -0.00000000000E+00 -0.45593999997E+02  0.45594000000E+02  0.51100000000E-03 0. -1.
    9900012    2    1    2    0    0  0.13677820072E+02 -0.15142606711E+02  0.40158836587E+02  0.46142318121E+02  0.10000003285E+02 0.  0.
         12    1    1    2    0    0 -0.13677820072E+02  0.15142606711E+02 -0.40158836587E+02  0.45045681879E+02  0.00000000000E+00 0. -1.
         11    1    3    3    0    0  0.73972974873E+01 -0.11369400731E+02  0.30637154320E+02  0.33505499671E+02  0.51100000000E-03 0. -1.
        -11    1    3    3    0    0  0.54117036442E+01 -0.45066364893E+01  0.88718310571E+01  0.11327210396E+02  0.51100000000E-03 0.  1.
         12    1    3    3    0    0  0.86881894015E+00  0.73343050933E+00  0.64985120925E+00  0.13096080547E+01  0.00000000000E+00 0. -1.
</event>
<event>
 7    1  0.2097247E-008  0.4614232E+02  0.7816164E-02  0.1320468E+00
        -11   -1    0    0    0    0  0.00000000000E+00  0.00000000000E+00  0.45593999997E+02  0.45594000000E+02  0.51100000000E-03 0.  1.
         11   -1    0    0    0    0 -0.00000000000E+00 -0.00000000000E+00 -0.45593999997E+02  0.45594000000E+02  0.51100000000E-03 0. -1.
    9900012    2    1    2    0    0 -0.27351412857E+02  0.29414003670E+02  0.20391911892E+02  0.46142317990E+02  0.10000002087E+02 0.  0.
         12    1    1    2    0    0  0.27351412857E+02 -0.29414003670E+02 -0.20391911892E+02  0.45045682010E+02  0.00000000000E+00 0. -1.
         11    1    3    3    0    0 -0.14412175777E+02  0.20474964868E+02  0.14995956319E+02  0.29185847651E+02  0.51100000000E-03 0.  1.
        -11    1    3    3    0    0 -0.84536006806E+01  0.56200459710E+01  0.17769615791E+01  0.10305623411E+02  0.51100000000E-03 0. -1.
        -12    1    3    3    0    0 -0.44856363991E+01  0.33189928313E+01  0.36189939944E+01  0.66508469273E+01  0.00000000000E+00 0.  1.
</event>
<event>
 7    1  0.2097247E-008  0.4614231E+02  0.7816164E-02  0.1320468E+00
        -11   -1    0    0    0    0  0.00000000000E+00  0.00000000000E+00  0.45593999997E+02  0.45594000000E+02  0.51100000000E-03 0.  1.
         11   -1    0    0    0    0 -0.00000000000E+00 -0.00000000000E+00 -0.45593999997E+02  0.45594000000E+02  0.51100000000E-03 0. -1.
    9900012    2    1    2    0    0 -0.99040468323E+01 -0.37569635380E+02  0.22793566204E+02  0.46142308679E+02  0.99999171839E+01 0.  0.
         12    1    1    2    0    0  0.99040468323E+01  0.37569635380E+02 -0.22793566204E+02  0.45045691321E+02  0.00000000000E+00 0. -1.
         11    1    3    3    0    0 -0.23877789317E+01 -0.11729613454E+02  0.28138535679E+01  0.12296466654E+02  0.51100000000E-03 0. -1.
        -11    1    3    3    0    0 -0.69780682866E+00 -0.82832658372E+01  0.44142785897E+01  0.94119755115E+01  0.51100000000E-03 0.  1.
         12    1    3    3    0    0 -0.68184610719E+01 -0.17556756089E+02  0.15565434047E+02  0.24433866514E+02  0.00000000000E+00 0. -1.
</event>
<event>
 7    1  0.2097247E-008  0.4614232E+02  0.7816164E-02  0.1320468E+00
        -11   -1    0    0    0    0  0.00000000000E+00  0.00000000000E+00  0.45593999997E+02  0.45594000000E+02  0.51100000000E-03 0.  1.
         11   -1    0    0    0    0 -0.00000000000E+00 -0.00000000000E+00 -0.45593999997E+02  0.45594000000E+02  0.51100000000E-03 0. -1.
    9900012    2    1    2    0    0 -0.26936914371E+02  0.57858467245E+01  0.35637622704E+02  0.46142317297E+02  0.99999957683E+01 0.  0.
         12    1    1    2    0    0  0.26936914371E+02 -0.57858467245E+01 -0.35637622704E+02  0.45045682703E+02  0.00000000000E+00 0. -1.
         11    1    3    3    0    0 -0.18042598416E+02  0.68350472316E+01  0.26982640307E+02  0.33171013045E+02  0.51100000000E-03 0. -1.
        -11    1    3    3    0    0 -0.68486565711E+01  0.19171540757E+00  0.79116126430E+01  0.10465871512E+02  0.51100000000E-03 0.  1.
         12    1    3    3    0    0 -0.20456593840E+01 -0.12409159147E+01  0.74336975442E+00  0.25054327399E+01  0.00000000000E+00 0. -1.
</event>
<event>
 7    1  0.2097247E-008  0.4614232E+02  0.7816164E-02  0.1320468E+00
        -11   -1    0    0    0    0  0.00000000000E+00  0.00000000000E+00  0.45593999997E+02  0.45594000000E+02  0.51100000000E-03 0.  1.
         11   -1    0    0    0    0 -0.00000000000E+00 -0.00000000000E+00 -0.45593999997E+02  0.45594000000E+02  0.51100000000E-03 0. -1.
    9900012    2    1    2    0    0 -0.10531541099E+02 -0.42566091767E+02  0.10311531940E+02  0.46142320771E+02  0.10000027447E+02 0.  0.
         12    1    1    2    0    0  0.10531541099E+02  0.42566091767E+02 -0.10311531940E+02  0.45045679229E+02  0.00000000000E+00 0. -1.
         11    1    3    3    0    0 -0.32213640178E+01 -0.21590423508E+02  0.31193599296E+01  0.22051167316E+02  0.51100000000E-03 0. -1.
        -11    1    3    3    0    0  0.97553122301E+00 -0.28088660196E+01  0.14894548066E+01  0.33256375878E+01  0.51100000000E-03 0.  1.
         12    1    3    3    0    0 -0.82857083039E+01 -0.18166802240E+02  0.57027172039E+01  0.20765515867E+02  0.00000000000E+00 0. -1.
</event>
<event>
 7    1  0.2097247E-008  0.4614232E+02  0.7816164E-02  0.1320468E+00
        -11   -1    0    0    0    0  0.00000000000E+00  0.00000000000E+00  0.45593999997E+02  0.45594000000E+02  0.51100000000E-03 0.  1.
         11   -1    0    0    0    0 -0.00000000000E+00 -0.00000000000E+00 -0.45593999997E+02  0.45594000000E+02  0.51100000000E-03 0. -1.
    9900012    2    1    2    0    0 -0.19267998773E+02  0.31669712530E+02  0.25590761284E+02  0.46142317282E+02  0.99999956345E+01 0.  0.
         12    1    1    2    0    0  0.19267998773E+02 -0.31669712530E+02 -0.25590761284E+02  0.45045682718E+02  0.00000000000E+00 0. -1.
         11    1    3    3    0    0 -0.59974028581E+01  0.72392341846E+01  0.58692805884E+01  0.11082590289E+02  0.51100000000E-03 0. -1.
        -11    1    3    3    0    0 -0.13968251180E+02  0.23522178941E+02  0.19991391558E+02  0.33883044135E+02  0.51100000000E-03 0.  1.
         12    1    3    3    0    0  0.69765526532E+00  0.90829940418E+00 -0.26991086251E+00  0.11766828590E+01  0.00000000000E+00 0. -1.
</event>
<event>
 7    1  0.2097247E-008  0.4614232E+02  0.7816164E-02  0.1320468E+00
        -11   -1    0    0    0    0  0.00000000000E+00  0.00000000000E+00  0.45593999997E+02  0.45594000000E+02  0.51100000000E-03 0.  1.
         11   -1    0    0    0    0 -0.00000000000E+00 -0.00000000000E+00 -0.45593999997E+02  0.45594000000E+02  0.51100000000E-03 0. -1.
    9900012    2    1    2    0    0  0.20032513615E+02 -0.26489971036E+02  0.30431778806E+02  0.46142319535E+02  0.10000016179E+02 0.  0.
         12    1    1    2    0    0 -0.20032513615E+02  0.26489971036E+02 -0.30431778806E+02  0.45045680465E+02  0.00000000000E+00 0. -1.
         11    1    3    3    0    0  0.76860794129E+01 -0.73455034618E+01  0.77372637993E+01  0.13149048985E+02  0.51100000000E-03 0. -1.
        -11    1    3    3    0    0  0.10083999686E+02 -0.11254483022E+02  0.10935866222E+02  0.18653246582E+02  0.51100000000E-03 0.  1.
         12    1    3    3    0    0  0.22624345163E+01 -0.78899845524E+01  0.11758648785E+02  0.14340023969E+02  0.00000000000E+00 0. -1.
</event>
<event>
 7    1  0.2097247E-008  0.4614232E+02  0.7816164E-02  0.1320468E+00
        -11   -1    0    0    0    0  0.00000000000E+00  0.00000000000E+00  0.45593999997E+02  0.45594000000E+02  0.51100000000E-03 0. -1.
         11   -1    0    0    0    0 -0.00000000000E+00 -0.00000000000E+00 -0.45593999997E+02  0.45594000000E+02  0.51100000000E-03 0.  1.
    9900012    2    1    2    0    0 -0.73141831266E+01 -0.31710006861E+02 -0.31146295422E+02  0.46142317316E+02  0.99999959388E+01 0.  0.
         12    1    1    2    0    0  0.73141831266E+01  0.31710006861E+02  0.31146295422E+02  0.45045682684E+02  0.00000000000E+00 0. -1.
         11    1    3    3    0    0 -0.32724380537E+01 -0.97366577327E+01 -0.96601657078E+01  0.14100714747E+02  0.51100000000E-03 0. -1.
        -11    1    3    3    0    0 -0.41553512807E+01 -0.13471584428E+02 -0.17971485458E+02  0.22841296397E+02  0.51100000000E-03 0.  1.
         12    1    3    3    0    0  0.11360620787E+00 -0.85017647010E+01 -0.35146442562E+01  0.92003061715E+01  0.00000000000E+00 0. -1.
</event>
<event>
 7    1  0.2097247E-008  0.4614232E+02  0.7816164E-02  0.1320468E+00
        -11   -1    0    0    0    0  0.00000000000E+00  0.00000000000E+00  0.45593999997E+02  0.45594000000E+02  0.51100000000E-03 0.  1.
         11   -1    0    0    0    0 -0.00000000000E+00 -0.00000000000E+00 -0.45593999997E+02  0.45594000000E+02  0.51100000000E-03 0. -1.
    9900012    2    1    2    0    0 -0.30237619975E+02 -0.19750239994E+01  0.33330155821E+02  0.46142315761E+02  0.99999817618E+01 0.  0.
         12    1    1    2    0    0  0.30237619975E+02  0.19750239994E+01 -0.33330155821E+02  0.45045684239E+02  0.00000000000E+00 0. -1.
         11    1    3    3    0    0 -0.18515284455E+02 -0.39029924280E+01  0.25612837209E+02  0.31844411417E+02  0.51100000000E-03 0. -1.
        -11    1    3    3    0    0 -0.17025122630E+01  0.70641116671E+00  0.56893599926E+00  0.19290549952E+01  0.51100000000E-03 0.  1.
        -12    1    3    3    0    0 -0.10019823257E+02  0.12215572619E+01  0.71483826119E+01  0.12368849348E+02  0.00000000000E+00 0.  1.
</event>
<event>
 7    1  0.2097247E-008  0.4614232E+02  0.7816164E-02  0.1320468E+00
        -11   -1    0    0    0    0  0.00000000000E+00  0.00000000000E+00  0.45593999997E+02  0.45594000000E+02  0.51100000000E-03 0.  1.
         11   -1    0    0    0    0 -0.00000000000E+00 -0.00000000000E+00 -0.45593999997E+02  0.45594000000E+02  0.51100000000E-03 0. -1.
    9900012    2    1    2    0    0 -0.36702386973E+02  0.24171175565E+01  0.26003951988E+02  0.46142321120E+02  0.10000030625E+02 0.  0.
         12    1    1    2    0    0  0.36702386973E+02 -0.24171175565E+01 -0.26003951988E+02  0.45045678880E+02  0.00000000000E+00 0. -1.
         11    1    3    3    0    0 -0.10893190943E+02  0.13284712873E+00  0.39211466129E+01  0.11578197109E+02  0.51100000000E-03 0. -1.
        -11    1    3    3    0    0 -0.13729913617E+02  0.34202009444E+01  0.92542701159E+01  0.16907093721E+02  0.51100000000E-03 0.  1.
        -12    1    3    3    0    0 -0.12079282412E+02 -0.11359305166E+01  0.12828535259E+02  0.17657030289E+02  0.00000000000E+00 0.  1.
</event>
<event>
 7    1  0.2097247E-008  0.4614232E+02  0.7816164E-02  0.1320468E+00
        -11   -1    0    0    0    0  0.00000000000E+00  0.00000000000E+00  0.45593999997E+02  0.45594000000E+02  0.51100000000E-03 0.  1.
         11   -1    0    0    0    0 -0.00000000000E+00 -0.00000000000E+00 -0.45593999997E+02  0.45594000000E+02  0.51100000000E-03 0. -1.
    9900012    2    1    2    0    0  0.15221503949E+02 -0.36498487486E+00  0.42394411233E+02  0.46142317630E+02  0.99999988031E+01 0.  0.
         12    1    1    2    0    0 -0.15221503949E+02  0.36498487486E+00 -0.42394411233E+02  0.45045682370E+02  0.00000000000E+00 0. -1.
         11    1    3    3    0    0  0.40132106164E+00  0.27838974441E+01  0.55072108568E+01  0.61838915948E+01  0.51100000000E-03 0. -1.
        -11    1    3    3    0    0  0.32568486440E+01 -0.99438267789E+00  0.11200615978E+02  0.11706821027E+02  0.51100000000E-03 0.  1.
        -12    1    3    3    0    0  0.11563334244E+02 -0.21544996410E+01  0.25686584398E+02  0.28251605009E+02  0.00000000000E+00 0.  1.
</event>
<event>
 7    1  0.2097247E-008  0.4614231E+02  0.7816164E-02  0.1320468E+00
        -11   -1    0    0    0    0  0.00000000000E+00  0.00000000000E+00  0.45593999997E+02  0.45594000000E+02  0.51100000000E-03 0.  1.
         11   -1    0    0    0    0 -0.00000000000E+00 -0.00000000000E+00 -0.45593999997E+02  0.45594000000E+02  0.51100000000E-03 0. -1.
    9900012    2    1    2    0    0  0.13170825498E+02 -0.25485417322E+01  0.43001726298E+02  0.46142310152E+02  0.99999306179E+01 0.  0.
         12    1    1    2    0    0 -0.13170825498E+02  0.25485417322E+01 -0.43001726298E+02  0.45045689848E+02  0.00000000000E+00 0. -1.
         11    1    3    3    0    0  0.17636795489E+01 -0.18680185011E+01  0.49995658124E+01  0.56210067821E+01  0.51100000000E-03 0. -1.
        -11    1    3    3    0    0  0.11924189607E+02 -0.24391242284E+01  0.31635660686E+02  0.33896174594E+02  0.51100000000E-03 0.  1.
        -12    1    3    3    0    0 -0.51704365791E+00  0.17586009973E+01  0.63664997988E+01  0.66251287761E+01  0.00000000000E+00 0.  1.
</event>
<event>
 7    1  0.2097247E-008  0.4614232E+02  0.7816164E-02  0.1320468E+00
        -11   -1    0    0    0    0  0.00000000000E+00  0.00000000000E+00  0.45593999997E+02  0.45594000000E+02  0.51100000000E-03 0. -1.
         11   -1    0    0    0    0 -0.00000000000E+00 -0.00000000000E+00 -0.45593999997E+02  0.45594000000E+02  0.51100000000E-03 0.  1.
    9900012    2    1    2    0    0  0.13986485277E+02  0.27292325727E+01 -0.42732224385E+02  0.46142317835E+02  0.10000000670E+02 0.  0.
         12    1    1    2    0    0 -0.13986485277E+02 -0.27292325727E+01  0.42732224385E+02  0.45045682165E+02  0.00000000000E+00 0. -1.
         11    1    3    3    0    0 -0.61057650470E+00 -0.17903565208E+00 -0.15309216780E+01  0.16578838554E+01  0.51100000000E-03 0. -1.
        -11    1    3    3    0    0  0.13699471913E+02  0.48843524263E+00 -0.37840466208E+02  0.40246925135E+02  0.51100000000E-03 0.  1.
        -12    1    3    3    0    0  0.89758986914E+00  0.24198329822E+01 -0.33608364986E+01  0.42375088443E+01  0.00000000000E+00 0.  1.
</event>
<event>
 7    1  0.2097247E-008  0.4614232E+02  0.7816164E-02  0.1320468E+00
        -11   -1    0    0    0    0  0.00000000000E+00  0.00000000000E+00  0.45593999997E+02  0.45594000000E+02  0.51100000000E-03 0. -1.
         11   -1    0    0    0    0 -0.00000000000E+00 -0.00000000000E+00 -0.45593999997E+02  0.45594000000E+02  0.51100000000E-03 0.  1.
    9900012    2    1    2    0    0  0.31518554699E+02  0.23989786776E+02 -0.21451908669E+02  0.46142317128E+02  0.99999942287E+01 0.  0.
         12    1    1    2    0    0 -0.31518554699E+02 -0.23989786776E+02  0.21451908669E+02  0.45045682872E+02  0.00000000000E+00 0. -1.
         11    1    3    3    0    0  0.23744468662E+02  0.20596817088E+02 -0.17544181046E+02  0.35997596517E+02  0.51100000000E-03 0. -1.
        -11    1    3    3    0    0  0.65851869270E+01  0.19327622002E+01 -0.44570289313E+01  0.81832367522E+01  0.51100000000E-03 0.  1.
         12    1    3    3    0    0  0.11888991100E+01  0.14602074873E+01  0.54930130852E+00  0.19614838585E+01  0.00000000000E+00 0. -1.
</event>
<event>
 7    1  0.2097247E-008  0.4614232E+02  0.7816164E-02  0.1320468E+00
        -11   -1    0    0    0    0  0.00000000000E+00  0.00000000000E+00  0.45593999997E+02  0.45594000000E+02  0.51100000000E-03 0.  1.
         11   -1    0    0    0    0 -0.00000000000E+00 -0.00000000000E+00 -0.45593999997E+02  0.45594000000E+02  0.51100000000E-03 0. -1.
    9900012    2    1    2    0    0  0.62361482764E+01 -0.10088715551E+02  0.43456204934E+02  0.46142317920E+02  0.10000001445E+02 0.  0.
         12    1    1    2    0    0 -0.62361482764E+01  0.10088715551E+02 -0.43456204934E+02  0.45045682080E+02  0.00000000000E+00 0. -1.
         11    1    3    3    0    0  0.14541916459E+01 -0.71689275049E-01  0.70303716818E+01  0.71795500514E+01  0.51100000000E-03 0. -1.
        -11    1    3    3    0    0  0.43621012896E+01 -0.39145519462E+01  0.81849680972E+01  0.10067042645E+02  0.51100000000E-03 0.  1.
        -12    1    3    3    0    0  0.41985534097E+00 -0.61024743294E+01  0.28240865155E+02  0.28895725223E+02  0.00000000000E+00 0.  1.
</event>
<event>
 7    1  0.2097247E-008  0.4614232E+02  0.7816164E-02  0.1320468E+00
        -11   -1    0    0    0    0  0.00000000000E+00  0.00000000000E+00  0.45593999997E+02  0.45594000000E+02  0.51100000000E-03 0. -1.
         11   -1    0    0    0    0 -0.00000000000E+00 -0.00000000000E+00 -0.45593999997E+02  0.45594000000E+02  0.51100000000E-03 0.  1.
    9900012    2    1    2    0    0  0.42091223159E+02 -0.15555546762E+02 -0.39328417843E+01  0.46142319335E+02  0.10000014352E+02 0.  0.
         12    1    1    2    0    0 -0.42091223159E+02  0.15555546762E+02  0.39328417843E+01  0.45045680665E+02  0.00000000000E+00 0. -1.
         11    1    3    3    0    0  0.31990914449E+02 -0.91415340124E+01 -0.24346625862E+01  0.33360363211E+02  0.51100000000E-03 0. -1.
        -11    1    3    3    0    0  0.52377160348E+01 -0.11971829042E+01 -0.17362104817E+01  0.56463566364E+01  0.51100000000E-03 0.  1.
         12    1    3    3    0    0  0.48625926751E+01 -0.52168298453E+01  0.23803128358E+00  0.71355994878E+01  0.00000000000E+00 0. -1.
</event>
<event>
 7    1  0.2097247E-008  0.4614232E+02  0.7816164E-02  0.1320468E+00
        -11   -1    0    0    0    0  0.00000000000E+00  0.00000000000E+00  0.45593999997E+02  0.45594000000E+02  0.51100000000E-03 0.  1.
         11   -1    0    0    0    0 -0.00000000000E+00 -0.00000000000E+00 -0.45593999997E+02  0.45594000000E+02  0.51100000000E-03 0. -1.
    9900012    2    1    2    0    0 -0.88459601425E+01  0.10799405278E+02  0.42827973408E+02  0.46142317949E+02  0.10000001712E+02 0.  0.
         12    1    1    2    0    0  0.88459601425E+01 -0.10799405278E+02 -0.42827973408E+02  0.45045682051E+02  0.00000000000E+00 0. -1.
         11    1    3    3    0    0 -0.15446212986E+01  0.72838532574E-02  0.32719517019E+01  0.36182283250E+01  0.51100000000E-03 0. -1.
        -11    1    3    3    0    0 -0.47861736288E+01  0.10804682211E+02  0.23840947509E+02  0.26609009642E+02  0.51100000000E-03 0.  1.
         12    1    3    3    0    0 -0.25151652151E+01 -0.12560786675E-01  0.15715074197E+02  0.15915079982E+02  0.00000000000E+00 0. -1.
</event>
<event>
 7    1  0.2097247E-008  0.4614232E+02  0.7816164E-02  0.1320468E+00
        -11   -1    0    0    0    0  0.00000000000E+00  0.00000000000E+00  0.45593999997E+02  0.45594000000E+02  0.51100000000E-03 0.  1.
         11   -1    0    0    0    0 -0.00000000000E+00 -0.00000000000E+00 -0.45593999997E+02  0.45594000000E+02  0.51100000000E-03 0. -1.
    9900012    2    1    2    0    0 -0.15834998135E+02 -0.42119688871E+02 -0.20731650090E+01  0.46142319078E+02  0.10000012012E+02 0.  0.
         12    1    1    2    0    0  0.15834998135E+02  0.42119688871E+02  0.20731650090E+01  0.45045680922E+02  0.00000000000E+00 0. -1.
         11    1    3    3    0    0 -0.18345791575E+01 -0.26316646412E+01 -0.66888148413E+00  0.32770020095E+01  0.51100000000E-03 0. -1.
        -11    1    3    3    0    0 -0.14607517272E+02 -0.37004345524E+02 -0.29248197025E+01  0.39890546738E+02  0.51100000000E-03 0.  1.
        -12    1    3    3    0    0  0.60709829461E+00 -0.24836787062E+01  0.15205361777E+01  0.29747703311E+01  0.00000000000E+00 0.  1.
</event>
<event>
 7    1  0.2097247E-008  0.4614232E+02  0.7816164E-02  0.1320468E+00
        -11   -1    0    0    0    0  0.00000000000E+00  0.00000000000E+00  0.45593999997E+02  0.45594000000E+02  0.51100000000E-03 0.  1.
         11   -1    0    0    0    0 -0.00000000000E+00 -0.00000000000E+00 -0.45593999997E+02  0.45594000000E+02  0.51100000000E-03 0. -1.
    9900012    2    1    2    0    0 -0.18035541698E+02 -0.73350788430E+01  0.40620553290E+02  0.46142317681E+02  0.99999992711E+01 0.  0.
         12    1    1    2    0    0  0.18035541698E+02  0.73350788430E+01 -0.40620553290E+02  0.45045682319E+02  0.00000000000E+00 0. -1.
         11    1    3    3    0    0 -0.79524301487E+01 -0.48067847144E+00  0.14125589721E+02  0.16217412935E+02  0.51100000000E-03 0. -1.
        -11    1    3    3    0    0 -0.80369395715E+00 -0.30931136421E+01  0.11175861700E+02  0.11623818692E+02  0.51100000000E-03 0.  1.
         12    1    3    3    0    0 -0.92794175922E+01 -0.37612867294E+01  0.15319101869E+02  0.18301086055E+02  0.00000000000E+00 0. -1.
</event>
<event>
 7    1  0.2097247E-008  0.4614232E+02  0.7816164E-02  0.1320468E+00
        -11   -1    0    0    0    0  0.00000000000E+00  0.00000000000E+00  0.45593999997E+02  0.45594000000E+02  0.51100000000E-03 0.  1.
         11   -1    0    0    0    0 -0.00000000000E+00 -0.00000000000E+00 -0.45593999997E+02  0.45594000000E+02  0.51100000000E-03 0. -1.
    9900012    2    1    2    0    0 -0.17871409183E+02 -0.11067046183E+02  0.39840265769E+02  0.46142317034E+02  0.99999933652E+01 0.  0.
         12    1    1    2    0    0  0.17871409183E+02  0.11067046183E+02 -0.39840265769E+02  0.45045682966E+02  0.00000000000E+00 0. -1.
         11    1    3    3    0    0 -0.39392502909E+01 -0.21677340820E+01  0.34246761195E+01  0.56520058997E+01  0.51100000000E-03 0.  1.
        -11    1    3    3    0    0  0.11024904351E+00 -0.17689514391E+01  0.22073773316E+01  0.28308760112E+01  0.51100000000E-03 0. -1.
         12    1    3    3    0    0 -0.14042407935E+02 -0.71303606616E+01  0.34208212318E+02  0.37659435123E+02  0.00000000000E+00 0. -1.
</event>
<event>
 7    1  0.2097247E-008  0.4614232E+02  0.7816164E-02  0.1320468E+00
        -11   -1    0    0    0    0  0.00000000000E+00  0.00000000000E+00  0.45593999997E+02  0.45594000000E+02  0.51100000000E-03 0.  1.
         11   -1    0    0    0    0 -0.00000000000E+00 -0.00000000000E+00 -0.45593999997E+02  0.45594000000E+02  0.51100000000E-03 0. -1.
    9900012    2    1    2    0    0 -0.10005407290E+02  0.45386374480E+01  0.43685307349E+02  0.46142317819E+02  0.10000000532E+02 0.  0.
         12    1    1    2    0    0  0.10005407290E+02 -0.45386374480E+01 -0.43685307349E+02  0.45045682181E+02  0.00000000000E+00 0. -1.
         11    1    3    3    0    0 -0.23030041229E+01  0.21062113229E+01  0.29045368296E+01  0.42633658748E+01  0.51100000000E-03 0. -1.
        -11    1    3    3    0    0 -0.30895538376E+00  0.13555075068E+00  0.13935985132E+02  0.13940068483E+02  0.51100000000E-03 0.  1.
        -12    1    3    3    0    0 -0.73934477832E+01  0.22968753744E+01  0.26844785387E+02  0.27938883462E+02  0.00000000000E+00 0.  1.
</event>
<event>
 7    1  0.2097247E-008  0.4614232E+02  0.7816164E-02  0.1320468E+00
        -11   -1    0    0    0    0  0.00000000000E+00  0.00000000000E+00  0.45593999997E+02  0.45594000000E+02  0.51100000000E-03 0.  1.
         11   -1    0    0    0    0 -0.00000000000E+00 -0.00000000000E+00 -0.45593999997E+02  0.45594000000E+02  0.51100000000E-03 0. -1.
    9900012    2    1    2    0    0 -0.19237652842E+02  0.27224467629E+02  0.30296114796E+02  0.46142317673E+02  0.99999991960E+01 0.  0.
         12    1    1    2    0    0  0.19237652842E+02 -0.27224467629E+02 -0.30296114796E+02  0.45045682327E+02  0.00000000000E+00 0. -1.
         11    1    3    3    0    0 -0.53032023395E+01  0.23489941637E+01  0.31012672593E+01  0.65772021034E+01  0.51100000000E-03 0. -1.
        -11    1    3    3    0    0 -0.76174118575E+01  0.10106410111E+02  0.12690374839E+02  0.17922335299E+02  0.51100000000E-03 0.  1.
         12    1    3    3    0    0 -0.63170386452E+01  0.14769063355E+02  0.14504472698E+02  0.21642780271E+02  0.00000000000E+00 0. -1.
</event>
<event>
 7    1  0.2097247E-008  0.4614232E+02  0.7816164E-02  0.1320468E+00
        -11   -1    0    0    0    0  0.00000000000E+00  0.00000000000E+00  0.45593999997E+02  0.45594000000E+02  0.51100000000E-03 0.  1.
         11   -1    0    0    0    0 -0.00000000000E+00 -0.00000000000E+00 -0.45593999997E+02  0.45594000000E+02  0.51100000000E-03 0. -1.
    9900012    2    1    2    0    0  0.12704476484E+02 -0.27253748725E+02  0.33540169604E+02  0.46142317417E+02  0.99999968604E+01 0.  0.
         12    1    1    2    0    0 -0.12704476484E+02  0.27253748725E+02 -0.33540169604E+02  0.45045682583E+02  0.00000000000E+00 0. -1.
         11    1    3    3    0    0  0.16083085166E+01 -0.72093713902E+01  0.62531986674E+01  0.96780259330E+01  0.51100000000E-03 0. -1.
        -11    1    3    3    0    0  0.39053378570E+00 -0.76432103185E+01  0.10653880753E+02  0.13117787770E+02  0.51100000000E-03 0.  1.
         12    1    3    3    0    0  0.10705634182E+02 -0.12401167016E+02  0.16633090183E+02  0.23346503714E+02  0.00000000000E+00 0. -1.
</event>
<event>
 7    1  0.2097247E-008  0.4614232E+02  0.7816164E-02  0.1320468E+00
        -11   -1    0    0    0    0  0.00000000000E+00  0.00000000000E+00  0.45593999997E+02  0.45594000000E+02  0.51100000000E-03 0.  1.
         11   -1    0    0    0    0 -0.00000000000E+00 -0.00000000000E+00 -0.45593999997E+02  0.45594000000E+02  0.51100000000E-03 0. -1.
    9900012    2    1    2    0    0 -0.39531994925E+02 -0.56094452515E+01  0.20853511180E+02  0.46142318439E+02  0.10000006183E+02 0.  0.
         12    1    1    2    0    0  0.39531994925E+02  0.56094452515E+01 -0.20853511180E+02  0.45045681561E+02  0.00000000000E+00 0. -1.
         11    1    3    3    0    0 -0.36233542011E+01 -0.62499707087E+00  0.54169355473E+01  0.65469464630E+01  0.51100000000E-03 0. -1.
        -11    1    3    3    0    0 -0.75408788084E+01 -0.24602548576E+01  0.25145487359E+01  0.83210974501E+01  0.51100000000E-03 0.  1.
        -12    1    3    3    0    0 -0.28367761915E+02 -0.25241933230E+01  0.12922026897E+02  0.31274274526E+02  0.00000000000E+00 0.  1.
</event>
<event>
 7    1  0.2097247E-008  0.4614232E+02  0.7816164E-02  0.1320468E+00
        -11   -1    0    0    0    0  0.00000000000E+00  0.00000000000E+00  0.45593999997E+02  0.45594000000E+02  0.51100000000E-03 0. -1.
         11   -1    0    0    0    0 -0.00000000000E+00 -0.00000000000E+00 -0.45593999997E+02  0.45594000000E+02  0.51100000000E-03 0.  1.
    9900012    2    1    2    0    0 -0.38624593846E+02  0.19983774007E+02 -0.11743211609E+02  0.46142317719E+02  0.99999996151E+01 0.  0.
         12    1    1    2    0    0  0.38624593846E+02 -0.19983774007E+02  0.11743211609E+02  0.45045682281E+02  0.00000000000E+00 0. -1.
         11    1    3    3    0    0 -0.77322564732E+01  0.20535024707E+01 -0.39644855389E+01  0.89287069844E+01  0.51100000000E-03 0. -1.
        -11    1    3    3    0    0 -0.38002137877E+01  0.50482358189E+00 -0.24868733712E+01  0.45695744995E+01  0.51100000000E-03 0.  1.
        -12    1    3    3    0    0 -0.27092123585E+02  0.17425447954E+02 -0.52918526985E+01  0.32644036235E+02  0.00000000000E+00 0.  1.
</event>
<event>
 7    1  0.2097247E-008  0.4614232E+02  0.7816164E-02  0.1320468E+00
        -11   -1    0    0    0    0  0.00000000000E+00  0.00000000000E+00  0.45593999997E+02  0.45594000000E+02  0.51100000000E-03 0. -1.
         11   -1    0    0    0    0 -0.00000000000E+00 -0.00000000000E+00 -0.45593999997E+02  0.45594000000E+02  0.51100000000E-03 0.  1.
    9900012    2    1    2    0    0 -0.25833264130E+02 -0.51761813908E+01 -0.36537146314E+02  0.46142318185E+02  0.10000003864E+02 0.  0.
         12    1    1    2    0    0  0.25833264130E+02  0.51761813908E+01  0.36537146314E+02  0.45045681815E+02  0.00000000000E+00 0. -1.
         11    1    3    3    0    0 -0.14533132811E+01 -0.90187416624E+00 -0.73710986988E+00  0.18624789197E+01  0.51100000000E-03 0. -1.
        -11    1    3    3    0    0 -0.13718894151E+02  0.53691964099E+00 -0.24098021353E+02  0.27734652924E+02  0.51100000000E-03 0.  1.
        -12    1    3    3    0    0 -0.10661056698E+02 -0.48112268655E+01 -0.11702015091E+02  0.16545186341E+02  0.00000000000E+00 0.  1.
</event>
<event>
 7    1  0.2769840E-008  0.4614232E+02  0.7816164E-02  0.1320468E+00
        -11   -1    0    0    0    0  0.00000000000E+00  0.00000000000E+00  0.45593999997E+02  0.45594000000E+02  0.51100000000E-03 0. -1.
         11   -1    0    0    0    0 -0.00000000000E+00 -0.00000000000E+00 -0.45593999997E+02  0.45594000000E+02  0.51100000000E-03 0.  1.
    9900012    2    1    2    0    0 -0.24524738642E+01  0.40455005034E+02  0.19659383503E+02  0.46142318519E+02  0.10000006910E+02 0.  0.
         12    1    1    2    0    0  0.24524738642E+01 -0.40455005034E+02 -0.19659383503E+02  0.45045681481E+02  0.00000000000E+00 0. -1.
         11    1    3    3    0    0 -0.30382636629E+01  0.13627884713E+02  0.40771105453E+01  0.14545553220E+02  0.51100000000E-03 0. -1.
        -11    1    3    3    0    0  0.30204766792E-01  0.15435339553E+01 -0.50457399731E+00  0.16241935165E+01  0.51100000000E-03 0.  1.
        -12    1    3    3    0    0  0.55558503181E+00  0.25283586366E+02  0.16086846955E+02  0.29972571782E+02  0.00000000000E+00 0.  1.
</event>
<event>
 7    1  0.2097247E-008  0.4614232E+02  0.7816164E-02  0.1320468E+00
        -11   -1    0    0    0    0  0.00000000000E+00  0.00000000000E+00  0.45593999997E+02  0.45594000000E+02  0.51100000000E-03 0. -1.
         11   -1    0    0    0    0 -0.00000000000E+00 -0.00000000000E+00 -0.45593999997E+02  0.45594000000E+02  0.51100000000E-03 0.  1.
    9900012    2    1    2    0    0  0.40965311353E+02  0.15050559536E+02 -0.11155155029E+02  0.46142316962E+02  0.99999927156E+01 0.  0.
         12    1    1    2    0    0 -0.40965311353E+02 -0.15050559536E+02  0.11155155029E+02  0.45045683038E+02  0.00000000000E+00 0. -1.
         11    1    3    3    0    0  0.26369596442E+02  0.59274670459E+01 -0.53299095667E+01  0.27548110976E+02  0.51100000000E-03 0. -1.
        -11    1    3    3    0    0  0.14333247291E+02  0.82084362918E+01 -0.60936910440E+01  0.17605495593E+02  0.51100000000E-03 0.  1.
         12    1    3    3    0    0  0.26246762077E+00  0.91465619814E+00  0.26844558206E+00  0.98871039404E+00  0.00000000000E+00 0. -1.
</event>
<event>
 7    1  0.2097247E-008  0.4614232E+02  0.7816164E-02  0.1320468E+00
        -11   -1    0    0    0    0  0.00000000000E+00  0.00000000000E+00  0.45593999997E+02  0.45594000000E+02  0.51100000000E-03 0.  1.
         11   -1    0    0    0    0 -0.00000000000E+00 -0.00000000000E+00 -0.45593999997E+02  0.45594000000E+02  0.51100000000E-03 0. -1.
    9900012    2    1    2    0    0  0.21400056212E+02  0.18823422502E+02  0.34883091044E+02  0.46142315619E+02  0.99999804641E+01 0.  0.
         12    1    1    2    0    0 -0.21400056212E+02 -0.18823422502E+02 -0.34883091044E+02  0.45045684381E+02  0.00000000000E+00 0. -1.
         11    1    3    3    0    0  0.60944641207E+00  0.50096094570E+01  0.56778700685E+01  0.75964347306E+01  0.51100000000E-03 0. -1.
        -11    1    3    3    0    0  0.65670245003E+01  0.42505073432E+01  0.11455628033E+02  0.13871699152E+02  0.51100000000E-03 0.  1.
         12    1    3    3    0    0  0.14223585300E+02  0.95633057018E+01  0.17749592943E+02  0.24674181736E+02  0.00000000000E+00 0. -1.
</event>
<event>
 7    1  0.2097247E-008  0.4614232E+02  0.7816164E-02  0.1320468E+00
        -11   -1    0    0    0    0  0.00000000000E+00  0.00000000000E+00  0.45593999997E+02  0.45594000000E+02  0.51100000000E-03 0.  1.
         11   -1    0    0    0    0 -0.00000000000E+00 -0.00000000000E+00 -0.45593999997E+02  0.45594000000E+02  0.51100000000E-03 0. -1.
    9900012    2    1    2    0    0 -0.41744642344E+02  0.94748828493E+01  0.14025865922E+02  0.46142317806E+02  0.10000000410E+02 0.  0.
         12    1    1    2    0    0  0.41744642344E+02 -0.94748828493E+01 -0.14025865922E+02  0.45045682194E+02  0.00000000000E+00 0. -1.
         11    1    3    3    0    0 -0.10915079402E+02  0.32065248849E+01  0.71978397577E+01  0.13462156500E+02  0.51100000000E-03 0. -1.
        -11    1    3    3    0    0 -0.54224469473E+01  0.15655076342E+01 -0.88942218852E+00  0.57135643113E+01  0.51100000000E-03 0.  1.
        -12    1    3    3    0    0 -0.25407115995E+02  0.47028503303E+01  0.77174483531E+01  0.26966596995E+02  0.00000000000E+00 0.  1.
</event>
<event>
 7    1  0.2097247E-008  0.4614232E+02  0.7816164E-02  0.1320468E+00
        -11   -1    0    0    0    0  0.00000000000E+00  0.00000000000E+00  0.45593999997E+02  0.45594000000E+02  0.51100000000E-03 0.  1.
         11   -1    0    0    0    0 -0.00000000000E+00 -0.00000000000E+00 -0.45593999997E+02  0.45594000000E+02  0.51100000000E-03 0. -1.
    9900012    2    1    2    0    0  0.31808369392E+02 -0.15746852298E+02  0.27737660067E+02  0.46142317558E+02  0.99999981511E+01 0.  0.
         12    1    1    2    0    0 -0.31808369392E+02  0.15746852298E+02 -0.27737660067E+02  0.45045682442E+02  0.00000000000E+00 0. -1.
         11    1    3    3    0    0  0.69858859133E+01 -0.54536214761E+01  0.97909220297E+01  0.13206314537E+02  0.51100000000E-03 0.  1.
        -11    1    3    3    0    0  0.10520754659E+02 -0.77978317975E+01  0.87775753826E+01  0.15765097183E+02  0.51100000000E-03 0. -1.
         12    1    3    3    0    0  0.14301728820E+02 -0.24953990245E+01  0.91691626542E+01  0.17170905838E+02  0.00000000000E+00 0. -1.
</event>
<event>
 7    1  0.2097247E-008  0.4614232E+02  0.7816164E-02  0.1320468E+00
        -11   -1    0    0    0    0  0.00000000000E+00  0.00000000000E+00  0.45593999997E+02  0.45594000000E+02  0.51100000000E-03 0.  1.
         11   -1    0    0    0    0 -0.00000000000E+00 -0.00000000000E+00 -0.45593999997E+02  0.45594000000E+02  0.51100000000E-03 0. -1.
    9900012    2    1    2    0    0 -0.18720930537E+02 -0.11084567388E+01  0.40956215097E+02  0.46142317947E+02  0.10000001696E+02 0.  0.
         12    1    1    2    0    0  0.18720930537E+02  0.11084567388E+01 -0.40956215097E+02  0.45045682053E+02  0.00000000000E+00 0. -1.
         11    1    3    3    0    0 -0.10055530841E+02  0.38707251029E+01  0.23903789808E+02  0.26219980563E+02  0.51100000000E-03 0. -1.
        -11    1    3    3    0    0 -0.39468504595E+01 -0.20974642040E+01  0.10059451873E+02  0.11007704433E+02  0.51100000000E-03 0.  1.
         12    1    3    3    0    0 -0.47185492363E+01 -0.28817176378E+01  0.69929734168E+01  0.89146329508E+01  0.00000000000E+00 0. -1.
</event>
<event>
 7    1  0.2097247E-008  0.4614232E+02  0.7816164E-02  0.1320468E+00
        -11   -1    0    0    0    0  0.00000000000E+00  0.00000000000E+00  0.45593999997E+02  0.45594000000E+02  0.51100000000E-03 0. -1.
         11   -1    0    0    0    0 -0.00000000000E+00 -0.00000000000E+00 -0.45593999997E+02  0.45594000000E+02  0.51100000000E-03 0.  1.
    9900012    2    1    2    0    0 -0.41259634236E+02 -0.78196076765E+01 -0.16297536649E+02  0.46142318938E+02  0.10000010732E+02 0.  0.
         12    1    1    2    0    0  0.41259634236E+02  0.78196076765E+01  0.16297536649E+02  0.45045681062E+02  0.00000000000E+00 0. -1.
         11    1    3    3    0    0 -0.54033051476E+01 -0.32537697708E+00  0.30084221276E+00  0.54214465776E+01  0.51100000000E-03 0. -1.
        -11    1    3    3    0    0 -0.97749624949E+01 -0.76226704933E+00 -0.73043410592E+01  0.12226378916E+02  0.51100000000E-03 0.  1.
        -12    1    3    3    0    0 -0.26081366594E+02 -0.67319636501E+01 -0.92940378024E+01  0.28494493444E+02  0.00000000000E+00 0.  1.
</event>
<event>
 7    1  0.2097247E-008  0.4614232E+02  0.7816164E-02  0.1320468E+00
        -11   -1    0    0    0    0  0.00000000000E+00  0.00000000000E+00  0.45593999997E+02  0.45594000000E+02  0.51100000000E-03 0.  1.
         11   -1    0    0    0    0 -0.00000000000E+00 -0.00000000000E+00 -0.45593999997E+02  0.45594000000E+02  0.51100000000E-03 0. -1.
    9900012    2    1    2    0    0 -0.25866252357E+01  0.36475182661E+02  0.26305578467E+02  0.46142322752E+02  0.10000045511E+02 0.  0.
         12    1    1    2    0    0  0.25866252357E+01 -0.36475182661E+02 -0.26305578467E+02  0.45045677248E+02  0.00000000000E+00 0. -1.
         11    1    3    3    0    0 -0.21381679001E+01  0.12397413787E+02  0.72002272437E+01  0.14495202765E+02  0.51100000000E-03 0. -1.
        -11    1    3    3    0    0 -0.34870889946E+01  0.14251668733E+02  0.13478464808E+02  0.19923324651E+02  0.51100000000E-03 0.  1.
        -12    1    3    3    0    0  0.30386316591E+01  0.98261001415E+01  0.56268864154E+01  0.11723795336E+02  0.00000000000E+00 0.  1.
</event>
<event>
 7    1  0.2097247E-008  0.4614232E+02  0.7816164E-02  0.1320468E+00
        -11   -1    0    0    0    0  0.00000000000E+00  0.00000000000E+00  0.45593999997E+02  0.45594000000E+02  0.51100000000E-03 0.  1.
         11   -1    0    0    0    0 -0.00000000000E+00 -0.00000000000E+00 -0.45593999997E+02  0.45594000000E+02  0.51100000000E-03 0. -1.
    9900012    2    1    2    0    0 -0.37739133555E+02 -0.12968276818E+02  0.20897251187E+02  0.46142317496E+02  0.99999975795E+01 0.  0.
         12    1    1    2    0    0  0.37739133555E+02  0.12968276818E+02 -0.20897251187E+02  0.45045682504E+02  0.00000000000E+00 0. -1.
         11    1    3    3    0    0 -0.16903338563E+02 -0.10311819772E+02  0.72841198259E+01  0.21097745933E+02  0.51100000000E-03 0. -1.
        -11    1    3    3    0    0 -0.11880165644E+02 -0.12943324699E+01  0.73122605809E+01  0.14010095908E+02  0.51100000000E-03 0.  1.
         12    1    3    3    0    0 -0.89556293478E+01 -0.13621245762E+01  0.63008707805E+01  0.11034475655E+02  0.00000000000E+00 0. -1.
</event>
<event>
 7    1  0.2097247E-008  0.4614232E+02  0.7816164E-02  0.1320468E+00
        -11   -1    0    0    0    0  0.00000000000E+00  0.00000000000E+00  0.45593999997E+02  0.45594000000E+02  0.51100000000E-03 0. -1.
         11   -1    0    0    0    0 -0.00000000000E+00 -0.00000000000E+00 -0.45593999997E+02  0.45594000000E+02  0.51100000000E-03 0.  1.
    9900012    2    1    2    0    0 -0.18302437031E+02  0.32047243507E+02 -0.25828442812E+02  0.46142317901E+02  0.10000001276E+02 0.  0.
         12    1    1    2    0    0  0.18302437031E+02 -0.32047243507E+02  0.25828442812E+02  0.45045682099E+02  0.00000000000E+00 0. -1.
         11    1    3    3    0    0 -0.48081226858E+01  0.97847087419E+01 -0.32787120755E+01  0.11384573864E+02  0.51100000000E-03 0.  1.
        -11    1    3    3    0    0 -0.71796791792E+01  0.82549996042E+01 -0.11188552016E+02  0.15648530540E+02  0.51100000000E-03 0. -1.
        -12    1    3    3    0    0 -0.63146351659E+01  0.14007535161E+02 -0.11361178720E+02  0.19109213497E+02  0.00000000000E+00 0.  1.
</event>
<event>
 7    1  0.2097247E-008  0.4614232E+02  0.7816164E-02  0.1320468E+00
        -11   -1    0    0    0    0  0.00000000000E+00  0.00000000000E+00  0.45593999997E+02  0.45594000000E+02  0.51100000000E-03 0. -1.
         11   -1    0    0    0    0 -0.00000000000E+00 -0.00000000000E+00 -0.45593999997E+02  0.45594000000E+02  0.51100000000E-03 0.  1.
    9900012    2    1    2    0    0  0.42638264599E+02  0.14499036015E+02  0.93264571764E+00  0.46142317838E+02  0.10000000703E+02 0.  0.
         12    1    1    2    0    0 -0.42638264599E+02 -0.14499036015E+02 -0.93264571764E+00  0.45045682162E+02  0.00000000000E+00 0. -1.
         11    1    3    3    0    0  0.30675601013E+02  0.13237802026E+02  0.10212902773E+01  0.33425662807E+02  0.51100000000E-03 0.  1.
        -11    1    3    3    0    0  0.10954906631E+02  0.91837323476E+00  0.11846906301E+01  0.11056983352E+02  0.51100000000E-03 0. -1.
        -12    1    3    3    0    0  0.10077569544E+01  0.34286075432E+00 -0.12733351898E+01  0.16596716788E+01  0.00000000000E+00 0.  1.
</event>
<event>
 7    1  0.2097247E-008  0.4614232E+02  0.7816164E-02  0.1320468E+00
        -11   -1    0    0    0    0  0.00000000000E+00  0.00000000000E+00  0.45593999997E+02  0.45594000000E+02  0.51100000000E-03 0.  1.
         11   -1    0    0    0    0 -0.00000000000E+00 -0.00000000000E+00 -0.45593999997E+02  0.45594000000E+02  0.51100000000E-03 0. -1.
    9900012    2    1    2    0    0 -0.29922382765E+02 -0.23284236115E+02  0.24323009826E+02  0.46142318200E+02  0.10000004006E+02 0.  0.
         12    1    1    2    0    0  0.29922382765E+02  0.23284236115E+02 -0.24323009826E+02  0.45045681800E+02  0.00000000000E+00 0. -1.
         11    1    3    3    0    0 -0.59447513380E+01 -0.63816124423E+01  0.59620901311E+01  0.10564637468E+02  0.51100000000E-03 0. -1.
        -11    1    3    3    0    0 -0.96209501419E+01 -0.21471081346E+01  0.52281688327E+01  0.11158248276E+02  0.51100000000E-03 0.  1.
        -12    1    3    3    0    0 -0.14356681285E+02 -0.14755515539E+02  0.13132750862E+02  0.24419432457E+02  0.00000000000E+00 0.  1.
</event>
<event>
 7    1  0.2097247E-008  0.4614232E+02  0.7816164E-02  0.1320468E+00
        -11   -1    0    0    0    0  0.00000000000E+00  0.00000000000E+00  0.45593999997E+02  0.45594000000E+02  0.51100000000E-03 0. -1.
         11   -1    0    0    0    0 -0.00000000000E+00 -0.00000000000E+00 -0.45593999997E+02  0.45594000000E+02  0.51100000000E-03 0.  1.
    9900012    2    1    2    0    0 -0.31088767993E+02  0.16265580044E+02 -0.28249470243E+02  0.46142321422E+02  0.10000033387E+02 0.  0.
         12    1    1    2    0    0  0.31088767993E+02 -0.16265580044E+02  0.28249470243E+02  0.45045678578E+02  0.00000000000E+00 0. -1.
         11    1    3    3    0    0 -0.12379229600E+02  0.62596393918E+01 -0.88523397176E+01  0.16455768883E+02  0.51100000000E-03 0.  1.
        -11    1    3    3    0    0 -0.10845140412E+02  0.97737053049E+01 -0.12928276856E+02  0.19500839178E+02  0.51100000000E-03 0. -1.
         12    1    3    3    0    0 -0.78643979816E+01  0.23223534695E+00 -0.64688536698E+01  0.10185713361E+02  0.00000000000E+00 0. -1.
</event>
<event>
 7    1  0.2097247E-008  0.4614232E+02  0.7816164E-02  0.1320468E+00
        -11   -1    0    0    0    0  0.00000000000E+00  0.00000000000E+00  0.45593999997E+02  0.45594000000E+02  0.51100000000E-03 0.  1.
         11   -1    0    0    0    0 -0.00000000000E+00 -0.00000000000E+00 -0.45593999997E+02  0.45594000000E+02  0.51100000000E-03 0. -1.
    9900012    2    1    2    0    0  0.27195063299E+02 -0.33252742924E+02  0.13557177715E+02  0.46142318216E+02  0.10000004149E+02 0.  0.
         12    1    1    2    0    0 -0.27195063299E+02  0.33252742924E+02 -0.13557177715E+02  0.45045681784E+02  0.00000000000E+00 0. -1.
         11    1    3    3    0    0  0.10122132020E+02 -0.14122405741E+02  0.19422665968E+01  0.17483486504E+02  0.51100000000E-03 0. -1.
        -11    1    3    3    0    0  0.11086673060E+02 -0.96386282369E+01  0.44707649496E+01  0.15355950421E+02  0.51100000000E-03 0.  1.
         12    1    3    3    0    0  0.59862582190E+01 -0.94917089458E+01  0.71441461688E+01  0.13302881292E+02  0.00000000000E+00 0. -1.
</event>
<event>
 7    1  0.2097247E-008  0.4614232E+02  0.7816164E-02  0.1320468E+00
        -11   -1    0    0    0    0  0.00000000000E+00  0.00000000000E+00  0.45593999997E+02  0.45594000000E+02  0.51100000000E-03 0. -1.
         11   -1    0    0    0    0 -0.00000000000E+00 -0.00000000000E+00 -0.45593999997E+02  0.45594000000E+02  0.51100000000E-03 0.  1.
    9900012    2    1    2    0    0  0.17915718957E+02  0.37009724471E+02 -0.18396217352E+02  0.46142317587E+02  0.99999984163E+01 0.  0.
         12    1    1    2    0    0 -0.17915718957E+02 -0.37009724471E+02  0.18396217352E+02  0.45045682413E+02  0.00000000000E+00 0. -1.
         11    1    3    3    0    0  0.23104978755E+01  0.22826897601E+01 -0.93491175383E+00  0.33798126016E+01  0.51100000000E-03 0. -1.
        -11    1    3    3    0    0  0.99370132487E+01  0.27933256007E+02 -0.10322067165E+02  0.31393567721E+02  0.51100000000E-03 0.  1.
        -12    1    3    3    0    0  0.56682078333E+01  0.67937787034E+01 -0.71392384337E+01  0.11368937265E+02  0.00000000000E+00 0.  1.
</event>
<event>
 7    1  0.2097247E-008  0.4614232E+02  0.7816164E-02  0.1320468E+00
        -11   -1    0    0    0    0  0.00000000000E+00  0.00000000000E+00  0.45593999997E+02  0.45594000000E+02  0.51100000000E-03 0.  1.
         11   -1    0    0    0    0 -0.00000000000E+00 -0.00000000000E+00 -0.45593999997E+02  0.45594000000E+02  0.51100000000E-03 0. -1.
    9900012    2    1    2    0    0  0.28155004042E+02 -0.31215514092E+02  0.16186442326E+02  0.46142317767E+02  0.10000000052E+02 0.  0.
         12    1    1    2    0    0 -0.28155004042E+02  0.31215514092E+02 -0.16186442326E+02  0.45045682233E+02  0.00000000000E+00 0. -1.
         11    1    3    3    0    0  0.10106754361E+02 -0.96081347826E+01  0.99925194991E+01  0.17155558397E+02  0.51100000000E-03 0. -1.
        -11    1    3    3    0    0  0.60496263130E+01 -0.76452402801E+01  0.36133660435E+01  0.10397311763E+02  0.51100000000E-03 0.  1.
         12    1    3    3    0    0  0.11998623369E+02 -0.13962139029E+02  0.25805567837E+01  0.18589447607E+02  0.00000000000E+00 0. -1.
</event>
<event>
 7    1  0.2097247E-008  0.4614232E+02  0.7816164E-02  0.1320468E+00
        -11   -1    0    0    0    0  0.00000000000E+00  0.00000000000E+00  0.45593999997E+02  0.45594000000E+02  0.51100000000E-03 0.  1.
         11   -1    0    0    0    0 -0.00000000000E+00 -0.00000000000E+00 -0.45593999997E+02  0.45594000000E+02  0.51100000000E-03 0. -1.
    9900012    2    1    2    0    0  0.24419744768E+02  0.99127030276E+01  0.36531190362E+02  0.46142317797E+02  0.10000000324E+02 0.  0.
         12    1    1    2    0    0 -0.24419744768E+02 -0.99127030276E+01 -0.36531190362E+02  0.45045682203E+02  0.00000000000E+00 0. -1.
         11    1    3    3    0    0  0.72286573214E+01  0.15456104139E+01  0.10700219722E+02  0.13005272031E+02  0.51100000000E-03 0.  1.
        -11    1    3    3    0    0  0.17597355557E+02  0.84800676000E+01  0.26126832730E+02  0.32621922964E+02  0.51100000000E-03 0. -1.
         12    1    3    3    0    0 -0.40626810979E+00 -0.11297498627E+00 -0.29586209029E+00  0.51512280189E+00  0.00000000000E+00 0. -1.
</event>
<event>
 7    1  0.2097247E-008  0.4614232E+02  0.7816164E-02  0.1320468E+00
        -11   -1    0    0    0    0  0.00000000000E+00  0.00000000000E+00  0.45593999997E+02  0.45594000000E+02  0.51100000000E-03 0.  1.
         11   -1    0    0    0    0 -0.00000000000E+00 -0.00000000000E+00 -0.45593999997E+02  0.45594000000E+02  0.51100000000E-03 0. -1.
    9900012    2    1    2    0    0  0.23934403409E+02  0.17549598270E+02  0.33886124765E+02  0.46142317437E+02  0.99999970425E+01 0.  0.
         12    1    1    2    0    0 -0.23934403409E+02 -0.17549598270E+02 -0.33886124765E+02  0.45045682563E+02  0.00000000000E+00 0. -1.
         11    1    3    3    0    0  0.47956233555E+01  0.14091812714E+01  0.98198626194E+01  0.11018779304E+02  0.51100000000E-03 0. -1.
        -11    1    3    3    0    0  0.12676953846E+02  0.81974826699E+01  0.16685277268E+02  0.22501163496E+02  0.51100000000E-03 0.  1.
         12    1    3    3    0    0  0.64618262075E+01  0.79429343291E+01  0.73809848781E+01  0.12622374636E+02  0.00000000000E+00 0. -1.
</event>
<event>
 7    1  0.2097247E-008  0.4614232E+02  0.7816164E-02  0.1320468E+00
        -11   -1    0    0    0    0  0.00000000000E+00  0.00000000000E+00  0.45593999997E+02  0.45594000000E+02  0.51100000000E-03 0. -1.
         11   -1    0    0    0    0 -0.00000000000E+00 -0.00000000000E+00 -0.45593999997E+02  0.45594000000E+02  0.51100000000E-03 0.  1.
    9900012    2    1    2    0    0 -0.36735574177E+02  0.72441349540E+01  0.25042634470E+02  0.46142318270E+02  0.10000004640E+02 0.  0.
         12    1    1    2    0    0  0.36735574177E+02 -0.72441349540E+01 -0.25042634470E+02  0.45045681730E+02  0.00000000000E+00 0. -1.
         11    1    3    3    0    0 -0.44335266631E+01  0.14723034066E+01  0.89527293587E+00  0.47566111765E+01  0.51100000000E-03 0. -1.
        -11    1    3    3    0    0 -0.27869281739E+02  0.40235264492E+01  0.17315414796E+02  0.33056152522E+02  0.51100000000E-03 0.  1.
         12    1    3    3    0    0 -0.44327657748E+01  0.17483050981E+01  0.68319467380E+01  0.83295545716E+01  0.00000000000E+00 0. -1.
</event>
<event>
 7    1  0.2097247E-008  0.4614232E+02  0.7816164E-02  0.1320468E+00
        -11   -1    0    0    0    0  0.00000000000E+00  0.00000000000E+00  0.45593999997E+02  0.45594000000E+02  0.51100000000E-03 0.  1.
         11   -1    0    0    0    0 -0.00000000000E+00 -0.00000000000E+00 -0.45593999997E+02  0.45594000000E+02  0.51100000000E-03 0. -1.
    9900012    2    1    2    0    0  0.86091431574E+01  0.15414045047E+01  0.44188463501E+02  0.46142316740E+02  0.99999906883E+01 0.  0.
         12    1    1    2    0    0 -0.86091431574E+01 -0.15414045047E+01 -0.44188463501E+02  0.45045683260E+02  0.00000000000E+00 0. -1.
         11    1    3    3    0    0 -0.11417093073E+01  0.11945239035E+01  0.59277168611E+01  0.61537155398E+01  0.51100000000E-03 0. -1.
        -11    1    3    3    0    0  0.48918275189E+01  0.20288857455E+01  0.28168013741E+02  0.28661530877E+02  0.51100000000E-03 0.  1.
         12    1    3    3    0    0  0.48590249458E+01 -0.16820051443E+01  0.10092732900E+02  0.11327070324E+02  0.00000000000E+00 0. -1.
</event>
<event>
 7    1  0.2980217E-008  0.4614232E+02  0.7816164E-02  0.1320468E+00
        -11   -1    0    0    0    0  0.00000000000E+00  0.00000000000E+00  0.45593999997E+02  0.45594000000E+02  0.51100000000E-03 0. -1.
         11   -1    0    0    0    0 -0.00000000000E+00 -0.00000000000E+00 -0.45593999997E+02  0.45594000000E+02  0.51100000000E-03 0.  1.
    9900012    2    1    2    0    0  0.43249430902E+02  0.12488506111E+00 -0.12593034996E+02  0.46142318742E+02  0.10000008943E+02 0.  0.
         12    1    1    2    0    0 -0.43249430902E+02 -0.12488506111E+00  0.12593034996E+02  0.45045681258E+02  0.00000000000E+00 0. -1.
         11    1    3    3    0    0  0.56884766138E+00 -0.58673914154E+00  0.25230187940E-01  0.81761072986E+00  0.51100000000E-03 0. -1.
        -11    1    3    3    0    0  0.10083398659E+02 -0.23470570002E+01 -0.34244365215E+00  0.10358613468E+02  0.51100000000E-03 0.  1.
        -12    1    3    3    0    0  0.32597184582E+02  0.30586812028E+01 -0.12275821532E+02  0.34966094544E+02  0.00000000000E+00 0.  1.
</event>
<event>
 7    1  0.2097247E-008  0.4614233E+02  0.7816164E-02  0.1320468E+00
        -11   -1    0    0    0    0  0.00000000000E+00  0.00000000000E+00  0.45593999997E+02  0.45594000000E+02  0.51100000000E-03 0.  1.
         11   -1    0    0    0    0 -0.00000000000E+00 -0.00000000000E+00 -0.45593999997E+02  0.45594000000E+02  0.51100000000E-03 0. -1.
    9900012    2    1    2    0    0 -0.14228946791E+02 -0.18747745345E+02  0.38407965138E+02  0.46142326863E+02  0.10000082997E+02 0.  0.
         12    1    1    2    0    0  0.14228946791E+02  0.18747745345E+02 -0.38407965138E+02  0.45045673137E+02  0.00000000000E+00 0. -1.
         11    1    3    3    0    0 -0.27514034533E+01 -0.80279803277E-01  0.27039700600E+01  0.38585126870E+01  0.51100000000E-03 0. -1.
        -11    1    3    3    0    0 -0.41238405350E+01 -0.82004452901E+01  0.10008483384E+02  0.13580246817E+02  0.51100000000E-03 0.  1.
         12    1    3    3    0    0 -0.73537028030E+01 -0.10467020252E+02  0.25695511694E+02  0.28703567358E+02  0.00000000000E+00 0. -1.
</event>
<event>
 7    1  0.2097247E-008  0.4614232E+02  0.7816164E-02  0.1320468E+00
        -11   -1    0    0    0    0  0.00000000000E+00  0.00000000000E+00  0.45593999997E+02  0.45594000000E+02  0.51100000000E-03 0. -1.
         11   -1    0    0    0    0 -0.00000000000E+00 -0.00000000000E+00 -0.45593999997E+02  0.45594000000E+02  0.51100000000E-03 0.  1.
    9900012    2    1    2    0    0 -0.22840556994E+02  0.25183016962E+02 -0.29550601755E+02  0.46142318174E+02  0.10000003761E+02 0.  0.
         12    1    1    2    0    0  0.22840556994E+02 -0.25183016962E+02  0.29550601755E+02  0.45045681826E+02  0.00000000000E+00 0. -1.
         11    1    3    3    0    0 -0.18577257605E+02  0.22723498434E+02 -0.26922360157E+02  0.39828198025E+02  0.51100000000E-03 0. -1.
        -11    1    3    3    0    0 -0.15864094747E+01  0.16084770430E+01 -0.26794200446E+01  0.35047375730E+01  0.51100000000E-03 0.  1.
         12    1    3    3    0    0 -0.26768899144E+01  0.85104148446E+00  0.51178446503E-01  0.28093825755E+01  0.00000000000E+00 0. -1.
</event>
<event>
 7    1  0.2097247E-008  0.4614232E+02  0.7816164E-02  0.1320468E+00
        -11   -1    0    0    0    0  0.00000000000E+00  0.00000000000E+00  0.45593999997E+02  0.45594000000E+02  0.51100000000E-03 0.  1.
         11   -1    0    0    0    0 -0.00000000000E+00 -0.00000000000E+00 -0.45593999997E+02  0.45594000000E+02  0.51100000000E-03 0. -1.
    9900012    2    1    2    0    0 -0.45139476726E+01 -0.26554850251E+02  0.36105093086E+02  0.46142317164E+02  0.99999945534E+01 0.  0.
         12    1    1    2    0    0  0.45139476726E+01  0.26554850251E+02 -0.36105093086E+02  0.45045682836E+02  0.00000000000E+00 0. -1.
         11    1    3    3    0    0 -0.27606899164E+01 -0.20945425201E+02  0.33609289612E+02  0.39697815988E+02  0.51100000000E-03 0. -1.
        -11    1    3    3    0    0 -0.23226678187E+00 -0.18131554297E+01  0.50729682797E+00  0.18970584606E+01  0.51100000000E-03 0.  1.
         12    1    3    3    0    0 -0.15209909744E+01 -0.37962696200E+01  0.19885066454E+01  0.45474427155E+01  0.00000000000E+00 0. -1.
</event>
<event>
 7    1  0.2097247E-008  0.4614232E+02  0.7816164E-02  0.1320468E+00
        -11   -1    0    0    0    0  0.00000000000E+00  0.00000000000E+00  0.45593999997E+02  0.45594000000E+02  0.51100000000E-03 0.  1.
         11   -1    0    0    0    0 -0.00000000000E+00 -0.00000000000E+00 -0.45593999997E+02  0.45594000000E+02  0.51100000000E-03 0. -1.
    9900012    2    1    2    0    0  0.80083821937E+01  0.29595217173E+02  0.33001551925E+02  0.46142317695E+02  0.99999993959E+01 0.  0.
         12    1    1    2    0    0 -0.80083821937E+01 -0.29595217173E+02 -0.33001551925E+02  0.45045682305E+02  0.00000000000E+00 0. -1.
         11    1    3    3    0    0  0.83241757128E+00  0.61308053469E+01  0.27321084166E+01  0.67634392048E+01  0.51100000000E-03 0. -1.
        -11    1    3    3    0    0 -0.96661425985E+00  0.30590216670E+01  0.34903125163E+01  0.47407002024E+01  0.51100000000E-03 0.  1.
        -12    1    3    3    0    0  0.81425788823E+01  0.20405390159E+02  0.26779130992E+02  0.34638178288E+02  0.00000000000E+00 0.  1.
</event>
<event>
 7    1  0.2097247E-008  0.4614232E+02  0.7816164E-02  0.1320468E+00
        -11   -1    0    0    0    0  0.00000000000E+00  0.00000000000E+00  0.45593999997E+02  0.45594000000E+02  0.51100000000E-03 0.  1.
         11   -1    0    0    0    0 -0.00000000000E+00 -0.00000000000E+00 -0.45593999997E+02  0.45594000000E+02  0.51100000000E-03 0. -1.
    9900012    2    1    2    0    0  0.29576427544E+02 -0.27271553316E+02  0.20263532432E+02  0.46142318374E+02  0.10000005589E+02 0.  0.
         12    1    1    2    0    0 -0.29576427544E+02  0.27271553316E+02 -0.20263532432E+02  0.45045681626E+02  0.00000000000E+00 0. -1.
         11    1    3    3    0    0  0.63411806832E+01 -0.23067298025E+01  0.49553108806E+01  0.83717788446E+01  0.51100000000E-03 0.  1.
        -11    1    3    3    0    0  0.61791766777E+01 -0.68776654481E+01  0.68629623926E+01  0.11514545562E+02  0.51100000000E-03 0. -1.
        -12    1    3    3    0    0  0.17056070183E+02 -0.18087158065E+02  0.84452591589E+01  0.26255993968E+02  0.00000000000E+00 0.  1.
</event>
<event>
 7    1  0.2097247E-008  0.4614232E+02  0.7816164E-02  0.1320468E+00
        -11   -1    0    0    0    0  0.00000000000E+00  0.00000000000E+00  0.45593999997E+02  0.45594000000E+02  0.51100000000E-03 0.  1.
         11   -1    0    0    0    0 -0.00000000000E+00 -0.00000000000E+00 -0.45593999997E+02  0.45594000000E+02  0.51100000000E-03 0. -1.
    9900012    2    1    2    0    0 -0.23957772509E+02  0.15219396254E+02  0.34978687616E+02  0.46142317929E+02  0.10000001532E+02 0.  0.
         12    1    1    2    0    0  0.23957772509E+02 -0.15219396254E+02 -0.34978687616E+02  0.45045682071E+02  0.00000000000E+00 0. -1.
         11    1    3    3    0    0 -0.37892095360E+00  0.86327605428E+00  0.11504612124E+00  0.94976971214E+00  0.51100000000E-03 0. -1.
        -11    1    3    3    0    0 -0.14925520513E+02  0.46218366993E+01  0.17066836065E+02  0.23138915933E+02  0.51100000000E-03 0.  1.
         12    1    3    3    0    0 -0.86533310427E+01  0.97342835001E+01  0.17796805430E+02  0.22053632284E+02  0.00000000000E+00 0. -1.
</event>
<event>
 7    1  0.2097247E-008  0.4614232E+02  0.7816164E-02  0.1320468E+00
        -11   -1    0    0    0    0  0.00000000000E+00  0.00000000000E+00  0.45593999997E+02  0.45594000000E+02  0.51100000000E-03 0. -1.
         11   -1    0    0    0    0 -0.00000000000E+00 -0.00000000000E+00 -0.45593999997E+02  0.45594000000E+02  0.51100000000E-03 0.  1.
    9900012    2    1    2    0    0 -0.44201046124E+02 -0.79901929271E+01  0.33967451566E+01  0.46142317198E+02  0.99999948661E+01 0.  0.
         12    1    1    2    0    0  0.44201046124E+02  0.79901929271E+01 -0.33967451566E+01  0.45045682802E+02  0.00000000000E+00 0. -1.
         11    1    3    3    0    0 -0.12081276583E+02  0.26568874538E+00  0.28286371174E+01  0.12410842945E+02  0.51100000000E-03 0. -1.
        -11    1    3    3    0    0 -0.22011545093E+00 -0.40976686869E+00  0.74769592261E+00  0.88057319527E+00  0.51100000000E-03 0.  1.
        -12    1    3    3    0    0 -0.31899654089E+02 -0.78461148038E+01 -0.17958788340E+00  0.32850901058E+02  0.00000000000E+00 0.  1.
</event>
<event>
 7    1  0.2097247E-008  0.4614231E+02  0.7816164E-02  0.1320468E+00
        -11   -1    0    0    0    0  0.00000000000E+00  0.00000000000E+00  0.45593999997E+02  0.45594000000E+02  0.51100000000E-03 0.  1.
         11   -1    0    0    0    0 -0.00000000000E+00 -0.00000000000E+00 -0.45593999997E+02  0.45594000000E+02  0.51100000000E-03 0. -1.
    9900012    2    1    2    0    0  0.36032519812E+02  0.39470244816E+01  0.26743088036E+02  0.46142309374E+02  0.99999235205E+01 0.  0.
         12    1    1    2    0    0 -0.36032519812E+02 -0.39470244816E+01 -0.26743088036E+02  0.45045690626E+02  0.00000000000E+00 0. -1.
         11    1    3    3    0    0  0.57975918709E+01  0.16742698903E+01  0.44578275035E+01  0.75024980826E+01  0.51100000000E-03 0. -1.
        -11    1    3    3    0    0  0.26236557341E+02  0.47547621571E+01  0.20389201532E+02  0.33566117494E+02  0.51100000000E-03 0.  1.
         12    1    3    3    0    0  0.39983706005E+01 -0.24820075658E+01  0.18960590003E+01  0.50736937972E+01  0.00000000000E+00 0. -1.
</event>
<event>
 7    1  0.2097247E-008  0.4614232E+02  0.7816164E-02  0.1320468E+00
        -11   -1    0    0    0    0  0.00000000000E+00  0.00000000000E+00  0.45593999997E+02  0.45594000000E+02  0.51100000000E-03 0. -1.
         11   -1    0    0    0    0 -0.00000000000E+00 -0.00000000000E+00 -0.45593999997E+02  0.45594000000E+02  0.51100000000E-03 0.  1.
    9900012    2    1    2    0    0  0.83049041098E+00  0.39616143847E+02 -0.21423930065E+02  0.46142319329E+02  0.10000014301E+02 0.  0.
         12    1    1    2    0    0 -0.83049041098E+00 -0.39616143847E+02  0.21423930065E+02  0.45045680671E+02  0.00000000000E+00 0. -1.
         11    1    3    3    0    0 -0.10091358203E+01  0.41483626978E+01 -0.94300861528E+00  0.43722458401E+01  0.51100000000E-03 0. -1.
        -11    1    3    3    0    0  0.85354571214E+00  0.14436765111E+02 -0.39219479471E+01  0.14984338595E+02  0.51100000000E-03 0.  1.
        -12    1    3    3    0    0  0.98608051911E+00  0.21031016038E+02 -0.16558973503E+02  0.26785734895E+02  0.00000000000E+00 0.  1.
</event>
<event>
 7    1  0.2097247E-008  0.4614232E+02  0.7816164E-02  0.1320468E+00
        -11   -1    0    0    0    0  0.00000000000E+00  0.00000000000E+00  0.45593999997E+02  0.45594000000E+02  0.51100000000E-03 0. -1.
         11   -1    0    0    0    0 -0.00000000000E+00 -0.00000000000E+00 -0.45593999997E+02  0.45594000000E+02  0.51100000000E-03 0.  1.
    9900012    2    1    2    0    0  0.22297593338E+02 -0.22995169785E+02 -0.31672589626E+02  0.46142318346E+02  0.10000005333E+02 0.  0.
         12    1    1    2    0    0 -0.22297593338E+02  0.22995169785E+02  0.31672589626E+02  0.45045681654E+02  0.00000000000E+00 0. -1.
         11    1    3    3    0    0  0.21598813533E+01 -0.32197974058E+01 -0.78316380648E+01  0.87388064308E+01  0.51100000000E-03 0. -1.
        -11    1    3    3    0    0  0.98903394563E+01 -0.11127190243E+02 -0.16067467305E+02  0.21904261757E+02  0.51100000000E-03 0.  1.
         12    1    3    3    0    0  0.10247372528E+02 -0.86481821361E+01 -0.77734842557E+01  0.15499250158E+02  0.00000000000E+00 0. -1.
</event>
<event>
 7    1  0.2097247E-008  0.4614232E+02  0.7816164E-02  0.1320468E+00
        -11   -1    0    0    0    0  0.00000000000E+00  0.00000000000E+00  0.45593999997E+02  0.45594000000E+02  0.51100000000E-03 0. -1.
         11   -1    0    0    0    0 -0.00000000000E+00 -0.00000000000E+00 -0.45593999997E+02  0.45594000000E+02  0.51100000000E-03 0.  1.
    9900012    2    1    2    0    0 -0.35463204447E+02 -0.15743977198E+02 -0.22882347109E+02  0.46142317666E+02  0.99999991369E+01 0.  0.
         12    1    1    2    0    0  0.35463204447E+02  0.15743977198E+02  0.22882347109E+02  0.45045682334E+02  0.00000000000E+00 0. -1.
         11    1    3    3    0    0 -0.13504845093E+02 -0.18636039440E+01 -0.58620534524E+01  0.14839728151E+02  0.51100000000E-03 0. -1.
        -11    1    3    3    0    0 -0.27123580565E+01 -0.30221594941E+01 -0.16408996899E+01  0.43798271984E+01  0.51100000000E-03 0.  1.
        -12    1    3    3    0    0 -0.19246001297E+02 -0.10858213760E+02 -0.15379393967E+02  0.26922762317E+02  0.00000000000E+00 0.  1.
</event>
<event>
 7    1  0.2097247E-008  0.4614232E+02  0.7816164E-02  0.1320468E+00
        -11   -1    0    0    0    0  0.00000000000E+00  0.00000000000E+00  0.45593999997E+02  0.45594000000E+02  0.51100000000E-03 0.  1.
         11   -1    0    0    0    0 -0.00000000000E+00 -0.00000000000E+00 -0.45593999997E+02  0.45594000000E+02  0.51100000000E-03 0. -1.
    9900012    2    1    2    0    0 -0.15766061780E+02  0.14879719549E+02  0.39485930908E+02  0.46142317659E+02  0.99999990708E+01 0.  0.
         12    1    1    2    0    0  0.15766061780E+02 -0.14879719549E+02 -0.39485930908E+02  0.45045682341E+02  0.00000000000E+00 0. -1.
         11    1    3    3    0    0 -0.66141076411E+01  0.34207085607E+01  0.17645961942E+02  0.19152744974E+02  0.51100000000E-03 0. -1.
        -11    1    3    3    0    0 -0.91489215195E+01  0.81601183055E+01  0.19126291286E+02  0.22717951367E+02  0.51100000000E-03 0.  1.
         12    1    3    3    0    0 -0.30326196970E-02  0.32988926824E+01  0.27136776804E+01  0.42716213175E+01  0.00000000000E+00 0. -1.
</event>
<event>
 7    1  0.2097247E-008  0.4614232E+02  0.7816164E-02  0.1320468E+00
        -11   -1    0    0    0    0  0.00000000000E+00  0.00000000000E+00  0.45593999997E+02  0.45594000000E+02  0.51100000000E-03 0.  1.
         11   -1    0    0    0    0 -0.00000000000E+00 -0.00000000000E+00 -0.45593999997E+02  0.45594000000E+02  0.51100000000E-03 0. -1.
    9900012    2    1    2    0    0  0.16771010868E+02 -0.29972243993E+02  0.29146377025E+02  0.46142317530E+02  0.99999978932E+01 0.  0.
         12    1    1    2    0    0 -0.16771010868E+02  0.29972243993E+02 -0.29146377025E+02  0.45045682470E+02  0.00000000000E+00 0. -1.
         11    1    3    3    0    0  0.48342936473E+00 -0.56742366224E+01  0.38657990754E+01  0.68829548851E+01  0.51100000000E-03 0. -1.
        -11    1    3    3    0    0  0.38797975686E+01 -0.56854774486E+01  0.24751975853E+01  0.73146487502E+01  0.51100000000E-03 0.  1.
        -12    1    3    3    0    0  0.12407783934E+02 -0.18612529922E+02  0.22805380364E+02  0.31944713895E+02  0.00000000000E+00 0.  1.
</event>
<event>
 7    1  0.2097247E-008  0.4614232E+02  0.7816164E-02  0.1320468E+00
        -11   -1    0    0    0    0  0.00000000000E+00  0.00000000000E+00  0.45593999997E+02  0.45594000000E+02  0.51100000000E-03 0.  1.
         11   -1    0    0    0    0 -0.00000000000E+00 -0.00000000000E+00 -0.45593999997E+02  0.45594000000E+02  0.51100000000E-03 0. -1.
    9900012    2    1    2    0    0 -0.40493600640E+02 -0.19613010585E+02 -0.21706228094E+01  0.46142317850E+02  0.10000000809E+02 0.  0.
         12    1    1    2    0    0  0.40493600640E+02  0.19613010585E+02  0.21706228094E+01  0.45045682150E+02  0.00000000000E+00 0. -1.
         11    1    3    3    0    0 -0.78286844070E+01 -0.39596443569E+01  0.18757301859E+01  0.89713681771E+01  0.51100000000E-03 0. -1.
        -11    1    3    3    0    0 -0.14348098863E+02 -0.96786383672E+01 -0.45581990333E+01  0.17897518273E+02  0.51100000000E-03 0.  1.
        -12    1    3    3    0    0 -0.18316817370E+02 -0.59747278605E+01  0.51184603797E+00  0.19273431400E+02  0.00000000000E+00 0.  1.
</event>
<event>
 7    1  0.2097247E-008  0.4614232E+02  0.7816164E-02  0.1320468E+00
        -11   -1    0    0    0    0  0.00000000000E+00  0.00000000000E+00  0.45593999997E+02  0.45594000000E+02  0.51100000000E-03 0. -1.
         11   -1    0    0    0    0 -0.00000000000E+00 -0.00000000000E+00 -0.45593999997E+02  0.45594000000E+02  0.51100000000E-03 0.  1.
    9900012    2    1    2    0    0 -0.18554057949E+02 -0.32728407845E+02 -0.24773202589E+02  0.46142319708E+02  0.10000017754E+02 0.  0.
         12    1    1    2    0    0  0.18554057949E+02  0.32728407845E+02  0.24773202589E+02  0.45045680292E+02  0.00000000000E+00 0. -1.
         11    1    3    3    0    0  0.68372759243E-01 -0.28911279485E+01 -0.14729006496E+01  0.32454171124E+01  0.51100000000E-03 0. -1.
        -11    1    3    3    0    0 -0.11932112772E+01 -0.38700714697E+01 -0.57555049892E+01  0.70375453302E+01  0.51100000000E-03 0.  1.
        -12    1    3    3    0    0 -0.17429219431E+02 -0.25967208427E+02 -0.17544796950E+02  0.35859357265E+02  0.00000000000E+00 0.  1.
</event>
<event>
 7    1  0.2097247E-008  0.4614232E+02  0.7816164E-02  0.1320468E+00
        -11   -1    0    0    0    0  0.00000000000E+00  0.00000000000E+00  0.45593999997E+02  0.45594000000E+02  0.51100000000E-03 0.  1.
         11   -1    0    0    0    0 -0.00000000000E+00 -0.00000000000E+00 -0.45593999997E+02  0.45594000000E+02  0.51100000000E-03 0. -1.
    9900012    2    1    2    0    0  0.18128851963E+02 -0.41228040541E+02  0.84077846866E+00  0.46142317535E+02  0.99999979373E+01 0.  0.
         12    1    1    2    0    0 -0.18128851963E+02  0.41228040541E+02 -0.84077846866E+00  0.45045682465E+02  0.00000000000E+00 0. -1.
         11    1    3    3    0    0  0.15493782889E+01 -0.66557220200E+01 -0.10625399490E+01  0.69157935260E+01  0.51100000000E-03 0. -1.
        -11    1    3    3    0    0  0.15575673072E+02 -0.25690269428E+02  0.31232490686E+01  0.30205069441E+02  0.51100000000E-03 0.  1.
        -12    1    3    3    0    0  0.10038006025E+01 -0.88820490922E+01 -0.12199306510E+01  0.90214545678E+01  0.00000000000E+00 0.  1.
</event>
<event>
 7    1  0.2097247E-008  0.4614232E+02  0.7816164E-02  0.1320468E+00
        -11   -1    0    0    0    0  0.00000000000E+00  0.00000000000E+00  0.45593999997E+02  0.45594000000E+02  0.51100000000E-03 0.  1.
         11   -1    0    0    0    0 -0.00000000000E+00 -0.00000000000E+00 -0.45593999997E+02  0.45594000000E+02  0.51100000000E-03 0. -1.
    9900012    2    1    2    0    0 -0.11499146533E+02  0.74611253442E+01  0.42909378122E+02  0.46142317708E+02  0.99999995143E+01 0.  0.
         12    1    1    2    0    0  0.11499146533E+02 -0.74611253442E+01 -0.42909378122E+02  0.45045682292E+02  0.00000000000E+00 0. -1.
         11    1    3    3    0    0 -0.18776758802E+01  0.26448497096E+01  0.90367451328E+01  0.96012321894E+01  0.51100000000E-03 0. -1.
        -11    1    3    3    0    0  0.14632706128E+01  0.15353988591E+01  0.61185313145E+01  0.64757266968E+01  0.51100000000E-03 0.  1.
         12    1    3    3    0    0 -0.11084741265E+02  0.32808767755E+01  0.27754101674E+02  0.30065358822E+02  0.00000000000E+00 0. -1.
</event>
<event>
 7    1  0.2097247E-008  0.4614232E+02  0.7816164E-02  0.1320468E+00
        -11   -1    0    0    0    0  0.00000000000E+00  0.00000000000E+00  0.45593999997E+02  0.45594000000E+02  0.51100000000E-03 0.  1.
         11   -1    0    0    0    0 -0.00000000000E+00 -0.00000000000E+00 -0.45593999997E+02  0.45594000000E+02  0.51100000000E-03 0. -1.
    9900012    2    1    2    0    0  0.98263053147E+01  0.32841095190E+02  0.29223615114E+02  0.46142317746E+02  0.99999998603E+01 0.  0.
         12    1    1    2    0    0 -0.98263053147E+01 -0.32841095190E+02 -0.29223615114E+02  0.45045682254E+02  0.00000000000E+00 0. -1.
         11    1    3    3    0    0  0.36712055619E+01  0.15805774259E+02  0.15491506517E+02  0.22434059478E+02  0.51100000000E-03 0. -1.
        -11    1    3    3    0    0  0.59766124140E+01  0.88783223489E+01  0.10309973808E+02  0.14860688539E+02  0.51100000000E-03 0.  1.
         12    1    3    3    0    0  0.17848733883E+00  0.81569985817E+01  0.34221347885E+01  0.88475697286E+01  0.00000000000E+00 0. -1.
</event>
<event>
 7    1  0.2097247E-008  0.4614232E+02  0.7816164E-02  0.1320468E+00
        -11   -1    0    0    0    0  0.00000000000E+00  0.00000000000E+00  0.45593999997E+02  0.45594000000E+02  0.51100000000E-03 0.  1.
         11   -1    0    0    0    0 -0.00000000000E+00 -0.00000000000E+00 -0.45593999997E+02  0.45594000000E+02  0.51100000000E-03 0. -1.
    9900012    2    1    2    0    0  0.36472395378E+02  0.74756746783E+01  0.25357291091E+02  0.46142317100E+02  0.99999939704E+01 0.  0.
         12    1    1    2    0    0 -0.36472395378E+02 -0.74756746783E+01 -0.25357291091E+02  0.45045682900E+02  0.00000000000E+00 0. -1.
         11    1    3    3    0    0  0.21896798196E+01  0.21128777156E+01  0.35047571089E+01  0.46413653817E+01  0.51100000000E-03 0. -1.
        -11    1    3    3    0    0  0.25579109848E+02  0.14779315151E+01  0.17466593611E+02  0.31008983130E+02  0.51100000000E-03 0.  1.
         12    1    3    3    0    0  0.87036057103E+01  0.38848654476E+01  0.43859403714E+01  0.10491968588E+02  0.00000000000E+00 0. -1.
</event>
<event>
 7    1  0.2097247E-008  0.4614232E+02  0.7816164E-02  0.1320468E+00
        -11   -1    0    0    0    0  0.00000000000E+00  0.00000000000E+00  0.45593999997E+02  0.45594000000E+02  0.51100000000E-03 0. -1.
         11   -1    0    0    0    0 -0.00000000000E+00 -0.00000000000E+00 -0.45593999997E+02  0.45594000000E+02  0.51100000000E-03 0.  1.
    9900012    2    1    2    0    0  0.43626868931E+02  0.11050272386E+02 -0.19239054034E+01  0.46142316250E+02  0.99999862216E+01 0.  0.
         12    1    1    2    0    0 -0.43626868931E+02 -0.11050272386E+02  0.19239054034E+01  0.45045683750E+02  0.00000000000E+00 0. -1.
         11    1    3    3    0    0  0.51093389167E+01  0.47866029571E+00  0.22136538133E+01  0.55888033881E+01  0.51100000000E-03 0.  1.
        -11    1    3    3    0    0  0.27058854596E+02  0.51047997182E+01 -0.42176815476E+01  0.27857304789E+02  0.51100000000E-03 0. -1.
         12    1    3    3    0    0  0.11458675418E+02  0.54668123724E+01  0.80122330922E-01  0.12696208073E+02  0.00000000000E+00 0. -1.
</event>
<event>
 7    1  0.2097247E-008  0.4614232E+02  0.7816164E-02  0.1320468E+00
        -11   -1    0    0    0    0  0.00000000000E+00  0.00000000000E+00  0.45593999997E+02  0.45594000000E+02  0.51100000000E-03 0.  1.
         11   -1    0    0    0    0 -0.00000000000E+00 -0.00000000000E+00 -0.45593999997E+02  0.45594000000E+02  0.51100000000E-03 0. -1.
    9900012    2    1    2    0    0 -0.58166615517E+01  0.21396699076E+02  0.39210474450E+02  0.46142316638E+02  0.99999897604E+01 0.  0.
         12    1    1    2    0    0  0.58166615517E+01 -0.21396699076E+02 -0.39210474450E+02  0.45045683362E+02  0.00000000000E+00 0. -1.
         11    1    3    3    0    0  0.17338859267E+01  0.22596438489E+01  0.37464489569E+01  0.47061906866E+01  0.51100000000E-03 0. -1.
        -11    1    3    3    0    0 -0.19340838774E+01  0.22814896759E+01  0.96199506024E+01  0.10074191056E+02  0.51100000000E-03 0.  1.
        -12    1    3    3    0    0 -0.56164636009E+01  0.16855565551E+02  0.25844074890E+02  0.31361934895E+02  0.00000000000E+00 0.  1.
</event>
<event>
 7    1  0.2097247E-008  0.4614232E+02  0.7816164E-02  0.1320468E+00
        -11   -1    0    0    0    0  0.00000000000E+00  0.00000000000E+00  0.45593999997E+02  0.45594000000E+02  0.51100000000E-03 0. -1.
         11   -1    0    0    0    0 -0.00000000000E+00 -0.00000000000E+00 -0.45593999997E+02  0.45594000000E+02  0.51100000000E-03 0.  1.
    9900012    2    1    2    0    0  0.41992327789E+02 -0.14256185289E+02 -0.79069028524E+01  0.46142317356E+02  0.99999963033E+01 0.  0.
         12    1    1    2    0    0 -0.41992327789E+02  0.14256185289E+02  0.79069028524E+01  0.45045682644E+02  0.00000000000E+00 0. -1.
         11    1    3    3    0    0  0.20133312311E+02 -0.65588511494E+01 -0.14565544460E+01  0.21224757811E+02  0.51100000000E-03 0. -1.
        -11    1    3    3    0    0  0.11975242852E+02 -0.93996753884E+00 -0.21954472732E+01  0.12211059305E+02  0.51100000000E-03 0.  1.
         12    1    3    3    0    0  0.98837726254E+01 -0.67573666011E+01 -0.42549011332E+01  0.12706500240E+02  0.00000000000E+00 0. -1.
</event>
<event>
 7    1  0.2097247E-008  0.4614232E+02  0.7816164E-02  0.1320468E+00
        -11   -1    0    0    0    0  0.00000000000E+00  0.00000000000E+00  0.45593999997E+02  0.45594000000E+02  0.51100000000E-03 0.  1.
         11   -1    0    0    0    0 -0.00000000000E+00 -0.00000000000E+00 -0.45593999997E+02  0.45594000000E+02  0.51100000000E-03 0. -1.
    9900012    2    1    2    0    0  0.29974341001E+02  0.29760186768E+02  0.15651953282E+02  0.46142317894E+02  0.10000001209E+02 0.  0.
         12    1    1    2    0    0 -0.29974341001E+02 -0.29760186768E+02 -0.15651953282E+02  0.45045682106E+02  0.00000000000E+00 0. -1.
         11    1    3    3    0    0  0.96321728718E+01  0.10789895937E+02  0.83414407364E+01  0.16696713520E+02  0.51100000000E-03 0. -1.
        -11    1    3    3    0    0  0.13867743145E+02  0.88524590071E+01  0.51602826802E+01  0.17242646201E+02  0.51100000000E-03 0.  1.
        -12    1    3    3    0    0  0.64744249839E+01  0.10117831824E+02  0.21502298657E+01  0.12202958172E+02  0.00000000000E+00 0.  1.
</event>
<event>
 7    1  0.2097247E-008  0.4614232E+02  0.7816164E-02  0.1320468E+00
        -11   -1    0    0    0    0  0.00000000000E+00  0.00000000000E+00  0.45593999997E+02  0.45594000000E+02  0.51100000000E-03 0.  1.
         11   -1    0    0    0    0 -0.00000000000E+00 -0.00000000000E+00 -0.45593999997E+02  0.45594000000E+02  0.51100000000E-03 0. -1.
    9900012    2    1    2    0    0  0.29134690609E+02 -0.24959434051E+02  0.23607412098E+02  0.46142318176E+02  0.10000003786E+02 0.  0.
         12    1    1    2    0    0 -0.29134690609E+02  0.24959434051E+02 -0.23607412098E+02  0.45045681824E+02  0.00000000000E+00 0. -1.
         11    1    3    3    0    0  0.59580255264E+01 -0.57882601992E+01  0.17376468351E+01  0.84865447086E+01  0.51100000000E-03 0. -1.
        -11    1    3    3    0    0  0.32321451246E+01 -0.46978385522E+00  0.17148154021E+01  0.36889092021E+01  0.51100000000E-03 0.  1.
        -12    1    3    3    0    0  0.19944519958E+02 -0.18701389997E+02  0.20154949861E+02  0.33966864266E+02  0.00000000000E+00 0.  1.
</event>
<event>
 7    1  0.2097247E-008  0.4614232E+02  0.7816164E-02  0.1320468E+00
        -11   -1    0    0    0    0  0.00000000000E+00  0.00000000000E+00  0.45593999997E+02  0.45594000000E+02  0.51100000000E-03 0.  1.
         11   -1    0    0    0    0 -0.00000000000E+00 -0.00000000000E+00 -0.45593999997E+02  0.45594000000E+02  0.51100000000E-03 0. -1.
    9900012    2    1    2    0    0 -0.39473107430E+02  0.17130899559E+02  0.13323646928E+02  0.46142317661E+02  0.99999990896E+01 0.  0.
         12    1    1    2    0    0  0.39473107430E+02 -0.17130899559E+02 -0.13323646928E+02  0.45045682339E+02  0.00000000000E+00 0. -1.
         11    1    3    3    0    0 -0.39957332553E+00  0.13761461699E+01  0.10720061784E+01  0.17895906323E+01  0.51100000000E-03 0. -1.
        -11    1    3    3    0    0 -0.10624522305E+02  0.18307237507E+01  0.13998587653E+01  0.10871597329E+02  0.51100000000E-03 0.  1.
         12    1    3    3    0    0 -0.28449011800E+02  0.13924029639E+02  0.10851781984E+02  0.33481129700E+02  0.00000000000E+00 0. -1.
</event>
<event>
 7    1  0.2097247E-008  0.4614232E+02  0.7816164E-02  0.1320468E+00
        -11   -1    0    0    0    0  0.00000000000E+00  0.00000000000E+00  0.45593999997E+02  0.45594000000E+02  0.51100000000E-03 0.  1.
         11   -1    0    0    0    0 -0.00000000000E+00 -0.00000000000E+00 -0.45593999997E+02  0.45594000000E+02  0.51100000000E-03 0. -1.
    9900012    2    1    2    0    0 -0.61961946578E+01  0.32208968262E+02  0.30875604154E+02  0.46142318779E+02  0.10000009284E+02 0.  0.
         12    1    1    2    0    0  0.61961946578E+01 -0.32208968262E+02 -0.30875604154E+02  0.45045681221E+02  0.00000000000E+00 0. -1.
         11    1    3    3    0    0  0.10599157647E+01  0.24997483662E+01  0.43023056311E+01  0.50874352406E+01  0.51100000000E-03 0. -1.
        -11    1    3    3    0    0  0.32164561798E+00  0.11332741851E+02  0.11080441954E+02  0.15852781710E+02  0.51100000000E-03 0.  1.
        -12    1    3    3    0    0 -0.75777560404E+01  0.18376478045E+02  0.15492856569E+02  0.25202101829E+02  0.00000000000E+00 0.  1.
</event>
<event>
 7    1  0.2097247E-008  0.4614232E+02  0.7816164E-02  0.1320468E+00
        -11   -1    0    0    0    0  0.00000000000E+00  0.00000000000E+00  0.45593999997E+02  0.45594000000E+02  0.51100000000E-03 0.  1.
         11   -1    0    0    0    0 -0.00000000000E+00 -0.00000000000E+00 -0.45593999997E+02  0.45594000000E+02  0.51100000000E-03 0. -1.
    9900012    2    1    2    0    0 -0.49532565010E+01  0.28894500480E+02  0.34200680675E+02  0.46142318003E+02  0.10000002202E+02 0.  0.
         12    1    1    2    0    0  0.49532565010E+01 -0.28894500480E+02 -0.34200680675E+02  0.45045681997E+02  0.00000000000E+00 0. -1.
         11    1    3    3    0    0  0.30810244465E+00  0.35437215928E+01  0.69527877074E+01  0.78098749676E+01  0.51100000000E-03 0. -1.
        -11    1    3    3    0    0 -0.34365740029E+01  0.13819477333E+02  0.20133945024E+02  0.24660975997E+02  0.51100000000E-03 0.  1.
        -12    1    3    3    0    0 -0.18247849427E+01  0.11531301554E+02  0.71139479437E+01  0.13671467038E+02  0.00000000000E+00 0.  1.
</event>
<event>
 7    1  0.2097247E-008  0.4614232E+02  0.7816164E-02  0.1320468E+00
        -11   -1    0    0    0    0  0.00000000000E+00  0.00000000000E+00  0.45593999997E+02  0.45594000000E+02  0.51100000000E-03 0.  1.
         11   -1    0    0    0    0 -0.00000000000E+00 -0.00000000000E+00 -0.45593999997E+02  0.45594000000E+02  0.51100000000E-03 0. -1.
    9900012    2    1    2    0    0  0.26103044123E+02 -0.34006010138E+02  0.13832418642E+02  0.46142318259E+02  0.10000004545E+02 0.  0.
         12    1    1    2    0    0 -0.26103044123E+02  0.34006010138E+02 -0.13832418642E+02  0.45045681741E+02  0.00000000000E+00 0. -1.
         11    1    3    3    0    0  0.31819053786E+01 -0.42750038275E+01 -0.46620595893E+00  0.53495352902E+01  0.51100000000E-03 0. -1.
        -11    1    3    3    0    0  0.20110434021E+02 -0.28876696105E+02  0.12475585215E+02  0.37335416982E+02  0.51100000000E-03 0.  1.
        -12    1    3    3    0    0  0.28107047231E+01 -0.85431020455E+00  0.18230393865E+01  0.34573659873E+01  0.00000000000E+00 0.  1.
</event>
<event>
 7    1  0.2097247E-008  0.4614232E+02  0.7816164E-02  0.1320468E+00
        -11   -1    0    0    0    0  0.00000000000E+00  0.00000000000E+00  0.45593999997E+02  0.45594000000E+02  0.51100000000E-03 0. -1.
         11   -1    0    0    0    0 -0.00000000000E+00 -0.00000000000E+00 -0.45593999997E+02  0.45594000000E+02  0.51100000000E-03 0.  1.
    9900012    2    1    2    0    0 -0.18081167206E+02 -0.19332674301E+02 -0.36447670893E+02  0.46142316336E+02  0.99999870067E+01 0.  0.
         12    1    1    2    0    0  0.18081167206E+02  0.19332674301E+02  0.36447670893E+02  0.45045683664E+02  0.00000000000E+00 0. -1.
         11    1    3    3    0    0 -0.19827081020E-02 -0.37595450844E+01 -0.39654490793E+01  0.54643361751E+01  0.51100000000E-03 0. -1.
        -11    1    3    3    0    0 -0.71135017626E+01 -0.40355295573E+01 -0.14624613753E+02  0.16756095423E+02  0.51100000000E-03 0.  1.
        -12    1    3    3    0    0 -0.10965682736E+02 -0.11537599660E+02 -0.17857608061E+02  0.23921884738E+02  0.00000000000E+00 0.  1.
</event>
<event>
 7    1  0.2097247E-008  0.4614232E+02  0.7816164E-02  0.1320468E+00
        -11   -1    0    0    0    0  0.00000000000E+00  0.00000000000E+00  0.45593999997E+02  0.45594000000E+02  0.51100000000E-03 0. -1.
         11   -1    0    0    0    0 -0.00000000000E+00 -0.00000000000E+00 -0.45593999997E+02  0.45594000000E+02  0.51100000000E-03 0.  1.
    9900012    2    1    2    0    0  0.47270425770E+01  0.91790012199E+01 -0.43846487461E+02  0.46142318103E+02  0.10000003120E+02 0.  0.
         12    1    1    2    0    0 -0.47270425770E+01 -0.91790012199E+01  0.43846487461E+02  0.45045681897E+02  0.00000000000E+00 0. -1.
         11    1    3    3    0    0  0.44453765657E+00 -0.10825104057E+01 -0.88820679653E+01  0.89588266033E+01  0.51100000000E-03 0. -1.
        -11    1    3    3    0    0  0.21893556818E+01  0.84487588802E+01 -0.18113222936E+02  0.20106308719E+02  0.51100000000E-03 0.  1.
        -12    1    3    3    0    0  0.20931492387E+01  0.18127527453E+01 -0.16851196559E+02  0.17077182781E+02  0.00000000000E+00 0.  1.
</event>
<event>
 7    1  0.2097247E-008  0.4614232E+02  0.7816164E-02  0.1320468E+00
        -11   -1    0    0    0    0  0.00000000000E+00  0.00000000000E+00  0.45593999997E+02  0.45594000000E+02  0.51100000000E-03 0.  1.
         11   -1    0    0    0    0 -0.00000000000E+00 -0.00000000000E+00 -0.45593999997E+02  0.45594000000E+02  0.51100000000E-03 0. -1.
    9900012    2    1    2    0    0 -0.43373190180E+02 -0.71365980097E+01 -0.98462555677E+01  0.46142318673E+02  0.10000008314E+02 0.  0.
         12    1    1    2    0    0  0.43373190180E+02  0.71365980097E+01  0.98462555677E+01  0.45045681327E+02  0.00000000000E+00 0. -1.
         11    1    3    3    0    0 -0.12890907698E+02 -0.30139444127E+01  0.17542237519E+00  0.13239718104E+02  0.51100000000E-03 0. -1.
        -11    1    3    3    0    0 -0.13625141198E+02  0.74389660306E+00 -0.28044061099E+01  0.13930633464E+02  0.51100000000E-03 0.  1.
         12    1    3    3    0    0 -0.16857141283E+02 -0.48665502001E+01 -0.72172718330E+01  0.18971967104E+02  0.00000000000E+00 0. -1.
</event>
<event>
 7    1  0.2097247E-008  0.4614232E+02  0.7816164E-02  0.1320468E+00
        -11   -1    0    0    0    0  0.00000000000E+00  0.00000000000E+00  0.45593999997E+02  0.45594000000E+02  0.51100000000E-03 0.  1.
         11   -1    0    0    0    0 -0.00000000000E+00 -0.00000000000E+00 -0.45593999997E+02  0.45594000000E+02  0.51100000000E-03 0. -1.
    9900012    2    1    2    0    0 -0.15194235182E+02 -0.32888905127E+01  0.42278030942E+02  0.46142317811E+02  0.10000000456E+02 0.  0.
         12    1    1    2    0    0  0.15194235182E+02  0.32888905127E+01 -0.42278030942E+02  0.45045682189E+02  0.00000000000E+00 0. -1.
         11    1    3    3    0    0 -0.52721925326E+01  0.95512606899E+00  0.15530049761E+02  0.16428351279E+02  0.51100000000E-03 0.  1.
        -11    1    3    3    0    0 -0.98974921085E+00  0.18105386990E+01  0.31482383373E+01  0.37641810226E+01  0.51100000000E-03 0. -1.
         12    1    3    3    0    0 -0.89322934387E+01 -0.60545552807E+01  0.23599742844E+02  0.25949785510E+02  0.00000000000E+00 0. -1.
</event>
<event>
 7    1  0.2097247E-008  0.4614232E+02  0.7816164E-02  0.1320468E+00
        -11   -1    0    0    0    0  0.00000000000E+00  0.00000000000E+00  0.45593999997E+02  0.45594000000E+02  0.51100000000E-03 0. -1.
         11   -1    0    0    0    0 -0.00000000000E+00 -0.00000000000E+00 -0.45593999997E+02  0.45594000000E+02  0.51100000000E-03 0.  1.
    9900012    2    1    2    0    0  0.31207321807E+02  0.25320745944E+02 -0.20348869984E+02  0.46142316310E+02  0.99999867672E+01 0.  0.
         12    1    1    2    0    0 -0.31207321807E+02 -0.25320745944E+02  0.20348869984E+02  0.45045683690E+02  0.00000000000E+00 0. -1.
         11    1    3    3    0    0  0.89312108995E+01  0.65210218515E+01 -0.55255501921E+01  0.12362117913E+02  0.51100000000E-03 0. -1.
        -11    1    3    3    0    0  0.22508324448E+02  0.18354864383E+02 -0.12876874377E+02  0.31770105603E+02  0.51100000000E-03 0.  1.
         12    1    3    3    0    0 -0.23221354142E+00  0.44485970907E+00 -0.19464454143E+01  0.20100927940E+01  0.00000000000E+00 0. -1.
</event>
<event>
 7    1  0.2097247E-008  0.4614232E+02  0.7816164E-02  0.1320468E+00
        -11   -1    0    0    0    0  0.00000000000E+00  0.00000000000E+00  0.45593999997E+02  0.45594000000E+02  0.51100000000E-03 0. -1.
         11   -1    0    0    0    0 -0.00000000000E+00 -0.00000000000E+00 -0.45593999997E+02  0.45594000000E+02  0.51100000000E-03 0.  1.
    9900012    2    1    2    0    0 -0.11329663333E+02 -0.22689627767E+02 -0.37228120471E+02  0.46142318372E+02  0.10000005575E+02 0.  0.
         12    1    1    2    0    0  0.11329663333E+02  0.22689627767E+02  0.37228120471E+02  0.45045681628E+02  0.00000000000E+00 0. -1.
         11    1    3    3    0    0 -0.34529910111E+01 -0.51085277462E+01 -0.64433144390E+01  0.89183240509E+01  0.51100000000E-03 0. -1.
        -11    1    3    3    0    0 -0.54143968363E+01 -0.16881358001E+02 -0.29352108538E+02  0.34290555798E+02  0.51100000000E-03 0.  1.
         12    1    3    3    0    0 -0.24622754853E+01 -0.69974202052E+00 -0.14326974944E+01  0.29334385235E+01  0.00000000000E+00 0. -1.
</event>
<event>
 7    1  0.2097247E-008  0.4614232E+02  0.7816164E-02  0.1320468E+00
        -11   -1    0    0    0    0  0.00000000000E+00  0.00000000000E+00  0.45593999997E+02  0.45594000000E+02  0.51100000000E-03 0.  1.
         11   -1    0    0    0    0 -0.00000000000E+00 -0.00000000000E+00 -0.45593999997E+02  0.45594000000E+02  0.51100000000E-03 0. -1.
    9900012    2    1    2    0    0  0.49307693838E+01 -0.40774748708E+02  0.18499213214E+02  0.46142317538E+02  0.99999979666E+01 0.  0.
         12    1    1    2    0    0 -0.49307693838E+01  0.40774748708E+02 -0.18499213214E+02  0.45045682462E+02  0.00000000000E+00 0. -1.
         11    1    3    3    0    0  0.22760745784E+01 -0.30016157085E+01  0.20667256728E+01  0.42966926369E+01  0.51100000000E-03 0. -1.
        -11    1    3    3    0    0 -0.12371351172E+01 -0.10913509727E+02  0.73927548246E+01  0.13239638289E+02  0.51100000000E-03 0.  1.
        -12    1    3    3    0    0  0.38918299225E+01 -0.26859623272E+02  0.90397327169E+01  0.28605986612E+02  0.00000000000E+00 0.  1.
</event>
<event>
 7    1  0.2097247E-008  0.4614232E+02  0.7816164E-02  0.1320468E+00
        -11   -1    0    0    0    0  0.00000000000E+00  0.00000000000E+00  0.45593999997E+02  0.45594000000E+02  0.51100000000E-03 0.  1.
         11   -1    0    0    0    0 -0.00000000000E+00 -0.00000000000E+00 -0.45593999997E+02  0.45594000000E+02  0.51100000000E-03 0. -1.
    9900012    2    1    2    0    0  0.21834350147E+02  0.13403697277E+02  0.37050176243E+02  0.46142317558E+02  0.99999981459E+01 0.  0.
         12    1    1    2    0    0 -0.21834350147E+02 -0.13403697277E+02 -0.37050176243E+02  0.45045682442E+02  0.00000000000E+00 0. -1.
         11    1    3    3    0    0  0.14367659455E+02  0.85276623536E+01  0.28363109815E+02  0.32918333222E+02  0.51100000000E-03 0. -1.
        -11    1    3    3    0    0  0.80686134354E+01  0.47215110981E+01  0.81163588470E+01  0.12380245192E+02  0.51100000000E-03 0.  1.
         12    1    3    3    0    0 -0.60192274287E+00  0.15452382516E+00  0.57070758073E+00  0.84373914430E+00  0.00000000000E+00 0. -1.
</event>
<event>
 7    1  0.2097247E-008  0.4614232E+02  0.7816164E-02  0.1320468E+00
        -11   -1    0    0    0    0  0.00000000000E+00  0.00000000000E+00  0.45593999997E+02  0.45594000000E+02  0.51100000000E-03 0. -1.
         11   -1    0    0    0    0 -0.00000000000E+00 -0.00000000000E+00 -0.45593999997E+02  0.45594000000E+02  0.51100000000E-03 0.  1.
    9900012    2    1    2    0    0  0.16904002219E+02  0.25852814182E+02 -0.32787195974E+02  0.46142317499E+02  0.99999976091E+01 0.  0.
         12    1    1    2    0    0 -0.16904002219E+02 -0.25852814182E+02  0.32787195974E+02  0.45045682501E+02  0.00000000000E+00 0. -1.
         11    1    3    3    0    0 -0.53453379442E-01 -0.31045075954E+00 -0.74342150254E+00  0.80741112788E+00  0.51100000000E-03 0. -1.
        -11    1    3    3    0    0  0.26171948208E+01  0.73110680160E+01 -0.12063959271E+02  0.14347143891E+02  0.51100000000E-03 0.  1.
         12    1    3    3    0    0  0.14340260778E+02  0.18852196926E+02 -0.19979815200E+02  0.30987762480E+02  0.00000000000E+00 0. -1.
</event>
<event>
 7    1  0.2097247E-008  0.4614232E+02  0.7816164E-02  0.1320468E+00
        -11   -1    0    0    0    0  0.00000000000E+00  0.00000000000E+00  0.45593999997E+02  0.45594000000E+02  0.51100000000E-03 0. -1.
         11   -1    0    0    0    0 -0.00000000000E+00 -0.00000000000E+00 -0.45593999997E+02  0.45594000000E+02  0.51100000000E-03 0.  1.
    9900012    2    1    2    0    0 -0.31682035407E+02 -0.29606874410E+02  0.12198157467E+02  0.46142318460E+02  0.10000006371E+02 0.  0.
         12    1    1    2    0    0  0.31682035407E+02  0.29606874410E+02 -0.12198157467E+02  0.45045681540E+02  0.00000000000E+00 0. -1.
         11    1    3    3    0    0 -0.38598961197E+01 -0.82611913010E+01  0.21701056878E+01  0.93731232108E+01  0.51100000000E-03 0. -1.
        -11    1    3    3    0    0 -0.49710697348E+01 -0.18094868064E+01  0.19601619723E+01  0.56416320360E+01  0.51100000000E-03 0.  1.
        -12    1    3    3    0    0 -0.22851069552E+02 -0.19536196302E+02  0.80678898066E+01  0.31127563213E+02  0.00000000000E+00 0.  1.
</event>
<event>
 7    1  0.2097247E-008  0.4614232E+02  0.7816164E-02  0.1320468E+00
        -11   -1    0    0    0    0  0.00000000000E+00  0.00000000000E+00  0.45593999997E+02  0.45594000000E+02  0.51100000000E-03 0.  1.
         11   -1    0    0    0    0 -0.00000000000E+00 -0.00000000000E+00 -0.45593999997E+02  0.45594000000E+02  0.51100000000E-03 0. -1.
    9900012    2    1    2    0    0 -0.82499739952E+01 -0.12000067712E+02  0.42626867322E+02  0.46142317480E+02  0.99999974353E+01 0.  0.
         12    1    1    2    0    0  0.82499739952E+01  0.12000067712E+02 -0.42626867322E+02  0.45045682520E+02  0.00000000000E+00 0. -1.
         11    1    3    3    0    0  0.60829937056E-01 -0.47178383918E+01  0.93366004717E+01  0.10461061514E+02  0.51100000000E-03 0. -1.
        -11    1    3    3    0    0 -0.39214980956E+00  0.11041429580E+01  0.48846146139E+01  0.50231835854E+01  0.51100000000E-03 0.  1.
        -12    1    3    3    0    0 -0.79186541227E+01 -0.83863722780E+01  0.28405652237E+02  0.30658072380E+02  0.00000000000E+00 0.  1.
</event>
<event>
 7    1  0.2097247E-008  0.4614232E+02  0.7816164E-02  0.1320468E+00
        -11   -1    0    0    0    0  0.00000000000E+00  0.00000000000E+00  0.45593999997E+02  0.45594000000E+02  0.51100000000E-03 0.  1.
         11   -1    0    0    0    0 -0.00000000000E+00 -0.00000000000E+00 -0.45593999997E+02  0.45594000000E+02  0.51100000000E-03 0. -1.
    9900012    2    1    2    0    0 -0.34493249179E+02 -0.20116505446E+01  0.28901252731E+02  0.46142318894E+02  0.10000010334E+02 0.  0.
         12    1    1    2    0    0  0.34493249179E+02  0.20116505446E+01 -0.28901252731E+02  0.45045681106E+02  0.00000000000E+00 0. -1.
         11    1    3    3    0    0 -0.16992008721E+02 -0.31810279907E+01  0.18432004677E+02  0.25270261101E+02  0.51100000000E-03 0. -1.
        -11    1    3    3    0    0 -0.52202098149E+01  0.10228603067E+01  0.54153708549E+01  0.75909864626E+01  0.51100000000E-03 0.  1.
         12    1    3    3    0    0 -0.12281030644E+02  0.14651713949E+00  0.50538771984E+01  0.13281071330E+02  0.00000000000E+00 0. -1.
</event>
<event>
 7    1  0.2097247E-008  0.4614232E+02  0.7816164E-02  0.1320468E+00
        -11   -1    0    0    0    0  0.00000000000E+00  0.00000000000E+00  0.45593999997E+02  0.45594000000E+02  0.51100000000E-03 0.  1.
         11   -1    0    0    0    0 -0.00000000000E+00 -0.00000000000E+00 -0.45593999997E+02  0.45594000000E+02  0.51100000000E-03 0. -1.
    9900012    2    1    2    0    0 -0.37055479456E+02 -0.24785617961E+02  0.64558507010E+01  0.46142318479E+02  0.10000006549E+02 0.  0.
         12    1    1    2    0    0  0.37055479456E+02  0.24785617961E+02 -0.64558507010E+01  0.45045681521E+02  0.00000000000E+00 0. -1.
         11    1    3    3    0    0 -0.14729114454E+02 -0.10834023062E+02 -0.71000988074E+00  0.18298278132E+02  0.51100000000E-03 0. -1.
        -11    1    3    3    0    0 -0.77046653511E+01 -0.45638174960E+01 -0.23410222613E+00  0.89579630733E+01  0.51100000000E-03 0.  1.
         12    1    3    3    0    0 -0.14621699651E+02 -0.93877774025E+01  0.73999628079E+01  0.18886077274E+02  0.00000000000E+00 0. -1.
</event>
<event>
 7    1  0.2097247E-008  0.4614232E+02  0.7816164E-02  0.1320468E+00
        -11   -1    0    0    0    0  0.00000000000E+00  0.00000000000E+00  0.45593999997E+02  0.45594000000E+02  0.51100000000E-03 0. -1.
         11   -1    0    0    0    0 -0.00000000000E+00 -0.00000000000E+00 -0.45593999997E+02  0.45594000000E+02  0.51100000000E-03 0.  1.
    9900012    2    1    2    0    0 -0.20931169638E+02 -0.33617484976E+02 -0.21467741272E+02  0.46142322362E+02  0.10000041956E+02 0.  0.
         12    1    1    2    0    0  0.20931169638E+02  0.33617484976E+02  0.21467741272E+02  0.45045677638E+02  0.00000000000E+00 0. -1.
         11    1    3    3    0    0 -0.25995690831E+01 -0.15525932398E+01 -0.57505000681E+00  0.30820428222E+01  0.51100000000E-03 0. -1.
        -11    1    3    3    0    0 -0.11075289937E+02 -0.12139750020E+02 -0.85391348275E+01  0.18518974097E+02  0.51100000000E-03 0.  1.
         12    1    3    3    0    0 -0.72563106180E+01 -0.19925141716E+02 -0.12353556438E+02  0.24541305443E+02  0.00000000000E+00 0. -1.
</event>
<event>
 7    1  0.2097247E-008  0.4614232E+02  0.7816164E-02  0.1320468E+00
        -11   -1    0    0    0    0  0.00000000000E+00  0.00000000000E+00  0.45593999997E+02  0.45594000000E+02  0.51100000000E-03 0.  1.
         11   -1    0    0    0    0 -0.00000000000E+00 -0.00000000000E+00 -0.45593999997E+02  0.45594000000E+02  0.51100000000E-03 0. -1.
    9900012    2    1    2    0    0  0.35762029313E+01  0.25233651518E+02  0.37142794432E+02  0.46142316804E+02  0.99999912748E+01 0.  0.
         12    1    1    2    0    0 -0.35762029313E+01 -0.25233651518E+02 -0.37142794432E+02  0.45045683196E+02  0.00000000000E+00 0. -1.
         11    1    3    3    0    0 -0.11111557052E+01  0.77161369530E+01  0.54674127511E+01  0.95218716086E+01  0.51100000000E-03 0. -1.
        -11    1    3    3    0    0 -0.12677595876E+00  0.15518858278E+01  0.42144867639E+01  0.44929189521E+01  0.51100000000E-03 0.  1.
        -12    1    3    3    0    0  0.48141345953E+01  0.15965628737E+02  0.27460894917E+02  0.32127526244E+02  0.00000000000E+00 0.  1.
</event>
<event>
 7    1  0.2097247E-008  0.4614232E+02  0.7816164E-02  0.1320468E+00
        -11   -1    0    0    0    0  0.00000000000E+00  0.00000000000E+00  0.45593999997E+02  0.45594000000E+02  0.51100000000E-03 0.  1.
         11   -1    0    0    0    0 -0.00000000000E+00 -0.00000000000E+00 -0.45593999997E+02  0.45594000000E+02  0.51100000000E-03 0. -1.
    9900012    2    1    2    0    0 -0.13808148710E+02  0.29416376258E+02  0.31194955394E+02  0.46142318687E+02  0.10000008442E+02 0.  0.
         12    1    1    2    0    0  0.13808148710E+02 -0.29416376258E+02 -0.31194955394E+02  0.45045681313E+02  0.00000000000E+00 0. -1.
         11    1    3    3    0    0 -0.40872592886E+01  0.75641589286E+01  0.12942950137E+02  0.15538408777E+02  0.51100000000E-03 0. -1.
        -11    1    3    3    0    0 -0.27195794678E+01  0.25509884234E+01  0.47144473174E+01  0.60107959696E+01  0.51100000000E-03 0.  1.
        -12    1    3    3    0    0 -0.70013099535E+01  0.19301228906E+02  0.13537557939E+02  0.24593113941E+02  0.00000000000E+00 0.  1.
</event>
<event>
 7    1  0.2097247E-008  0.4614232E+02  0.7816164E-02  0.1320468E+00
        -11   -1    0    0    0    0  0.00000000000E+00  0.00000000000E+00  0.45593999997E+02  0.45594000000E+02  0.51100000000E-03 0. -1.
         11   -1    0    0    0    0 -0.00000000000E+00 -0.00000000000E+00 -0.45593999997E+02  0.45594000000E+02  0.51100000000E-03 0.  1.
    9900012    2    1    2    0    0  0.38922282291E+02  0.16462032857E+02  0.15593939175E+02  0.46142317371E+02  0.99999964396E+01 0.  0.
         12    1    1    2    0    0 -0.38922282291E+02 -0.16462032857E+02 -0.15593939175E+02  0.45045682629E+02  0.00000000000E+00 0. -1.
         11    1    3    3    0    0  0.79214782022E+00 -0.42195730349E+00  0.63492133582E-01  0.89976532896E+00  0.51100000000E-03 0. -1.
        -11    1    3    3    0    0  0.22922030226E+02  0.63017125980E+01  0.10858581611E+02  0.26135031016E+02  0.51100000000E-03 0.  1.
         12    1    3    3    0    0  0.15208104246E+02  0.10582277563E+02  0.46718654299E+01  0.19107521026E+02  0.00000000000E+00 0. -1.
</event>
<event>
 7    1  0.2097247E-008  0.4614231E+02  0.7816164E-02  0.1320468E+00
        -11   -1    0    0    0    0  0.00000000000E+00  0.00000000000E+00  0.45593999997E+02  0.45594000000E+02  0.51100000000E-03 0.  1.
         11   -1    0    0    0    0 -0.00000000000E+00 -0.00000000000E+00 -0.45593999997E+02  0.45594000000E+02  0.51100000000E-03 0. -1.
    9900012    2    1    2    0    0 -0.76313155125E+01  0.36649452742E+02  0.25053836987E+02  0.46142310856E+02  0.99999370292E+01 0.  0.
         12    1    1    2    0    0  0.76313155125E+01 -0.36649452742E+02 -0.25053836987E+02  0.45045689144E+02  0.00000000000E+00 0. -1.
         11    1    3    3    0    0  0.10396271030E+01  0.42928531275E+01  0.16524152673E+01  0.47159186766E+01  0.51100000000E-03 0. -1.
        -11    1    3    3    0    0  0.46083615014E+00  0.29186443405E-01 -0.40151160839E-01  0.46350208477E+00  0.51100000000E-03 0.  1.
        -12    1    3    3    0    0 -0.91317787656E+01  0.32327413171E+02  0.23441572881E+02  0.40962890094E+02  0.00000000000E+00 0.  1.
</event>
<event>
 7    1  0.2097247E-008  0.4614232E+02  0.7816164E-02  0.1320468E+00
        -11   -1    0    0    0    0  0.00000000000E+00  0.00000000000E+00  0.45593999997E+02  0.45594000000E+02  0.51100000000E-03 0.  1.
         11   -1    0    0    0    0 -0.00000000000E+00 -0.00000000000E+00 -0.45593999997E+02  0.45594000000E+02  0.51100000000E-03 0. -1.
    9900012    2    1    2    0    0  0.30856724521E+02 -0.30192802878E+02  0.12859654368E+02  0.46142317585E+02  0.99999983910E+01 0.  0.
         12    1    1    2    0    0 -0.30856724521E+02  0.30192802878E+02 -0.12859654368E+02  0.45045682415E+02  0.00000000000E+00 0. -1.
         11    1    3    3    0    0  0.10428496525E+02 -0.12028713890E+02  0.82301333798E+01  0.17921456228E+02  0.51100000000E-03 0. -1.
        -11    1    3    3    0    0  0.16834642339E+02 -0.15959659189E+02  0.56664286311E+01  0.23879370130E+02  0.51100000000E-03 0.  1.
         12    1    3    3    0    0  0.35935856575E+01 -0.22044297990E+01 -0.10369076425E+01  0.43414912272E+01  0.00000000000E+00 0. -1.
</event>
<event>
 7    1  0.2097247E-008  0.4614232E+02  0.7816164E-02  0.1320468E+00
        -11   -1    0    0    0    0  0.00000000000E+00  0.00000000000E+00  0.45593999997E+02  0.45594000000E+02  0.51100000000E-03 0.  1.
         11   -1    0    0    0    0 -0.00000000000E+00 -0.00000000000E+00 -0.45593999997E+02  0.45594000000E+02  0.51100000000E-03 0. -1.
    9900012    2    1    2    0    0  0.36418730076E+01  0.43528066523E+02  0.11007163046E+02  0.46142318159E+02  0.10000003628E+02 0.  0.
         12    1    1    2    0    0 -0.36418730076E+01 -0.43528066523E+02 -0.11007163046E+02  0.45045681841E+02  0.00000000000E+00 0. -1.
         11    1    3    3    0    0 -0.19272682728E+00  0.35529407224E+01  0.31840215650E+01  0.47747800991E+01  0.51100000000E-03 0. -1.
        -11    1    3    3    0    0 -0.17275471759E+00  0.82677569906E+01 -0.67596963446E+00  0.82971431864E+01  0.51100000000E-03 0.  1.
         12    1    3    3    0    0  0.40073545525E+01  0.31707368810E+02  0.84991111158E+01  0.33070394873E+02  0.00000000000E+00 0. -1.
</event>
<event>
 7    1  0.2097247E-008  0.4614232E+02  0.7816164E-02  0.1320468E+00
        -11   -1    0    0    0    0  0.00000000000E+00  0.00000000000E+00  0.45593999997E+02  0.45594000000E+02  0.51100000000E-03 0. -1.
         11   -1    0    0    0    0 -0.00000000000E+00 -0.00000000000E+00 -0.45593999997E+02  0.45594000000E+02  0.51100000000E-03 0.  1.
    9900012    2    1    2    0    0  0.20458054335E+02  0.13499400644E+02  0.37793487624E+02  0.46142317502E+02  0.99999976415E+01 0.  0.
         12    1    1    2    0    0 -0.20458054335E+02 -0.13499400644E+02 -0.37793487624E+02  0.45045682498E+02  0.00000000000E+00 0. -1.
         11    1    3    3    0    0  0.84689566207E+00  0.29079729772E+01  0.53668754072E+01  0.61625393302E+01  0.51100000000E-03 0.  1.
        -11    1    3    3    0    0  0.80194746747E+00 -0.94255060072E+00  0.25979216331E+01  0.28776237503E+01  0.51100000000E-03 0. -1.
        -12    1    3    3    0    0  0.18809211205E+02  0.11533978268E+02  0.29828690583E+02  0.37102154422E+02  0.00000000000E+00 0.  1.
</event>
<event>
 7    1  0.2097247E-008  0.4614232E+02  0.7816164E-02  0.1320468E+00
        -11   -1    0    0    0    0  0.00000000000E+00  0.00000000000E+00  0.45593999997E+02  0.45594000000E+02  0.51100000000E-03 0. -1.
         11   -1    0    0    0    0 -0.00000000000E+00 -0.00000000000E+00 -0.45593999997E+02  0.45594000000E+02  0.51100000000E-03 0.  1.
    9900012    2    1    2    0    0  0.30953009156E+02  0.46587730879E+01  0.32393220502E+02  0.46142315668E+02  0.99999809127E+01 0.  0.
         12    1    1    2    0    0 -0.30953009156E+02 -0.46587730879E+01 -0.32393220502E+02  0.45045684332E+02  0.00000000000E+00 0. -1.
         11    1    3    3    0    0  0.11551248055E+02  0.52096694230E+00  0.13420043540E+02  0.17714409588E+02  0.51100000000E-03 0. -1.
        -11    1    3    3    0    0  0.18988863007E+01  0.22523892625E+01  0.55736327121E+01  0.63043166515E+01  0.51100000000E-03 0.  1.
         12    1    3    3    0    0  0.17502874800E+02  0.18854168831E+01  0.13399544249E+02  0.22123589428E+02  0.00000000000E+00 0. -1.
</event>
<event>
 7    1  0.2097247E-008  0.4614231E+02  0.7816164E-02  0.1320468E+00
        -11   -1    0    0    0    0  0.00000000000E+00  0.00000000000E+00  0.45593999997E+02  0.45594000000E+02  0.51100000000E-03 0. -1.
         11   -1    0    0    0    0 -0.00000000000E+00 -0.00000000000E+00 -0.45593999997E+02  0.45594000000E+02  0.51100000000E-03 0.  1.
    9900012    2    1    2    0    0  0.37777871456E+02 -0.22942188314E+02 -0.86949850918E+01  0.46142308285E+02  0.99999135865E+01 0.  0.
         12    1    1    2    0    0 -0.37777871456E+02  0.22942188314E+02  0.86949850918E+01  0.45045691715E+02  0.00000000000E+00 0. -1.
         11    1    3    3    0    0  0.89787203285E+01 -0.97992058109E+01 -0.42561264251E+01  0.13955517392E+02  0.51100000000E-03 0. -1.
        -11    1    3    3    0    0  0.21411267911E+02 -0.11476180094E+02 -0.29952546911E+01  0.24476859562E+02  0.51100000000E-03 0.  1.
         12    1    3    3    0    0  0.73878832162E+01 -0.16668024091E+01 -0.14436039756E+01  0.77099313308E+01  0.00000000000E+00 0. -1.
</event>
<event>
 7    1  0.2097247E-008  0.4614232E+02  0.7816164E-02  0.1320468E+00
        -11   -1    0    0    0    0  0.00000000000E+00  0.00000000000E+00  0.45593999997E+02  0.45594000000E+02  0.51100000000E-03 0.  1.
         11   -1    0    0    0    0 -0.00000000000E+00 -0.00000000000E+00 -0.45593999997E+02  0.45594000000E+02  0.51100000000E-03 0. -1.
    9900012    2    1    2    0    0 -0.44068688157E+02 -0.23081410160E+01  0.90408307233E+01  0.46142318620E+02  0.10000007831E+02 0.  0.
         12    1    1    2    0    0  0.44068688157E+02  0.23081410160E+01 -0.90408307233E+01  0.45045681380E+02  0.00000000000E+00 0. -1.
         11    1    3    3    0    0 -0.19769727786E+02 -0.24629208935E+01  0.12570464048E+01  0.19962171274E+02  0.51100000000E-03 0. -1.
        -11    1    3    3    0    0 -0.11200805985E+02 -0.20821947389E+01  0.56686301545E+01  0.12725052366E+02  0.51100000000E-03 0.  1.
        -12    1    3    3    0    0 -0.13098154387E+02  0.22369746165E+01  0.21151541640E+01  0.13455094980E+02  0.00000000000E+00 0.  1.
</event>
<event>
 7    1  0.2097247E-008  0.4614232E+02  0.7816164E-02  0.1320468E+00
        -11   -1    0    0    0    0  0.00000000000E+00  0.00000000000E+00  0.45593999997E+02  0.45594000000E+02  0.51100000000E-03 0. -1.
         11   -1    0    0    0    0 -0.00000000000E+00 -0.00000000000E+00 -0.45593999997E+02  0.45594000000E+02  0.51100000000E-03 0.  1.
    9900012    2    1    2    0    0  0.36592794164E+02 -0.16168764215E+02 -0.20703911579E+02  0.46142317903E+02  0.10000001291E+02 0.  0.
         12    1    1    2    0    0 -0.36592794164E+02  0.16168764215E+02  0.20703911579E+02  0.45045682097E+02  0.00000000000E+00 0. -1.
         11    1    3    3    0    0  0.98806615539E+00 -0.20985809661E+01 -0.18009642248E+01  0.29366288834E+01  0.51100000000E-03 0. -1.
        -11    1    3    3    0    0  0.17781924115E+02 -0.10532758761E+02 -0.10624846351E+02  0.23238399096E+02  0.51100000000E-03 0.  1.
         12    1    3    3    0    0  0.17822803894E+02 -0.35374244883E+01 -0.82781010032E+01  0.19967289923E+02  0.00000000000E+00 0. -1.
</event>
<event>
 7    1  0.2097247E-008  0.4614232E+02  0.7816164E-02  0.1320468E+00
        -11   -1    0    0    0    0  0.00000000000E+00  0.00000000000E+00  0.45593999997E+02  0.45594000000E+02  0.51100000000E-03 0. -1.
         11   -1    0    0    0    0 -0.00000000000E+00 -0.00000000000E+00 -0.45593999997E+02  0.45594000000E+02  0.51100000000E-03 0.  1.
    9900012    2    1    2    0    0  0.43982360111E+02  0.78573821451E+01  0.57382000084E+01  0.46142318804E+02  0.10000009509E+02 0.  0.
         12    1    1    2    0    0 -0.43982360111E+02 -0.78573821451E+01 -0.57382000084E+01  0.45045681196E+02  0.00000000000E+00 0. -1.
         11    1    3    3    0    0  0.11356095402E+02  0.25904180464E+01 -0.16629027005E+01  0.11765900480E+02  0.51100000000E-03 0. -1.
        -11    1    3    3    0    0  0.20830059198E+02  0.16638158636E+01  0.22767536164E+01  0.21020067952E+02  0.51100000000E-03 0.  1.
        -12    1    3    3    0    0  0.11796205510E+02  0.36031482352E+01  0.51243490925E+01  0.13356350372E+02  0.00000000000E+00 0.  1.
</event>
<event>
 7    1  0.2097247E-008  0.4614232E+02  0.7816164E-02  0.1320468E+00
        -11   -1    0    0    0    0  0.00000000000E+00  0.00000000000E+00  0.45593999997E+02  0.45594000000E+02  0.51100000000E-03 0.  1.
         11   -1    0    0    0    0 -0.00000000000E+00 -0.00000000000E+00 -0.45593999997E+02  0.45594000000E+02  0.51100000000E-03 0. -1.
    9900012    2    1    2    0    0 -0.32518912114E+02 -0.23464077528E+02  0.20520012225E+02  0.46142317842E+02  0.10000000741E+02 0.  0.
         12    1    1    2    0    0  0.32518912114E+02  0.23464077528E+02 -0.20520012225E+02  0.45045682158E+02  0.00000000000E+00 0. -1.
         11    1    3    3    0    0 -0.12905696094E-01 -0.17466791051E+00  0.41429676984E+00  0.44979718827E+00  0.51100000000E-03 0. -1.
        -11    1    3    3    0    0 -0.28651268390E+02 -0.17524612641E+02  0.19233208717E+02  0.38703017278E+02  0.51100000000E-03 0.  1.
        -12    1    3    3    0    0 -0.38547380278E+01 -0.57647969761E+01  0.87250673834E+00  0.69895033763E+01  0.00000000000E+00 0.  1.
</event>
<event>
 7    1  0.2097247E-008  0.4614232E+02  0.7816164E-02  0.1320468E+00
        -11   -1    0    0    0    0  0.00000000000E+00  0.00000000000E+00  0.45593999997E+02  0.45594000000E+02  0.51100000000E-03 0.  1.
         11   -1    0    0    0    0 -0.00000000000E+00 -0.00000000000E+00 -0.45593999997E+02  0.45594000000E+02  0.51100000000E-03 0. -1.
    9900012    2    1    2    0    0 -0.21030170096E+02 -0.27617204313E+02  0.28707759471E+02  0.46142317830E+02  0.10000000632E+02 0.  0.
         12    1    1    2    0    0  0.21030170096E+02  0.27617204313E+02 -0.28707759471E+02  0.45045682170E+02  0.00000000000E+00 0. -1.
         11    1    3    3    0    0 -0.55777434875E+01 -0.78655967614E+01  0.65595566535E+01  0.11662187555E+02  0.51100000000E-03 0. -1.
        -11    1    3    3    0    0 -0.12887406634E+01 -0.67375569960E+01  0.35476769750E+01  0.77227934682E+01  0.51100000000E-03 0.  1.
         12    1    3    3    0    0 -0.14163685945E+02 -0.13014050555E+02  0.18600525842E+02  0.26757336807E+02  0.00000000000E+00 0. -1.
</event>
<event>
 7    1  0.2097247E-008  0.4614232E+02  0.7816164E-02  0.1320468E+00
        -11   -1    0    0    0    0  0.00000000000E+00  0.00000000000E+00  0.45593999997E+02  0.45594000000E+02  0.51100000000E-03 0. -1.
         11   -1    0    0    0    0 -0.00000000000E+00 -0.00000000000E+00 -0.45593999997E+02  0.45594000000E+02  0.51100000000E-03 0.  1.
    9900012    2    1    2    0    0 -0.26418186802E+02  0.19441508402E+02 -0.30874271544E+02  0.46142317784E+02  0.10000000213E+02 0.  0.
         12    1    1    2    0    0  0.26418186802E+02 -0.19441508402E+02  0.30874271544E+02  0.45045682216E+02  0.00000000000E+00 0. -1.
         11    1    3    3    0    0 -0.91010266607E+01  0.51996572123E+01 -0.89104640354E+01  0.13757234133E+02  0.51100000000E-03 0. -1.
        -11    1    3    3    0    0 -0.20224069975E+01  0.60579246883E+01 -0.70048230402E+01  0.94792472105E+01  0.51100000000E-03 0.  1.
        -12    1    3    3    0    0 -0.15294753144E+02  0.81839265016E+01 -0.14958984469E+02  0.22905836441E+02  0.00000000000E+00 0.  1.
</event>
<event>
 7    1  0.2097247E-008  0.4614232E+02  0.7816164E-02  0.1320468E+00
        -11   -1    0    0    0    0  0.00000000000E+00  0.00000000000E+00  0.45593999997E+02  0.45594000000E+02  0.51100000000E-03 0.  1.
         11   -1    0    0    0    0 -0.00000000000E+00 -0.00000000000E+00 -0.45593999997E+02  0.45594000000E+02  0.51100000000E-03 0. -1.
    9900012    2    1    2    0    0  0.38575684549E+02  0.14878406190E+02  0.17879121896E+02  0.46142318643E+02  0.10000008038E+02 0.  0.
         12    1    1    2    0    0 -0.38575684549E+02 -0.14878406190E+02 -0.17879121896E+02  0.45045681357E+02  0.00000000000E+00 0. -1.
         11    1    3    3    0    0  0.80956039441E+01  0.73360057117E+01  0.29697291915E+01  0.11321443139E+02  0.51100000000E-03 0. -1.
        -11    1    3    3    0    0  0.18106354724E+02  0.39808497101E+01  0.78041214724E+01  0.20114461415E+02  0.51100000000E-03 0.  1.
         12    1    3    3    0    0  0.12373725881E+02  0.35615507681E+01  0.71052712320E+01  0.14706414088E+02  0.00000000000E+00 0. -1.
</event>
<event>
 7    1  0.2097247E-008  0.4614232E+02  0.7816164E-02  0.1320468E+00
        -11   -1    0    0    0    0  0.00000000000E+00  0.00000000000E+00  0.45593999997E+02  0.45594000000E+02  0.51100000000E-03 0.  1.
         11   -1    0    0    0    0 -0.00000000000E+00 -0.00000000000E+00 -0.45593999997E+02  0.45594000000E+02  0.51100000000E-03 0. -1.
    9900012    2    1    2    0    0 -0.26577854583E+02  0.25682191480E+02  0.25751819718E+02  0.46142317274E+02  0.99999955601E+01 0.  0.
         12    1    1    2    0    0  0.26577854583E+02 -0.25682191480E+02 -0.25751819718E+02  0.45045682726E+02  0.00000000000E+00 0. -1.
         11    1    3    3    0    0 -0.19329214776E+01  0.32329726647E+01  0.16203221754E+01  0.41004563042E+01  0.51100000000E-03 0. -1.
        -11    1    3    3    0    0 -0.11487746445E+02  0.67252184878E+01  0.13450680778E+02  0.18923997880E+02  0.51100000000E-03 0.  1.
        -12    1    3    3    0    0 -0.13157186660E+02  0.15724000327E+02  0.10680816765E+02  0.23117863090E+02  0.00000000000E+00 0.  1.
</event>
<event>
 7    1  0.2097247E-008  0.4614231E+02  0.7816164E-02  0.1320468E+00
        -11   -1    0    0    0    0  0.00000000000E+00  0.00000000000E+00  0.45593999997E+02  0.45594000000E+02  0.51100000000E-03 0.  1.
         11   -1    0    0    0    0 -0.00000000000E+00 -0.00000000000E+00 -0.45593999997E+02  0.45594000000E+02  0.51100000000E-03 0. -1.
    9900012    2    1    2    0    0  0.20217231242E+02 -0.15209386419E+02  0.37269990141E+02  0.46142311644E+02  0.99999442206E+01 0.  0.
         12    1    1    2    0    0 -0.20217231242E+02  0.15209386419E+02 -0.37269990141E+02  0.45045688356E+02  0.00000000000E+00 0. -1.
         11    1    3    3    0    0  0.34690907430E-01 -0.14407440769E+01  0.11963399793E+01  0.18730126965E+01  0.51100000000E-03 0.  1.
        -11    1    3    3    0    0  0.10043514685E+02 -0.72172120190E+01  0.11488143692E+02  0.16880100187E+02  0.51100000000E-03 0. -1.
        -12    1    3    3    0    0  0.10139025649E+02 -0.65514303230E+01  0.24585506470E+02  0.27389198761E+02  0.00000000000E+00 0.  1.
</event>
<event>
 7    1  0.2097247E-008  0.4614231E+02  0.7816164E-02  0.1320468E+00
        -11   -1    0    0    0    0  0.00000000000E+00  0.00000000000E+00  0.45593999997E+02  0.45594000000E+02  0.51100000000E-03 0.  1.
         11   -1    0    0    0    0 -0.00000000000E+00 -0.00000000000E+00 -0.45593999997E+02  0.45594000000E+02  0.51100000000E-03 0. -1.
    9900012    2    1    2    0    0 -0.20665632155E+02  0.39239499733E+02  0.78934855368E+01  0.46142314240E+02  0.99999678893E+01 0.  0.
         12    1    1    2    0    0  0.20665632155E+02 -0.39239499733E+02 -0.78934855368E+01  0.45045685760E+02  0.00000000000E+00 0. -1.
         11    1    3    3    0    0 -0.70843864458E+01  0.16369964656E+02  0.22989016330E+01  0.17984694135E+02  0.51100000000E-03 0. -1.
        -11    1    3    3    0    0 -0.80926793033E+01  0.19599021826E+02  0.41222180977E+01  0.21601060093E+02  0.51100000000E-03 0.  1.
         12    1    3    3    0    0 -0.54885664060E+01  0.32705132518E+01  0.14723658061E+01  0.65565600119E+01  0.00000000000E+00 0. -1.
</event>
<event>
 7    1  0.2097247E-008  0.4614232E+02  0.7816164E-02  0.1320468E+00
        -11   -1    0    0    0    0  0.00000000000E+00  0.00000000000E+00  0.45593999997E+02  0.45594000000E+02  0.51100000000E-03 0.  1.
         11   -1    0    0    0    0 -0.00000000000E+00 -0.00000000000E+00 -0.45593999997E+02  0.45594000000E+02  0.51100000000E-03 0. -1.
    9900012    2    1    2    0    0  0.30464269251E+02  0.29188167089E+02  0.15782667965E+02  0.46142318663E+02  0.10000008227E+02 0.  0.
         12    1    1    2    0    0 -0.30464269251E+02 -0.29188167089E+02 -0.15782667965E+02  0.45045681337E+02  0.00000000000E+00 0. -1.
         11    1    3    3    0    0  0.48604307739E+01  0.40944850867E+01  0.35552357106E+01  0.72820530520E+01  0.51100000000E-03 0. -1.
        -11    1    3    3    0    0  0.72680309570E+01  0.23970800995E+01  0.34178534658E+01  0.83816459941E+01  0.51100000000E-03 0.  1.
        -12    1    3    3    0    0  0.18335807520E+02  0.22696601903E+02  0.88095787887E+01  0.30478619617E+02  0.00000000000E+00 0.  1.
</event>
<event>
 7    1  0.2097247E-008  0.4614232E+02  0.7816164E-02  0.1320468E+00
        -11   -1    0    0    0    0  0.00000000000E+00  0.00000000000E+00  0.45593999997E+02  0.45594000000E+02  0.51100000000E-03 0.  1.
         11   -1    0    0    0    0 -0.00000000000E+00 -0.00000000000E+00 -0.45593999997E+02  0.45594000000E+02  0.51100000000E-03 0. -1.
    9900012    2    1    2    0    0 -0.22619225034E+02  0.28073747710E+02  0.27006459848E+02  0.46142317353E+02  0.99999962773E+01 0.  0.
         12    1    1    2    0    0  0.22619225034E+02 -0.28073747710E+02 -0.27006459848E+02  0.45045682647E+02  0.00000000000E+00 0. -1.
         11    1    3    3    0    0 -0.43857971978E+01  0.92588835242E+01  0.10197747546E+02  0.14455317238E+02  0.51100000000E-03 0. -1.
        -11    1    3    3    0    0 -0.12728649821E+02  0.16020504093E+02  0.14575357318E+02  0.25122024577E+02  0.51100000000E-03 0.  1.
        -12    1    3    3    0    0 -0.55047780155E+01  0.27943600929E+01  0.22333549844E+01  0.65649755381E+01  0.00000000000E+00 0.  1.
</event>
<event>
 7    1  0.2097247E-008  0.4614232E+02  0.7816164E-02  0.1320468E+00
        -11   -1    0    0    0    0  0.00000000000E+00  0.00000000000E+00  0.45593999997E+02  0.45594000000E+02  0.51100000000E-03 0.  1.
         11   -1    0    0    0    0 -0.00000000000E+00 -0.00000000000E+00 -0.45593999997E+02  0.45594000000E+02  0.51100000000E-03 0. -1.
    9900012    2    1    2    0    0 -0.42061332162E+02 -0.11849773144E+02  0.10933463482E+02  0.46142318626E+02  0.10000007882E+02 0.  0.
         12    1    1    2    0    0  0.42061332162E+02  0.11849773144E+02 -0.10933463482E+02  0.45045681374E+02  0.00000000000E+00 0. -1.
         11    1    3    3    0    0 -0.18784220720E+02 -0.88801230207E+01  0.25640003287E+01  0.20935081344E+02  0.51100000000E-03 0. -1.
        -11    1    3    3    0    0 -0.19144554288E+01  0.31811658223E+00 -0.21111804666E+00  0.19521549220E+01  0.51100000000E-03 0.  1.
        -12    1    3    3    0    0 -0.21362656013E+02 -0.32877667052E+01  0.85805811995E+01  0.23255082359E+02  0.00000000000E+00 0.  1.
</event>
<event>
 7    1  0.2097247E-008  0.4614232E+02  0.7816164E-02  0.1320468E+00
        -11   -1    0    0    0    0  0.00000000000E+00  0.00000000000E+00  0.45593999997E+02  0.45594000000E+02  0.51100000000E-03 0.  1.
         11   -1    0    0    0    0 -0.00000000000E+00 -0.00000000000E+00 -0.45593999997E+02  0.45594000000E+02  0.51100000000E-03 0. -1.
    9900012    2    1    2    0    0 -0.71447783625E+01  0.10732080729E+02  0.43161187355E+02  0.46142317538E+02  0.99999979635E+01 0.  0.
         12    1    1    2    0    0  0.71447783625E+01 -0.10732080729E+02 -0.43161187355E+02  0.45045682462E+02  0.00000000000E+00 0. -1.
         11    1    3    3    0    0 -0.66298005339E+00  0.64444969937E+01  0.11915443590E+02  0.13562775537E+02  0.51100000000E-03 0.  1.
        -11    1    3    3    0    0 -0.17983361665E+01  0.10765540703E+01  0.24273954360E+01  0.32070594784E+01  0.51100000000E-03 0. -1.
        -12    1    3    3    0    0 -0.46834621425E+01  0.32110296651E+01  0.28818348329E+02  0.29372482523E+02  0.00000000000E+00 0.  1.
</event>
<event>
 7    1  0.2097247E-008  0.4614232E+02  0.7816164E-02  0.1320468E+00
        -11   -1    0    0    0    0  0.00000000000E+00  0.00000000000E+00  0.45593999997E+02  0.45594000000E+02  0.51100000000E-03 0.  1.
         11   -1    0    0    0    0 -0.00000000000E+00 -0.00000000000E+00 -0.45593999997E+02  0.45594000000E+02  0.51100000000E-03 0. -1.
    9900012    2    1    2    0    0 -0.32055533787E+02  0.27528008255E+02  0.15612972521E+02  0.46142318789E+02  0.10000009374E+02 0.  0.
         12    1    1    2    0    0  0.32055533787E+02 -0.27528008255E+02 -0.15612972521E+02  0.45045681211E+02  0.00000000000E+00 0. -1.
         11    1    3    3    0    0 -0.13549588549E+02  0.92816121404E+01  0.35957541008E+01  0.16812766625E+02  0.51100000000E-03 0.  1.
        -11    1    3    3    0    0 -0.12039648110E+02  0.95810819991E+01  0.40846835190E+01  0.15919638771E+02  0.51100000000E-03 0. -1.
        -12    1    3    3    0    0 -0.64662971279E+01  0.86653141151E+01  0.79325349013E+01  0.13409913393E+02  0.00000000000E+00 0.  1.
</event>
<event>
 7    1  0.2097247E-008  0.4614232E+02  0.7816164E-02  0.1320468E+00
        -11   -1    0    0    0    0  0.00000000000E+00  0.00000000000E+00  0.45593999997E+02  0.45594000000E+02  0.51100000000E-03 0. -1.
         11   -1    0    0    0    0 -0.00000000000E+00 -0.00000000000E+00 -0.45593999997E+02  0.45594000000E+02  0.51100000000E-03 0.  1.
    9900012    2    1    2    0    0 -0.25638808714E+02 -0.22629642629E+02 -0.29320030943E+02  0.46142318161E+02  0.10000003651E+02 0.  0.
         12    1    1    2    0    0  0.25638808714E+02  0.22629642629E+02  0.29320030943E+02  0.45045681839E+02  0.00000000000E+00 0. -1.
         11    1    3    3    0    0 -0.27688172395E+00 -0.68467919400E+00 -0.28650537778E+01  0.29587129801E+01  0.51100000000E-03 0. -1.
        -11    1    3    3    0    0 -0.12966679302E+02 -0.10640936116E+02 -0.17196796284E+02  0.24022782858E+02  0.51100000000E-03 0.  1.
         12    1    3    3    0    0 -0.12395247688E+02 -0.11304027319E+02 -0.92581808810E+01  0.19160822323E+02  0.00000000000E+00 0. -1.
</event>
<event>
 7    1  0.2097247E-008  0.4614232E+02  0.7816164E-02  0.1320468E+00
        -11   -1    0    0    0    0  0.00000000000E+00  0.00000000000E+00  0.45593999997E+02  0.45594000000E+02  0.51100000000E-03 0.  1.
         11   -1    0    0    0    0 -0.00000000000E+00 -0.00000000000E+00 -0.45593999997E+02  0.45594000000E+02  0.51100000000E-03 0. -1.
    9900012    2    1    2    0    0 -0.37430382168E+01 -0.41970383705E+02  0.15924516527E+02  0.46142315745E+02  0.99999816135E+01 0.  0.
         12    1    1    2    0    0  0.37430382168E+01  0.41970383705E+02 -0.15924516527E+02  0.45045684255E+02  0.00000000000E+00 0. -1.
         11    1    3    3    0    0  0.19118188357E+01 -0.40512290954E+01  0.19595645464E+01  0.48895195997E+01  0.51100000000E-03 0. -1.
        -11    1    3    3    0    0 -0.31874180213E+00 -0.81940401142E+01  0.55507981903E+01  0.99022851171E+01  0.51100000000E-03 0.  1.
        -12    1    3    3    0    0 -0.53361152503E+01 -0.29725114495E+02  0.84141537900E+01  0.31350511028E+02  0.00000000000E+00 0.  1.
</event>
<event>
 7    1  0.2097247E-008  0.4614232E+02  0.7816164E-02  0.1320468E+00
        -11   -1    0    0    0    0  0.00000000000E+00  0.00000000000E+00  0.45593999997E+02  0.45594000000E+02  0.51100000000E-03 0. -1.
         11   -1    0    0    0    0 -0.00000000000E+00 -0.00000000000E+00 -0.45593999997E+02  0.45594000000E+02  0.51100000000E-03 0.  1.
    9900012    2    1    2    0    0 -0.38827201789E+02  0.22028880997E+02 -0.60241450622E+01  0.46142317404E+02  0.99999967470E+01 0.  0.
         12    1    1    2    0    0  0.38827201789E+02 -0.22028880997E+02  0.60241450622E+01  0.45045682596E+02  0.00000000000E+00 0. -1.
         11    1    3    3    0    0 -0.43851174232E+01  0.32064598575E+01  0.39201265856E+00  0.54464955539E+01  0.51100000000E-03 0. -1.
        -11    1    3    3    0    0 -0.28314261808E+02  0.18744381331E+02 -0.43789493781E+01  0.34237763524E+02  0.51100000000E-03 0.  1.
        -12    1    3    3    0    0 -0.61278225584E+01  0.78039808728E-01 -0.20372083426E+01  0.64580583267E+01  0.00000000000E+00 0.  1.
</event>
<event>
 7    1  0.2097247E-008  0.4614232E+02  0.7816164E-02  0.1320468E+00
        -11   -1    0    0    0    0  0.00000000000E+00  0.00000000000E+00  0.45593999997E+02  0.45594000000E+02  0.51100000000E-03 0.  1.
         11   -1    0    0    0    0 -0.00000000000E+00 -0.00000000000E+00 -0.45593999997E+02  0.45594000000E+02  0.51100000000E-03 0. -1.
    9900012    2    1    2    0    0 -0.17633025016E+02  0.37806181409E+02  0.16996548598E+02  0.46142316653E+02  0.99999898972E+01 0.  0.
         12    1    1    2    0    0  0.17633025016E+02 -0.37806181409E+02 -0.16996548598E+02  0.45045683347E+02  0.00000000000E+00 0. -1.
         11    1    3    3    0    0 -0.83348039949E+01  0.92403908338E+01  0.34352530081E+01  0.12909482712E+02  0.51100000000E-03 0. -1.
        -11    1    3    3    0    0 -0.35668551176E+01  0.56617445223E+01  0.23134425675E+01  0.70802417501E+01  0.51100000000E-03 0.  1.
        -12    1    3    3    0    0 -0.57313659031E+01  0.22904046053E+02  0.11247853022E+02  0.26152592191E+02  0.00000000000E+00 0.  1.
</event>
<event>
 7    1  0.2097247E-008  0.4614232E+02  0.7816164E-02  0.1320468E+00
        -11   -1    0    0    0    0  0.00000000000E+00  0.00000000000E+00  0.45593999997E+02  0.45594000000E+02  0.51100000000E-03 0.  1.
         11   -1    0    0    0    0 -0.00000000000E+00 -0.00000000000E+00 -0.45593999997E+02  0.45594000000E+02  0.51100000000E-03 0. -1.
    9900012    2    1    2    0    0 -0.32133755403E+02  0.11263442530E+02  0.29490169945E+02  0.46142317662E+02  0.99999990955E+01 0.  0.
         12    1    1    2    0    0  0.32133755403E+02 -0.11263442530E+02 -0.29490169945E+02  0.45045682338E+02  0.00000000000E+00 0. -1.
         11    1    3    3    0    0 -0.12377371553E+02  0.52775551673E+01  0.13258191067E+02  0.18889985329E+02  0.51100000000E-03 0.  1.
        -11    1    3    3    0    0 -0.20540949645E+01 -0.15206321453E+01  0.28375902843E+01  0.38188410712E+01  0.51100000000E-03 0. -1.
         12    1    3    3    0    0 -0.17702288885E+02  0.75065195085E+01  0.13394388593E+02  0.23433491261E+02  0.00000000000E+00 0. -1.
</event>
<event>
 7    1  0.2097247E-008  0.4614232E+02  0.7816164E-02  0.1320468E+00
        -11   -1    0    0    0    0  0.00000000000E+00  0.00000000000E+00  0.45593999997E+02  0.45594000000E+02  0.51100000000E-03 0. -1.
         11   -1    0    0    0    0 -0.00000000000E+00 -0.00000000000E+00 -0.45593999997E+02  0.45594000000E+02  0.51100000000E-03 0.  1.
    9900012    2    1    2    0    0 -0.38242579410E+02 -0.23498787037E+02  0.37981234646E+01  0.46142316367E+02  0.99999872842E+01 0.  0.
         12    1    1    2    0    0  0.38242579410E+02  0.23498787037E+02 -0.37981234646E+01  0.45045683633E+02  0.00000000000E+00 0. -1.
         11    1    3    3    0    0 -0.94230223437E+01 -0.27762334092E+01  0.27759969007E+01  0.10208182066E+02  0.51100000000E-03 0. -1.
        -11    1    3    3    0    0 -0.58273713018E+00 -0.13870934436E+01 -0.71876866629E+00  0.16674050021E+01  0.51100000000E-03 0.  1.
        -12    1    3    3    0    0 -0.28236819936E+02 -0.19335460184E+02  0.17408952302E+01  0.34266729299E+02  0.00000000000E+00 0.  1.
</event>
<event>
 7    1  0.2097247E-008  0.4614232E+02  0.7816164E-02  0.1320468E+00
        -11   -1    0    0    0    0  0.00000000000E+00  0.00000000000E+00  0.45593999997E+02  0.45594000000E+02  0.51100000000E-03 0.  1.
         11   -1    0    0    0    0 -0.00000000000E+00 -0.00000000000E+00 -0.45593999997E+02  0.45594000000E+02  0.51100000000E-03 0. -1.
    9900012    2    1    2    0    0 -0.36858007474E+02  0.79514336420E+01  0.24644988770E+02  0.46142317816E+02  0.10000000503E+02 0.  0.
         12    1    1    2    0    0  0.36858007474E+02 -0.79514336420E+01 -0.24644988770E+02  0.45045682184E+02  0.00000000000E+00 0. -1.
         11    1    3    3    0    0 -0.10195370199E+02 -0.96295218000E+00  0.51065744843E+01  0.11443336647E+02  0.51100000000E-03 0. -1.
        -11    1    3    3    0    0 -0.24588652984E+01 -0.75740121822E+00  0.12663067394E+01  0.28676136735E+01  0.51100000000E-03 0.  1.
        -12    1    3    3    0    0 -0.24203771977E+02  0.96717870402E+01  0.18272107546E+02  0.31831367496E+02  0.00000000000E+00 0.  1.
</event>
<event>
 7    1  0.2097247E-008  0.4614232E+02  0.7816164E-02  0.1320468E+00
        -11   -1    0    0    0    0  0.00000000000E+00  0.00000000000E+00  0.45593999997E+02  0.45594000000E+02  0.51100000000E-03 0. -1.
         11   -1    0    0    0    0 -0.00000000000E+00 -0.00000000000E+00 -0.45593999997E+02  0.45594000000E+02  0.51100000000E-03 0.  1.
    9900012    2    1    2    0    0  0.43545114696E+02  0.38534364083E+01  0.10866807029E+02  0.46142317842E+02  0.10000000741E+02 0.  0.
         12    1    1    2    0    0 -0.43545114696E+02 -0.38534364083E+01 -0.10866807029E+02  0.45045682158E+02  0.00000000000E+00 0. -1.
         11    1    3    3    0    0  0.24848449038E+02  0.58434550410E+01  0.61922135864E+01  0.26266611806E+02  0.51100000000E-03 0.  1.
        -11    1    3    3    0    0  0.81569205036E+01 -0.12380178231E+01  0.42973565950E+01  0.93024359282E+01  0.51100000000E-03 0. -1.
         12    1    3    3    0    0  0.10539745155E+02 -0.75200080965E+00  0.37723684756E+00  0.10573270108E+02  0.00000000000E+00 0. -1.
</event>
<event>
 7    1  0.2097247E-008  0.4614232E+02  0.7816164E-02  0.1320468E+00
        -11   -1    0    0    0    0  0.00000000000E+00  0.00000000000E+00  0.45593999997E+02  0.45594000000E+02  0.51100000000E-03 0.  1.
         11   -1    0    0    0    0 -0.00000000000E+00 -0.00000000000E+00 -0.45593999997E+02  0.45594000000E+02  0.51100000000E-03 0. -1.
    9900012    2    1    2    0    0  0.15342947985E+02  0.10770289949E+02  0.40959837018E+02  0.46142318220E+02  0.10000004186E+02 0.  0.
         12    1    1    2    0    0 -0.15342947985E+02 -0.10770289949E+02 -0.40959837018E+02  0.45045681780E+02  0.00000000000E+00 0. -1.
         11    1    3    3    0    0 -0.12804228802E+01  0.11645038810E+00  0.12446142152E+01  0.17894435590E+01  0.51100000000E-03 0. -1.
        -11    1    3    3    0    0  0.39329971907E+01  0.25720916032E+01  0.96117856302E+01  0.10699090867E+02  0.51100000000E-03 0.  1.
         12    1    3    3    0    0  0.12690373675E+02  0.80817479573E+01  0.30103437173E+02  0.33653783794E+02  0.00000000000E+00 0. -1.
</event>
<event>
 7    1  0.2097247E-008  0.4614232E+02  0.7816164E-02  0.1320468E+00
        -11   -1    0    0    0    0  0.00000000000E+00  0.00000000000E+00  0.45593999997E+02  0.45594000000E+02  0.51100000000E-03 0.  1.
         11   -1    0    0    0    0 -0.00000000000E+00 -0.00000000000E+00 -0.45593999997E+02  0.45594000000E+02  0.51100000000E-03 0. -1.
    9900012    2    1    2    0    0 -0.22672918745E+02 -0.38635934612E+02 -0.47240691385E+01  0.46142317444E+02  0.99999971084E+01 0.  0.
         12    1    1    2    0    0  0.22672918745E+02  0.38635934612E+02  0.47240691385E+01  0.45045682556E+02  0.00000000000E+00 0. -1.
         11    1    3    3    0    0 -0.65891892192E+00 -0.60698874368E+01 -0.13100355006E+01  0.62445096617E+01  0.51100000000E-03 0. -1.
        -11    1    3    3    0    0 -0.80268950234E+01 -0.87144602115E+01 -0.30958926339E+01  0.12245709941E+02  0.51100000000E-03 0.  1.
         12    1    3    3    0    0 -0.13987104799E+02 -0.23851586963E+02 -0.31814100404E+00  0.27652097841E+02  0.00000000000E+00 0. -1.
</event>
<event>
 7    1  0.2097247E-008  0.4614232E+02  0.7816164E-02  0.1320468E+00
        -11   -1    0    0    0    0  0.00000000000E+00  0.00000000000E+00  0.45593999997E+02  0.45594000000E+02  0.51100000000E-03 0. -1.
         11   -1    0    0    0    0 -0.00000000000E+00 -0.00000000000E+00 -0.45593999997E+02  0.45594000000E+02  0.51100000000E-03 0.  1.
    9900012    2    1    2    0    0 -0.42869640927E+02  0.13242325314E+02  0.39935202988E+01  0.46142317662E+02  0.99999990918E+01 0.  0.
         12    1    1    2    0    0  0.42869640927E+02 -0.13242325314E+02 -0.39935202988E+01  0.45045682338E+02  0.00000000000E+00 0. -1.
         11    1    3    3    0    0 -0.14793601886E+02  0.42292152958E+01 -0.23884617291E+01  0.15570538478E+02  0.51100000000E-03 0. -1.
        -11    1    3    3    0    0 -0.21362193301E+02  0.80441429143E+01  0.30998782409E+01  0.23036075690E+02  0.51100000000E-03 0.  1.
         12    1    3    3    0    0 -0.67138457404E+01  0.96896710346E+00  0.32821037870E+01  0.75357034935E+01  0.00000000000E+00 0. -1.
</event>
<event>
 7    1  0.2097247E-008  0.4614232E+02  0.7816164E-02  0.1320468E+00
        -11   -1    0    0    0    0  0.00000000000E+00  0.00000000000E+00  0.45593999997E+02  0.45594000000E+02  0.51100000000E-03 0.  1.
         11   -1    0    0    0    0 -0.00000000000E+00 -0.00000000000E+00 -0.45593999997E+02  0.45594000000E+02  0.51100000000E-03 0. -1.
    9900012    2    1    2    0    0 -0.30242604489E+02  0.21642586613E+01  0.33313875456E+02  0.46142318301E+02  0.10000004922E+02 0.  0.
         12    1    1    2    0    0  0.30242604489E+02 -0.21642586613E+01 -0.33313875456E+02  0.45045681699E+02  0.00000000000E+00 0. -1.
         11    1    3    3    0    0 -0.10600833465E+01 -0.15007382343E+01  0.22611968132E+01  0.29135894080E+01  0.51100000000E-03 0. -1.
        -11    1    3    3    0    0 -0.26010680882E+01 -0.13957066607E+01  0.39452980532E+01  0.49273653479E+01  0.51100000000E-03 0.  1.
        -12    1    3    3    0    0 -0.26581453054E+02  0.50607035563E+01  0.27107380590E+02  0.38301363545E+02  0.00000000000E+00 0.  1.
</event>
<event>
 7    1  0.2097247E-008  0.4614232E+02  0.7816164E-02  0.1320468E+00
        -11   -1    0    0    0    0  0.00000000000E+00  0.00000000000E+00  0.45593999997E+02  0.45594000000E+02  0.51100000000E-03 0.  1.
         11   -1    0    0    0    0 -0.00000000000E+00 -0.00000000000E+00 -0.45593999997E+02  0.45594000000E+02  0.51100000000E-03 0. -1.
    9900012    2    1    2    0    0 -0.25039463480E+02  0.25861536481E+02  0.27079875417E+02  0.46142318152E+02  0.10000003565E+02 0.  0.
         12    1    1    2    0    0  0.25039463480E+02 -0.25861536481E+02 -0.27079875417E+02  0.45045681848E+02  0.00000000000E+00 0. -1.
         11    1    3    3    0    0 -0.16146765971E+02  0.14691695486E+02  0.19568485024E+02  0.29317052615E+02  0.51100000000E-03 0. -1.
        -11    1    3    3    0    0 -0.62379096472E+01  0.99552988137E+01  0.74382512836E+01  0.13904929833E+02  0.51100000000E-03 0.  1.
         12    1    3    3    0    0 -0.26547878614E+01  0.12145421810E+01  0.73139109518E-01  0.29203357047E+01  0.00000000000E+00 0. -1.
</event>
<event>
 7    1  0.2097247E-008  0.4614232E+02  0.7816164E-02  0.1320468E+00
        -11   -1    0    0    0    0  0.00000000000E+00  0.00000000000E+00  0.45593999997E+02  0.45594000000E+02  0.51100000000E-03 0.  1.
         11   -1    0    0    0    0 -0.00000000000E+00 -0.00000000000E+00 -0.45593999997E+02  0.45594000000E+02  0.51100000000E-03 0. -1.
    9900012    2    1    2    0    0 -0.37460058814E+01 -0.34013965532E+02  0.29293874405E+02  0.46142317755E+02  0.99999999442E+01 0.  0.
         12    1    1    2    0    0  0.37460058814E+01  0.34013965532E+02 -0.29293874405E+02  0.45045682245E+02  0.00000000000E+00 0. -1.
         11    1    3    3    0    0 -0.42538545399E+01 -0.18722025314E+02  0.21298109984E+02  0.28674361361E+02  0.51100000000E-03 0. -1.
        -11    1    3    3    0    0  0.68872427779E+00 -0.98520739525E+01  0.65003957046E+01  0.11823402508E+02  0.51100000000E-03 0.  1.
         12    1    3    3    0    0 -0.18087561931E+00 -0.54398662652E+01  0.14953687170E+01  0.56445538861E+01  0.00000000000E+00 0. -1.
</event>
<event>
 7    1  0.2097247E-008  0.4614232E+02  0.7816164E-02  0.1320468E+00
        -11   -1    0    0    0    0  0.00000000000E+00  0.00000000000E+00  0.45593999997E+02  0.45594000000E+02  0.51100000000E-03 0. -1.
         11   -1    0    0    0    0 -0.00000000000E+00 -0.00000000000E+00 -0.45593999997E+02  0.45594000000E+02  0.51100000000E-03 0.  1.
    9900012    2    1    2    0    0  0.39190390197E+02 -0.14642448526E+02  0.16698069497E+02  0.46142317548E+02  0.99999980582E+01 0.  0.
         12    1    1    2    0    0 -0.39190390197E+02  0.14642448526E+02 -0.16698069497E+02  0.45045682452E+02  0.00000000000E+00 0. -1.
         11    1    3    3    0    0  0.31426209209E+02 -0.94666428189E+01  0.13338651739E+02  0.35428005617E+02  0.51100000000E-03 0.  1.
        -11    1    3    3    0    0  0.28831479085E+01 -0.10118369902E+01  0.30097620184E+01  0.42889420170E+01  0.51100000000E-03 0. -1.
        -12    1    3    3    0    0  0.48810330788E+01 -0.41639687173E+01  0.34965573981E+00  0.64253699139E+01  0.00000000000E+00 0.  1.
</event>
<event>
 7    1  0.2097247E-008  0.4614232E+02  0.7816164E-02  0.1320468E+00
        -11   -1    0    0    0    0  0.00000000000E+00  0.00000000000E+00  0.45593999997E+02  0.45594000000E+02  0.51100000000E-03 0. -1.
         11   -1    0    0    0    0 -0.00000000000E+00 -0.00000000000E+00 -0.45593999997E+02  0.45594000000E+02  0.51100000000E-03 0.  1.
    9900012    2    1    2    0    0 -0.20426730693E+02 -0.30773317480E+02 -0.25784979180E+02  0.46142317112E+02  0.99999940777E+01 0.  0.
         12    1    1    2    0    0  0.20426730693E+02  0.30773317480E+02  0.25784979180E+02  0.45045682888E+02  0.00000000000E+00 0. -1.
         11    1    3    3    0    0 -0.18975894438E+01 -0.46874929023E+00 -0.15185618020E+01  0.24751973258E+01  0.51100000000E-03 0. -1.
        -11    1    3    3    0    0 -0.77868938318E+01 -0.13479910600E+02 -0.62424501443E+01  0.16772354915E+02  0.51100000000E-03 0.  1.
         12    1    3    3    0    0 -0.10742247418E+02 -0.16824657590E+02 -0.18023967234E+02  0.26894764871E+02  0.00000000000E+00 0. -1.
</event>
<event>
 7    1  0.2097247E-008  0.4614232E+02  0.7816164E-02  0.1320468E+00
        -11   -1    0    0    0    0  0.00000000000E+00  0.00000000000E+00  0.45593999997E+02  0.45594000000E+02  0.51100000000E-03 0.  1.
         11   -1    0    0    0    0 -0.00000000000E+00 -0.00000000000E+00 -0.45593999997E+02  0.45594000000E+02  0.51100000000E-03 0. -1.
    9900012    2    1    2    0    0 -0.10881484629E+02 -0.28466386011E+02  0.33171851099E+02  0.46142317126E+02  0.99999942093E+01 0.  0.
         12    1    1    2    0    0  0.10881484629E+02  0.28466386011E+02 -0.33171851099E+02  0.45045682874E+02  0.00000000000E+00 0. -1.
         11    1    3    3    0    0 -0.14638946747E+01 -0.65140001724E+01  0.58126687313E+01  0.88522485226E+01  0.51100000000E-03 0. -1.
        -11    1    3    3    0    0 -0.21170694391E+01 -0.14962248778E+02  0.14595191015E+02  0.21008818922E+02  0.51100000000E-03 0.  1.
         12    1    3    3    0    0 -0.73005205149E+01 -0.69901370604E+01  0.12763991353E+02  0.16281249681E+02  0.00000000000E+00 0. -1.
</event>
<event>
 7    1  0.2330161E-008  0.4614232E+02  0.7816164E-02  0.1320468E+00
        -11   -1    0    0    0    0  0.00000000000E+00  0.00000000000E+00  0.45593999997E+02  0.45594000000E+02  0.51100000000E-03 0.  1.
         11   -1    0    0    0    0 -0.00000000000E+00 -0.00000000000E+00 -0.45593999997E+02  0.45594000000E+02  0.51100000000E-03 0. -1.
    9900012    2    1    2    0    0 -0.34727887515E+02 -0.28483734741E+02 -0.34298975280E+01  0.46142317487E+02  0.99999974970E+01 0.  0.
         12    1    1    2    0    0  0.34727887515E+02  0.28483734741E+02  0.34298975280E+01  0.45045682513E+02  0.00000000000E+00 0. -1.
         11    1    3    3    0    0  0.91653945983E-01  0.37474959540E+00 -0.20160406391E-01  0.38632163824E+00  0.51100000000E-03 0. -1.
        -11    1    3    3    0    0 -0.15301993658E+02 -0.89388143701E+01 -0.19762524947E+01  0.17831404500E+02  0.51100000000E-03 0.  1.
        -12    1    3    3    0    0 -0.19517547803E+02 -0.19919669966E+02 -0.14334846269E+01  0.27924591348E+02  0.00000000000E+00 0.  1.
</event>
<event>
 7    1  0.2097247E-008  0.4614232E+02  0.7816164E-02  0.1320468E+00
        -11   -1    0    0    0    0  0.00000000000E+00  0.00000000000E+00  0.45593999997E+02  0.45594000000E+02  0.51100000000E-03 0.  1.
         11   -1    0    0    0    0 -0.00000000000E+00 -0.00000000000E+00 -0.45593999997E+02  0.45594000000E+02  0.51100000000E-03 0. -1.
    9900012    2    1    2    0    0  0.30213421008E+01 -0.18640228500E+02  0.40896539577E+02  0.46142316788E+02  0.99999911276E+01 0.  0.
         12    1    1    2    0    0 -0.30213421008E+01  0.18640228500E+02 -0.40896539577E+02  0.45045683212E+02  0.00000000000E+00 0. -1.
         11    1    3    3    0    0  0.99305203758E+00 -0.69035285723E-01  0.14832549284E+01  0.17863268636E+01  0.51100000000E-03 0. -1.
        -11    1    3    3    0    0  0.13602540762E+01 -0.61361452097E+01  0.22445377912E+02  0.23308744262E+02  0.51100000000E-03 0.  1.
        -12    1    3    3    0    0  0.66803598697E+00 -0.12435048005E+02  0.16967906737E+02  0.21047245663E+02  0.00000000000E+00 0.  1.
</event>
<event>
 7    1  0.2097247E-008  0.4614232E+02  0.7816164E-02  0.1320468E+00
        -11   -1    0    0    0    0  0.00000000000E+00  0.00000000000E+00  0.45593999997E+02  0.45594000000E+02  0.51100000000E-03 0. -1.
         11   -1    0    0    0    0 -0.00000000000E+00 -0.00000000000E+00 -0.45593999997E+02  0.45594000000E+02  0.51100000000E-03 0.  1.
    9900012    2    1    2    0    0  0.40431716199E+01 -0.42021556175E+02  0.15714802492E+02  0.46142318326E+02  0.10000005152E+02 0.  0.
         12    1    1    2    0    0 -0.40431716199E+01  0.42021556175E+02 -0.15714802492E+02  0.45045681674E+02  0.00000000000E+00 0. -1.
         11    1    3    3    0    0  0.55366841852E+01 -0.22346262332E+02  0.86903715322E+01  0.24607577483E+02  0.51100000000E-03 0. -1.
        -11    1    3    3    0    0 -0.10134913561E+01 -0.17971243054E+02  0.77808462746E+01  0.19609546416E+02  0.51100000000E-03 0.  1.
         12    1    3    3    0    0 -0.48002120921E+00 -0.17040507890E+01 -0.75641531458E+00  0.19251944268E+01  0.00000000000E+00 0. -1.
</event>
<event>
 7    1  0.2097247E-008  0.4614232E+02  0.7816164E-02  0.1320468E+00
        -11   -1    0    0    0    0  0.00000000000E+00  0.00000000000E+00  0.45593999997E+02  0.45594000000E+02  0.51100000000E-03 0. -1.
         11   -1    0    0    0    0 -0.00000000000E+00 -0.00000000000E+00 -0.45593999997E+02  0.45594000000E+02  0.51100000000E-03 0.  1.
    9900012    2    1    2    0    0  0.36030717207E+02  0.21862503136E+02 -0.15903831116E+02  0.46142317965E+02  0.10000001861E+02 0.  0.
         12    1    1    2    0    0 -0.36030717207E+02 -0.21862503136E+02  0.15903831116E+02  0.45045682035E+02  0.00000000000E+00 0. -1.
         11    1    3    3    0    0  0.34369763331E+01  0.29667779270E+01 -0.48266426039E+01  0.66265418334E+01  0.51100000000E-03 0. -1.
        -11    1    3    3    0    0  0.11280559599E+02  0.43414436799E+01 -0.27372242913E+01  0.12393206009E+02  0.51100000000E-03 0.  1.
         12    1    3    3    0    0  0.21313181275E+02  0.14554281529E+02 -0.83399642208E+01  0.27122570123E+02  0.00000000000E+00 0. -1.
</event>
<event>
 7    1  0.2097247E-008  0.4614232E+02  0.7816164E-02  0.1320468E+00
        -11   -1    0    0    0    0  0.00000000000E+00  0.00000000000E+00  0.45593999997E+02  0.45594000000E+02  0.51100000000E-03 0.  1.
         11   -1    0    0    0    0 -0.00000000000E+00 -0.00000000000E+00 -0.45593999997E+02  0.45594000000E+02  0.51100000000E-03 0. -1.
    9900012    2    1    2    0    0  0.38344209875E+02  0.19923182540E+02  0.12724057689E+02  0.46142320101E+02  0.10000021339E+02 0.  0.
         12    1    1    2    0    0 -0.38344209875E+02 -0.19923182540E+02 -0.12724057689E+02  0.45045679899E+02  0.00000000000E+00 0. -1.
         11    1    3    3    0    0  0.89357562608E+01  0.46999226299E+01  0.62342730149E+01  0.11866051279E+02  0.51100000000E-03 0. -1.
        -11    1    3    3    0    0  0.26689066651E+02  0.11870219261E+02  0.66460443917E+01  0.29956272971E+02  0.51100000000E-03 0.  1.
         12    1    3    3    0    0  0.27193869638E+01  0.33530406493E+01 -0.15625971746E+00  0.43199958512E+01  0.00000000000E+00 0. -1.
</event>
<event>
 7    1  0.2097247E-008  0.4614232E+02  0.7816164E-02  0.1320468E+00
        -11   -1    0    0    0    0  0.00000000000E+00  0.00000000000E+00  0.45593999997E+02  0.45594000000E+02  0.51100000000E-03 0.  1.
         11   -1    0    0    0    0 -0.00000000000E+00 -0.00000000000E+00 -0.45593999997E+02  0.45594000000E+02  0.51100000000E-03 0. -1.
    9900012    2    1    2    0    0  0.35634514243E+02 -0.10597950392E+02  0.25435773284E+02  0.46142315186E+02  0.99999765149E+01 0.  0.
         12    1    1    2    0    0 -0.35634514243E+02  0.10597950392E+02 -0.25435773284E+02  0.45045684814E+02  0.00000000000E+00 0. -1.
         11    1    3    3    0    0  0.92273894525E+01 -0.59429622724E+00  0.70805656686E+01  0.11646128737E+02  0.51100000000E-03 0. -1.
        -11    1    3    3    0    0  0.16967597687E+02 -0.25685946884E+01  0.10017104791E+02  0.19870567144E+02  0.51100000000E-03 0.  1.
         12    1    3    3    0    0  0.94395271035E+01 -0.74350594762E+01  0.83381028238E+01  0.14625619305E+02  0.00000000000E+00 0. -1.
</event>
<event>
 7    1  0.2097247E-008  0.4614232E+02  0.7816164E-02  0.1320468E+00
        -11   -1    0    0    0    0  0.00000000000E+00  0.00000000000E+00  0.45593999997E+02  0.45594000000E+02  0.51100000000E-03 0. -1.
         11   -1    0    0    0    0 -0.00000000000E+00 -0.00000000000E+00 -0.45593999997E+02  0.45594000000E+02  0.51100000000E-03 0.  1.
    9900012    2    1    2    0    0 -0.27382400923E+02 -0.11232659171E+02 -0.33957988071E+02  0.46142318007E+02  0.10000002246E+02 0.  0.
         12    1    1    2    0    0  0.27382400923E+02  0.11232659171E+02  0.33957988071E+02  0.45045681993E+02  0.00000000000E+00 0. -1.
         11    1    3    3    0    0 -0.70026407026E+01 -0.59371777010E+01 -0.93995034614E+01  0.13139167456E+02  0.51100000000E-03 0. -1.
        -11    1    3    3    0    0 -0.81513601171E+01 -0.23162568497E+01 -0.52945558050E+01  0.99920988278E+01  0.51100000000E-03 0.  1.
        -12    1    3    3    0    0 -0.12228400103E+02 -0.29792246200E+01 -0.19263928805E+02  0.23011051723E+02  0.00000000000E+00 0.  1.
</event>
<event>
 7    1  0.2097247E-008  0.4614232E+02  0.7816164E-02  0.1320468E+00
        -11   -1    0    0    0    0  0.00000000000E+00  0.00000000000E+00  0.45593999997E+02  0.45594000000E+02  0.51100000000E-03 0.  1.
         11   -1    0    0    0    0 -0.00000000000E+00 -0.00000000000E+00 -0.45593999997E+02  0.45594000000E+02  0.51100000000E-03 0. -1.
    9900012    2    1    2    0    0 -0.30092429688E+02  0.32946979414E+02  0.61689237567E+01  0.46142318771E+02  0.10000009212E+02 0.  0.
         12    1    1    2    0    0  0.30092429688E+02 -0.32946979414E+02 -0.61689237567E+01  0.45045681229E+02  0.00000000000E+00 0. -1.
         11    1    3    3    0    0 -0.20743827008E+02  0.22795241168E+02  0.47097384749E+01  0.31178694899E+02  0.51100000000E-03 0.  1.
        -11    1    3    3    0    0 -0.20103398018E+01  0.62764043573E+01  0.49399545830E+00  0.66089900551E+01  0.51100000000E-03 0. -1.
        -12    1    3    3    0    0 -0.73382628784E+01  0.38753338881E+01  0.96518982348E+00  0.83546338168E+01  0.00000000000E+00 0.  1.
</event>
<event>
 7    1  0.2097247E-008  0.4614232E+02  0.7816164E-02  0.1320468E+00
        -11   -1    0    0    0    0  0.00000000000E+00  0.00000000000E+00  0.45593999997E+02  0.45594000000E+02  0.51100000000E-03 0. -1.
         11   -1    0    0    0    0 -0.00000000000E+00 -0.00000000000E+00 -0.45593999997E+02  0.45594000000E+02  0.51100000000E-03 0.  1.
    9900012    2    1    2    0    0  0.58852440045E+01 -0.10296100333E+02 -0.43456503324E+02  0.46142318074E+02  0.10000002852E+02 0.  0.
         12    1    1    2    0    0 -0.58852440045E+01  0.10296100333E+02  0.43456503324E+02  0.45045681926E+02  0.00000000000E+00 0. -1.
         11    1    3    3    0    0  0.81043272241E+00 -0.22230096688E+01 -0.65259149818E+01  0.69416237147E+01  0.51100000000E-03 0. -1.
        -11    1    3    3    0    0  0.31476350475E+01 -0.99587343070E+01 -0.28874203096E+02  0.30705107068E+02  0.51100000000E-03 0.  1.
         12    1    3    3    0    0  0.19271762346E+01  0.18856436427E+01 -0.80563852460E+01  0.84955872910E+01  0.00000000000E+00 0. -1.
</event>
<event>
 7    1  0.2097247E-008  0.4614232E+02  0.7816164E-02  0.1320468E+00
        -11   -1    0    0    0    0  0.00000000000E+00  0.00000000000E+00  0.45593999997E+02  0.45594000000E+02  0.51100000000E-03 0.  1.
         11   -1    0    0    0    0 -0.00000000000E+00 -0.00000000000E+00 -0.45593999997E+02  0.45594000000E+02  0.51100000000E-03 0. -1.
    9900012    2    1    2    0    0 -0.13859121088E+02  0.41815898751E+02  0.94057959504E+01  0.46142316265E+02  0.99999863594E+01 0.  0.
         12    1    1    2    0    0  0.13859121088E+02 -0.41815898751E+02 -0.94057959504E+01  0.45045683735E+02  0.00000000000E+00 0. -1.
         11    1    3    3    0    0  0.19508362627E+00 -0.10532247683E+00  0.67719284779E+00  0.71255937267E+00  0.51100000000E-03 0. -1.
        -11    1    3    3    0    0 -0.42476040103E+01  0.21557749622E+02  0.47674898718E+01  0.22483497694E+02  0.51100000000E-03 0.  1.
        -12    1    3    3    0    0 -0.98066007044E+01  0.20363471605E+02  0.39611132308E+01  0.22946259199E+02  0.00000000000E+00 0.  1.
</event>
<event>
 7    1  0.2097247E-008  0.4614232E+02  0.7816164E-02  0.1320468E+00
        -11   -1    0    0    0    0  0.00000000000E+00  0.00000000000E+00  0.45593999997E+02  0.45594000000E+02  0.51100000000E-03 0.  1.
         11   -1    0    0    0    0 -0.00000000000E+00 -0.00000000000E+00 -0.45593999997E+02  0.45594000000E+02  0.51100000000E-03 0. -1.
    9900012    2    1    2    0    0  0.12962400839E+02  0.25670475220E+02  0.34671549459E+02  0.46142317905E+02  0.10000001313E+02 0.  0.
         12    1    1    2    0    0 -0.12962400839E+02 -0.25670475220E+02 -0.34671549459E+02  0.45045682095E+02  0.00000000000E+00 0. -1.
         11    1    3    3    0    0 -0.10800987590E+01  0.45505758337E+01  0.33379905673E+01  0.57460016565E+01  0.51100000000E-03 0. -1.
        -11    1    3    3    0    0  0.68304831458E+01  0.85101636390E+01  0.12106688851E+02  0.16298782174E+02  0.51100000000E-03 0.  1.
        -12    1    3    3    0    0  0.72120164517E+01  0.12609735748E+02  0.19226870040E+02  0.24097534074E+02  0.00000000000E+00 0.  1.
</event>
<event>
 7    1  0.2097247E-008  0.4614231E+02  0.7816164E-02  0.1320468E+00
        -11   -1    0    0    0    0  0.00000000000E+00  0.00000000000E+00  0.45593999997E+02  0.45594000000E+02  0.51100000000E-03 0.  1.
         11   -1    0    0    0    0 -0.00000000000E+00 -0.00000000000E+00 -0.45593999997E+02  0.45594000000E+02  0.51100000000E-03 0. -1.
    9900012    2    1    2    0    0  0.96941600860E+01 -0.15624288204E+02  0.41121997328E+02  0.46142314458E+02  0.99999698813E+01 0.  0.
         12    1    1    2    0    0 -0.96941600860E+01  0.15624288204E+02 -0.41121997328E+02  0.45045685542E+02  0.00000000000E+00 0. -1.
         11    1    3    3    0    0  0.53129555543E+01 -0.10791468239E+02  0.35603988374E+02  0.37580942935E+02  0.51100000000E-03 0.  1.
        -11    1    3    3    0    0  0.23633547728E+01 -0.22664858948E+01  0.29575675167E+01  0.44124380982E+01  0.51100000000E-03 0. -1.
        -12    1    3    3    0    0  0.20178497590E+01 -0.25663340706E+01  0.25604414377E+01  0.41489334253E+01  0.00000000000E+00 0.  1.
</event>
<event>
 7    1  0.2097247E-008  0.4614232E+02  0.7816164E-02  0.1320468E+00
        -11   -1    0    0    0    0  0.00000000000E+00  0.00000000000E+00  0.45593999997E+02  0.45594000000E+02  0.51100000000E-03 0. -1.
         11   -1    0    0    0    0 -0.00000000000E+00 -0.00000000000E+00 -0.45593999997E+02  0.45594000000E+02  0.51100000000E-03 0.  1.
    9900012    2    1    2    0    0 -0.74980547540E+01  0.13033764522E+02 -0.42461900739E+02  0.46142324768E+02  0.10000063894E+02 0.  0.
         12    1    1    2    0    0  0.74980547540E+01 -0.13033764522E+02  0.42461900739E+02  0.45045675232E+02  0.00000000000E+00 0. -1.
         11    1    3    3    0    0 -0.92384317742E+00 -0.13318866619E+01 -0.61454629423E+01  0.63556371304E+01  0.51100000000E-03 0. -1.
        -11    1    3    3    0    0 -0.34610589270E+01  0.84243976304E+01 -0.25294686650E+02  0.26884392820E+02  0.51100000000E-03 0.  1.
         12    1    3    3    0    0 -0.31131526496E+01  0.59412535534E+01 -0.11021751147E+02  0.12902294817E+02  0.00000000000E+00 0. -1.
</event>
<event>
 7    1  0.2097247E-008  0.4614232E+02  0.7816164E-02  0.1320468E+00
        -11   -1    0    0    0    0  0.00000000000E+00  0.00000000000E+00  0.45593999997E+02  0.45594000000E+02  0.51100000000E-03 0.  1.
         11   -1    0    0    0    0 -0.00000000000E+00 -0.00000000000E+00 -0.45593999997E+02  0.45594000000E+02  0.51100000000E-03 0. -1.
    9900012    2    1    2    0    0 -0.90468679305E+01  0.44950278474E+00  0.44125566652E+02  0.46142317583E+02  0.99999983723E+01 0.  0.
         12    1    1    2    0    0  0.90468679305E+01 -0.44950278474E+00 -0.44125566652E+02  0.45045682417E+02  0.00000000000E+00 0. -1.
         11    1    3    3    0    0 -0.33412230835E+01  0.13620294042E+01  0.22804033623E+02  0.23087720666E+02  0.51100000000E-03 0. -1.
        -11    1    3    3    0    0 -0.55678270545E+01 -0.69568819379E+00  0.21800521270E+02  0.22511050799E+02  0.51100000000E-03 0.  1.
         12    1    3    3    0    0 -0.13781779243E+00 -0.21683842565E+00 -0.47898824140E+00  0.54354611778E+00  0.00000000000E+00 0. -1.
</event>
<event>
 7    1  0.2097247E-008  0.4614232E+02  0.7816164E-02  0.1320468E+00
        -11   -1    0    0    0    0  0.00000000000E+00  0.00000000000E+00  0.45593999997E+02  0.45594000000E+02  0.51100000000E-03 0.  1.
         11   -1    0    0    0    0 -0.00000000000E+00 -0.00000000000E+00 -0.45593999997E+02  0.45594000000E+02  0.51100000000E-03 0. -1.
    9900012    2    1    2    0    0 -0.16210286245E+02  0.12035905455E+02  0.40267568374E+02  0.46142318042E+02  0.10000002563E+02 0.  0.
         12    1    1    2    0    0  0.16210286245E+02 -0.12035905455E+02 -0.40267568374E+02  0.45045681958E+02  0.00000000000E+00 0. -1.
         11    1    3    3    0    0 -0.80055075895E+01  0.22107351259E+01  0.16003148311E+02  0.18029871261E+02  0.51100000000E-03 0. -1.
        -11    1    3    3    0    0 -0.33672919927E+00 -0.85942410506E+00  0.14066772726E+01  0.16824795857E+01  0.51100000000E-03 0.  1.
        -12    1    3    3    0    0 -0.78680494563E+01  0.10684594434E+02  0.22857742791E+02  0.26429967196E+02  0.00000000000E+00 0.  1.
</event>
<event>
 7    1  0.2097247E-008  0.4614232E+02  0.7816164E-02  0.1320468E+00
        -11   -1    0    0    0    0  0.00000000000E+00  0.00000000000E+00  0.45593999997E+02  0.45594000000E+02  0.51100000000E-03 0.  1.
         11   -1    0    0    0    0 -0.00000000000E+00 -0.00000000000E+00 -0.45593999997E+02  0.45594000000E+02  0.51100000000E-03 0. -1.
    9900012    2    1    2    0    0 -0.12251212621E+02  0.35325129987E+02  0.25122818769E+02  0.46142322713E+02  0.10000045155E+02 0.  0.
         12    1    1    2    0    0  0.12251212621E+02 -0.35325129987E+02 -0.25122818769E+02  0.45045677287E+02  0.00000000000E+00 0. -1.
         11    1    3    3    0    0  0.12531256749E+00  0.94614659465E+01  0.45209697878E+01  0.10486858881E+02  0.51100000000E-03 0. -1.
        -11    1    3    3    0    0 -0.17948900859E+01  0.77619112101E+01  0.74300528471E+01  0.10893786377E+02  0.51100000000E-03 0.  1.
        -12    1    3    3    0    0 -0.10581635103E+02  0.18101752831E+02  0.13171796134E+02  0.24761677456E+02  0.00000000000E+00 0.  1.
</event>
<event>
 7    1  0.2097247E-008  0.4614232E+02  0.7816164E-02  0.1320468E+00
        -11   -1    0    0    0    0  0.00000000000E+00  0.00000000000E+00  0.45593999997E+02  0.45594000000E+02  0.51100000000E-03 0.  1.
         11   -1    0    0    0    0 -0.00000000000E+00 -0.00000000000E+00 -0.45593999997E+02  0.45594000000E+02  0.51100000000E-03 0. -1.
    9900012    2    1    2    0    0  0.64347926704E+00 -0.31961741763E+02  0.31735571715E+02  0.46142317475E+02  0.99999973915E+01 0.  0.
         12    1    1    2    0    0 -0.64347926704E+00  0.31961741763E+02 -0.31735571715E+02  0.45045682525E+02  0.00000000000E+00 0. -1.
         11    1    3    3    0    0  0.24876787794E+00 -0.86912266716E+00 -0.36652367824E+00  0.97549963377E+00  0.51100000000E-03 0. -1.
        -11    1    3    3    0    0 -0.21974836982E+01 -0.24082358514E+02  0.22821082548E+02  0.33250424585E+02  0.51100000000E-03 0.  1.
        -12    1    3    3    0    0  0.25921950873E+01 -0.70102605814E+01  0.92810128456E+01  0.11916393256E+02  0.00000000000E+00 0.  1.
</event>
<event>
 7    1  0.2207241E-008  0.4614231E+02  0.7816164E-02  0.1320468E+00
        -11   -1    0    0    0    0  0.00000000000E+00  0.00000000000E+00  0.45593999997E+02  0.45594000000E+02  0.51100000000E-03 0. -1.
         11   -1    0    0    0    0 -0.00000000000E+00 -0.00000000000E+00 -0.45593999997E+02  0.45594000000E+02  0.51100000000E-03 0.  1.
    9900012    2    1    2    0    0  0.13449231307E+02  0.95833229040E+01 -0.41909332632E+02  0.46142311391E+02  0.99999419132E+01 0.  0.
         12    1    1    2    0    0 -0.13449231307E+02 -0.95833229040E+01  0.41909332632E+02  0.45045688609E+02  0.00000000000E+00 0. -1.
         11    1    3    3    0    0  0.21405460178E+01 -0.12834203210E+01 -0.71978645596E+01  0.76182911112E+01  0.51100000000E-03 0. -1.
        -11    1    3    3    0    0  0.78451726644E+01  0.35427165229E+01 -0.17850062618E+02  0.19817222566E+02  0.51100000000E-03 0.  1.
        -12    1    3    3    0    0  0.34635126243E+01  0.73240267022E+01 -0.16861405454E+02  0.18706797714E+02  0.00000000000E+00 0.  1.
</event>
<event>
 7    1  0.2097247E-008  0.4614231E+02  0.7816164E-02  0.1320468E+00
        -11   -1    0    0    0    0  0.00000000000E+00  0.00000000000E+00  0.45593999997E+02  0.45594000000E+02  0.51100000000E-03 0.  1.
         11   -1    0    0    0    0 -0.00000000000E+00 -0.00000000000E+00 -0.45593999997E+02  0.45594000000E+02  0.51100000000E-03 0. -1.
    9900012    2    1    2    0    0 -0.14398555075E+02  0.38934232935E+02  0.17490599513E+02  0.46142312595E+02  0.99999528915E+01 0.  0.
         12    1    1    2    0    0  0.14398555075E+02 -0.38934232935E+02 -0.17490599513E+02  0.45045687405E+02  0.00000000000E+00 0. -1.
         11    1    3    3    0    0  0.43788950185E+00  0.75331042228E+00  0.61667336400E+00  0.10674783872E+01  0.51100000000E-03 0. -1.
        -11    1    3    3    0    0 -0.10629055455E+02  0.30534425850E+02  0.96373189566E+01  0.33737307225E+02  0.51100000000E-03 0.  1.
         12    1    3    3    0    0 -0.42073891219E+01  0.76464966624E+01  0.72366071924E+01  0.11337526983E+02  0.00000000000E+00 0. -1.
</event>
<event>
 7    1  0.2097247E-008  0.4614232E+02  0.7816164E-02  0.1320468E+00
        -11   -1    0    0    0    0  0.00000000000E+00  0.00000000000E+00  0.45593999997E+02  0.45594000000E+02  0.51100000000E-03 0.  1.
         11   -1    0    0    0    0 -0.00000000000E+00 -0.00000000000E+00 -0.45593999997E+02  0.45594000000E+02  0.51100000000E-03 0. -1.
    9900012    2    1    2    0    0 -0.44323577219E+02 -0.61220482307E+01  0.52013872481E+01  0.46142318727E+02  0.10000008808E+02 0.  0.
         12    1    1    2    0    0  0.44323577219E+02  0.61220482307E+01 -0.52013872481E+01  0.45045681273E+02  0.00000000000E+00 0. -1.
         11    1    3    3    0    0 -0.30218873158E+02 -0.36421045704E+01  0.22943087989E+01  0.30523909870E+02  0.51100000000E-03 0. -1.
        -11    1    3    3    0    0 -0.11221303177E+02 -0.23211936585E+01  0.45113474607E+01  0.12314943815E+02  0.51100000000E-03 0.  1.
         12    1    3    3    0    0 -0.28834008842E+01 -0.15875000183E+00 -0.16042690115E+01  0.33034650420E+01  0.00000000000E+00 0. -1.
</event>
<event>
 7    1  0.2097247E-008  0.4614232E+02  0.7816164E-02  0.1320468E+00
        -11   -1    0    0    0    0  0.00000000000E+00  0.00000000000E+00  0.45593999997E+02  0.45594000000E+02  0.51100000000E-03 0. -1.
         11   -1    0    0    0    0 -0.00000000000E+00 -0.00000000000E+00 -0.45593999997E+02  0.45594000000E+02  0.51100000000E-03 0.  1.
    9900012    2    1    2    0    0  0.27489690027E+02 -0.14280766428E+02  0.32703060589E+02  0.46142317416E+02  0.99999968554E+01 0.  0.
         12    1    1    2    0    0 -0.27489690027E+02  0.14280766428E+02 -0.32703060589E+02  0.45045682584E+02  0.00000000000E+00 0. -1.
         11    1    3    3    0    0  0.84620093560E+00 -0.24410301162E+01  0.45664577956E+01  0.52466390300E+01  0.51100000000E-03 0. -1.
        -11    1    3    3    0    0  0.12892092135E+02 -0.85899797661E+01  0.15968589045E+02  0.22248362375E+02  0.51100000000E-03 0.  1.
        -12    1    3    3    0    0  0.13751396956E+02 -0.32497565453E+01  0.12168013749E+02  0.18647316012E+02  0.00000000000E+00 0.  1.
</event>
<event>
 7    1  0.2097247E-008  0.4614232E+02  0.7816164E-02  0.1320468E+00
        -11   -1    0    0    0    0  0.00000000000E+00  0.00000000000E+00  0.45593999997E+02  0.45594000000E+02  0.51100000000E-03 0. -1.
         11   -1    0    0    0    0 -0.00000000000E+00 -0.00000000000E+00 -0.45593999997E+02  0.45594000000E+02  0.51100000000E-03 0.  1.
    9900012    2    1    2    0    0 -0.18476681002E+00  0.44943545228E+02  0.30260738879E+01  0.46142317414E+02  0.99999968363E+01 0.  0.
         12    1    1    2    0    0  0.18476681002E+00 -0.44943545228E+02 -0.30260738879E+01  0.45045682586E+02  0.00000000000E+00 0. -1.
         11    1    3    3    0    0 -0.17945650589E+01  0.12931975990E+02  0.28311111248E+00  0.13058966993E+02  0.51100000000E-03 0.  1.
        -11    1    3    3    0    0  0.20630021092E+01  0.75949569639E+01  0.35845717900E+01  0.86480346995E+01  0.51100000000E-03 0. -1.
        -12    1    3    3    0    0 -0.45320386035E+00  0.24416612274E+02 -0.84160901454E+00  0.24435315721E+02  0.00000000000E+00 0.  1.
</event>
<event>
 7    1  0.2097247E-008  0.4614232E+02  0.7816164E-02  0.1320468E+00
        -11   -1    0    0    0    0  0.00000000000E+00  0.00000000000E+00  0.45593999997E+02  0.45594000000E+02  0.51100000000E-03 0.  1.
         11   -1    0    0    0    0 -0.00000000000E+00 -0.00000000000E+00 -0.45593999997E+02  0.45594000000E+02  0.51100000000E-03 0. -1.
    9900012    2    1    2    0    0  0.25843841325E+01  0.44943221794E+02 -0.15941610127E+01  0.46142316789E+02  0.99999911379E+01 0.  0.
         12    1    1    2    0    0 -0.25843841325E+01 -0.44943221794E+02  0.15941610127E+01  0.45045683211E+02  0.00000000000E+00 0. -1.
         11    1    3    3    0    0  0.20770611655E+01  0.27890345980E+01  0.91787399279E+00  0.35965803205E+01  0.51100000000E-03 0. -1.
        -11    1    3    3    0    0 -0.56645291228E+00  0.21652877906E+01  0.86644033130E+00  0.24000123389E+01  0.51100000000E-03 0.  1.
         12    1    3    3    0    0  0.10737758793E+01  0.39988899406E+02 -0.33784753368E+01  0.40145724130E+02  0.00000000000E+00 0. -1.
</event>
<event>
 7    1  0.2097247E-008  0.4614232E+02  0.7816164E-02  0.1320468E+00
        -11   -1    0    0    0    0  0.00000000000E+00  0.00000000000E+00  0.45593999997E+02  0.45594000000E+02  0.51100000000E-03 0.  1.
         11   -1    0    0    0    0 -0.00000000000E+00 -0.00000000000E+00 -0.45593999997E+02  0.45594000000E+02  0.51100000000E-03 0. -1.
    9900012    2    1    2    0    0 -0.78361003935E+01  0.38926174723E+02  0.21271152299E+02  0.46142317987E+02  0.10000002055E+02 0.  0.
         12    1    1    2    0    0  0.78361003935E+01 -0.38926174723E+02 -0.21271152299E+02  0.45045682013E+02  0.00000000000E+00 0. -1.
         11    1    3    3    0    0 -0.39731104182E+01  0.62797780028E+01  0.52652484667E+01  0.91073629464E+01  0.51100000000E-03 0. -1.
        -11    1    3    3    0    0 -0.21498014743E+01  0.78508691030E+01  0.15628504560E+01  0.82885640409E+01  0.51100000000E-03 0.  1.
        -12    1    3    3    0    0 -0.17131885010E+01  0.24795527617E+02  0.14443053376E+02  0.28746390999E+02  0.00000000000E+00 0.  1.
</event>
<event>
 7    1  0.2097247E-008  0.4614232E+02  0.7816164E-02  0.1320468E+00
        -11   -1    0    0    0    0  0.00000000000E+00  0.00000000000E+00  0.45593999997E+02  0.45594000000E+02  0.51100000000E-03 0.  1.
         11   -1    0    0    0    0 -0.00000000000E+00 -0.00000000000E+00 -0.45593999997E+02  0.45594000000E+02  0.51100000000E-03 0. -1.
    9900012    2    1    2    0    0  0.15630770573E+02  0.12202108575E+02  0.40446272468E+02  0.46142318754E+02  0.10000009051E+02 0.  0.
         12    1    1    2    0    0 -0.15630770573E+02 -0.12202108575E+02 -0.40446272468E+02  0.45045681246E+02  0.00000000000E+00 0. -1.
         11    1    3    3    0    0 -0.26919695735E+00  0.32371211193E+01  0.98759971657E+01  0.10396477308E+02  0.51100000000E-03 0. -1.
        -11    1    3    3    0    0  0.57868433511E+01  0.50053315599E+01  0.13333558061E+02  0.15372854999E+02  0.51100000000E-03 0.  1.
         12    1    3    3    0    0  0.10113124180E+02  0.39596558954E+01  0.17236717242E+02  0.20372986446E+02  0.00000000000E+00 0. -1.
</event>
<event>
 7    1  0.2097247E-008  0.4614232E+02  0.7816164E-02  0.1320468E+00
        -11   -1    0    0    0    0  0.00000000000E+00  0.00000000000E+00  0.45593999997E+02  0.45594000000E+02  0.51100000000E-03 0.  1.
         11   -1    0    0    0    0 -0.00000000000E+00 -0.00000000000E+00 -0.45593999997E+02  0.45594000000E+02  0.51100000000E-03 0. -1.
    9900012    2    1    2    0    0 -0.29138472460E+02  0.25465448776E+02  0.23055885013E+02  0.46142317717E+02  0.99999995943E+01 0.  0.
         12    1    1    2    0    0  0.29138472460E+02 -0.25465448776E+02 -0.23055885013E+02  0.45045682283E+02  0.00000000000E+00 0. -1.
         11    1    3    3    0    0 -0.34808894914E+01  0.19125942121E+01  0.55859021426E+01  0.68539704756E+01  0.51100000000E-03 0. -1.
        -11    1    3    3    0    0 -0.65290706456E+00  0.22342339991E+01  0.13009582371E+01  0.26665674177E+01  0.51100000000E-03 0.  1.
        -12    1    3    3    0    0 -0.25004675904E+02  0.21318620565E+02  0.16169024633E+02  0.36621779823E+02  0.00000000000E+00 0.  1.
</event>
<event>
 7    1  0.2097247E-008  0.4614232E+02  0.7816164E-02  0.1320468E+00
        -11   -1    0    0    0    0  0.00000000000E+00  0.00000000000E+00  0.45593999997E+02  0.45594000000E+02  0.51100000000E-03 0.  1.
         11   -1    0    0    0    0 -0.00000000000E+00 -0.00000000000E+00 -0.45593999997E+02  0.45594000000E+02  0.51100000000E-03 0. -1.
    9900012    2    1    2    0    0  0.23073868823E+01  0.28978090406E+02  0.34410171392E+02  0.46142315934E+02  0.99999833352E+01 0.  0.
         12    1    1    2    0    0 -0.23073868823E+01 -0.28978090406E+02 -0.34410171392E+02  0.45045684066E+02  0.00000000000E+00 0. -1.
         11    1    3    3    0    0  0.12596948334E+00  0.66848836280E+00  0.35581715747E-01  0.68118376489E+00  0.51100000000E-03 0. -1.
        -11    1    3    3    0    0  0.35961525780E+01  0.27977657190E+02  0.31825889084E+02  0.42527271620E+02  0.51100000000E-03 0.  1.
         12    1    3    3    0    0 -0.14147351790E+01  0.33194485365E+00  0.25487005919E+01  0.29338605488E+01  0.00000000000E+00 0. -1.
</event>
<event>
 7    1  0.2097247E-008  0.4614232E+02  0.7816164E-02  0.1320468E+00
        -11   -1    0    0    0    0  0.00000000000E+00  0.00000000000E+00  0.45593999997E+02  0.45594000000E+02  0.51100000000E-03 0.  1.
         11   -1    0    0    0    0 -0.00000000000E+00 -0.00000000000E+00 -0.45593999997E+02  0.45594000000E+02  0.51100000000E-03 0. -1.
    9900012    2    1    2    0    0 -0.16072385905E+02  0.21928531766E+02  0.35915615659E+02  0.46142317163E+02  0.99999945450E+01 0.  0.
         12    1    1    2    0    0  0.16072385905E+02 -0.21928531766E+02 -0.35915615659E+02  0.45045682837E+02  0.00000000000E+00 0. -1.
         11    1    3    3    0    0 -0.55346543049E+01  0.80051771715E+01  0.17110543093E+02  0.19684662685E+02  0.51100000000E-03 0. -1.
        -11    1    3    3    0    0 -0.98277074117E+01  0.91085883136E+01  0.11381239914E+02  0.17580751869E+02  0.51100000000E-03 0.  1.
         12    1    3    3    0    0 -0.71002418889E+00  0.48147662808E+01  0.74238326514E+01  0.88769026087E+01  0.00000000000E+00 0. -1.
</event>
<event>
 7    1  0.2097247E-008  0.4614232E+02  0.7816164E-02  0.1320468E+00
        -11   -1    0    0    0    0  0.00000000000E+00  0.00000000000E+00  0.45593999997E+02  0.45594000000E+02  0.51100000000E-03 0. -1.
         11   -1    0    0    0    0 -0.00000000000E+00 -0.00000000000E+00 -0.45593999997E+02  0.45594000000E+02  0.51100000000E-03 0.  1.
    9900012    2    1    2    0    0 -0.20654567773E+02  0.35812030202E+02 -0.17888564922E+02  0.46142318387E+02  0.10000005704E+02 0.  0.
         12    1    1    2    0    0  0.20654567773E+02 -0.35812030202E+02  0.17888564922E+02  0.45045681613E+02  0.00000000000E+00 0. -1.
         11    1    3    3    0    0 -0.13099608395E+02  0.18681413042E+02 -0.13042140842E+02  0.26281026833E+02  0.51100000000E-03 0. -1.
        -11    1    3    3    0    0 -0.19622391535E+01  0.83116468858E+01 -0.38600729621E+01  0.93719805796E+01  0.51100000000E-03 0.  1.
         12    1    3    3    0    0 -0.55927202244E+01  0.88189702734E+01 -0.98635111756E+00  0.10489310974E+02  0.00000000000E+00 0. -1.
</event>
<event>
 7    1  0.2097247E-008  0.4614232E+02  0.7816164E-02  0.1320468E+00
        -11   -1    0    0    0    0  0.00000000000E+00  0.00000000000E+00  0.45593999997E+02  0.45594000000E+02  0.51100000000E-03 0.  1.
         11   -1    0    0    0    0 -0.00000000000E+00 -0.00000000000E+00 -0.45593999997E+02  0.45594000000E+02  0.51100000000E-03 0. -1.
    9900012    2    1    2    0    0  0.99743214421E+01 -0.43112464633E+02  0.84226976447E+01  0.46142317292E+02  0.99999957243E+01 0.  0.
         12    1    1    2    0    0 -0.99743214421E+01  0.43112464633E+02 -0.84226976447E+01  0.45045682708E+02  0.00000000000E+00 0. -1.
         11    1    3    3    0    0  0.89649989934E+01 -0.29083763340E+02  0.59232117521E+01  0.31005175933E+02  0.51100000000E-03 0. -1.
        -11    1    3    3    0    0  0.89507675625E+00 -0.14263082290E+02  0.18165566773E+01  0.14406129155E+02  0.51100000000E-03 0.  1.
         12    1    3    3    0    0  0.11424569244E+00  0.23438099573E+00  0.68292921529E+00  0.73101220407E+00  0.00000000000E+00 0. -1.
</event>
<event>
 7    1  0.3413737E-008  0.4614232E+02  0.7816164E-02  0.1320468E+00
        -11   -1    0    0    0    0  0.00000000000E+00  0.00000000000E+00  0.45593999997E+02  0.45594000000E+02  0.51100000000E-03 0. -1.
         11   -1    0    0    0    0 -0.00000000000E+00 -0.00000000000E+00 -0.45593999997E+02  0.45594000000E+02  0.51100000000E-03 0.  1.
    9900012    2    1    2    0    0  0.34163197050E+02  0.20596905800E+02 -0.20922639655E+02  0.46142318617E+02  0.10000007800E+02 0.  0.
         12    1    1    2    0    0 -0.34163197050E+02 -0.20596905800E+02  0.20922639655E+02  0.45045681383E+02  0.00000000000E+00 0. -1.
         11    1    3    3    0    0  0.34532366379E+01  0.11944489596E+01  0.11186848610E+00  0.36556895948E+01  0.51100000000E-03 0. -1.
        -11    1    3    3    0    0  0.34429966927E+01  0.28829064697E+01 -0.52618532183E+01  0.69175483729E+01  0.51100000000E-03 0.  1.
        -12    1    3    3    0    0  0.27266963719E+02  0.16519550371E+02 -0.15772654922E+02  0.35569080649E+02  0.00000000000E+00 0.  1.
</event>
<event>
 7    1  0.2097247E-008  0.4614232E+02  0.7816164E-02  0.1320468E+00
        -11   -1    0    0    0    0  0.00000000000E+00  0.00000000000E+00  0.45593999997E+02  0.45594000000E+02  0.51100000000E-03 0. -1.
         11   -1    0    0    0    0 -0.00000000000E+00 -0.00000000000E+00 -0.45593999997E+02  0.45594000000E+02  0.51100000000E-03 0.  1.
    9900012    2    1    2    0    0 -0.38073001249E+02 -0.12398115302E+02 -0.20636048804E+02  0.46142320991E+02  0.10000029450E+02 0.  0.
         12    1    1    2    0    0  0.38073001249E+02  0.12398115302E+02  0.20636048804E+02  0.45045679009E+02  0.00000000000E+00 0. -1.
         11    1    3    3    0    0 -0.93400328216E+01 -0.19750382912E+01 -0.77381140648E+01  0.12288832284E+02  0.51100000000E-03 0. -1.
        -11    1    3    3    0    0 -0.27424131219E+02 -0.10499949646E+02 -0.13604886221E+02  0.32363943595E+02  0.51100000000E-03 0.  1.
         12    1    3    3    0    0 -0.13088372087E+01  0.76872635142E-01  0.70695148216E+00  0.14895451114E+01  0.00000000000E+00 0. -1.
</event>
<event>
 7    1  0.2097247E-008  0.4614232E+02  0.7816164E-02  0.1320468E+00
        -11   -1    0    0    0    0  0.00000000000E+00  0.00000000000E+00  0.45593999997E+02  0.45594000000E+02  0.51100000000E-03 0.  1.
         11   -1    0    0    0    0 -0.00000000000E+00 -0.00000000000E+00 -0.45593999997E+02  0.45594000000E+02  0.51100000000E-03 0. -1.
    9900012    2    1    2    0    0 -0.34863476731E+02  0.45829327213E+01  0.28154010861E+02  0.46142316415E+02  0.99999877259E+01 0.  0.
         12    1    1    2    0    0  0.34863476731E+02 -0.45829327213E+01 -0.28154010861E+02  0.45045683585E+02  0.00000000000E+00 0. -1.
         11    1    3    3    0    0 -0.61975065700E+00  0.18060974344E+01  0.13780760836E+01  0.23548190531E+01  0.51100000000E-03 0. -1.
        -11    1    3    3    0    0 -0.31863902709E+01  0.15798970702E+01  0.30708015123E+01  0.46988275027E+01  0.51100000000E-03 0.  1.
        -12    1    3    3    0    0 -0.31057335803E+02  0.11969382167E+01  0.23705133265E+02  0.39088669859E+02  0.00000000000E+00 0.  1.
</event>
<event>
 7    1  0.2097247E-008  0.4614232E+02  0.7816164E-02  0.1320468E+00
        -11   -1    0    0    0    0  0.00000000000E+00  0.00000000000E+00  0.45593999997E+02  0.45594000000E+02  0.51100000000E-03 0.  1.
         11   -1    0    0    0    0 -0.00000000000E+00 -0.00000000000E+00 -0.45593999997E+02  0.45594000000E+02  0.51100000000E-03 0. -1.
    9900012    2    1    2    0    0 -0.15112903263E+02  0.26212383216E+02  0.33371014425E+02  0.46142317825E+02  0.10000000580E+02 0.  0.
         12    1    1    2    0    0  0.15112903263E+02 -0.26212383216E+02 -0.33371014425E+02  0.45045682175E+02  0.00000000000E+00 0. -1.
         11    1    3    3    0    0  0.10716287608E+01  0.16316111754E+00  0.12486359733E+01  0.16535119613E+01  0.51100000000E-03 0. -1.
        -11    1    3    3    0    0 -0.29414917870E+01  0.68551613139E+01  0.76271226707E+01  0.10668580555E+02  0.51100000000E-03 0.  1.
        -12    1    3    3    0    0 -0.13243040236E+02  0.19194060784E+02  0.24495255781E+02  0.33820225308E+02  0.00000000000E+00 0.  1.
</event>
<event>
 7    1  0.2097247E-008  0.4614232E+02  0.7816164E-02  0.1320468E+00
        -11   -1    0    0    0    0  0.00000000000E+00  0.00000000000E+00  0.45593999997E+02  0.45594000000E+02  0.51100000000E-03 0.  1.
         11   -1    0    0    0    0 -0.00000000000E+00 -0.00000000000E+00 -0.45593999997E+02  0.45594000000E+02  0.51100000000E-03 0. -1.
    9900012    2    1    2    0    0  0.43448818269E+02  0.16071224243E+01 -0.11778404971E+02  0.46142317908E+02  0.10000001337E+02 0.  0.
         12    1    1    2    0    0 -0.43448818269E+02 -0.16071224243E+01  0.11778404971E+02  0.45045682092E+02  0.00000000000E+00 0. -1.
         11    1    3    3    0    0  0.17220590757E+02  0.20412379022E+00 -0.45362364051E+00  0.17227773716E+02  0.51100000000E-03 0. -1.
        -11    1    3    3    0    0  0.23558218833E+02  0.23456363282E+01 -0.93105873772E+01  0.25439707583E+02  0.51100000000E-03 0.  1.
         12    1    3    3    0    0  0.26700086798E+01 -0.94263769415E+00 -0.20141939538E+01  0.34748366085E+01  0.00000000000E+00 0. -1.
</event>
<event>
 7    1  0.2097247E-008  0.4614232E+02  0.7816164E-02  0.1320468E+00
        -11   -1    0    0    0    0  0.00000000000E+00  0.00000000000E+00  0.45593999997E+02  0.45594000000E+02  0.51100000000E-03 0. -1.
         11   -1    0    0    0    0 -0.00000000000E+00 -0.00000000000E+00 -0.45593999997E+02  0.45594000000E+02  0.51100000000E-03 0.  1.
    9900012    2    1    2    0    0 -0.42009046104E+02 -0.55827879883E+01  0.15270427300E+02  0.46142318451E+02  0.10000006287E+02 0.  0.
         12    1    1    2    0    0  0.42009046104E+02  0.55827879883E+01 -0.15270427300E+02  0.45045681549E+02  0.00000000000E+00 0. -1.
         11    1    3    3    0    0 -0.16785071094E+02  0.35247278064E+00  0.42129682852E+01  0.17309302433E+02  0.51100000000E-03 0. -1.
        -11    1    3    3    0    0 -0.20723750890E+02 -0.45832356114E+01  0.62849764455E+01  0.22135510584E+02  0.51100000000E-03 0.  1.
         12    1    3    3    0    0 -0.45002241208E+01 -0.13520251575E+01  0.47724825694E+01  0.66975054341E+01  0.00000000000E+00 0. -1.
</event>
<event>
 7    1  0.2097247E-008  0.4614231E+02  0.7816164E-02  0.1320468E+00
        -11   -1    0    0    0    0  0.00000000000E+00  0.00000000000E+00  0.45593999997E+02  0.45594000000E+02  0.51100000000E-03 0.  1.
         11   -1    0    0    0    0 -0.00000000000E+00 -0.00000000000E+00 -0.45593999997E+02  0.45594000000E+02  0.51100000000E-03 0. -1.
    9900012    2    1    2    0    0  0.59198269573E+01  0.21129141494E+02  0.39339919194E+02  0.46142309710E+02  0.99999265867E+01 0.  0.
         12    1    1    2    0    0 -0.59198269573E+01 -0.21129141494E+02 -0.39339919194E+02  0.45045690290E+02  0.00000000000E+00 0. -1.
         11    1    3    3    0    0  0.27963854757E+01  0.69941903467E+01  0.14092895415E+02  0.15979617385E+02  0.51100000000E-03 0. -1.
        -11    1    3    3    0    0  0.32140440409E+01  0.13908537212E+02  0.25840352566E+02  0.29521200983E+02  0.51100000000E-03 0.  1.
         12    1    3    3    0    0 -0.90602559333E-01  0.22641393466E+00 -0.59332878655E+00  0.64149134251E+00  0.00000000000E+00 0. -1.
</event>
<event>
 7    1  0.2097247E-008  0.4614232E+02  0.7816164E-02  0.1320468E+00
        -11   -1    0    0    0    0  0.00000000000E+00  0.00000000000E+00  0.45593999997E+02  0.45594000000E+02  0.51100000000E-03 0.  1.
         11   -1    0    0    0    0 -0.00000000000E+00 -0.00000000000E+00 -0.45593999997E+02  0.45594000000E+02  0.51100000000E-03 0. -1.
    9900012    2    1    2    0    0  0.15518188489E+02  0.59738118055E+01  0.41864219833E+02  0.46142317591E+02  0.99999984500E+01 0.  0.
         12    1    1    2    0    0 -0.15518188489E+02 -0.59738118055E+01 -0.41864219833E+02  0.45045682409E+02  0.00000000000E+00 0. -1.
         11    1    3    3    0    0  0.77333866925E+01  0.76436643168E+01  0.20207491457E+02  0.22947191226E+02  0.51100000000E-03 0. -1.
        -11    1    3    3    0    0  0.14419470304E+01 -0.12865389762E+01  0.44012364514E+01  0.48067948092E+01  0.51100000000E-03 0.  1.
         12    1    3    3    0    0  0.63428547661E+01 -0.38331353513E+00  0.17255491924E+02  0.18388331556E+02  0.00000000000E+00 0. -1.
</event>
<event>
 7    1  0.2097247E-008  0.4614232E+02  0.7816164E-02  0.1320468E+00
        -11   -1    0    0    0    0  0.00000000000E+00  0.00000000000E+00  0.45593999997E+02  0.45594000000E+02  0.51100000000E-03 0. -1.
         11   -1    0    0    0    0 -0.00000000000E+00 -0.00000000000E+00 -0.45593999997E+02  0.45594000000E+02  0.51100000000E-03 0.  1.
    9900012    2    1    2    0    0 -0.37218272059E+02 -0.12589422331E+02  0.22032251288E+02  0.46142318448E+02  0.10000006262E+02 0.  0.
         12    1    1    2    0    0  0.37218272059E+02  0.12589422331E+02 -0.22032251288E+02  0.45045681552E+02  0.00000000000E+00 0. -1.
         11    1    3    3    0    0 -0.39225809961E+00 -0.25384166921E+00  0.84743653509E+00  0.96770395880E+00  0.51100000000E-03 0. -1.
        -11    1    3    3    0    0 -0.11183241444E+02  0.53626535795E+00  0.64267298872E+01  0.12909505298E+02  0.51100000000E-03 0.  1.
        -12    1    3    3    0    0 -0.25642772515E+02 -0.12871846019E+02  0.14758084866E+02  0.32265109191E+02  0.00000000000E+00 0.  1.
</event>
<event>
 7    1  0.2097247E-008  0.4614232E+02  0.7816164E-02  0.1320468E+00
        -11   -1    0    0    0    0  0.00000000000E+00  0.00000000000E+00  0.45593999997E+02  0.45594000000E+02  0.51100000000E-03 0.  1.
         11   -1    0    0    0    0 -0.00000000000E+00 -0.00000000000E+00 -0.45593999997E+02  0.45594000000E+02  0.51100000000E-03 0. -1.
    9900012    2    1    2    0    0  0.33626599350E+02 -0.21581014828E+02  0.20799641274E+02  0.46142318054E+02  0.10000002666E+02 0.  0.
         12    1    1    2    0    0 -0.33626599350E+02  0.21581014828E+02 -0.20799641274E+02  0.45045681946E+02  0.00000000000E+00 0. -1.
         11    1    3    3    0    0  0.97735400011E+01 -0.70726921386E+01  0.39229819060E+01  0.12686009835E+02  0.51100000000E-03 0. -1.
        -11    1    3    3    0    0  0.13708136690E+02 -0.10339506921E+02  0.65057287583E+01  0.18361452062E+02  0.51100000000E-03 0.  1.
        -12    1    3    3    0    0  0.10144922660E+02 -0.41688157689E+01  0.10370930610E+02  0.15094856157E+02  0.00000000000E+00 0.  1.
</event>
<event>
 7    1  0.2097247E-008  0.4614232E+02  0.7816164E-02  0.1320468E+00
        -11   -1    0    0    0    0  0.00000000000E+00  0.00000000000E+00  0.45593999997E+02  0.45594000000E+02  0.51100000000E-03 0.  1.
         11   -1    0    0    0    0 -0.00000000000E+00 -0.00000000000E+00 -0.45593999997E+02  0.45594000000E+02  0.51100000000E-03 0. -1.
    9900012    2    1    2    0    0  0.16594367568E+02 -0.84281733726E+01  0.41020803819E+02  0.46142317773E+02  0.10000000109E+02 0.  0.
         12    1    1    2    0    0 -0.16594367568E+02  0.84281733726E+01 -0.41020803819E+02  0.45045682227E+02  0.00000000000E+00 0. -1.
         11    1    3    3    0    0  0.60133767958E+01 -0.71557863052E+01  0.15648085664E+02  0.18227138101E+02  0.51100000000E-03 0. -1.
        -11    1    3    3    0    0  0.50761894515E+01  0.52789006434E+00  0.16887141807E+02  0.17641483099E+02  0.51100000000E-03 0.  1.
        -12    1    3    3    0    0  0.55048013203E+01 -0.18002771318E+01  0.84855763480E+01  0.10273696574E+02  0.00000000000E+00 0.  1.
</event>
<event>
 7    1  0.2097247E-008  0.4614232E+02  0.7816164E-02  0.1320468E+00
        -11   -1    0    0    0    0  0.00000000000E+00  0.00000000000E+00  0.45593999997E+02  0.45594000000E+02  0.51100000000E-03 0. -1.
         11   -1    0    0    0    0 -0.00000000000E+00 -0.00000000000E+00 -0.45593999997E+02  0.45594000000E+02  0.51100000000E-03 0.  1.
    9900012    2    1    2    0    0 -0.91849471288E+01 -0.24071698304E+02 -0.36950010255E+02  0.46142321286E+02  0.10000032142E+02 0.  0.
         12    1    1    2    0    0  0.91849471288E+01  0.24071698304E+02  0.36950010255E+02  0.45045678714E+02  0.00000000000E+00 0. -1.
         11    1    3    3    0    0 -0.11963224047E+01 -0.13231812232E+01 -0.53581322706E+01  0.56472628357E+01  0.51100000000E-03 0. -1.
        -11    1    3    3    0    0 -0.80559334105E+01 -0.15742181748E+02 -0.18172153886E+02  0.25356291653E+02  0.51100000000E-03 0.  1.
        -12    1    3    3    0    0  0.67308686380E-01 -0.70063353321E+01 -0.13419724099E+02  0.15138766797E+02  0.00000000000E+00 0.  1.
</event>
<event>
 7    1  0.2097247E-008  0.4614232E+02  0.7816164E-02  0.1320468E+00
        -11   -1    0    0    0    0  0.00000000000E+00  0.00000000000E+00  0.45593999997E+02  0.45594000000E+02  0.51100000000E-03 0.  1.
         11   -1    0    0    0    0 -0.00000000000E+00 -0.00000000000E+00 -0.45593999997E+02  0.45594000000E+02  0.51100000000E-03 0. -1.
    9900012    2    1    2    0    0  0.83196811373E+00  0.60981511856E+01  0.44623243503E+02  0.46142317859E+02  0.10000000895E+02 0.  0.
         12    1    1    2    0    0 -0.83196811373E+00 -0.60981511856E+01 -0.44623243503E+02  0.45045682141E+02  0.00000000000E+00 0. -1.
         11    1    3    3    0    0 -0.32191585808E+01  0.27508304721E+01  0.30328487250E+02  0.30622658104E+02  0.51100000000E-03 0. -1.
        -11    1    3    3    0    0  0.31126346802E+01  0.11024689953E+01  0.10542753713E+02  0.11047786595E+02  0.51100000000E-03 0.  1.
         12    1    3    3    0    0  0.93849201436E+00  0.22448517182E+01  0.37520025401E+01  0.44718731599E+01  0.00000000000E+00 0. -1.
</event>
<event>
 7    1  0.2684375E-008  0.4614232E+02  0.7816164E-02  0.1320468E+00
        -11   -1    0    0    0    0  0.00000000000E+00  0.00000000000E+00  0.45593999997E+02  0.45594000000E+02  0.51100000000E-03 0. -1.
         11   -1    0    0    0    0 -0.00000000000E+00 -0.00000000000E+00 -0.45593999997E+02  0.45594000000E+02  0.51100000000E-03 0.  1.
    9900012    2    1    2    0    0  0.31545622067E+02 -0.17886458919E+02 -0.26721934525E+02  0.46142317976E+02  0.10000001959E+02 0.  0.
         12    1    1    2    0    0 -0.31545622067E+02  0.17886458919E+02  0.26721934525E+02  0.45045682024E+02  0.00000000000E+00 0. -1.
         11    1    3    3    0    0  0.26902934535E+01 -0.27850124931E+00  0.52061282074E-01  0.27051714271E+01  0.51100000000E-03 0. -1.
        -11    1    3    3    0    0 -0.12043113143E+00  0.11417769778E+00  0.30585301029E-01  0.16874811361E+00  0.51100000000E-03 0.  1.
        -12    1    3    3    0    0  0.28975759745E+02 -0.17722135368E+02 -0.26804581108E+02  0.43268398435E+02  0.00000000000E+00 0.  1.
</event>
<event>
 7    1  0.2097247E-008  0.4614231E+02  0.7816164E-02  0.1320468E+00
        -11   -1    0    0    0    0  0.00000000000E+00  0.00000000000E+00  0.45593999997E+02  0.45594000000E+02  0.51100000000E-03 0.  1.
         11   -1    0    0    0    0 -0.00000000000E+00 -0.00000000000E+00 -0.45593999997E+02  0.45594000000E+02  0.51100000000E-03 0. -1.
    9900012    2    1    2    0    0 -0.27024294315E+02  0.20977352534E+02  0.29304472018E+02  0.46142313383E+02  0.99999600731E+01 0.  0.
         12    1    1    2    0    0  0.27024294315E+02 -0.20977352534E+02 -0.29304472018E+02  0.45045686617E+02  0.00000000000E+00 0. -1.
         11    1    3    3    0    0 -0.21329772081E+01  0.32421190059E+01  0.73835594858E+00  0.39504553138E+01  0.51100000000E-03 0. -1.
        -11    1    3    3    0    0 -0.10748481130E+02  0.44517678512E+01  0.10104737634E+02  0.15409536220E+02  0.51100000000E-03 0.  1.
         12    1    3    3    0    0 -0.14142835977E+02  0.13283465677E+02  0.18461378435E+02  0.26782321849E+02  0.00000000000E+00 0. -1.
</event>
<event>
 7    1  0.2097247E-008  0.4614233E+02  0.7816164E-02  0.1320468E+00
        -11   -1    0    0    0    0  0.00000000000E+00  0.00000000000E+00  0.45593999997E+02  0.45594000000E+02  0.51100000000E-03 0. -1.
         11   -1    0    0    0    0 -0.00000000000E+00 -0.00000000000E+00 -0.45593999997E+02  0.45594000000E+02  0.51100000000E-03 0.  1.
    9900012    2    1    2    0    0 -0.35215057890E+02  0.70936392663E+01 -0.27178901225E+02  0.46142326600E+02  0.10000080602E+02 0.  0.
         12    1    1    2    0    0  0.35215057890E+02 -0.70936392663E+01  0.27178901225E+02  0.45045673400E+02  0.00000000000E+00 0. -1.
         11    1    3    3    0    0 -0.14205022019E+02  0.20862624384E+01 -0.81394327969E+01  0.16504105793E+02  0.51100000000E-03 0. -1.
        -11    1    3    3    0    0 -0.18252879209E+02  0.33810065936E+01 -0.12566149168E+02  0.22416665902E+02  0.51100000000E-03 0.  1.
        -12    1    3    3    0    0 -0.27571566625E+01  0.16263702343E+01 -0.64733192602E+01  0.72215549050E+01  0.00000000000E+00 0.  1.
</event>
<event>
 7    1  0.2097247E-008  0.4614232E+02  0.7816164E-02  0.1320468E+00
        -11   -1    0    0    0    0  0.00000000000E+00  0.00000000000E+00  0.45593999997E+02  0.45594000000E+02  0.51100000000E-03 0. -1.
         11   -1    0    0    0    0 -0.00000000000E+00 -0.00000000000E+00 -0.45593999997E+02  0.45594000000E+02  0.51100000000E-03 0.  1.
    9900012    2    1    2    0    0  0.28889119356E+02  0.21970949886E+02 -0.26679762694E+02  0.46142316595E+02  0.99999893624E+01 0.  0.
         12    1    1    2    0    0 -0.28889119356E+02 -0.21970949886E+02  0.26679762694E+02  0.45045683405E+02  0.00000000000E+00 0. -1.
         11    1    3    3    0    0  0.46953382879E+01  0.30868727638E+01 -0.14638353735E+01  0.58067029681E+01  0.51100000000E-03 0. -1.
        -11    1    3    3    0    0  0.69140904299E+01  0.64077328760E+01 -0.39287221188E+01  0.10212665902E+02  0.51100000000E-03 0.  1.
         12    1    3    3    0    0  0.17279690638E+02  0.12476344247E+02 -0.21287205201E+02  0.30122947724E+02  0.00000000000E+00 0. -1.
</event>
<event>
 7    1  0.2097247E-008  0.4614232E+02  0.7816164E-02  0.1320468E+00
        -11   -1    0    0    0    0  0.00000000000E+00  0.00000000000E+00  0.45593999997E+02  0.45594000000E+02  0.51100000000E-03 0.  1.
         11   -1    0    0    0    0 -0.00000000000E+00 -0.00000000000E+00 -0.45593999997E+02  0.45594000000E+02  0.51100000000E-03 0. -1.
    9900012    2    1    2    0    0 -0.36797680771E+02  0.22212594658E+02  0.13477571320E+02  0.46142316519E+02  0.99999886737E+01 0.  0.
         12    1    1    2    0    0  0.36797680771E+02 -0.22212594658E+02 -0.13477571320E+02  0.45045683481E+02  0.00000000000E+00 0. -1.
         11    1    3    3    0    0 -0.34697948686E+00 -0.19381283424E+00 -0.69064619921E-02  0.39749986082E+00  0.51100000000E-03 0. -1.
        -11    1    3    3    0    0 -0.27591040373E+02  0.14260060204E+02  0.13086250367E+02  0.33702592998E+02  0.51100000000E-03 0.  1.
        -12    1    3    3    0    0 -0.88596609118E+01  0.81463472879E+01  0.39822741539E+00  0.12042223660E+02  0.00000000000E+00 0.  1.
</event>
<event>
 7    1  0.2097247E-008  0.4614232E+02  0.7816164E-02  0.1320468E+00
        -11   -1    0    0    0    0  0.00000000000E+00  0.00000000000E+00  0.45593999997E+02  0.45594000000E+02  0.51100000000E-03 0.  1.
         11   -1    0    0    0    0 -0.00000000000E+00 -0.00000000000E+00 -0.45593999997E+02  0.45594000000E+02  0.51100000000E-03 0. -1.
    9900012    2    1    2    0    0  0.25569882510E+02 -0.29530992125E+02  0.22432456113E+02  0.46142317912E+02  0.10000001379E+02 0.  0.
         12    1    1    2    0    0 -0.25569882510E+02  0.29530992125E+02 -0.22432456113E+02  0.45045682088E+02  0.00000000000E+00 0. -1.
         11    1    3    3    0    0  0.94899393422E+01 -0.55769998349E+01  0.74007177954E+01  0.13263954916E+02  0.51100000000E-03 0. -1.
        -11    1    3    3    0    0  0.55151251822E+01 -0.72911155508E+01  0.72557573005E+01  0.11671460321E+02  0.51100000000E-03 0.  1.
         12    1    3    3    0    0  0.10564817986E+02 -0.16662876739E+02  0.77759810174E+01  0.21206902675E+02  0.00000000000E+00 0. -1.
</event>
<event>
 7    1  0.2097247E-008  0.4614232E+02  0.7816164E-02  0.1320468E+00
        -11   -1    0    0    0    0  0.00000000000E+00  0.00000000000E+00  0.45593999997E+02  0.45594000000E+02  0.51100000000E-03 0.  1.
         11   -1    0    0    0    0 -0.00000000000E+00 -0.00000000000E+00 -0.45593999997E+02  0.45594000000E+02  0.51100000000E-03 0. -1.
    9900012    2    1    2    0    0 -0.30379331791E+02  0.20387307138E+02  0.26278647554E+02  0.46142318635E+02  0.10000007965E+02 0.  0.
         12    1    1    2    0    0  0.30379331791E+02 -0.20387307138E+02 -0.26278647554E+02  0.45045681365E+02  0.00000000000E+00 0. -1.
         11    1    3    3    0    0 -0.62118766006E+00  0.14624461746E+01  0.11605337665E+00  0.15931389048E+01  0.51100000000E-03 0. -1.
        -11    1    3    3    0    0 -0.15433608389E+02  0.12213700689E+02  0.10583129716E+02  0.22346663896E+02  0.51100000000E-03 0.  1.
        -12    1    3    3    0    0 -0.14324535742E+02  0.67111602744E+01  0.15579464461E+02  0.22202515834E+02  0.00000000000E+00 0.  1.
</event>
<event>
 7    1  0.2097247E-008  0.4614232E+02  0.7816164E-02  0.1320468E+00
        -11   -1    0    0    0    0  0.00000000000E+00  0.00000000000E+00  0.45593999997E+02  0.45594000000E+02  0.51100000000E-03 0. -1.
         11   -1    0    0    0    0 -0.00000000000E+00 -0.00000000000E+00 -0.45593999997E+02  0.45594000000E+02  0.51100000000E-03 0.  1.
    9900012    2    1    2    0    0 -0.39108936282E+02  0.15212745203E+02 -0.16376110023E+02  0.46142317707E+02  0.99999995107E+01 0.  0.
         12    1    1    2    0    0  0.39108936282E+02 -0.15212745203E+02  0.16376110023E+02  0.45045682293E+02  0.00000000000E+00 0. -1.
         11    1    3    3    0    0 -0.98505792507E+01  0.30542430048E+01 -0.43532787689E+00  0.10322394225E+02  0.51100000000E-03 0. -1.
        -11    1    3    3    0    0 -0.12698544326E+02  0.60239491616E+01 -0.44155060738E+01  0.14732198941E+02  0.51100000000E-03 0.  1.
         12    1    3    3    0    0 -0.16559812705E+02  0.61345530364E+01 -0.11525276072E+02  0.21087724542E+02  0.00000000000E+00 0. -1.
</event>
<event>
 7    1  0.2097247E-008  0.4614232E+02  0.7816164E-02  0.1320468E+00
        -11   -1    0    0    0    0  0.00000000000E+00  0.00000000000E+00  0.45593999997E+02  0.45594000000E+02  0.51100000000E-03 0.  1.
         11   -1    0    0    0    0 -0.00000000000E+00 -0.00000000000E+00 -0.45593999997E+02  0.45594000000E+02  0.51100000000E-03 0. -1.
    9900012    2    1    2    0    0 -0.76067358139E+01 -0.43181157968E+02  0.10326600719E+02  0.46142317459E+02  0.99999972440E+01 0.  0.
         12    1    1    2    0    0  0.76067358139E+01  0.43181157968E+02 -0.10326600719E+02  0.45045682541E+02  0.00000000000E+00 0. -1.
         11    1    3    3    0    0  0.12414300322E+01 -0.46725588513E+01 -0.10411195157E+01  0.49454913660E+01  0.51100000000E-03 0. -1.
        -11    1    3    3    0    0 -0.63137134848E+01 -0.30840238942E+02  0.97972154692E+01  0.32969209077E+02  0.51100000000E-03 0.  1.
         12    1    3    3    0    0 -0.25344523614E+01 -0.76683601745E+01  0.15705047656E+01  0.82276170157E+01  0.00000000000E+00 0. -1.
</event>
<event>
 7    1  0.2097247E-008  0.4614232E+02  0.7816164E-02  0.1320468E+00
        -11   -1    0    0    0    0  0.00000000000E+00  0.00000000000E+00  0.45593999997E+02  0.45594000000E+02  0.51100000000E-03 0. -1.
         11   -1    0    0    0    0 -0.00000000000E+00 -0.00000000000E+00 -0.45593999997E+02  0.45594000000E+02  0.51100000000E-03 0.  1.
    9900012    2    1    2    0    0  0.11075351422E+02 -0.29117434820E+02 -0.32536519480E+02  0.46142317416E+02  0.99999968505E+01 0.  0.
         12    1    1    2    0    0 -0.11075351422E+02  0.29117434820E+02  0.32536519480E+02  0.45045682584E+02  0.00000000000E+00 0. -1.
         11    1    3    3    0    0  0.95274354588E+00 -0.91620115678E+00 -0.43781239634E+01  0.45733045519E+01  0.51100000000E-03 0. -1.
        -11    1    3    3    0    0  0.59272348116E+01 -0.11634240864E+02 -0.15700184370E+02  0.20420172930E+02  0.51100000000E-03 0.  1.
         12    1    3    3    0    0  0.41953730647E+01 -0.16566992799E+02 -0.12458211146E+02  0.21148839933E+02  0.00000000000E+00 0. -1.
</event>
<event>
 7    1  0.2097247E-008  0.4614232E+02  0.7816164E-02  0.1320468E+00
        -11   -1    0    0    0    0  0.00000000000E+00  0.00000000000E+00  0.45593999997E+02  0.45594000000E+02  0.51100000000E-03 0.  1.
         11   -1    0    0    0    0 -0.00000000000E+00 -0.00000000000E+00 -0.45593999997E+02  0.45594000000E+02  0.51100000000E-03 0. -1.
    9900012    2    1    2    0    0  0.44184112808E+02  0.87049241993E+01  0.10497101957E+01  0.46142318504E+02  0.10000006772E+02 0.  0.
         12    1    1    2    0    0 -0.44184112808E+02 -0.87049241993E+01 -0.10497101957E+01  0.45045681496E+02  0.00000000000E+00 0. -1.
         11    1    3    3    0    0  0.79539668210E+01  0.27420141592E+01 -0.10359965460E+01  0.84768814398E+01  0.51100000000E-03 0. -1.
        -11    1    3    3    0    0  0.31343584595E+02  0.53717161802E+01  0.46112276174E+01  0.32133145666E+02  0.51100000000E-03 0.  1.
         12    1    3    3    0    0  0.48865613924E+01  0.59119385993E+00 -0.25255208757E+01  0.55322913983E+01  0.00000000000E+00 0. -1.
</event>
<event>
 7    1  0.2097247E-008  0.4614232E+02  0.7816164E-02  0.1320468E+00
        -11   -1    0    0    0    0  0.00000000000E+00  0.00000000000E+00  0.45593999997E+02  0.45594000000E+02  0.51100000000E-03 0. -1.
         11   -1    0    0    0    0 -0.00000000000E+00 -0.00000000000E+00 -0.45593999997E+02  0.45594000000E+02  0.51100000000E-03 0.  1.
    9900012    2    1    2    0    0  0.53231051847E+01  0.30369574864E+01 -0.44626840475E+02  0.46142318183E+02  0.10000003845E+02 0.  0.
         12    1    1    2    0    0 -0.53231051847E+01 -0.30369574864E+01  0.44626840475E+02  0.45045681817E+02  0.00000000000E+00 0. -1.
         11    1    3    3    0    0  0.28235191108E+01  0.37461308809E+01 -0.14292062155E+02  0.15042233799E+02  0.51100000000E-03 0. -1.
        -11    1    3    3    0    0  0.26380291106E+01 -0.29662554833E+01 -0.24887323989E+02  0.25201919863E+02  0.51100000000E-03 0.  1.
        -12    1    3    3    0    0 -0.13844303681E+00  0.22570820889E+01 -0.54474543314E+01  0.58981645215E+01  0.00000000000E+00 0.  1.
</event>
<event>
 7    1  0.2097247E-008  0.4614232E+02  0.7816164E-02  0.1320468E+00
        -11   -1    0    0    0    0  0.00000000000E+00  0.00000000000E+00  0.45593999997E+02  0.45594000000E+02  0.51100000000E-03 0.  1.
         11   -1    0    0    0    0 -0.00000000000E+00 -0.00000000000E+00 -0.45593999997E+02  0.45594000000E+02  0.51100000000E-03 0. -1.
    9900012    2    1    2    0    0 -0.16680616084E+02 -0.10103132113E+02  0.40605384373E+02  0.46142317949E+02  0.10000001710E+02 0.  0.
         12    1    1    2    0    0  0.16680616084E+02  0.10103132113E+02 -0.40605384373E+02  0.45045682051E+02  0.00000000000E+00 0. -1.
         11    1    3    3    0    0 -0.19898506431E+01  0.94302474352E+00  0.17807370465E+01  0.28319297200E+01  0.51100000000E-03 0. -1.
        -11    1    3    3    0    0 -0.50423458845E+01 -0.47579706145E+01  0.91537507025E+01  0.11482799684E+02  0.51100000000E-03 0.  1.
         12    1    3    3    0    0 -0.96484195561E+01 -0.62881862421E+01  0.29670896624E+02  0.31827588545E+02  0.00000000000E+00 0. -1.
</event>
<event>
 7    1  0.2097247E-008  0.4614232E+02  0.7816164E-02  0.1320468E+00
        -11   -1    0    0    0    0  0.00000000000E+00  0.00000000000E+00  0.45593999997E+02  0.45594000000E+02  0.51100000000E-03 0.  1.
         11   -1    0    0    0    0 -0.00000000000E+00 -0.00000000000E+00 -0.45593999997E+02  0.45594000000E+02  0.51100000000E-03 0. -1.
    9900012    2    1    2    0    0  0.25694887710E+02 -0.47911175365E+01  0.36686938852E+02  0.46142317144E+02  0.99999943736E+01 0.  0.
         12    1    1    2    0    0 -0.25694887710E+02  0.47911175365E+01 -0.36686938852E+02  0.45045682856E+02  0.00000000000E+00 0. -1.
         11    1    3    3    0    0  0.20883383386E+02 -0.39749711062E+01  0.26333603878E+02  0.33843386214E+02  0.51100000000E-03 0. -1.
        -11    1    3    3    0    0 -0.21836074850E+00  0.68513415035E+00  0.32362515957E-01  0.71981790337E+00  0.51100000000E-03 0.  1.
        -12    1    3    3    0    0  0.50298650724E+01 -0.15012805806E+01  0.10320972457E+02  0.11579113027E+02  0.00000000000E+00 0.  1.
</event>
<event>
 7    1  0.2097247E-008  0.4614232E+02  0.7816164E-02  0.1320468E+00
        -11   -1    0    0    0    0  0.00000000000E+00  0.00000000000E+00  0.45593999997E+02  0.45594000000E+02  0.51100000000E-03 0.  1.
         11   -1    0    0    0    0 -0.00000000000E+00 -0.00000000000E+00 -0.45593999997E+02  0.45594000000E+02  0.51100000000E-03 0. -1.
    9900012    2    1    2    0    0 -0.20240528737E+02 -0.72661489523E+01  0.39580772015E+02  0.46142318326E+02  0.10000005149E+02 0.  0.
         12    1    1    2    0    0  0.20240528737E+02  0.72661489523E+01 -0.39580772015E+02  0.45045681674E+02  0.00000000000E+00 0. -1.
         11    1    3    3    0    0 -0.24125911414E+01 -0.11395815164E+01  0.39872349832E+01  0.47976332833E+01  0.51100000000E-03 0. -1.
        -11    1    3    3    0    0 -0.14530036528E+02 -0.72192965674E+00  0.22383862137E+02  0.26696075149E+02  0.51100000000E-03 0.  1.
         12    1    3    3    0    0 -0.32979010681E+01 -0.54046377792E+01  0.13209674896E+02  0.14648609894E+02  0.00000000000E+00 0. -1.
</event>
<event>
 7    1  0.2097247E-008  0.4614232E+02  0.7816164E-02  0.1320468E+00
        -11   -1    0    0    0    0  0.00000000000E+00  0.00000000000E+00  0.45593999997E+02  0.45594000000E+02  0.51100000000E-03 0. -1.
         11   -1    0    0    0    0 -0.00000000000E+00 -0.00000000000E+00 -0.45593999997E+02  0.45594000000E+02  0.51100000000E-03 0.  1.
    9900012    2    1    2    0    0 -0.17335594921E+02  0.40436274294E+02 -0.96694560297E+01  0.46142317521E+02  0.99999978130E+01 0.  0.
         12    1    1    2    0    0  0.17335594921E+02 -0.40436274294E+02  0.96694560297E+01  0.45045682479E+02  0.00000000000E+00 0. -1.
         11    1    3    3    0    0  0.25327119804E+00  0.30866731615E+01  0.10730237318E+01  0.32776634507E+01  0.51100000000E-03 0. -1.
        -11    1    3    3    0    0 -0.15377219955E+00  0.16989727469E+01  0.14667627304E+00  0.17122115740E+01  0.51100000000E-03 0.  1.
         12    1    3    3    0    0 -0.17435093920E+02  0.35650628386E+02 -0.10889156035E+02  0.41152442497E+02  0.00000000000E+00 0. -1.
</event>
<event>
 7    1  0.2097247E-008  0.4614232E+02  0.7816164E-02  0.1320468E+00
        -11   -1    0    0    0    0  0.00000000000E+00  0.00000000000E+00  0.45593999997E+02  0.45594000000E+02  0.51100000000E-03 0.  1.
         11   -1    0    0    0    0 -0.00000000000E+00 -0.00000000000E+00 -0.45593999997E+02  0.45594000000E+02  0.51100000000E-03 0. -1.
    9900012    2    1    2    0    0  0.38441978920E+02  0.81057322559E+01  0.22036899531E+02  0.46142316748E+02  0.99999907641E+01 0.  0.
         12    1    1    2    0    0 -0.38441978920E+02 -0.81057322559E+01 -0.22036899531E+02  0.45045683252E+02  0.00000000000E+00 0. -1.
         11    1    3    3    0    0  0.12562739740E+02  0.39755185750E-01  0.89107462213E+01  0.15402123514E+02  0.51100000000E-03 0. -1.
        -11    1    3    3    0    0  0.10426663027E+02  0.10731893306E+01  0.26751912135E+01  0.10817748634E+02  0.51100000000E-03 0.  1.
         12    1    3    3    0    0  0.15452576153E+02  0.69927877395E+01  0.10450962096E+02  0.19922444601E+02  0.00000000000E+00 0. -1.
</event>
<event>
 7    1  0.2097247E-008  0.4614232E+02  0.7816164E-02  0.1320468E+00
        -11   -1    0    0    0    0  0.00000000000E+00  0.00000000000E+00  0.45593999997E+02  0.45594000000E+02  0.51100000000E-03 0.  1.
         11   -1    0    0    0    0 -0.00000000000E+00 -0.00000000000E+00 -0.45593999997E+02  0.45594000000E+02  0.51100000000E-03 0. -1.
    9900012    2    1    2    0    0  0.41103744082E+02  0.81369265842E+01 -0.16534395008E+02  0.46142316854E+02  0.99999917309E+01 0.  0.
         12    1    1    2    0    0 -0.41103744082E+02 -0.81369265842E+01  0.16534395008E+02  0.45045683146E+02  0.00000000000E+00 0. -1.
         11    1    3    3    0    0  0.15586587512E+02  0.34916453093E+01 -0.44899380892E+01  0.16591951107E+02  0.51100000000E-03 0. -1.
        -11    1    3    3    0    0  0.17511122162E+02  0.59088928152E+01 -0.59697883328E+01  0.19421451713E+02  0.51100000000E-03 0.  1.
         12    1    3    3    0    0  0.80060344084E+01 -0.12636115404E+01 -0.60746685863E+01  0.10128914034E+02  0.00000000000E+00 0. -1.
</event>
<event>
 7    1  0.2097247E-008  0.4614231E+02  0.7816164E-02  0.1320468E+00
        -11   -1    0    0    0    0  0.00000000000E+00  0.00000000000E+00  0.45593999997E+02  0.45594000000E+02  0.51100000000E-03 0.  1.
         11   -1    0    0    0    0 -0.00000000000E+00 -0.00000000000E+00 -0.45593999997E+02  0.45594000000E+02  0.51100000000E-03 0. -1.
    9900012    2    1    2    0    0  0.25175020394E+02  0.37349893751E+01  0.37166951368E+02  0.46142311288E+02  0.99999409756E+01 0.  0.
         12    1    1    2    0    0 -0.25175020394E+02 -0.37349893751E+01 -0.37166951368E+02  0.45045688712E+02  0.00000000000E+00 0. -1.
         11    1    3    3    0    0  0.67606714826E+01  0.46243403006E+01  0.13491960686E+02  0.15783668950E+02  0.51100000000E-03 0.  1.
        -11    1    3    3    0    0  0.15751252445E+02  0.91919837953E+00  0.19956510277E+02  0.25440306248E+02  0.51100000000E-03 0. -1.
         12    1    3    3    0    0  0.26630964664E+01 -0.18085493050E+01  0.37184804050E+01  0.49183360907E+01  0.00000000000E+00 0. -1.
</event>
<event>
 7    1  0.2097247E-008  0.4614232E+02  0.7816164E-02  0.1320468E+00
        -11   -1    0    0    0    0  0.00000000000E+00  0.00000000000E+00  0.45593999997E+02  0.45594000000E+02  0.51100000000E-03 0.  1.
         11   -1    0    0    0    0 -0.00000000000E+00 -0.00000000000E+00 -0.45593999997E+02  0.45594000000E+02  0.51100000000E-03 0. -1.
    9900012    2    1    2    0    0 -0.30904482908E+02  0.27053825280E+02  0.18496402821E+02  0.46142318260E+02  0.10000004549E+02 0.  0.
         12    1    1    2    0    0  0.30904482908E+02 -0.27053825280E+02 -0.18496402821E+02  0.45045681740E+02  0.00000000000E+00 0. -1.
         11    1    3    3    0    0 -0.48719917387E+01  0.25756957535E+01  0.56040609602E+01  0.78597717284E+01  0.51100000000E-03 0. -1.
        -11    1    3    3    0    0 -0.50737404054E+01  0.67148414222E+01  0.15405149750E+01  0.85559992798E+01  0.51100000000E-03 0.  1.
         12    1    3    3    0    0 -0.20958750764E+02  0.17763288104E+02  0.11351826886E+02  0.29726547252E+02  0.00000000000E+00 0. -1.
</event>
<event>
 7    1  0.2097247E-008  0.4614232E+02  0.7816164E-02  0.1320468E+00
        -11   -1    0    0    0    0  0.00000000000E+00  0.00000000000E+00  0.45593999997E+02  0.45594000000E+02  0.51100000000E-03 0. -1.
         11   -1    0    0    0    0 -0.00000000000E+00 -0.00000000000E+00 -0.45593999997E+02  0.45594000000E+02  0.51100000000E-03 0.  1.
    9900012    2    1    2    0    0  0.10862707321E+02  0.21650646679E+02 -0.37978474308E+02  0.46142318490E+02  0.10000006643E+02 0.  0.
         12    1    1    2    0    0 -0.10862707321E+02 -0.21650646679E+02  0.37978474308E+02  0.45045681510E+02  0.00000000000E+00 0. -1.
         11    1    3    3    0    0 -0.10174638286E+00  0.75483050182E+01 -0.12135618350E+02  0.14291973061E+02  0.51100000000E-03 0. -1.
        -11    1    3    3    0    0  0.65639144414E+01  0.11469208962E+02 -0.20903843293E+02  0.24730515395E+02  0.51100000000E-03 0.  1.
         12    1    3    3    0    0  0.44005392621E+01  0.26331326987E+01 -0.49390126654E+01  0.71198300342E+01  0.00000000000E+00 0. -1.
</event>
<event>
 7    1  0.2097247E-008  0.4614232E+02  0.7816164E-02  0.1320468E+00
        -11   -1    0    0    0    0  0.00000000000E+00  0.00000000000E+00  0.45593999997E+02  0.45594000000E+02  0.51100000000E-03 0.  1.
         11   -1    0    0    0    0 -0.00000000000E+00 -0.00000000000E+00 -0.45593999997E+02  0.45594000000E+02  0.51100000000E-03 0. -1.
    9900012    2    1    2    0    0  0.40948544394E+02  0.10957708043E+02 -0.15240046726E+02  0.46142315659E+02  0.99999808347E+01 0.  0.
         12    1    1    2    0    0 -0.40948544394E+02 -0.10957708043E+02  0.15240046726E+02  0.45045684341E+02  0.00000000000E+00 0. -1.
         11    1    3    3    0    0  0.61539795904E+01  0.27285633289E+00  0.36330703280E+00  0.61707299113E+01  0.51100000000E-03 0. -1.
        -11    1    3    3    0    0  0.14288347971E+02  0.44144264967E+01 -0.93412725645E+01  0.17632453670E+02  0.51100000000E-03 0.  1.
         12    1    3    3    0    0  0.20506216832E+02  0.62704252133E+01 -0.62620811942E+01  0.22339132078E+02  0.00000000000E+00 0. -1.
</event>
<event>
 7    1  0.2097247E-008  0.4614232E+02  0.7816164E-02  0.1320468E+00
        -11   -1    0    0    0    0  0.00000000000E+00  0.00000000000E+00  0.45593999997E+02  0.45594000000E+02  0.51100000000E-03 0.  1.
         11   -1    0    0    0    0 -0.00000000000E+00 -0.00000000000E+00 -0.45593999997E+02  0.45594000000E+02  0.51100000000E-03 0. -1.
    9900012    2    1    2    0    0  0.23723700600E+02  0.37529880661E+02  0.76031332721E+01  0.46142317098E+02  0.99999939512E+01 0.  0.
         12    1    1    2    0    0 -0.23723700600E+02 -0.37529880661E+02 -0.76031332721E+01  0.45045682902E+02  0.00000000000E+00 0. -1.
         11    1    3    3    0    0  0.10793148679E+02  0.21840472017E+02  0.54331369712E+01  0.24960313578E+02  0.51100000000E-03 0.  1.
        -11    1    3    3    0    0  0.80835997711E+01  0.58737211440E+01 -0.14237868924E+00  0.99932706002E+01  0.51100000000E-03 0. -1.
         12    1    3    3    0    0  0.48469521499E+01  0.98156875001E+01  0.23123749902E+01  0.11188732919E+02  0.00000000000E+00 0. -1.
</event>
<event>
 7    1  0.2097247E-008  0.4614232E+02  0.7816164E-02  0.1320468E+00
        -11   -1    0    0    0    0  0.00000000000E+00  0.00000000000E+00  0.45593999997E+02  0.45594000000E+02  0.51100000000E-03 0.  1.
         11   -1    0    0    0    0 -0.00000000000E+00 -0.00000000000E+00 -0.45593999997E+02  0.45594000000E+02  0.51100000000E-03 0. -1.
    9900012    2    1    2    0    0  0.43480801111E+02 -0.98644725990E+01 -0.64207025469E+01  0.46142319784E+02  0.10000018447E+02 0.  0.
         12    1    1    2    0    0 -0.43480801111E+02  0.98644725990E+01  0.64207025469E+01  0.45045680216E+02  0.00000000000E+00 0. -1.
         11    1    3    3    0    0  0.18475931835E+02 -0.41113020462E+01 -0.74271774928E+01  0.20332875533E+02  0.51100000000E-03 0. -1.
        -11    1    3    3    0    0  0.20151889007E+01 -0.39583273399E-01 -0.48632290644E+00  0.20734182818E+01  0.51100000000E-03 0.  1.
         12    1    3    3    0    0  0.22989680376E+02 -0.57135872794E+01  0.14927978523E+01  0.23736025969E+02  0.00000000000E+00 0. -1.
</event>
<event>
 7    1  0.2097247E-008  0.4614232E+02  0.7816164E-02  0.1320468E+00
        -11   -1    0    0    0    0  0.00000000000E+00  0.00000000000E+00  0.45593999997E+02  0.45594000000E+02  0.51100000000E-03 0.  1.
         11   -1    0    0    0    0 -0.00000000000E+00 -0.00000000000E+00 -0.45593999997E+02  0.45594000000E+02  0.51100000000E-03 0. -1.
    9900012    2    1    2    0    0  0.76935513880E+00  0.36007549415E+02  0.27055091100E+02  0.46142317891E+02  0.10000001187E+02 0.  0.
         12    1    1    2    0    0 -0.76935513880E+00 -0.36007549415E+02 -0.27055091100E+02  0.45045682109E+02  0.00000000000E+00 0. -1.
         11    1    3    3    0    0 -0.11276555188E+01  0.32903744562E+01  0.19011124747E+01  0.39638869729E+01  0.51100000000E-03 0. -1.
        -11    1    3    3    0    0 -0.11520408978E+01  0.56929830857E+00  0.67252740813E-01  0.12867874676E+01  0.51100000000E-03 0.  1.
        -12    1    3    3    0    0  0.30490515555E+01  0.32147876650E+02  0.25086725885E+02  0.40891643451E+02  0.00000000000E+00 0.  1.
</event>
<event>
 7    1  0.2097247E-008  0.4614232E+02  0.7816164E-02  0.1320468E+00
        -11   -1    0    0    0    0  0.00000000000E+00  0.00000000000E+00  0.45593999997E+02  0.45594000000E+02  0.51100000000E-03 0.  1.
         11   -1    0    0    0    0 -0.00000000000E+00 -0.00000000000E+00 -0.45593999997E+02  0.45594000000E+02  0.51100000000E-03 0. -1.
    9900012    2    1    2    0    0 -0.41158813584E+02  0.17096257652E+02  0.65409161415E+01  0.46142317129E+02  0.99999942356E+01 0.  0.
         12    1    1    2    0    0  0.41158813584E+02 -0.17096257652E+02 -0.65409161415E+01  0.45045682871E+02  0.00000000000E+00 0. -1.
         11    1    3    3    0    0 -0.25713967472E+02  0.96220591886E+01  0.62622624819E+00  0.27462416240E+02  0.51100000000E-03 0. -1.
        -11    1    3    3    0    0 -0.72764208258E+01  0.11052374086E+01  0.25529190211E+01  0.77900735268E+01  0.51100000000E-03 0.  1.
         12    1    3    3    0    0 -0.81684252861E+01  0.63689610547E+01  0.33617708723E+01  0.10889827362E+02  0.00000000000E+00 0. -1.
</event>
<event>
 7    1  0.2097247E-008  0.4614232E+02  0.7816164E-02  0.1320468E+00
        -11   -1    0    0    0    0  0.00000000000E+00  0.00000000000E+00  0.45593999997E+02  0.45594000000E+02  0.51100000000E-03 0.  1.
         11   -1    0    0    0    0 -0.00000000000E+00 -0.00000000000E+00 -0.45593999997E+02  0.45594000000E+02  0.51100000000E-03 0. -1.
    9900012    2    1    2    0    0 -0.22953921923E+02  0.40821476673E+01  0.38543054074E+02  0.46142317870E+02  0.10000000990E+02 0.  0.
         12    1    1    2    0    0  0.22953921923E+02 -0.40821476673E+01 -0.38543054074E+02  0.45045682130E+02  0.00000000000E+00 0. -1.
         11    1    3    3    0    0 -0.54017067414E-01 -0.15014974453E+00 -0.47011264438E+00  0.49645639172E+00  0.51100000000E-03 0. -1.
        -11    1    3    3    0    0 -0.13829109316E+02  0.47201078645E+01  0.24039499882E+02  0.28132209966E+02  0.51100000000E-03 0.  1.
         12    1    3    3    0    0 -0.90707955395E+01 -0.48781045267E+00  0.14973666837E+02  0.17513651512E+02  0.00000000000E+00 0. -1.
</event>
<event>
 7    1  0.2097247E-008  0.4614232E+02  0.7816164E-02  0.1320468E+00
        -11   -1    0    0    0    0  0.00000000000E+00  0.00000000000E+00  0.45593999997E+02  0.45594000000E+02  0.51100000000E-03 0. -1.
         11   -1    0    0    0    0 -0.00000000000E+00 -0.00000000000E+00 -0.45593999997E+02  0.45594000000E+02  0.51100000000E-03 0.  1.
    9900012    2    1    2    0    0 -0.14189972896E+02 -0.38345333995E+02  0.18904854383E+02  0.46142317752E+02  0.99999999136E+01 0.  0.
         12    1    1    2    0    0  0.14189972896E+02  0.38345333995E+02 -0.18904854383E+02  0.45045682248E+02  0.00000000000E+00 0. -1.
         11    1    3    3    0    0 -0.16119957917E+00 -0.57437033529E+01  0.56867476495E+00  0.57740371284E+01  0.51100000000E-03 0. -1.
        -11    1    3    3    0    0 -0.77427880277E+01 -0.10958354071E+02  0.72614614122E+01  0.15256641586E+02  0.51100000000E-03 0.  1.
        -12    1    3    3    0    0 -0.62859852888E+01 -0.21643276571E+02  0.11074718206E+02  0.25111639037E+02  0.00000000000E+00 0.  1.
</event>
<event>
 7    1  0.2097247E-008  0.4614232E+02  0.7816164E-02  0.1320468E+00
        -11   -1    0    0    0    0  0.00000000000E+00  0.00000000000E+00  0.45593999997E+02  0.45594000000E+02  0.51100000000E-03 0.  1.
         11   -1    0    0    0    0 -0.00000000000E+00 -0.00000000000E+00 -0.45593999997E+02  0.45594000000E+02  0.51100000000E-03 0. -1.
    9900012    2    1    2    0    0  0.19327349438E+02  0.25410537556E+02  0.31778477169E+02  0.46142318006E+02  0.10000002232E+02 0.  0.
         12    1    1    2    0    0 -0.19327349438E+02 -0.25410537556E+02 -0.31778477169E+02  0.45045681994E+02  0.00000000000E+00 0. -1.
         11    1    3    3    0    0  0.21728739534E+01  0.47105898859E+01  0.30211180357E+01  0.60031818844E+01  0.51100000000E-03 0. -1.
        -11    1    3    3    0    0  0.12852638088E+02  0.11101939311E+02  0.13960633996E+02  0.21985055472E+02  0.51100000000E-03 0.  1.
        -12    1    3    3    0    0  0.43018373964E+01  0.95980083586E+01  0.14796725137E+02  0.18154080649E+02  0.00000000000E+00 0.  1.
</event>
<event>
 7    1  0.2097247E-008  0.4614232E+02  0.7816164E-02  0.1320468E+00
        -11   -1    0    0    0    0  0.00000000000E+00  0.00000000000E+00  0.45593999997E+02  0.45594000000E+02  0.51100000000E-03 0.  1.
         11   -1    0    0    0    0 -0.00000000000E+00 -0.00000000000E+00 -0.45593999997E+02  0.45594000000E+02  0.51100000000E-03 0. -1.
    9900012    2    1    2    0    0 -0.33159080572E+02  0.22413760331E+02  0.20669112450E+02  0.46142317787E+02  0.10000000235E+02 0.  0.
         12    1    1    2    0    0  0.33159080572E+02 -0.22413760331E+02 -0.20669112450E+02  0.45045682213E+02  0.00000000000E+00 0. -1.
         11    1    3    3    0    0 -0.15215035321E+02  0.56910039909E+01  0.96922434105E+01  0.18916247219E+02  0.51100000000E-03 0. -1.
        -11    1    3    3    0    0 -0.16814296328E+02  0.13808731112E+02  0.10045824855E+02  0.23964978890E+02  0.51100000000E-03 0.  1.
        -12    1    3    3    0    0 -0.11297489230E+01  0.29140252282E+01  0.93104418467E+00  0.32610916782E+01  0.00000000000E+00 0.  1.
</event>
<event>
 7    1  0.2097247E-008  0.4614232E+02  0.7816164E-02  0.1320468E+00
        -11   -1    0    0    0    0  0.00000000000E+00  0.00000000000E+00  0.45593999997E+02  0.45594000000E+02  0.51100000000E-03 0.  1.
         11   -1    0    0    0    0 -0.00000000000E+00 -0.00000000000E+00 -0.45593999997E+02  0.45594000000E+02  0.51100000000E-03 0. -1.
    9900012    2    1    2    0    0  0.17512706162E+02 -0.22043495789E+02  0.35163943595E+02  0.46142317489E+02  0.99999975187E+01 0.  0.
         12    1    1    2    0    0 -0.17512706162E+02  0.22043495789E+02 -0.35163943595E+02  0.45045682511E+02  0.00000000000E+00 0. -1.
         11    1    3    3    0    0  0.40999821653E+01 -0.31954017255E+01  0.44076949508E+01  0.68152931693E+01  0.51100000000E-03 0.  1.
        -11    1    3    3    0    0  0.30937449209E+01 -0.12283443871E+01  0.15030538800E+01  0.36522950040E+01  0.51100000000E-03 0. -1.
        -12    1    3    3    0    0  0.10318979076E+02 -0.17619749676E+02  0.29253194764E+02  0.35674729316E+02  0.00000000000E+00 0.  1.
</event>
<event>
 7    1  0.2097247E-008  0.4614232E+02  0.7816164E-02  0.1320468E+00
        -11   -1    0    0    0    0  0.00000000000E+00  0.00000000000E+00  0.45593999997E+02  0.45594000000E+02  0.51100000000E-03 0. -1.
         11   -1    0    0    0    0 -0.00000000000E+00 -0.00000000000E+00 -0.45593999997E+02  0.45594000000E+02  0.51100000000E-03 0.  1.
    9900012    2    1    2    0    0  0.21064545405E+02  0.33945923279E+02  0.20810402187E+02  0.46142316304E+02  0.99999867172E+01 0.  0.
         12    1    1    2    0    0 -0.21064545405E+02 -0.33945923279E+02 -0.20810402187E+02  0.45045683696E+02  0.00000000000E+00 0. -1.
         11    1    3    3    0    0  0.27933903553E+01  0.23549970124E+01  0.82530664489E+00  0.37456871098E+01  0.51100000000E-03 0. -1.
        -11    1    3    3    0    0  0.58327498061E+01  0.79474768639E+01  0.95196043492E+01  0.13704241169E+02  0.51100000000E-03 0.  1.
        -12    1    3    3    0    0  0.12438405244E+02  0.23643449403E+02  0.10465491193E+02  0.28692388025E+02  0.00000000000E+00 0.  1.
</event>
<event>
 7    1  0.2097247E-008  0.4614232E+02  0.7816164E-02  0.1320468E+00
        -11   -1    0    0    0    0  0.00000000000E+00  0.00000000000E+00  0.45593999997E+02  0.45594000000E+02  0.51100000000E-03 0.  1.
         11   -1    0    0    0    0 -0.00000000000E+00 -0.00000000000E+00 -0.45593999997E+02  0.45594000000E+02  0.51100000000E-03 0. -1.
    9900012    2    1    2    0    0 -0.43004256272E+02  0.68202388709E+01  0.11542604562E+02  0.46142318344E+02  0.10000005316E+02 0.  0.
         12    1    1    2    0    0  0.43004256272E+02 -0.68202388709E+01 -0.11542604562E+02  0.45045681656E+02  0.00000000000E+00 0. -1.
         11    1    3    3    0    0 -0.36964419525E+01  0.30491265577E+01  0.23694062386E+01  0.53455534847E+01  0.51100000000E-03 0. -1.
        -11    1    3    3    0    0 -0.11947421850E+02  0.32597864957E+01  0.26351423649E+01  0.12661400886E+02  0.51100000000E-03 0.  1.
        -12    1    3    3    0    0 -0.27360392470E+02  0.51132581744E+00  0.65380559587E+01  0.28135363973E+02  0.00000000000E+00 0.  1.
</event>
<event>
 7    1  0.2097247E-008  0.4614231E+02  0.7816164E-02  0.1320468E+00
        -11   -1    0    0    0    0  0.00000000000E+00  0.00000000000E+00  0.45593999997E+02  0.45594000000E+02  0.51100000000E-03 0.  1.
         11   -1    0    0    0    0 -0.00000000000E+00 -0.00000000000E+00 -0.45593999997E+02  0.45594000000E+02  0.51100000000E-03 0. -1.
    9900012    2    1    2    0    0  0.42891455180E+02 -0.13649598867E+02  0.17679332619E+01  0.46142311363E+02  0.99999416603E+01 0.  0.
         12    1    1    2    0    0 -0.42891455180E+02  0.13649598867E+02 -0.17679332619E+01  0.45045688637E+02  0.00000000000E+00 0. -1.
         11    1    3    3    0    0  0.25538493136E+02 -0.46899372589E+01 -0.70386117792E-01  0.25965652267E+02  0.51100000000E-03 0. -1.
        -11    1    3    3    0    0  0.14344330556E+02 -0.52433989122E+01  0.86480507949E+00  0.15297089244E+02  0.51100000000E-03 0.  1.
         12    1    3    3    0    0  0.30086314885E+01 -0.37162626958E+01  0.97351430021E+00  0.48795698530E+01  0.00000000000E+00 0. -1.
</event>
<event>
 7    1  0.2097247E-008  0.4614232E+02  0.7816164E-02  0.1320468E+00
        -11   -1    0    0    0    0  0.00000000000E+00  0.00000000000E+00  0.45593999997E+02  0.45594000000E+02  0.51100000000E-03 0.  1.
         11   -1    0    0    0    0 -0.00000000000E+00 -0.00000000000E+00 -0.45593999997E+02  0.45594000000E+02  0.51100000000E-03 0. -1.
    9900012    2    1    2    0    0 -0.12697993666E+02 -0.24928355009E+02  0.35305119571E+02  0.46142318803E+02  0.10000009502E+02 0.  0.
         12    1    1    2    0    0  0.12697993666E+02  0.24928355009E+02 -0.35305119571E+02  0.45045681197E+02  0.00000000000E+00 0. -1.
         11    1    3    3    0    0 -0.25820186657E+01 -0.22844714176E+01  0.39868282467E+01  0.52707143518E+01  0.51100000000E-03 0. -1.
        -11    1    3    3    0    0 -0.22287111392E+01 -0.52417092018E+01  0.13882611243E+02  0.15005651065E+02  0.51100000000E-03 0.  1.
        -12    1    3    3    0    0 -0.78872638607E+01 -0.17402174390E+02  0.17435680081E+02  0.25865953386E+02  0.00000000000E+00 0.  1.
</event>
<event>
 7    1  0.2097247E-008  0.4614232E+02  0.7816164E-02  0.1320468E+00
        -11   -1    0    0    0    0  0.00000000000E+00  0.00000000000E+00  0.45593999997E+02  0.45594000000E+02  0.51100000000E-03 0.  1.
         11   -1    0    0    0    0 -0.00000000000E+00 -0.00000000000E+00 -0.45593999997E+02  0.45594000000E+02  0.51100000000E-03 0. -1.
    9900012    2    1    2    0    0  0.27850783952E+02  0.34598061305E+02 -0.75114209737E+01  0.46142318100E+02  0.10000003089E+02 0.  0.
         12    1    1    2    0    0 -0.27850783952E+02 -0.34598061305E+02  0.75114209737E+01  0.45045681900E+02  0.00000000000E+00 0. -1.
         11    1    3    3    0    0 -0.43074551485E-01  0.26957657825E+01 -0.10735411460E+01  0.29019819821E+01  0.51100000000E-03 0. -1.
        -11    1    3    3    0    0  0.11846316554E+02  0.14179856458E+02  0.12606272428E-01  0.18477112984E+02  0.51100000000E-03 0.  1.
         12    1    3    3    0    0  0.16047541950E+02  0.17722439065E+02 -0.64504861001E+01  0.24763223134E+02  0.00000000000E+00 0. -1.
</event>
<event>
 7    1  0.2097247E-008  0.4614232E+02  0.7816164E-02  0.1320468E+00
        -11   -1    0    0    0    0  0.00000000000E+00  0.00000000000E+00  0.45593999997E+02  0.45594000000E+02  0.51100000000E-03 0. -1.
         11   -1    0    0    0    0 -0.00000000000E+00 -0.00000000000E+00 -0.45593999997E+02  0.45594000000E+02  0.51100000000E-03 0.  1.
    9900012    2    1    2    0    0  0.10714464345E+02  0.21819275198E+02 -0.37924042259E+02  0.46142317658E+02  0.99999990587E+01 0.  0.
         12    1    1    2    0    0 -0.10714464345E+02 -0.21819275198E+02  0.37924042259E+02  0.45045682342E+02  0.00000000000E+00 0. -1.
         11    1    3    3    0    0  0.31716882966E+01  0.13655498963E+01 -0.64632168937E+01  0.73278582169E+01  0.51100000000E-03 0. -1.
        -11    1    3    3    0    0  0.79968810193E+01  0.20126801374E+02 -0.31529080600E+02  0.38250766833E+02  0.51100000000E-03 0.  1.
        -12    1    3    3    0    0 -0.45410497092E+00  0.32692392813E+00  0.68255234208E-01  0.56369260807E+00  0.00000000000E+00 0.  1.
</event>
<event>
 7    1  0.2097247E-008  0.4614232E+02  0.7816164E-02  0.1320468E+00
        -11   -1    0    0    0    0  0.00000000000E+00  0.00000000000E+00  0.45593999997E+02  0.45594000000E+02  0.51100000000E-03 0. -1.
         11   -1    0    0    0    0 -0.00000000000E+00 -0.00000000000E+00 -0.45593999997E+02  0.45594000000E+02  0.51100000000E-03 0.  1.
    9900012    2    1    2    0    0  0.16978875376E+01 -0.44845633969E+02 -0.38858558733E+01  0.46142316699E+02  0.99999903147E+01 0.  0.
         12    1    1    2    0    0 -0.16978875376E+01  0.44845633969E+02  0.38858558733E+01  0.45045683301E+02  0.00000000000E+00 0. -1.
         11    1    3    3    0    0  0.59036063843E+00 -0.13950302070E+01 -0.10427395192E+01  0.18390054182E+01  0.51100000000E-03 0. -1.
        -11    1    3    3    0    0 -0.24263920942E+01 -0.34246794099E+02 -0.16476287105E+01  0.34372153923E+02  0.51100000000E-03 0.  1.
         12    1    3    3    0    0  0.35339189934E+01 -0.92038096632E+01 -0.11954876435E+01  0.99311573583E+01  0.00000000000E+00 0. -1.
</event>
<event>
 7    1  0.2097247E-008  0.4614231E+02  0.7816164E-02  0.1320468E+00
        -11   -1    0    0    0    0  0.00000000000E+00  0.00000000000E+00  0.45593999997E+02  0.45594000000E+02  0.51100000000E-03 0.  1.
         11   -1    0    0    0    0 -0.00000000000E+00 -0.00000000000E+00 -0.45593999997E+02  0.45594000000E+02  0.51100000000E-03 0. -1.
    9900012    2    1    2    0    0 -0.35662904352E+02  0.48547503998E+01  0.27086942524E+02  0.46142314262E+02  0.99999680947E+01 0.  0.
         12    1    1    2    0    0  0.35662904352E+02 -0.48547503998E+01 -0.27086942524E+02  0.45045685738E+02  0.00000000000E+00 0. -1.
         11    1    3    3    0    0 -0.98659490575E+01  0.19235294527E+01  0.12836507625E+02  0.16303767804E+02  0.51100000000E-03 0. -1.
        -11    1    3    3    0    0 -0.20920983376E+02  0.12356950893E+01  0.12420149459E+02  0.24361334130E+02  0.51100000000E-03 0.  1.
         12    1    3    3    0    0 -0.48759719185E+01  0.16955258577E+01  0.18302854408E+01  0.54772123274E+01  0.00000000000E+00 0. -1.
</event>
<event>
 7    1  0.2097247E-008  0.4614232E+02  0.7816164E-02  0.1320468E+00
        -11   -1    0    0    0    0  0.00000000000E+00  0.00000000000E+00  0.45593999997E+02  0.45594000000E+02  0.51100000000E-03 0.  1.
         11   -1    0    0    0    0 -0.00000000000E+00 -0.00000000000E+00 -0.45593999997E+02  0.45594000000E+02  0.51100000000E-03 0. -1.
    9900012    2    1    2    0    0 -0.18466188135E+02  0.15380676557E+02  0.38099188962E+02  0.46142317463E+02  0.99999972861E+01 0.  0.
         12    1    1    2    0    0  0.18466188135E+02 -0.15380676557E+02 -0.38099188962E+02  0.45045682537E+02  0.00000000000E+00 0. -1.
         11    1    3    3    0    0 -0.46597459503E+01  0.39628274338E+01  0.49540733446E+01  0.78714723246E+01  0.51100000000E-03 0. -1.
        -11    1    3    3    0    0 -0.54700492296E+01  0.81988072736E+01  0.20943880490E+02  0.23147095056E+02  0.51100000000E-03 0.  1.
         12    1    3    3    0    0 -0.83363929555E+01  0.32190418498E+01  0.12201235128E+02  0.15123750083E+02  0.00000000000E+00 0. -1.
</event>
<event>
 7    1  0.2097247E-008  0.4614232E+02  0.7816164E-02  0.1320468E+00
        -11   -1    0    0    0    0  0.00000000000E+00  0.00000000000E+00  0.45593999997E+02  0.45594000000E+02  0.51100000000E-03 0.  1.
         11   -1    0    0    0    0 -0.00000000000E+00 -0.00000000000E+00 -0.45593999997E+02  0.45594000000E+02  0.51100000000E-03 0. -1.
    9900012    2    1    2    0    0  0.22157718192E+01  0.37348960713E+02  0.25085036349E+02  0.46142316969E+02  0.99999927770E+01 0.  0.
         12    1    1    2    0    0 -0.22157718192E+01 -0.37348960713E+02 -0.25085036349E+02  0.45045683031E+02  0.00000000000E+00 0. -1.
         11    1    3    3    0    0 -0.12077726352E+01  0.34799376410E+01  0.13947106786E+01  0.39387686987E+01  0.51100000000E-03 0. -1.
        -11    1    3    3    0    0 -0.37704565267E+00  0.31895994145E+01  0.54031955257E+01  0.62857163474E+01  0.51100000000E-03 0.  1.
        -12    1    3    3    0    0  0.38005901071E+01  0.30679423657E+02  0.18287130145E+02  0.35917831923E+02  0.00000000000E+00 0.  1.
</event>
<event>
 7    1  0.2097247E-008  0.4614231E+02  0.7816164E-02  0.1320468E+00
        -11   -1    0    0    0    0  0.00000000000E+00  0.00000000000E+00  0.45593999997E+02  0.45594000000E+02  0.51100000000E-03 0. -1.
         11   -1    0    0    0    0 -0.00000000000E+00 -0.00000000000E+00 -0.45593999997E+02  0.45594000000E+02  0.51100000000E-03 0.  1.
    9900012    2    1    2    0    0 -0.20870900177E+02 -0.27733552124E+02 -0.28711833569E+02  0.46142314585E+02  0.99999710394E+01 0.  0.
         12    1    1    2    0    0  0.20870900177E+02  0.27733552124E+02  0.28711833569E+02  0.45045685415E+02  0.00000000000E+00 0. -1.
         11    1    3    3    0    0 -0.14975354016E+02 -0.20843362333E+02 -0.23887027847E+02  0.35061333130E+02  0.51100000000E-03 0.  1.
        -11    1    3    3    0    0  0.49174053663E-01  0.39658125195E+00 -0.71283638518E+00  0.81720912263E+00  0.51100000000E-03 0. -1.
        -12    1    3    3    0    0 -0.59447202149E+01 -0.72867710431E+01 -0.41119693366E+01  0.10263772332E+02  0.00000000000E+00 0.  1.
</event>
<event>
 7    1  0.2097247E-008  0.4614232E+02  0.7816164E-02  0.1320468E+00
        -11   -1    0    0    0    0  0.00000000000E+00  0.00000000000E+00  0.45593999997E+02  0.45594000000E+02  0.51100000000E-03 0. -1.
         11   -1    0    0    0    0 -0.00000000000E+00 -0.00000000000E+00 -0.45593999997E+02  0.45594000000E+02  0.51100000000E-03 0.  1.
    9900012    2    1    2    0    0  0.73979372028E+01 -0.17254939411E+02 -0.40946930380E+02  0.46142317449E+02  0.99999971571E+01 0.  0.
         12    1    1    2    0    0 -0.73979372028E+01  0.17254939411E+02  0.40946930380E+02  0.45045682551E+02  0.00000000000E+00 0. -1.
         11    1    3    3    0    0 -0.18895139020E+01 -0.10301547521E+01 -0.35875676093E+01  0.41835538973E+01  0.51100000000E-03 0. -1.
        -11    1    3    3    0    0  0.17305784152E+00 -0.11345492828E+01 -0.47764267440E+01  0.49123725219E+01  0.51100000000E-03 0.  1.
         12    1    3    3    0    0  0.91143932633E+01 -0.15090235376E+02 -0.32582936027E+02  0.37046391030E+02  0.00000000000E+00 0. -1.
</event>
<event>
 7    1  0.2097247E-008  0.4614232E+02  0.7816164E-02  0.1320468E+00
        -11   -1    0    0    0    0  0.00000000000E+00  0.00000000000E+00  0.45593999997E+02  0.45594000000E+02  0.51100000000E-03 0.  1.
         11   -1    0    0    0    0 -0.00000000000E+00 -0.00000000000E+00 -0.45593999997E+02  0.45594000000E+02  0.51100000000E-03 0. -1.
    9900012    2    1    2    0    0  0.99828028309E+01 -0.40653241933E+01  0.43737059648E+02  0.46142316524E+02  0.99999887194E+01 0.  0.
         12    1    1    2    0    0 -0.99828028309E+01  0.40653241933E+01 -0.43737059648E+02  0.45045683476E+02  0.00000000000E+00 0. -1.
         11    1    3    3    0    0  0.87644055147E+00  0.12538364078E+01  0.10628020626E+01  0.18627405249E+01  0.51100000000E-03 0. -1.
        -11    1    3    3    0    0  0.35841433873E+01 -0.47740107090E+01  0.17156083084E+02  0.18165033694E+02  0.51100000000E-03 0.  1.
         12    1    3    3    0    0  0.55222188921E+01 -0.54514989214E+00  0.25518174502E+02  0.26114542305E+02  0.00000000000E+00 0. -1.
</event>
<event>
 7    1  0.2097247E-008  0.4614232E+02  0.7816164E-02  0.1320468E+00
        -11   -1    0    0    0    0  0.00000000000E+00  0.00000000000E+00  0.45593999997E+02  0.45594000000E+02  0.51100000000E-03 0. -1.
         11   -1    0    0    0    0 -0.00000000000E+00 -0.00000000000E+00 -0.45593999997E+02  0.45594000000E+02  0.51100000000E-03 0.  1.
    9900012    2    1    2    0    0  0.42811646937E+01  0.16848196175E+01 -0.44810116305E+02  0.46142317504E+02  0.99999976550E+01 0.  0.
         12    1    1    2    0    0 -0.42811646937E+01 -0.16848196175E+01  0.44810116305E+02  0.45045682496E+02  0.00000000000E+00 0. -1.
         11    1    3    3    0    0  0.25015871598E+01 -0.31094881657E+01 -0.11142003588E+02  0.11835163674E+02  0.51100000000E-03 0. -1.
        -11    1    3    3    0    0  0.12935356715E+01 -0.39661224388E+00 -0.58185866236E+01  0.59738167333E+01  0.51100000000E-03 0.  1.
        -12    1    3    3    0    0  0.48604186232E+00  0.51909200272E+01 -0.27849526093E+02  0.28333337096E+02  0.00000000000E+00 0.  1.
</event>
<event>
 7    1  0.2097247E-008  0.4614232E+02  0.7816164E-02  0.1320468E+00
        -11   -1    0    0    0    0  0.00000000000E+00  0.00000000000E+00  0.45593999997E+02  0.45594000000E+02  0.51100000000E-03 0.  1.
         11   -1    0    0    0    0 -0.00000000000E+00 -0.00000000000E+00 -0.45593999997E+02  0.45594000000E+02  0.51100000000E-03 0. -1.
    9900012    2    1    2    0    0 -0.19313574735E+02 -0.16282994391E+02  0.37295621266E+02  0.46142318287E+02  0.10000004798E+02 0.  0.
         12    1    1    2    0    0  0.19313574735E+02  0.16282994391E+02 -0.37295621266E+02  0.45045681713E+02  0.00000000000E+00 0. -1.
         11    1    3    3    0    0 -0.12362369825E+02 -0.10668938127E+02  0.24769805739E+02  0.29668126079E+02  0.51100000000E-03 0.  1.
        -11    1    3    3    0    0 -0.66376385517E+01 -0.49436647893E+01  0.13128647851E+02  0.15519647604E+02  0.51100000000E-03 0. -1.
         12    1    3    3    0    0 -0.31356635815E+00 -0.67039147474E+00 -0.60283232429E+00  0.95454460429E+00  0.00000000000E+00 0. -1.
</event>
<event>
 7    1  0.2097247E-008  0.4614232E+02  0.7816164E-02  0.1320468E+00
        -11   -1    0    0    0    0  0.00000000000E+00  0.00000000000E+00  0.45593999997E+02  0.45594000000E+02  0.51100000000E-03 0. -1.
         11   -1    0    0    0    0 -0.00000000000E+00 -0.00000000000E+00 -0.45593999997E+02  0.45594000000E+02  0.51100000000E-03 0.  1.
    9900012    2    1    2    0    0  0.38096442026E+02  0.24019656605E+02 -0.91145280930E+00  0.46142317136E+02  0.99999943015E+01 0.  0.
         12    1    1    2    0    0 -0.38096442026E+02 -0.24019656605E+02  0.91145280930E+00  0.45045682864E+02  0.00000000000E+00 0. -1.
         11    1    3    3    0    0  0.70896558606E+01  0.63999703213E+01 -0.33051968393E+01  0.10106788152E+02  0.51100000000E-03 0. -1.
        -11    1    3    3    0    0  0.14860769325E+02  0.10730025661E+02  0.23601853463E+01  0.18480973750E+02  0.51100000000E-03 0.  1.
         12    1    3    3    0    0  0.16146016840E+02  0.68896606225E+01  0.33558683764E-01  0.17554555234E+02  0.00000000000E+00 0. -1.
</event>
<event>
 7    1  0.2097247E-008  0.4614232E+02  0.7816164E-02  0.1320468E+00
        -11   -1    0    0    0    0  0.00000000000E+00  0.00000000000E+00  0.45593999997E+02  0.45594000000E+02  0.51100000000E-03 0. -1.
         11   -1    0    0    0    0 -0.00000000000E+00 -0.00000000000E+00 -0.45593999997E+02  0.45594000000E+02  0.51100000000E-03 0.  1.
    9900012    2    1    2    0    0 -0.21339684320E+02  0.28567936360E+02 -0.27524611913E+02  0.46142319012E+02  0.10000011402E+02 0.  0.
         12    1    1    2    0    0  0.21339684320E+02 -0.28567936360E+02  0.27524611913E+02  0.45045680988E+02  0.00000000000E+00 0. -1.
         11    1    3    3    0    0 -0.44181770572E+01  0.34709359618E+01 -0.25696902764E+01  0.61782678266E+01  0.51100000000E-03 0.  1.
        -11    1    3    3    0    0 -0.11711454067E+02  0.10563664273E+02 -0.12281154296E+02  0.19989394947E+02  0.51100000000E-03 0. -1.
        -12    1    3    3    0    0 -0.52100531964E+01  0.14533336125E+02 -0.12673767341E+02  0.19974656238E+02  0.00000000000E+00 0.  1.
</event>
<event>
 7    1  0.2097247E-008  0.4614232E+02  0.7816164E-02  0.1320468E+00
        -11   -1    0    0    0    0  0.00000000000E+00  0.00000000000E+00  0.45593999997E+02  0.45594000000E+02  0.51100000000E-03 0.  1.
         11   -1    0    0    0    0 -0.00000000000E+00 -0.00000000000E+00 -0.45593999997E+02  0.45594000000E+02  0.51100000000E-03 0. -1.
    9900012    2    1    2    0    0  0.17393651290E+02 -0.32105334169E+02  0.26378437691E+02  0.46142316940E+02  0.99999925152E+01 0.  0.
         12    1    1    2    0    0 -0.17393651290E+02  0.32105334169E+02 -0.26378437691E+02  0.45045683060E+02  0.00000000000E+00 0. -1.
         11    1    3    3    0    0  0.25017652460E+01 -0.33294828702E+01  0.51591751506E+01  0.66303373990E+01  0.51100000000E-03 0. -1.
        -11    1    3    3    0    0  0.56515461059E+01 -0.52693476785E+01  0.75033408389E+01  0.10770613833E+02  0.51100000000E-03 0.  1.
         12    1    3    3    0    0  0.92403399378E+01 -0.23506503621E+02  0.13715921701E+02  0.28741365708E+02  0.00000000000E+00 0. -1.
</event>
<event>
 7    1  0.2097247E-008  0.4614232E+02  0.7816164E-02  0.1320468E+00
        -11   -1    0    0    0    0  0.00000000000E+00  0.00000000000E+00  0.45593999997E+02  0.45594000000E+02  0.51100000000E-03 0.  1.
         11   -1    0    0    0    0 -0.00000000000E+00 -0.00000000000E+00 -0.45593999997E+02  0.45594000000E+02  0.51100000000E-03 0. -1.
    9900012    2    1    2    0    0 -0.34798720966E+02 -0.46926775780E+01  0.28215975762E+02  0.46142317721E+02  0.99999996371E+01 0.  0.
         12    1    1    2    0    0  0.34798720966E+02  0.46926775780E+01 -0.28215975762E+02  0.45045682279E+02  0.00000000000E+00 0. -1.
         11    1    3    3    0    0 -0.28251852807E+02 -0.51091559406E+01  0.20859052386E+02  0.35487613729E+02  0.51100000000E-03 0. -1.
        -11    1    3    3    0    0 -0.13981592492E+01 -0.14864230377E+01  0.10544584941E+01  0.22969949304E+01  0.51100000000E-03 0.  1.
         12    1    3    3    0    0 -0.51487089098E+01  0.19029014003E+01  0.63024648817E+01  0.83577090618E+01  0.00000000000E+00 0. -1.
</event>
<event>
 7    1  0.2097247E-008  0.4614232E+02  0.7816164E-02  0.1320468E+00
        -11   -1    0    0    0    0  0.00000000000E+00  0.00000000000E+00  0.45593999997E+02  0.45594000000E+02  0.51100000000E-03 0.  1.
         11   -1    0    0    0    0 -0.00000000000E+00 -0.00000000000E+00 -0.45593999997E+02  0.45594000000E+02  0.51100000000E-03 0. -1.
    9900012    2    1    2    0    0 -0.16414953332E+02  0.21920529367E+01  0.41891019928E+02  0.46142319412E+02  0.10000015058E+02 0.  0.
         12    1    1    2    0    0  0.16414953332E+02 -0.21920529367E+01 -0.41891019928E+02  0.45045680588E+02  0.00000000000E+00 0. -1.
         11    1    3    3    0    0 -0.10464395234E+02  0.10344681219E+01  0.14476278156E+02  0.17892353714E+02  0.51100000000E-03 0. -1.
        -11    1    3    3    0    0 -0.35680225620E+01  0.11481734303E+01  0.10118907285E+02  0.10790800347E+02  0.51100000000E-03 0.  1.
        -12    1    3    3    0    0 -0.23825355354E+01  0.94113845384E-02  0.17295834487E+02  0.17459165351E+02  0.00000000000E+00 0.  1.
</event>
<event>
 7    1  0.2097247E-008  0.4614232E+02  0.7816164E-02  0.1320468E+00
        -11   -1    0    0    0    0  0.00000000000E+00  0.00000000000E+00  0.45593999997E+02  0.45594000000E+02  0.51100000000E-03 0.  1.
         11   -1    0    0    0    0 -0.00000000000E+00 -0.00000000000E+00 -0.45593999997E+02  0.45594000000E+02  0.51100000000E-03 0. -1.
    9900012    2    1    2    0    0 -0.23045693544E+02  0.43859088719E+01  0.38454821023E+02  0.46142318215E+02  0.10000004140E+02 0.  0.
         12    1    1    2    0    0  0.23045693544E+02 -0.43859088719E+01 -0.38454821023E+02  0.45045681785E+02  0.00000000000E+00 0. -1.
         11    1    3    3    0    0 -0.15061264277E+02 -0.41717596655E+00  0.20486214217E+02  0.25430310470E+02  0.51100000000E-03 0. -1.
        -11    1    3    3    0    0 -0.78914646187E+01  0.32749558763E+01  0.13385213982E+02  0.15879688392E+02  0.51100000000E-03 0.  1.
         12    1    3    3    0    0 -0.92964648379E-01  0.15281289622E+01  0.45833928239E+01  0.48323193530E+01  0.00000000000E+00 0. -1.
</event>
<event>
 7    1  0.2097247E-008  0.4614232E+02  0.7816164E-02  0.1320468E+00
        -11   -1    0    0    0    0  0.00000000000E+00  0.00000000000E+00  0.45593999997E+02  0.45594000000E+02  0.51100000000E-03 0.  1.
         11   -1    0    0    0    0 -0.00000000000E+00 -0.00000000000E+00 -0.45593999997E+02  0.45594000000E+02  0.51100000000E-03 0. -1.
    9900012    2    1    2    0    0  0.23559072317E+01 -0.19524273196E+02  0.40526115194E+02  0.46142317017E+02  0.99999932115E+01 0.  0.
         12    1    1    2    0    0 -0.23559072317E+01  0.19524273196E+02 -0.40526115194E+02  0.45045682983E+02  0.00000000000E+00 0. -1.
         11    1    3    3    0    0 -0.18397861566E+01 -0.76368199666E+01  0.14899995175E+02  0.16843862051E+02  0.51100000000E-03 0. -1.
        -11    1    3    3    0    0  0.14882037109E+01 -0.89102095043E+01  0.22359009725E+02  0.24114972524E+02  0.51100000000E-03 0.  1.
        -12    1    3    3    0    0  0.27074896774E+01 -0.29772437250E+01  0.32671102938E+01  0.51834824417E+01  0.00000000000E+00 0.  1.
</event>
<event>
 7    1  0.2097247E-008  0.4614232E+02  0.7816164E-02  0.1320468E+00
        -11   -1    0    0    0    0  0.00000000000E+00  0.00000000000E+00  0.45593999997E+02  0.45594000000E+02  0.51100000000E-03 0.  1.
         11   -1    0    0    0    0 -0.00000000000E+00 -0.00000000000E+00 -0.45593999997E+02  0.45594000000E+02  0.51100000000E-03 0. -1.
    9900012    2    1    2    0    0 -0.23795883835E+02  0.34662670067E+02  0.16166903701E+02  0.46142316978E+02  0.99999928561E+01 0.  0.
         12    1    1    2    0    0  0.23795883835E+02 -0.34662670067E+02 -0.16166903701E+02  0.45045683022E+02  0.00000000000E+00 0. -1.
         11    1    3    3    0    0 -0.14343979401E+02  0.19774118856E+02  0.98659489156E+01  0.26345824524E+02  0.51100000000E-03 0. -1.
        -11    1    3    3    0    0 -0.59685294950E+01  0.13730292474E+02  0.41257274588E+01  0.15529517156E+02  0.51100000000E-03 0.  1.
         12    1    3    3    0    0 -0.34833749398E+01  0.11582587364E+01  0.21752273267E+01  0.42669752981E+01  0.00000000000E+00 0. -1.
</event>
<event>
 7    1  0.2097247E-008  0.4614232E+02  0.7816164E-02  0.1320468E+00
        -11   -1    0    0    0    0  0.00000000000E+00  0.00000000000E+00  0.45593999997E+02  0.45594000000E+02  0.51100000000E-03 0.  1.
         11   -1    0    0    0    0 -0.00000000000E+00 -0.00000000000E+00 -0.45593999997E+02  0.45594000000E+02  0.51100000000E-03 0. -1.
    9900012    2    1    2    0    0  0.40175095883E+02  0.18553137314E+02  0.84176133359E+01  0.46142318213E+02  0.10000004120E+02 0.  0.
         12    1    1    2    0    0 -0.40175095883E+02 -0.18553137314E+02 -0.84176133359E+01  0.45045681787E+02  0.00000000000E+00 0. -1.
         11    1    3    3    0    0  0.23994067924E+01  0.87478725432E+00  0.12230905978E+01  0.28316702787E+01  0.51100000000E-03 0. -1.
        -11    1    3    3    0    0  0.11708286503E+02  0.64022055000E+01 -0.19209519896E+01  0.13481923635E+02  0.51100000000E-03 0.  1.
        -12    1    3    3    0    0  0.26067402587E+02  0.11276144560E+02  0.91154747277E+01  0.29828724299E+02  0.00000000000E+00 0.  1.
</event>
<event>
 7    1  0.2097247E-008  0.4614232E+02  0.7816164E-02  0.1320468E+00
        -11   -1    0    0    0    0  0.00000000000E+00  0.00000000000E+00  0.45593999997E+02  0.45594000000E+02  0.51100000000E-03 0.  1.
         11   -1    0    0    0    0 -0.00000000000E+00 -0.00000000000E+00 -0.45593999997E+02  0.45594000000E+02  0.51100000000E-03 0. -1.
    9900012    2    1    2    0    0  0.26145904101E+02  0.27907316389E+02  0.23805186659E+02  0.46142317397E+02  0.99999966796E+01 0.  0.
         12    1    1    2    0    0 -0.26145904101E+02 -0.27907316389E+02 -0.23805186659E+02  0.45045682603E+02  0.00000000000E+00 0. -1.
         11    1    3    3    0    0  0.39582793018E+01  0.60777688387E+01  0.40305866275E+01  0.82977634282E+01  0.51100000000E-03 0. -1.
        -11    1    3    3    0    0  0.86956266890E+01  0.13872809053E+02  0.78435417013E+01  0.18154611018E+02  0.51100000000E-03 0.  1.
         12    1    3    3    0    0  0.13491998111E+02  0.79567384974E+01  0.11931058330E+02  0.19689942951E+02  0.00000000000E+00 0. -1.
</event>
<event>
 7    1  0.2097247E-008  0.4614232E+02  0.7816164E-02  0.1320468E+00
        -11   -1    0    0    0    0  0.00000000000E+00  0.00000000000E+00  0.45593999997E+02  0.45594000000E+02  0.51100000000E-03 0.  1.
         11   -1    0    0    0    0 -0.00000000000E+00 -0.00000000000E+00 -0.45593999997E+02  0.45594000000E+02  0.51100000000E-03 0. -1.
    9900012    2    1    2    0    0 -0.33462767897E+02 -0.30140001922E+02  0.96798594197E+00  0.46142317100E+02  0.99999939678E+01 0.  0.
         12    1    1    2    0    0  0.33462767897E+02  0.30140001922E+02 -0.96798594197E+00  0.45045682900E+02  0.00000000000E+00 0. -1.
         11    1    3    3    0    0 -0.54009115454E+01 -0.77057243980E+01  0.18515491064E+01  0.95904258703E+01  0.51100000000E-03 0. -1.
        -11    1    3    3    0    0 -0.12101557907E+02 -0.11863494393E+02 -0.32730427591E+01  0.17259867095E+02  0.51100000000E-03 0.  1.
         12    1    3    3    0    0 -0.15960298445E+02 -0.10570783130E+02  0.23894795946E+01  0.19292024134E+02  0.00000000000E+00 0. -1.
</event>
<event>
 7    1  0.2097247E-008  0.4614232E+02  0.7816164E-02  0.1320468E+00
        -11   -1    0    0    0    0  0.00000000000E+00  0.00000000000E+00  0.45593999997E+02  0.45594000000E+02  0.51100000000E-03 0.  1.
         11   -1    0    0    0    0 -0.00000000000E+00 -0.00000000000E+00 -0.45593999997E+02  0.45594000000E+02  0.51100000000E-03 0. -1.
    9900012    2    1    2    0    0 -0.22644938355E+01  0.44631273709E+02 -0.56599325921E+01  0.46142319162E+02  0.10000012777E+02 0.  0.
         12    1    1    2    0    0  0.22644938355E+01 -0.44631273709E+02  0.56599325921E+01  0.45045680838E+02  0.00000000000E+00 0. -1.
         11    1    3    3    0    0 -0.73473285123E+00  0.10391205990E+02 -0.12122842210E+01  0.10487450957E+02  0.51100000000E-03 0. -1.
        -11    1    3    3    0    0 -0.50735033311E+01  0.15743219858E+02 -0.22947177422E+01  0.16698956174E+02  0.51100000000E-03 0.  1.
         12    1    3    3    0    0  0.35437423468E+01  0.18496847861E+02 -0.21529306289E+01  0.18955912031E+02  0.00000000000E+00 0. -1.
</event>
<event>
 7    1  0.2161976E-008  0.4614232E+02  0.7816164E-02  0.1320468E+00
        -11   -1    0    0    0    0  0.00000000000E+00  0.00000000000E+00  0.45593999997E+02  0.45594000000E+02  0.51100000000E-03 0. -1.
         11   -1    0    0    0    0 -0.00000000000E+00 -0.00000000000E+00 -0.45593999997E+02  0.45594000000E+02  0.51100000000E-03 0.  1.
    9900012    2    1    2    0    0  0.26666347804E+02  0.28980355532E+02 -0.21866834019E+02  0.46142317166E+02  0.99999945741E+01 0.  0.
         12    1    1    2    0    0 -0.26666347804E+02 -0.28980355532E+02  0.21866834019E+02  0.45045682834E+02  0.00000000000E+00 0. -1.
         11    1    3    3    0    0  0.13651976779E+02  0.97303205830E+01 -0.62065916112E+01  0.17876727562E+02  0.51100000000E-03 0. -1.
        -11    1    3    3    0    0  0.13728454679E+01  0.50837213591E+00 -0.85218641589E+00  0.16939211481E+01  0.51100000000E-03 0.  1.
        -12    1    3    3    0    0  0.11641525557E+02  0.18741662813E+02 -0.14808055992E+02  0.26571668456E+02  0.00000000000E+00 0.  1.
</event>
<event>
 7    1  0.2097247E-008  0.4614232E+02  0.7816164E-02  0.1320468E+00
        -11   -1    0    0    0    0  0.00000000000E+00  0.00000000000E+00  0.45593999997E+02  0.45594000000E+02  0.51100000000E-03 0. -1.
         11   -1    0    0    0    0 -0.00000000000E+00 -0.00000000000E+00 -0.45593999997E+02  0.45594000000E+02  0.51100000000E-03 0.  1.
    9900012    2    1    2    0    0 -0.29518577550E+01 -0.13890947235E+02 -0.42748585601E+02  0.46142318185E+02  0.10000003868E+02 0.  0.
         12    1    1    2    0    0  0.29518577550E+01  0.13890947235E+02  0.42748585601E+02  0.45045681815E+02  0.00000000000E+00 0. -1.
         11    1    3    3    0    0  0.23274170102E+01 -0.51761447356E+01 -0.12486008582E+02  0.13715310964E+02  0.51100000000E-03 0. -1.
        -11    1    3    3    0    0 -0.41920092583E+01 -0.16854928578E+01 -0.12629902406E+02  0.13413734112E+02  0.51100000000E-03 0.  1.
         12    1    3    3    0    0 -0.10872655069E+01 -0.70293096412E+01 -0.17632674613E+02  0.19013273109E+02  0.00000000000E+00 0. -1.
</event>
<event>
 7    1  0.2097247E-008  0.4614232E+02  0.7816164E-02  0.1320468E+00
        -11   -1    0    0    0    0  0.00000000000E+00  0.00000000000E+00  0.45593999997E+02  0.45594000000E+02  0.51100000000E-03 0. -1.
         11   -1    0    0    0    0 -0.00000000000E+00 -0.00000000000E+00 -0.45593999997E+02  0.45594000000E+02  0.51100000000E-03 0.  1.
    9900012    2    1    2    0    0  0.82558294632E+01  0.14024421126E+01 -0.44260453391E+02  0.46142319870E+02  0.10000019228E+02 0.  0.
         12    1    1    2    0    0 -0.82558294632E+01 -0.14024421126E+01  0.44260453391E+02  0.45045680130E+02  0.00000000000E+00 0. -1.
         11    1    3    3    0    0  0.14130213183E+01  0.44430293220E+00 -0.56914337359E+01  0.58810247893E+01  0.51100000000E-03 0.  1.
        -11    1    3    3    0    0  0.87852200486E+01 -0.73106010880E+00 -0.26749160464E+02  0.28164376896E+02  0.51100000000E-03 0. -1.
         12    1    3    3    0    0 -0.19424119037E+01  0.16891992892E+01 -0.11819859192E+02  0.12096918184E+02  0.00000000000E+00 0. -1.
</event>
<event>
 7    1  0.2097247E-008  0.4614232E+02  0.7816164E-02  0.1320468E+00
        -11   -1    0    0    0    0  0.00000000000E+00  0.00000000000E+00  0.45593999997E+02  0.45594000000E+02  0.51100000000E-03 0.  1.
         11   -1    0    0    0    0 -0.00000000000E+00 -0.00000000000E+00 -0.45593999997E+02  0.45594000000E+02  0.51100000000E-03 0. -1.
    9900012    2    1    2    0    0 -0.32288309689E+02  0.21607289443E+02  0.22796998284E+02  0.46142322844E+02  0.10000046349E+02 0.  0.
         12    1    1    2    0    0  0.32288309689E+02 -0.21607289443E+02 -0.22796998284E+02  0.45045677156E+02  0.00000000000E+00 0. -1.
         11    1    3    3    0    0 -0.95141870706E+01  0.70907742159E+01  0.10756024582E+02  0.16015333267E+02  0.51100000000E-03 0. -1.
        -11    1    3    3    0    0 -0.70724571746E+01  0.15222789764E+01  0.30734221514E+01  0.78602104139E+01  0.51100000000E-03 0.  1.
         12    1    3    3    0    0 -0.15701665444E+02  0.12994236251E+02  0.89675515506E+01  0.22266779163E+02  0.00000000000E+00 0. -1.
</event>
<event>
 7    1  0.2097247E-008  0.4614232E+02  0.7816164E-02  0.1320468E+00
        -11   -1    0    0    0    0  0.00000000000E+00  0.00000000000E+00  0.45593999997E+02  0.45594000000E+02  0.51100000000E-03 0. -1.
         11   -1    0    0    0    0 -0.00000000000E+00 -0.00000000000E+00 -0.45593999997E+02  0.45594000000E+02  0.51100000000E-03 0.  1.
    9900012    2    1    2    0    0 -0.21501386553E+02 -0.20498422426E+02 -0.33861759890E+02  0.46142315096E+02  0.99999756992E+01 0.  0.
         12    1    1    2    0    0  0.21501386553E+02  0.20498422426E+02  0.33861759890E+02  0.45045684904E+02  0.00000000000E+00 0. -1.
         11    1    3    3    0    0 -0.10732884500E+02 -0.10164595028E+02 -0.16301865354E+02  0.22006013180E+02  0.51100000000E-03 0.  1.
        -11    1    3    3    0    0 -0.41628309928E+01 -0.88625181008E+01 -0.10313776589E+02  0.14221370425E+02  0.51100000000E-03 0. -1.
         12    1    3    3    0    0 -0.66056710598E+01 -0.14713092966E+01 -0.72461179462E+01  0.99149314918E+01  0.00000000000E+00 0. -1.
</event>
<event>
 7    1  0.2097247E-008  0.4614232E+02  0.7816164E-02  0.1320468E+00
        -11   -1    0    0    0    0  0.00000000000E+00  0.00000000000E+00  0.45593999997E+02  0.45594000000E+02  0.51100000000E-03 0.  1.
         11   -1    0    0    0    0 -0.00000000000E+00 -0.00000000000E+00 -0.45593999997E+02  0.45594000000E+02  0.51100000000E-03 0. -1.
    9900012    2    1    2    0    0 -0.12772246282E+02 -0.38277871500E+02  0.20019681512E+02  0.46142319080E+02  0.10000012029E+02 0.  0.
         12    1    1    2    0    0  0.12772246282E+02  0.38277871500E+02 -0.20019681512E+02  0.45045680920E+02  0.00000000000E+00 0. -1.
         11    1    3    3    0    0 -0.47672389347E+01 -0.13752554647E+02  0.58466729049E+01  0.15685755025E+02  0.51100000000E-03 0. -1.
        -11    1    3    3    0    0 -0.92204521730E+01 -0.17043754232E+02  0.10248198092E+02  0.21921036950E+02  0.51100000000E-03 0.  1.
         12    1    3    3    0    0  0.12154448255E+01 -0.74815626208E+01  0.39248105154E+01  0.85355271047E+01  0.00000000000E+00 0. -1.
</event>
<event>
 7    1  0.2097247E-008  0.4614232E+02  0.7816164E-02  0.1320468E+00
        -11   -1    0    0    0    0  0.00000000000E+00  0.00000000000E+00  0.45593999997E+02  0.45594000000E+02  0.51100000000E-03 0.  1.
         11   -1    0    0    0    0 -0.00000000000E+00 -0.00000000000E+00 -0.45593999997E+02  0.45594000000E+02  0.51100000000E-03 0. -1.
    9900012    2    1    2    0    0  0.12686412428E+00  0.12723939673E+02  0.43211095718E+02  0.46142317317E+02  0.99999959458E+01 0.  0.
         12    1    1    2    0    0 -0.12686412428E+00 -0.12723939673E+02 -0.43211095718E+02  0.45045682683E+02  0.00000000000E+00 0. -1.
         11    1    3    3    0    0 -0.48199955799E+00  0.46419562153E+00  0.11271315816E+02  0.11291162988E+02  0.51100000000E-03 0. -1.
        -11    1    3    3    0    0  0.28933082547E+00  0.10623125758E+02  0.31317274540E+02  0.33071229159E+02  0.51100000000E-03 0.  1.
         12    1    3    3    0    0  0.31953285679E+00  0.16366182929E+01  0.62250536210E+00  0.17799251696E+01  0.00000000000E+00 0. -1.
</event>
<event>
 7    1  0.2097247E-008  0.4614232E+02  0.7816164E-02  0.1320468E+00
        -11   -1    0    0    0    0  0.00000000000E+00  0.00000000000E+00  0.45593999997E+02  0.45594000000E+02  0.51100000000E-03 0. -1.
         11   -1    0    0    0    0 -0.00000000000E+00 -0.00000000000E+00 -0.45593999997E+02  0.45594000000E+02  0.51100000000E-03 0.  1.
    9900012    2    1    2    0    0 -0.28070070551E+02 -0.71098408230E+00 -0.35223274902E+02  0.46142318143E+02  0.10000003483E+02 0.  0.
         12    1    1    2    0    0  0.28070070551E+02  0.71098408230E+00  0.35223274902E+02  0.45045681857E+02  0.00000000000E+00 0. -1.
         11    1    3    3    0    0 -0.11020939558E+02  0.15262104835E+01 -0.11301590230E+02  0.15859267612E+02  0.51100000000E-03 0. -1.
        -11    1    3    3    0    0 -0.14268503645E+02 -0.19376759783E+01 -0.14420497507E+02  0.20378801071E+02  0.51100000000E-03 0.  1.
         12    1    3    3    0    0 -0.27806273472E+01 -0.29951858752E+00 -0.95011871646E+01  0.99042494600E+01  0.00000000000E+00 0. -1.
</event>
<event>
 7    1  0.2097247E-008  0.4614232E+02  0.7816164E-02  0.1320468E+00
        -11   -1    0    0    0    0  0.00000000000E+00  0.00000000000E+00  0.45593999997E+02  0.45594000000E+02  0.51100000000E-03 0.  1.
         11   -1    0    0    0    0 -0.00000000000E+00 -0.00000000000E+00 -0.45593999997E+02  0.45594000000E+02  0.51100000000E-03 0. -1.
    9900012    2    1    2    0    0 -0.40371839952E+02  0.18903314599E+02 -0.64724642137E+01  0.46142317000E+02  0.99999930633E+01 0.  0.
         12    1    1    2    0    0  0.40371839952E+02 -0.18903314599E+02  0.64724642137E+01  0.45045683000E+02  0.00000000000E+00 0. -1.
         11    1    3    3    0    0 -0.96830375043E+01  0.35589896355E+01  0.97803420467E+00  0.10362633531E+02  0.51100000000E-03 0. -1.
        -11    1    3    3    0    0 -0.20504872007E+02  0.11072086929E+02 -0.17955486942E+01  0.23372310120E+02  0.51100000000E-03 0.  1.
         12    1    3    3    0    0 -0.10183930440E+02  0.42722380341E+01 -0.56549497241E+01  0.12407373349E+02  0.00000000000E+00 0. -1.
</event>
<event>
 7    1  0.2097247E-008  0.4614232E+02  0.7816164E-02  0.1320468E+00
        -11   -1    0    0    0    0  0.00000000000E+00  0.00000000000E+00  0.45593999997E+02  0.45594000000E+02  0.51100000000E-03 0. -1.
         11   -1    0    0    0    0 -0.00000000000E+00 -0.00000000000E+00 -0.45593999997E+02  0.45594000000E+02  0.51100000000E-03 0.  1.
    9900012    2    1    2    0    0  0.34374365129E+02 -0.10508686279E+02 -0.27149290706E+02  0.46142318174E+02  0.10000003769E+02 0.  0.
         12    1    1    2    0    0 -0.34374365129E+02  0.10508686279E+02  0.27149290706E+02  0.45045681826E+02  0.00000000000E+00 0. -1.
         11    1    3    3    0    0  0.12624470745E+02 -0.54677738583E+01 -0.12785251182E+02  0.18781279525E+02  0.51100000000E-03 0. -1.
        -11    1    3    3    0    0  0.93071899242E+01 -0.54843614809E+01 -0.59387625504E+01  0.12327648033E+02  0.51100000000E-03 0.  1.
         12    1    3    3    0    0  0.12442704460E+02  0.44344906063E+00 -0.84252769735E+01  0.15033390616E+02  0.00000000000E+00 0. -1.
</event>
<event>
 7    1  0.2097247E-008  0.4614232E+02  0.7816164E-02  0.1320468E+00
        -11   -1    0    0    0    0  0.00000000000E+00  0.00000000000E+00  0.45593999997E+02  0.45594000000E+02  0.51100000000E-03 0.  1.
         11   -1    0    0    0    0 -0.00000000000E+00 -0.00000000000E+00 -0.45593999997E+02  0.45594000000E+02  0.51100000000E-03 0. -1.
    9900012    2    1    2    0    0 -0.22086931645E+02  0.11882628759E+02  0.37417698193E+02  0.46142317035E+02  0.99999933802E+01 0.  0.
         12    1    1    2    0    0  0.22086931645E+02 -0.11882628759E+02 -0.37417698193E+02  0.45045682965E+02  0.00000000000E+00 0. -1.
         11    1    3    3    0    0 -0.24398086203E+01  0.18821875563E+01  0.88224867818E+01  0.93451361348E+01  0.51100000000E-03 0. -1.
        -11    1    3    3    0    0 -0.25280961763E+01  0.28987262251E+01  0.18762241977E+01  0.42794978100E+01  0.51100000000E-03 0.  1.
        -12    1    3    3    0    0 -0.17119026848E+02  0.71017149775E+01  0.26718987214E+02  0.32517683090E+02  0.00000000000E+00 0.  1.
</event>
<event>
 7    1  0.2097247E-008  0.4614232E+02  0.7816164E-02  0.1320468E+00
        -11   -1    0    0    0    0  0.00000000000E+00  0.00000000000E+00  0.45593999997E+02  0.45594000000E+02  0.51100000000E-03 0. -1.
         11   -1    0    0    0    0 -0.00000000000E+00 -0.00000000000E+00 -0.45593999997E+02  0.45594000000E+02  0.51100000000E-03 0.  1.
    9900012    2    1    2    0    0  0.97219583499E+01 -0.42112074726E+02 -0.12695284117E+02  0.46142317070E+02  0.99999936950E+01 0.  0.
         12    1    1    2    0    0 -0.97219583499E+01  0.42112074726E+02  0.12695284117E+02  0.45045682930E+02  0.00000000000E+00 0. -1.
         11    1    3    3    0    0  0.12725326564E+01 -0.42764591396E+00 -0.54992981146E+00  0.14507389317E+01  0.51100000000E-03 0. -1.
        -11    1    3    3    0    0  0.91444526550E+01 -0.35341937954E+02 -0.91069121548E+01  0.37624585605E+02  0.51100000000E-03 0.  1.
        -12    1    3    3    0    0 -0.69502696147E+00 -0.63424908576E+01 -0.30384421505E+01  0.70669925327E+01  0.00000000000E+00 0.  1.
</event>
<event>
 7    1  0.2097247E-008  0.4614232E+02  0.7816164E-02  0.1320468E+00
        -11   -1    0    0    0    0  0.00000000000E+00  0.00000000000E+00  0.45593999997E+02  0.45594000000E+02  0.51100000000E-03 0.  1.
         11   -1    0    0    0    0 -0.00000000000E+00 -0.00000000000E+00 -0.45593999997E+02  0.45594000000E+02  0.51100000000E-03 0. -1.
    9900012    2    1    2    0    0  0.27889378008E+02  0.24806075591E+02  0.25218144833E+02  0.46142316292E+02  0.99999866034E+01 0.  0.
         12    1    1    2    0    0 -0.27889378008E+02 -0.24806075591E+02 -0.25218144833E+02  0.45045683708E+02  0.00000000000E+00 0. -1.
         11    1    3    3    0    0  0.12902989150E+02  0.82557379417E+01  0.54309742630E+01  0.16252378893E+02  0.51100000000E-03 0. -1.
        -11    1    3    3    0    0  0.42042040339E+01  0.45466673717E+01  0.44231845429E+01  0.76099985223E+01  0.51100000000E-03 0.  1.
        -12    1    3    3    0    0  0.10782184824E+02  0.12003670277E+02  0.15363986027E+02  0.22279938877E+02  0.00000000000E+00 0.  1.
</event>
<event>
 7    1  0.2097247E-008  0.4614232E+02  0.7816164E-02  0.1320468E+00
        -11   -1    0    0    0    0  0.00000000000E+00  0.00000000000E+00  0.45593999997E+02  0.45594000000E+02  0.51100000000E-03 0. -1.
         11   -1    0    0    0    0 -0.00000000000E+00 -0.00000000000E+00 -0.45593999997E+02  0.45594000000E+02  0.51100000000E-03 0.  1.
    9900012    2    1    2    0    0  0.94556278925E+01 -0.18812113397E+02  0.39822216370E+02  0.46142318454E+02  0.10000006322E+02 0.  0.
         12    1    1    2    0    0 -0.94556278925E+01  0.18812113397E+02 -0.39822216370E+02  0.45045681546E+02  0.00000000000E+00 0. -1.
         11    1    3    3    0    0  0.38728302586E+00  0.86188408811E-01  0.31788004374E+00  0.50839410624E+00  0.51100000000E-03 0. -1.
        -11    1    3    3    0    0  0.49800732948E+01 -0.66778479716E+01  0.78048990030E+01  0.11415394529E+02  0.51100000000E-03 0.  1.
        -12    1    3    3    0    0  0.40882715718E+01 -0.12220453834E+02  0.31699437323E+02  0.34218529819E+02  0.00000000000E+00 0.  1.
</event>
<event>
 7    1  0.2097247E-008  0.4614232E+02  0.7816164E-02  0.1320468E+00
        -11   -1    0    0    0    0  0.00000000000E+00  0.00000000000E+00  0.45593999997E+02  0.45594000000E+02  0.51100000000E-03 0. -1.
         11   -1    0    0    0    0 -0.00000000000E+00 -0.00000000000E+00 -0.45593999997E+02  0.45594000000E+02  0.51100000000E-03 0.  1.
    9900012    2    1    2    0    0 -0.44654331746E+02  0.27826201194E+00  0.59183374428E+01  0.46142317726E+02  0.99999996797E+01 0.  0.
         12    1    1    2    0    0  0.44654331746E+02 -0.27826201194E+00 -0.59183374428E+01  0.45045682274E+02  0.00000000000E+00 0. -1.
         11    1    3    3    0    0 -0.20696847381E+02  0.20844609549E+00  0.59629585654E+01  0.21539726470E+02  0.51100000000E-03 0. -1.
        -11    1    3    3    0    0 -0.17325530674E+02 -0.21958951042E+01 -0.11754444651E+01  0.17503646431E+02  0.51100000000E-03 0.  1.
         12    1    3    3    0    0 -0.66319536921E+01  0.22657110207E+01  0.11308233424E+01  0.70989448254E+01  0.00000000000E+00 0. -1.
</event>
<event>
 7    1  0.2097247E-008  0.4614232E+02  0.7816164E-02  0.1320468E+00
        -11   -1    0    0    0    0  0.00000000000E+00  0.00000000000E+00  0.45593999997E+02  0.45594000000E+02  0.51100000000E-03 0.  1.
         11   -1    0    0    0    0 -0.00000000000E+00 -0.00000000000E+00 -0.45593999997E+02  0.45594000000E+02  0.51100000000E-03 0. -1.
    9900012    2    1    2    0    0  0.43388548076E+02 -0.11282571406E+02  0.43875480701E+01  0.46142322075E+02  0.10000039336E+02 0.  0.
         12    1    1    2    0    0 -0.43388548076E+02  0.11282571406E+02 -0.43875480701E+01  0.45045677925E+02  0.00000000000E+00 0. -1.
         11    1    3    3    0    0  0.52820263753E+01 -0.25703995240E+01 -0.24820071990E+01  0.63770774136E+01  0.51100000000E-03 0. -1.
        -11    1    3    3    0    0  0.13479254877E+02 -0.27580289085E+01  0.35728043326E+01  0.14214850213E+02  0.51100000000E-03 0.  1.
         12    1    3    3    0    0  0.24627266824E+02 -0.59541429735E+01  0.32967509365E+01  0.25550394449E+02  0.00000000000E+00 0. -1.
</event>
<event>
 7    1  0.2097247E-008  0.4614232E+02  0.7816164E-02  0.1320468E+00
        -11   -1    0    0    0    0  0.00000000000E+00  0.00000000000E+00  0.45593999997E+02  0.45594000000E+02  0.51100000000E-03 0.  1.
         11   -1    0    0    0    0 -0.00000000000E+00 -0.00000000000E+00 -0.45593999997E+02  0.45594000000E+02  0.51100000000E-03 0. -1.
    9900012    2    1    2    0    0 -0.38528417512E+02 -0.21018926271E+02  0.10142944581E+02  0.46142317162E+02  0.99999945387E+01 0.  0.
         12    1    1    2    0    0  0.38528417512E+02  0.21018926271E+02 -0.10142944581E+02  0.45045682838E+02  0.00000000000E+00 0. -1.
         11    1    3    3    0    0 -0.11476612930E+02 -0.34287906628E+01  0.59872624633E+01  0.13390913405E+02  0.51100000000E-03 0. -1.
        -11    1    3    3    0    0 -0.61168559134E+01 -0.24272637950E+01  0.69862883086E-01  0.65812169755E+01  0.51100000000E-03 0.  1.
         12    1    3    3    0    0 -0.20934948669E+02 -0.15162871813E+02  0.40858192343E+01  0.26170186782E+02  0.00000000000E+00 0. -1.
</event>
<event>
 7    1  0.2097247E-008  0.4614232E+02  0.7816164E-02  0.1320468E+00
        -11   -1    0    0    0    0  0.00000000000E+00  0.00000000000E+00  0.45593999997E+02  0.45594000000E+02  0.51100000000E-03 0.  1.
         11   -1    0    0    0    0 -0.00000000000E+00 -0.00000000000E+00 -0.45593999997E+02  0.45594000000E+02  0.51100000000E-03 0. -1.
    9900012    2    1    2    0    0 -0.40719825422E+02 -0.12878460024E+02  0.14323210251E+02  0.46142320220E+02  0.10000022422E+02 0.  0.
         12    1    1    2    0    0  0.40719825422E+02  0.12878460024E+02 -0.14323210251E+02  0.45045679780E+02  0.00000000000E+00 0. -1.
         11    1    3    3    0    0  0.27389027076E+00  0.38062914544E+00 -0.67878170833E-01  0.47381656152E+00  0.51100000000E-03 0. -1.
        -11    1    3    3    0    0 -0.11389368816E+02 -0.33778507300E+01  0.18035846309E+01  0.12015844347E+02  0.51100000000E-03 0.  1.
        -12    1    3    3    0    0 -0.29604346876E+02 -0.98812384397E+01  0.12587503790E+02  0.33652659311E+02  0.00000000000E+00 0.  1.
</event>
<event>
 7    1  0.2097247E-008  0.4614231E+02  0.7816164E-02  0.1320468E+00
        -11   -1    0    0    0    0  0.00000000000E+00  0.00000000000E+00  0.45593999997E+02  0.45594000000E+02  0.51100000000E-03 0. -1.
         11   -1    0    0    0    0 -0.00000000000E+00 -0.00000000000E+00 -0.45593999997E+02  0.45594000000E+02  0.51100000000E-03 0.  1.
    9900012    2    1    2    0    0  0.43592485891E+02 -0.49417965174E+00 -0.11338663484E+02  0.46142308427E+02  0.99999148876E+01 0.  0.
         12    1    1    2    0    0 -0.43592485891E+02  0.49417965174E+00  0.11338663484E+02  0.45045691573E+02  0.00000000000E+00 0. -1.
         11    1    3    3    0    0  0.23291855194E+02  0.15775557244E+01 -0.31383065534E+01  0.23555215319E+02  0.51100000000E-03 0.  1.
        -11    1    3    3    0    0  0.13614394743E+02 -0.23790884001E+01 -0.30796917819E+01  0.14159671873E+02  0.51100000000E-03 0. -1.
         12    1    3    3    0    0  0.66862359542E+01  0.30735302393E+00 -0.51206651484E+01  0.84274212354E+01  0.00000000000E+00 0. -1.
</event>
<event>
 7    1  0.2097247E-008  0.4614232E+02  0.7816164E-02  0.1320468E+00
        -11   -1    0    0    0    0  0.00000000000E+00  0.00000000000E+00  0.45593999997E+02  0.45594000000E+02  0.51100000000E-03 0. -1.
         11   -1    0    0    0    0 -0.00000000000E+00 -0.00000000000E+00 -0.45593999997E+02  0.45594000000E+02  0.51100000000E-03 0.  1.
    9900012    2    1    2    0    0  0.64413638537E+01  0.37984598356E+02 -0.23340797437E+02  0.46142315350E+02  0.99999780129E+01 0.  0.
         12    1    1    2    0    0 -0.64413638537E+01 -0.37984598356E+02  0.23340797437E+02  0.45045684650E+02  0.00000000000E+00 0. -1.
         11    1    3    3    0    0  0.48806366079E+01  0.19678821229E+02 -0.73715622362E+01  0.21573514983E+02  0.51100000000E-03 0. -1.
        -11    1    3    3    0    0  0.34334478775E+00  0.21627126602E+01 -0.35245970489E+01  0.41494573516E+01  0.51100000000E-03 0.  1.
         12    1    3    3    0    0  0.12173824581E+01  0.16143064467E+02 -0.12444638152E+02  0.20419343015E+02  0.00000000000E+00 0. -1.
</event>
<event>
 7    1  0.2097247E-008  0.4614231E+02  0.7816164E-02  0.1320468E+00
        -11   -1    0    0    0    0  0.00000000000E+00  0.00000000000E+00  0.45593999997E+02  0.45594000000E+02  0.51100000000E-03 0.  1.
         11   -1    0    0    0    0 -0.00000000000E+00 -0.00000000000E+00 -0.45593999997E+02  0.45594000000E+02  0.51100000000E-03 0. -1.
    9900012    2    1    2    0    0  0.17677810860E+02  0.38466264723E+01  0.41253029630E+02  0.46142312242E+02  0.99999496681E+01 0.  0.
         12    1    1    2    0    0 -0.17677810860E+02 -0.38466264723E+01 -0.41253029630E+02  0.45045687758E+02  0.00000000000E+00 0. -1.
         11    1    3    3    0    0  0.14035853722E+01  0.22604546511E+01  0.15403313448E+01  0.30744638622E+01  0.51100000000E-03 0. -1.
        -11    1    3    3    0    0  0.32458147610E+01  0.45401600585E+00  0.11744787961E+02  0.12193501897E+02  0.51100000000E-03 0.  1.
         12    1    3    3    0    0  0.13028410727E+02  0.11321558154E+01  0.27967910324E+02  0.30874346483E+02  0.00000000000E+00 0. -1.
</event>
<event>
 7    1  0.2097247E-008  0.4614232E+02  0.7816164E-02  0.1320468E+00
        -11   -1    0    0    0    0  0.00000000000E+00  0.00000000000E+00  0.45593999997E+02  0.45594000000E+02  0.51100000000E-03 0.  1.
         11   -1    0    0    0    0 -0.00000000000E+00 -0.00000000000E+00 -0.45593999997E+02  0.45594000000E+02  0.51100000000E-03 0. -1.
    9900012    2    1    2    0    0 -0.38023435931E+02 -0.20235440239E+01  0.24067341135E+02  0.46142319633E+02  0.10000017071E+02 0.  0.
         12    1    1    2    0    0  0.38023435931E+02  0.20235440239E+01 -0.24067341135E+02  0.45045680367E+02  0.00000000000E+00 0. -1.
         11    1    3    3    0    0 -0.32687673934E+01 -0.10022083620E+01  0.47953296621E+01  0.58893504482E+01  0.51100000000E-03 0. -1.
        -11    1    3    3    0    0 -0.19683374079E+02 -0.16909749947E+00  0.14406500425E+02  0.24392848621E+02  0.51100000000E-03 0.  1.
        -12    1    3    3    0    0 -0.15071294459E+02 -0.85223816242E+00  0.48655110478E+01  0.15860120564E+02  0.00000000000E+00 0.  1.
</event>
<event>
 7    1  0.2097247E-008  0.4614232E+02  0.7816164E-02  0.1320468E+00
        -11   -1    0    0    0    0  0.00000000000E+00  0.00000000000E+00  0.45593999997E+02  0.45594000000E+02  0.51100000000E-03 0. -1.
         11   -1    0    0    0    0 -0.00000000000E+00 -0.00000000000E+00 -0.45593999997E+02  0.45594000000E+02  0.51100000000E-03 0.  1.
    9900012    2    1    2    0    0  0.22838042483E+02  0.22866241771E+02 -0.31379489215E+02  0.46142317182E+02  0.99999947213E+01 0.  0.
         12    1    1    2    0    0 -0.22838042483E+02 -0.22866241771E+02  0.31379489215E+02  0.45045682818E+02  0.00000000000E+00 0. -1.
         11    1    3    3    0    0  0.23674320067E+01  0.60316766993E+01 -0.85745072018E+01  0.10747466312E+02  0.51100000000E-03 0. -1.
        -11    1    3    3    0    0  0.70672775336E+01  0.92916581403E+01 -0.92590315433E+01  0.14900033158E+02  0.51100000000E-03 0.  1.
         12    1    3    3    0    0  0.13403332942E+02  0.75429069312E+01 -0.13545950469E+02  0.20494817712E+02  0.00000000000E+00 0. -1.
</event>
<event>
 7    1  0.2097247E-008  0.4614232E+02  0.7816164E-02  0.1320468E+00
        -11   -1    0    0    0    0  0.00000000000E+00  0.00000000000E+00  0.45593999997E+02  0.45594000000E+02  0.51100000000E-03 0. -1.
         11   -1    0    0    0    0 -0.00000000000E+00 -0.00000000000E+00 -0.45593999997E+02  0.45594000000E+02  0.51100000000E-03 0.  1.
    9900012    2    1    2    0    0  0.34475623507E+02  0.10585246727E+02 -0.26990692543E+02  0.46142317095E+02  0.99999939248E+01 0.  0.
         12    1    1    2    0    0 -0.34475623507E+02 -0.10585246727E+02  0.26990692543E+02  0.45045682905E+02  0.00000000000E+00 0. -1.
         11    1    3    3    0    0  0.90471827700E+01  0.46300224631E+01 -0.97155153076E+01  0.14059867070E+02  0.51100000000E-03 0. -1.
        -11    1    3    3    0    0  0.24015437565E+02  0.72622511895E+01 -0.16351316274E+02  0.29947405196E+02  0.51100000000E-03 0.  1.
        -12    1    3    3    0    0  0.14130031715E+01 -0.13070269254E+01 -0.92386096077E+00  0.21350448289E+01  0.00000000000E+00 0.  1.
</event>
<event>
 7    1  0.2097247E-008  0.4614233E+02  0.7816164E-02  0.1320468E+00
        -11   -1    0    0    0    0  0.00000000000E+00  0.00000000000E+00  0.45593999997E+02  0.45594000000E+02  0.51100000000E-03 0.  1.
         11   -1    0    0    0    0 -0.00000000000E+00 -0.00000000000E+00 -0.45593999997E+02  0.45594000000E+02  0.51100000000E-03 0. -1.
    9900012    2    1    2    0    0 -0.32770075833E+02  0.11047937580E+01  0.30887111022E+02  0.46142333543E+02  0.10000143906E+02 0.  0.
         12    1    1    2    0    0  0.32770075833E+02 -0.11047937580E+01 -0.30887111022E+02  0.45045666457E+02  0.00000000000E+00 0. -1.
         11    1    3    3    0    0 -0.11398278433E+02 -0.18708962663E+01  0.12838399106E+02  0.17269785637E+02  0.51100000000E-03 0.  1.
        -11    1    3    3    0    0  0.32162663777E+00 -0.37131590190E+00  0.63794329941E-01  0.49536771270E+00  0.51100000000E-03 0. -1.
        -12    1    3    3    0    0 -0.21693424038E+02  0.33470059262E+01  0.17984917586E+02  0.28377180193E+02  0.00000000000E+00 0.  1.
</event>
<event>
 7    1  0.2097247E-008  0.4614232E+02  0.7816164E-02  0.1320468E+00
        -11   -1    0    0    0    0  0.00000000000E+00  0.00000000000E+00  0.45593999997E+02  0.45594000000E+02  0.51100000000E-03 0. -1.
         11   -1    0    0    0    0 -0.00000000000E+00 -0.00000000000E+00 -0.45593999997E+02  0.45594000000E+02  0.51100000000E-03 0.  1.
    9900012    2    1    2    0    0 -0.18257406438E+02  0.36234293553E+02 -0.19566724036E+02  0.46142316426E+02  0.99999878253E+01 0.  0.
         12    1    1    2    0    0  0.18257406438E+02 -0.36234293553E+02  0.19566724036E+02  0.45045683574E+02  0.00000000000E+00 0. -1.
         11    1    3    3    0    0 -0.35222321930E+01  0.38202076251E+01 -0.13256665285E+01  0.53626017870E+01  0.51100000000E-03 0.  1.
        -11    1    3    3    0    0 -0.35682716442E+00  0.60426154999E+01 -0.54062636182E+01  0.81159235011E+01  0.51100000000E-03 0. -1.
         12    1    3    3    0    0 -0.14378347081E+02  0.26371470428E+02 -0.12834793890E+02  0.32663791138E+02  0.00000000000E+00 0. -1.
</event>
<event>
 7    1  0.2097247E-008  0.4614232E+02  0.7816164E-02  0.1320468E+00
        -11   -1    0    0    0    0  0.00000000000E+00  0.00000000000E+00  0.45593999997E+02  0.45594000000E+02  0.51100000000E-03 0.  1.
         11   -1    0    0    0    0 -0.00000000000E+00 -0.00000000000E+00 -0.45593999997E+02  0.45594000000E+02  0.51100000000E-03 0. -1.
    9900012    2    1    2    0    0  0.30064599502E+02 -0.33381699910E+02  0.33008276335E+01  0.46142317686E+02  0.99999993135E+01 0.  0.
         12    1    1    2    0    0 -0.30064599502E+02  0.33381699910E+02 -0.33008276335E+01  0.45045682314E+02  0.00000000000E+00 0. -1.
         11    1    3    3    0    0  0.16313686239E+02 -0.13817453271E+02  0.74347581373E+00  0.21391847282E+02  0.51100000000E-03 0. -1.
        -11    1    3    3    0    0  0.79150214527E+01 -0.13518779709E+02  0.41327270882E+01  0.16201370401E+02  0.51100000000E-03 0.  1.
        -12    1    3    3    0    0  0.58358918103E+01 -0.60454669299E+01 -0.15753752685E+01  0.85491000028E+01  0.00000000000E+00 0.  1.
</event>
<event>
 7    1  0.2097247E-008  0.4614232E+02  0.7816164E-02  0.1320468E+00
        -11   -1    0    0    0    0  0.00000000000E+00  0.00000000000E+00  0.45593999997E+02  0.45594000000E+02  0.51100000000E-03 0.  1.
         11   -1    0    0    0    0 -0.00000000000E+00 -0.00000000000E+00 -0.45593999997E+02  0.45594000000E+02  0.51100000000E-03 0. -1.
    9900012    2    1    2    0    0  0.92968811377E+01  0.12702531285E+02  0.42205772127E+02  0.46142317623E+02  0.99999987445E+01 0.  0.
         12    1    1    2    0    0 -0.92968811377E+01 -0.12702531285E+02 -0.42205772127E+02  0.45045682377E+02  0.00000000000E+00 0. -1.
         11    1    3    3    0    0  0.84847771347E+00  0.42113493138E+00  0.11251262262E+02  0.11291066018E+02  0.51100000000E-03 0. -1.
        -11    1    3    3    0    0  0.23549495903E+01  0.13864292329E+01  0.10830139096E+02  0.11169596532E+02  0.51100000000E-03 0.  1.
        -12    1    3    3    0    0  0.60934538339E+01  0.10894967121E+02  0.20124370769E+02  0.23681655073E+02  0.00000000000E+00 0.  1.
</event>
<event>
 7    1  0.2097247E-008  0.4614232E+02  0.7816164E-02  0.1320468E+00
        -11   -1    0    0    0    0  0.00000000000E+00  0.00000000000E+00  0.45593999997E+02  0.45594000000E+02  0.51100000000E-03 0. -1.
         11   -1    0    0    0    0 -0.00000000000E+00 -0.00000000000E+00 -0.45593999997E+02  0.45594000000E+02  0.51100000000E-03 0.  1.
    9900012    2    1    2    0    0 -0.38273697687E+02  0.18650361082E+02 -0.14710584884E+02  0.46142320843E+02  0.10000028099E+02 0.  0.
         12    1    1    2    0    0  0.38273697687E+02 -0.18650361082E+02  0.14710584884E+02  0.45045679157E+02  0.00000000000E+00 0. -1.
         11    1    3    3    0    0  0.12610521119E+00  0.10395486929E+01 -0.10775739955E+01  0.15025744527E+01  0.51100000000E-03 0. -1.
        -11    1    3    3    0    0 -0.69653965361E+01  0.37857377047E+01 -0.75268658993E+00  0.79633596074E+01  0.51100000000E-03 0.  1.
        -12    1    3    3    0    0 -0.31434406362E+02  0.13825074684E+02 -0.12880324298E+02  0.36676386782E+02  0.00000000000E+00 0.  1.
</event>
<event>
 7    1  0.2097247E-008  0.4614232E+02  0.7816164E-02  0.1320468E+00
        -11   -1    0    0    0    0  0.00000000000E+00  0.00000000000E+00  0.45593999997E+02  0.45594000000E+02  0.51100000000E-03 0.  1.
         11   -1    0    0    0    0 -0.00000000000E+00 -0.00000000000E+00 -0.45593999997E+02  0.45594000000E+02  0.51100000000E-03 0. -1.
    9900012    2    1    2    0    0  0.39516330386E+02  0.17364689015E+02  0.12885678495E+02  0.46142317609E+02  0.99999986171E+01 0.  0.
         12    1    1    2    0    0 -0.39516330386E+02 -0.17364689015E+02 -0.12885678495E+02  0.45045682391E+02  0.00000000000E+00 0. -1.
         11    1    3    3    0    0  0.33899911262E+01  0.93312284056E+00  0.30421362870E+01  0.46494463671E+01  0.51100000000E-03 0. -1.
        -11    1    3    3    0    0  0.26670555364E+02  0.88924298933E+01  0.82198706421E+01  0.29290956052E+02  0.51100000000E-03 0.  1.
         12    1    3    3    0    0  0.94557838958E+01  0.75391362814E+01  0.16236715661E+01  0.12201915190E+02  0.00000000000E+00 0. -1.
</event>
<event>
 7    1  0.2097247E-008  0.4614231E+02  0.7816164E-02  0.1320468E+00
        -11   -1    0    0    0    0  0.00000000000E+00  0.00000000000E+00  0.45593999997E+02  0.45594000000E+02  0.51100000000E-03 0.  1.
         11   -1    0    0    0    0 -0.00000000000E+00 -0.00000000000E+00 -0.45593999997E+02  0.45594000000E+02  0.51100000000E-03 0. -1.
    9900012    2    1    2    0    0  0.54261920505E+01  0.43614590917E+02  0.98710745823E+01  0.46142309702E+02  0.99999265087E+01 0.  0.
         12    1    1    2    0    0 -0.54261920505E+01 -0.43614590917E+02 -0.98710745823E+01  0.45045690298E+02  0.00000000000E+00 0. -1.
         11    1    3    3    0    0  0.32922908639E+01  0.43106646005E+01  0.95645844981E+00  0.55077964249E+01  0.51100000000E-03 0. -1.
        -11    1    3    3    0    0  0.23865078026E+01  0.28934514868E+02  0.85093939868E+01  0.30254113049E+02  0.51100000000E-03 0.  1.
        -12    1    3    3    0    0 -0.25260661595E+00  0.10369411449E+02  0.40522214571E+00  0.10380400228E+02  0.00000000000E+00 0.  1.
</event>
<event>
 7    1  0.2097247E-008  0.4614232E+02  0.7816164E-02  0.1320468E+00
        -11   -1    0    0    0    0  0.00000000000E+00  0.00000000000E+00  0.45593999997E+02  0.45594000000E+02  0.51100000000E-03 0. -1.
         11   -1    0    0    0    0 -0.00000000000E+00 -0.00000000000E+00 -0.45593999997E+02  0.45594000000E+02  0.51100000000E-03 0.  1.
    9900012    2    1    2    0    0  0.14060123206E+02 -0.25651687705E+02 -0.34255180519E+02  0.46142317198E+02  0.99999948678E+01 0.  0.
         12    1    1    2    0    0 -0.14060123206E+02  0.25651687705E+02  0.34255180519E+02  0.45045682802E+02  0.00000000000E+00 0. -1.
         11    1    3    3    0    0  0.44618602568E+01 -0.37095331036E+01 -0.10949589935E+02  0.12392027792E+02  0.51100000000E-03 0. -1.
        -11    1    3    3    0    0 -0.25423744237E+00 -0.33022704009E+01 -0.27552318477E+01  0.43082396954E+01  0.51100000000E-03 0.  1.
         12    1    3    3    0    0  0.98525003920E+01 -0.18639884200E+02 -0.20550358737E+02  0.29442049711E+02  0.00000000000E+00 0. -1.
</event>
<event>
 7    1  0.2097247E-008  0.4614232E+02  0.7816164E-02  0.1320468E+00
        -11   -1    0    0    0    0  0.00000000000E+00  0.00000000000E+00  0.45593999997E+02  0.45594000000E+02  0.51100000000E-03 0.  1.
         11   -1    0    0    0    0 -0.00000000000E+00 -0.00000000000E+00 -0.45593999997E+02  0.45594000000E+02  0.51100000000E-03 0. -1.
    9900012    2    1    2    0    0 -0.10792513957E+02 -0.31318881571E+02  0.30524789456E+02  0.46142317947E+02  0.10000001692E+02 0.  0.
         12    1    1    2    0    0  0.10792513957E+02  0.31318881571E+02 -0.30524789456E+02  0.45045682053E+02  0.00000000000E+00 0. -1.
         11    1    3    3    0    0 -0.27847524057E+01 -0.13583733776E+02  0.16077191085E+02  0.21230844135E+02  0.51100000000E-03 0.  1.
        -11    1    3    3    0    0 -0.25119173734E+00 -0.71955502055E+01  0.54631997746E+01  0.90380081925E+01  0.51100000000E-03 0. -1.
         12    1    3    3    0    0 -0.77565698139E+01 -0.10539597590E+02  0.89843985958E+01  0.15873465619E+02  0.00000000000E+00 0. -1.
</event>
<event>
 7    1  0.2097247E-008  0.4614232E+02  0.7816164E-02  0.1320468E+00
        -11   -1    0    0    0    0  0.00000000000E+00  0.00000000000E+00  0.45593999997E+02  0.45594000000E+02  0.51100000000E-03 0.  1.
         11   -1    0    0    0    0 -0.00000000000E+00 -0.00000000000E+00 -0.45593999997E+02  0.45594000000E+02  0.51100000000E-03 0. -1.
    9900012    2    1    2    0    0  0.41770311859E+02  0.84492079905E+01  0.14593332368E+02  0.46142318541E+02  0.10000007110E+02 0.  0.
         12    1    1    2    0    0 -0.41770311859E+02 -0.84492079905E+01 -0.14593332368E+02  0.45045681459E+02  0.00000000000E+00 0. -1.
         11    1    3    3    0    0  0.17717671762E+02  0.18658473940E+01  0.49355844484E+01  0.18486678265E+02  0.51100000000E-03 0. -1.
        -11    1    3    3    0    0  0.15257425622E+02  0.11376168433E+01  0.76970329235E+01  0.17126807197E+02  0.51100000000E-03 0.  1.
         12    1    3    3    0    0  0.87952144759E+01  0.54457437532E+01  0.19607149964E+01  0.10528833079E+02  0.00000000000E+00 0. -1.
</event>
<event>
 7    1  0.2097247E-008  0.4614232E+02  0.7816164E-02  0.1320468E+00
        -11   -1    0    0    0    0  0.00000000000E+00  0.00000000000E+00  0.45593999997E+02  0.45594000000E+02  0.51100000000E-03 0.  1.
         11   -1    0    0    0    0 -0.00000000000E+00 -0.00000000000E+00 -0.45593999997E+02  0.45594000000E+02  0.51100000000E-03 0. -1.
    9900012    2    1    2    0    0 -0.28680493669E+02 -0.23578927396E+02  0.25506410434E+02  0.46142317549E+02  0.99999980648E+01 0.  0.
         12    1    1    2    0    0  0.28680493669E+02  0.23578927396E+02 -0.25506410434E+02  0.45045682451E+02  0.00000000000E+00 0. -1.
         11    1    3    3    0    0 -0.12653991491E+02 -0.12599447810E+02  0.11091527233E+02  0.21021216958E+02  0.51100000000E-03 0. -1.
        -11    1    3    3    0    0 -0.14704835856E+02 -0.68200989048E+01  0.11338220998E+02  0.19781334695E+02  0.51100000000E-03 0.  1.
         12    1    3    3    0    0 -0.13216663220E+01 -0.41593806814E+01  0.30766622031E+01  0.53397658967E+01  0.00000000000E+00 0. -1.
</event>
<event>
 7    1  0.2097247E-008  0.4614232E+02  0.7816164E-02  0.1320468E+00
        -11   -1    0    0    0    0  0.00000000000E+00  0.00000000000E+00  0.45593999997E+02  0.45594000000E+02  0.51100000000E-03 0.  1.
         11   -1    0    0    0    0 -0.00000000000E+00 -0.00000000000E+00 -0.45593999997E+02  0.45594000000E+02  0.51100000000E-03 0. -1.
    9900012    2    1    2    0    0  0.37037338589E+02 -0.23056836013E+02  0.11212995150E+02  0.46142318776E+02  0.10000009253E+02 0.  0.
         12    1    1    2    0    0 -0.37037338589E+02  0.23056836013E+02 -0.11212995150E+02  0.45045681224E+02  0.00000000000E+00 0. -1.
         11    1    3    3    0    0  0.18765214270E+02 -0.12760195838E+02  0.37338413842E+01  0.22997770244E+02  0.51100000000E-03 0. -1.
        -11    1    3    3    0    0  0.70958522922E+01 -0.75968479792E+01  0.38955856551E+01  0.11101297529E+02  0.51100000000E-03 0.  1.
        -12    1    3    3    0    0  0.11176272027E+02 -0.26997921957E+01  0.35835681110E+01  0.12043251003E+02  0.00000000000E+00 0.  1.
</event>
<event>
 7    1  0.2097247E-008  0.4614232E+02  0.7816164E-02  0.1320468E+00
        -11   -1    0    0    0    0  0.00000000000E+00  0.00000000000E+00  0.45593999997E+02  0.45594000000E+02  0.51100000000E-03 0. -1.
         11   -1    0    0    0    0 -0.00000000000E+00 -0.00000000000E+00 -0.45593999997E+02  0.45594000000E+02  0.51100000000E-03 0.  1.
    9900012    2    1    2    0    0 -0.30005158544E+01  0.43841006118E+02  0.99033619557E+01  0.46142317734E+02  0.99999997493E+01 0.  0.
         12    1    1    2    0    0  0.30005158544E+01 -0.43841006118E+02 -0.99033619557E+01  0.45045682266E+02  0.00000000000E+00 0. -1.
         11    1    3    3    0    0  0.29990743633E+00  0.14577809670E+01 -0.68482707018E+00  0.16383095542E+01  0.51100000000E-03 0. -1.
        -11    1    3    3    0    0 -0.10797704239E+01  0.32976081418E+02  0.50903484493E+01  0.33384120439E+02  0.51100000000E-03 0.  1.
        -12    1    3    3    0    0 -0.22206528668E+01  0.94071437327E+01  0.54978405766E+01  0.11119887741E+02  0.00000000000E+00 0.  1.
</event>
<event>
 7    1  0.2097247E-008  0.4614232E+02  0.7816164E-02  0.1320468E+00
        -11   -1    0    0    0    0  0.00000000000E+00  0.00000000000E+00  0.45593999997E+02  0.45594000000E+02  0.51100000000E-03 0.  1.
         11   -1    0    0    0    0 -0.00000000000E+00 -0.00000000000E+00 -0.45593999997E+02  0.45594000000E+02  0.51100000000E-03 0. -1.
    9900012    2    1    2    0    0  0.10821427514E+02  0.40447221890E+02  0.16614220986E+02  0.46142318841E+02  0.10000009848E+02 0.  0.
         12    1    1    2    0    0 -0.10821427514E+02 -0.40447221890E+02 -0.16614220986E+02  0.45045681159E+02  0.00000000000E+00 0. -1.
         11    1    3    3    0    0 -0.91840203461E+00  0.57102996894E+01  0.11054238069E+01  0.58883738752E+01  0.51100000000E-03 0. -1.
        -11    1    3    3    0    0  0.39833404298E+01  0.16111830037E+02  0.98498890429E+01  0.19299699027E+02  0.51100000000E-03 0.  1.
        -12    1    3    3    0    0  0.77564891190E+01  0.18625092164E+02  0.56589081363E+01  0.20954245939E+02  0.00000000000E+00 0.  1.
</event>
<event>
 7    1  0.2097247E-008  0.4614232E+02  0.7816164E-02  0.1320468E+00
        -11   -1    0    0    0    0  0.00000000000E+00  0.00000000000E+00  0.45593999997E+02  0.45594000000E+02  0.51100000000E-03 0.  1.
         11   -1    0    0    0    0 -0.00000000000E+00 -0.00000000000E+00 -0.45593999997E+02  0.45594000000E+02  0.51100000000E-03 0. -1.
    9900012    2    1    2    0    0  0.22451538657E+02 -0.90757840053E+01  0.37982521785E+02  0.46142318692E+02  0.10000008487E+02 0.  0.
         12    1    1    2    0    0 -0.22451538657E+02  0.90757840053E+01 -0.37982521785E+02  0.45045681308E+02  0.00000000000E+00 0. -1.
         11    1    3    3    0    0  0.17838087576E+01 -0.12607742059E+01  0.27421490693E+00  0.22015265972E+01  0.51100000000E-03 0. -1.
        -11    1    3    3    0    0  0.69820135496E+01 -0.32760710706E+01  0.17417882338E+02  0.19048983707E+02  0.51100000000E-03 0.  1.
         12    1    3    3    0    0  0.13685716350E+02 -0.45389387288E+01  0.20290424540E+02  0.24891808388E+02  0.00000000000E+00 0. -1.
</event>
<event>
 7    1  0.2097247E-008  0.4614232E+02  0.7816164E-02  0.1320468E+00
        -11   -1    0    0    0    0  0.00000000000E+00  0.00000000000E+00  0.45593999997E+02  0.45594000000E+02  0.51100000000E-03 0.  1.
         11   -1    0    0    0    0 -0.00000000000E+00 -0.00000000000E+00 -0.45593999997E+02  0.45594000000E+02  0.51100000000E-03 0. -1.
    9900012    2    1    2    0    0 -0.61798309176E+01 -0.23553041889E+02  0.37896931499E+02  0.46142317527E+02  0.99999978630E+01 0.  0.
         12    1    1    2    0    0  0.61798309176E+01  0.23553041889E+02 -0.37896931499E+02  0.45045682473E+02  0.00000000000E+00 0. -1.
         11    1    3    3    0    0 -0.21030752392E+01 -0.38080966203E+01  0.21362064614E+01  0.48464320523E+01  0.51100000000E-03 0. -1.
        -11    1    3    3    0    0  0.35479043468E+00 -0.92061317329E+01  0.16485020313E+02  0.18884772509E+02  0.51100000000E-03 0.  1.
         12    1    3    3    0    0 -0.44315461130E+01 -0.10538813536E+02  0.19275704725E+02  0.22411112966E+02  0.00000000000E+00 0. -1.
</event>
<event>
 7    1  0.2097247E-008  0.4614232E+02  0.7816164E-02  0.1320468E+00
        -11   -1    0    0    0    0  0.00000000000E+00  0.00000000000E+00  0.45593999997E+02  0.45594000000E+02  0.51100000000E-03 0.  1.
         11   -1    0    0    0    0 -0.00000000000E+00 -0.00000000000E+00 -0.45593999997E+02  0.45594000000E+02  0.51100000000E-03 0. -1.
    9900012    2    1    2    0    0  0.41548470946E+02 -0.12808355571E+02  0.11780661798E+02  0.46142318711E+02  0.10000008663E+02 0.  0.
         12    1    1    2    0    0 -0.41548470946E+02  0.12808355571E+02 -0.11780661798E+02  0.45045681289E+02  0.00000000000E+00 0. -1.
         11    1    3    3    0    0  0.20622953653E+02 -0.52579694960E+01  0.15209882083E+01  0.21336960093E+02  0.51100000000E-03 0. -1.
        -11    1    3    3    0    0  0.99285902070E+01 -0.47498443904E+01  0.32877356159E+01  0.11486824234E+02  0.51100000000E-03 0.  1.
         12    1    3    3    0    0  0.10996927086E+02 -0.28005416841E+01  0.69719379735E+01  0.13318534385E+02  0.00000000000E+00 0. -1.
</event>
<event>
 7    1  0.2097247E-008  0.4614232E+02  0.7816164E-02  0.1320468E+00
        -11   -1    0    0    0    0  0.00000000000E+00  0.00000000000E+00  0.45593999997E+02  0.45594000000E+02  0.51100000000E-03 0.  1.
         11   -1    0    0    0    0 -0.00000000000E+00 -0.00000000000E+00 -0.45593999997E+02  0.45594000000E+02  0.51100000000E-03 0. -1.
    9900012    2    1    2    0    0  0.28605008823E+02 -0.26173960349E+02  0.22930128764E+02  0.46142317241E+02  0.99999952560E+01 0.  0.
         12    1    1    2    0    0 -0.28605008823E+02  0.26173960349E+02 -0.22930128764E+02  0.45045682759E+02  0.00000000000E+00 0. -1.
         11    1    3    3    0    0  0.75290956281E+01 -0.60815740840E+01  0.39444641350E+01  0.10451393299E+02  0.51100000000E-03 0. -1.
        -11    1    3    3    0    0  0.20202405371E+02 -0.15649587344E+02  0.14836045959E+02  0.29549196719E+02  0.51100000000E-03 0.  1.
         12    1    3    3    0    0  0.87350782423E+00 -0.44427989208E+01  0.41496186703E+01  0.61417272227E+01  0.00000000000E+00 0. -1.
</event>
<event>
 7    1  0.2097247E-008  0.4614232E+02  0.7816164E-02  0.1320468E+00
        -11   -1    0    0    0    0  0.00000000000E+00  0.00000000000E+00  0.45593999997E+02  0.45594000000E+02  0.51100000000E-03 0.  1.
         11   -1    0    0    0    0 -0.00000000000E+00 -0.00000000000E+00 -0.45593999997E+02  0.45594000000E+02  0.51100000000E-03 0. -1.
    9900012    2    1    2    0    0  0.30704945900E+00  0.25475998077E+02  0.37148254059E+02  0.46142317221E+02  0.99999950794E+01 0.  0.
         12    1    1    2    0    0 -0.30704945900E+00 -0.25475998077E+02 -0.37148254059E+02  0.45045682779E+02  0.00000000000E+00 0. -1.
         11    1    3    3    0    0  0.12160049323E+01 -0.35685447467E-01  0.23433034781E+01  0.26402675808E+01  0.51100000000E-03 0. -1.
        -11    1    3    3    0    0 -0.23159556007E+01  0.19011437205E+02  0.28503016157E+02  0.34339777594E+02  0.51100000000E-03 0.  1.
        -12    1    3    3    0    0  0.14070001274E+01  0.65002463191E+01  0.63019344240E+01  0.91622720464E+01  0.00000000000E+00 0.  1.
</event>
<event>
 7    1  0.2097247E-008  0.4614232E+02  0.7816164E-02  0.1320468E+00
        -11   -1    0    0    0    0  0.00000000000E+00  0.00000000000E+00  0.45593999997E+02  0.45594000000E+02  0.51100000000E-03 0.  1.
         11   -1    0    0    0    0 -0.00000000000E+00 -0.00000000000E+00 -0.45593999997E+02  0.45594000000E+02  0.51100000000E-03 0. -1.
    9900012    2    1    2    0    0  0.33957142363E+02  0.11266481821E+02  0.27369549748E+02  0.46142318925E+02  0.10000010613E+02 0.  0.
         12    1    1    2    0    0 -0.33957142363E+02 -0.11266481821E+02 -0.27369549748E+02  0.45045681075E+02  0.00000000000E+00 0. -1.
         11    1    3    3    0    0  0.19366655096E+02  0.84116410587E+01  0.13878523791E+02  0.25267300168E+02  0.51100000000E-03 0. -1.
        -11    1    3    3    0    0  0.10625525669E+01 -0.10690449322E+01  0.28423380131E+01  0.32172598071E+01  0.51100000000E-03 0.  1.
        -12    1    3    3    0    0  0.13527934700E+02  0.39238856943E+01  0.10648687944E+02  0.17657758949E+02  0.00000000000E+00 0.  1.
</event>
<event>
 7    1  0.2097247E-008  0.4614232E+02  0.7816164E-02  0.1320468E+00
        -11   -1    0    0    0    0  0.00000000000E+00  0.00000000000E+00  0.45593999997E+02  0.45594000000E+02  0.51100000000E-03 0.  1.
         11   -1    0    0    0    0 -0.00000000000E+00 -0.00000000000E+00 -0.45593999997E+02  0.45594000000E+02  0.51100000000E-03 0. -1.
    9900012    2    1    2    0    0  0.26541788765E+02 -0.13512757870E+02  0.33794263757E+02  0.46142318309E+02  0.10000004993E+02 0.  0.
         12    1    1    2    0    0 -0.26541788765E+02  0.13512757870E+02 -0.33794263757E+02  0.45045681691E+02  0.00000000000E+00 0. -1.
         11    1    3    3    0    0  0.14434340036E+02 -0.92835588662E+01  0.16046225956E+02  0.23495020860E+02  0.51100000000E-03 0. -1.
        -11    1    3    3    0    0  0.27810460118E-01 -0.69741833994E+00 -0.20036194781E+00  0.72616178213E+00  0.51100000000E-03 0.  1.
        -12    1    3    3    0    0  0.12079638269E+02 -0.35317806642E+01  0.17948399749E+02  0.21921135666E+02  0.00000000000E+00 0.  1.
</event>
<event>
 7    1  0.2097247E-008  0.4614232E+02  0.7816164E-02  0.1320468E+00
        -11   -1    0    0    0    0  0.00000000000E+00  0.00000000000E+00  0.45593999997E+02  0.45594000000E+02  0.51100000000E-03 0. -1.
         11   -1    0    0    0    0 -0.00000000000E+00 -0.00000000000E+00 -0.45593999997E+02  0.45594000000E+02  0.51100000000E-03 0.  1.
    9900012    2    1    2    0    0  0.43899785349E+02 -0.10087130659E+02 -0.41498482064E+00  0.46142316844E+02  0.99999916349E+01 0.  0.
         12    1    1    2    0    0 -0.43899785349E+02  0.10087130659E+02  0.41498482064E+00  0.45045683156E+02  0.00000000000E+00 0. -1.
         11    1    3    3    0    0  0.19621301370E+02 -0.35272066368E+01 -0.24538225596E+01  0.20086261462E+02  0.51100000000E-03 0. -1.
        -11    1    3    3    0    0  0.24540001152E+02 -0.67386681508E+01  0.15785686149E+01  0.25497317195E+02  0.51100000000E-03 0.  1.
         12    1    3    3    0    0 -0.26151717318E+00  0.17874412811E+00  0.46026912400E+00  0.55873818709E+00  0.00000000000E+00 0. -1.
</event>
<event>
 7    1  0.2097247E-008  0.4614232E+02  0.7816164E-02  0.1320468E+00
        -11   -1    0    0    0    0  0.00000000000E+00  0.00000000000E+00  0.45593999997E+02  0.45594000000E+02  0.51100000000E-03 0.  1.
         11   -1    0    0    0    0 -0.00000000000E+00 -0.00000000000E+00 -0.45593999997E+02  0.45594000000E+02  0.51100000000E-03 0. -1.
    9900012    2    1    2    0    0 -0.16043761372E+01  0.27423003400E+02  0.35700397440E+02  0.46142317458E+02  0.99999972356E+01 0.  0.
         12    1    1    2    0    0  0.16043761372E+01 -0.27423003400E+02 -0.35700397440E+02  0.45045682542E+02  0.00000000000E+00 0. -1.
         11    1    3    3    0    0 -0.62420837367E+00  0.12932306203E+02  0.19512538263E+02  0.23417372388E+02  0.51100000000E-03 0. -1.
        -11    1    3    3    0    0  0.25329873577E+00  0.20830394088E+00  0.36955018261E+01  0.37100249041E+01  0.51100000000E-03 0.  1.
         12    1    3    3    0    0 -0.12334664993E+01  0.14282393256E+02  0.12492357352E+02  0.19014920166E+02  0.00000000000E+00 0. -1.
</event>
<event>
 7    1  0.2097247E-008  0.4614232E+02  0.7816164E-02  0.1320468E+00
        -11   -1    0    0    0    0  0.00000000000E+00  0.00000000000E+00  0.45593999997E+02  0.45594000000E+02  0.51100000000E-03 0. -1.
         11   -1    0    0    0    0 -0.00000000000E+00 -0.00000000000E+00 -0.45593999997E+02  0.45594000000E+02  0.51100000000E-03 0.  1.
    9900012    2    1    2    0    0  0.11738082657E+02  0.40136174524E+02 -0.16745702256E+02  0.46142316145E+02  0.99999852630E+01 0.  0.
         12    1    1    2    0    0 -0.11738082657E+02 -0.40136174524E+02  0.16745702256E+02  0.45045683855E+02  0.00000000000E+00 0. -1.
         11    1    3    3    0    0  0.40022602719E+01  0.11198688608E+02 -0.43838330984E+01  0.12674648189E+02  0.51100000000E-03 0. -1.
        -11    1    3    3    0    0  0.17534435938E+01  0.20968888799E+02 -0.71573652144E+01  0.22226037410E+02  0.51100000000E-03 0.  1.
         12    1    3    3    0    0  0.59823787911E+01  0.79685971172E+01 -0.52045039435E+01  0.11241630545E+02  0.00000000000E+00 0. -1.
</event>
<event>
 7    1  0.2097247E-008  0.4614232E+02  0.7816164E-02  0.1320468E+00
        -11   -1    0    0    0    0  0.00000000000E+00  0.00000000000E+00  0.45593999997E+02  0.45594000000E+02  0.51100000000E-03 0. -1.
         11   -1    0    0    0    0 -0.00000000000E+00 -0.00000000000E+00 -0.45593999997E+02  0.45594000000E+02  0.51100000000E-03 0.  1.
    9900012    2    1    2    0    0 -0.34288809362E+01 -0.21080339401E+02 -0.39660755511E+02  0.46142318060E+02  0.10000002728E+02 0.  0.
         12    1    1    2    0    0  0.34288809362E+01  0.21080339401E+02  0.39660755511E+02  0.45045681940E+02  0.00000000000E+00 0. -1.
         11    1    3    3    0    0 -0.23957114940E+01 -0.60735726852E+01 -0.50360713469E+01  0.82455887356E+01  0.51100000000E-03 0. -1.
        -11    1    3    3    0    0 -0.22512317202E+01 -0.96689168645E+01 -0.22044046395E+02  0.24176351655E+02  0.51100000000E-03 0.  1.
         12    1    3    3    0    0  0.12180622779E+01 -0.53378498512E+01 -0.12580637768E+02  0.13720377670E+02  0.00000000000E+00 0. -1.
</event>
<event>
 7    1  0.2097247E-008  0.4614232E+02  0.7816164E-02  0.1320468E+00
        -11   -1    0    0    0    0  0.00000000000E+00  0.00000000000E+00  0.45593999997E+02  0.45594000000E+02  0.51100000000E-03 0.  1.
         11   -1    0    0    0    0 -0.00000000000E+00 -0.00000000000E+00 -0.45593999997E+02  0.45594000000E+02  0.51100000000E-03 0. -1.
    9900012    2    1    2    0    0 -0.32910905216E+02  0.19784089011E+02  0.23549429420E+02  0.46142317786E+02  0.10000000227E+02 0.  0.
         12    1    1    2    0    0  0.32910905216E+02 -0.19784089011E+02 -0.23549429420E+02  0.45045682214E+02  0.00000000000E+00 0. -1.
         11    1    3    3    0    0 -0.87847069943E+01  0.21417014239E+01  0.39501356043E+01  0.98671948150E+01  0.51100000000E-03 0. -1.
        -11    1    3    3    0    0 -0.20591006808E+02  0.12931155533E+02  0.17740562427E+02  0.30098702635E+02  0.51100000000E-03 0.  1.
        -12    1    3    3    0    0 -0.35351914129E+01  0.47112320540E+01  0.18587313887E+01  0.61764203361E+01  0.00000000000E+00 0.  1.
</event>
<event>
 7    1  0.2097247E-008  0.4614233E+02  0.7816164E-02  0.1320468E+00
        -11   -1    0    0    0    0  0.00000000000E+00  0.00000000000E+00  0.45593999997E+02  0.45594000000E+02  0.51100000000E-03 0.  1.
         11   -1    0    0    0    0 -0.00000000000E+00 -0.00000000000E+00 -0.45593999997E+02  0.45594000000E+02  0.51100000000E-03 0. -1.
    9900012    2    1    2    0    0  0.11387264230E+02 -0.23155832425E+02  0.36922215084E+02  0.46142330633E+02  0.10000117380E+02 0.  0.
         12    1    1    2    0    0 -0.11387264230E+02  0.23155832425E+02 -0.36922215084E+02  0.45045669367E+02  0.00000000000E+00 0. -1.
         11    1    3    3    0    0 -0.68334136542E-01 -0.17210328286E+01  0.51233712440E+00  0.17969733280E+01  0.51100000000E-03 0. -1.
        -11    1    3    3    0    0  0.74861944237E+01 -0.16606575048E+02  0.21505849143E+02  0.28183736257E+02  0.51100000000E-03 0.  1.
         12    1    3    3    0    0  0.39694039430E+01 -0.48282245494E+01  0.14904028816E+02  0.16161621049E+02  0.00000000000E+00 0. -1.
</event>
<event>
 7    1  0.2097247E-008  0.4614232E+02  0.7816164E-02  0.1320468E+00
        -11   -1    0    0    0    0  0.00000000000E+00  0.00000000000E+00  0.45593999997E+02  0.45594000000E+02  0.51100000000E-03 0.  1.
         11   -1    0    0    0    0 -0.00000000000E+00 -0.00000000000E+00 -0.45593999997E+02  0.45594000000E+02  0.51100000000E-03 0. -1.
    9900012    2    1    2    0    0 -0.22562714902E+01 -0.44189903814E+02  0.84424559207E+01  0.46142318496E+02  0.10000006705E+02 0.  0.
         12    1    1    2    0    0  0.22562714902E+01  0.44189903814E+02 -0.84424559207E+01  0.45045681504E+02  0.00000000000E+00 0. -1.
         11    1    3    3    0    0  0.31397706841E+00 -0.63293080000E+01 -0.72730673363E+00  0.63786908300E+01  0.51100000000E-03 0. -1.
        -11    1    3    3    0    0 -0.37160723740E+01 -0.21582778838E+02  0.21700361325E+01  0.22007603080E+02  0.51100000000E-03 0.  1.
         12    1    3    3    0    0  0.11458238154E+01 -0.16277816977E+02  0.69997265219E+01  0.17756024587E+02  0.00000000000E+00 0. -1.
</event>
<event>
 7    1  0.2097247E-008  0.4614232E+02  0.7816164E-02  0.1320468E+00
        -11   -1    0    0    0    0  0.00000000000E+00  0.00000000000E+00  0.45593999997E+02  0.45594000000E+02  0.51100000000E-03 0. -1.
         11   -1    0    0    0    0 -0.00000000000E+00 -0.00000000000E+00 -0.45593999997E+02  0.45594000000E+02  0.51100000000E-03 0.  1.
    9900012    2    1    2    0    0 -0.31978148378E+02  0.29498709148E+02  0.11676369533E+02  0.46142318513E+02  0.10000006859E+02 0.  0.
         12    1    1    2    0    0  0.31978148378E+02 -0.29498709148E+02 -0.11676369533E+02  0.45045681487E+02  0.00000000000E+00 0. -1.
         11    1    3    3    0    0 -0.61573924449E+01  0.68196026890E+01  0.31383914334E+01  0.97092720431E+01  0.51100000000E-03 0. -1.
        -11    1    3    3    0    0 -0.16742316590E+02  0.19312636261E+02  0.77970457889E+01  0.26722219358E+02  0.51100000000E-03 0.  1.
         12    1    3    3    0    0 -0.90784393433E+01  0.33664701987E+01  0.74093231100E+00  0.97108271119E+01  0.00000000000E+00 0. -1.
</event>
<event>
 7    1  0.2097247E-008  0.4614232E+02  0.7816164E-02  0.1320468E+00
        -11   -1    0    0    0    0  0.00000000000E+00  0.00000000000E+00  0.45593999997E+02  0.45594000000E+02  0.51100000000E-03 0.  1.
         11   -1    0    0    0    0 -0.00000000000E+00 -0.00000000000E+00 -0.45593999997E+02  0.45594000000E+02  0.51100000000E-03 0. -1.
    9900012    2    1    2    0    0  0.40124373792E+02 -0.15108577794E+02  0.13815895766E+02  0.46142317954E+02  0.10000001761E+02 0.  0.
         12    1    1    2    0    0 -0.40124373792E+02  0.15108577794E+02 -0.13815895766E+02  0.45045682046E+02  0.00000000000E+00 0. -1.
         11    1    3    3    0    0  0.27038707664E+02 -0.58111045772E+01  0.10710880032E+02  0.29657774695E+02  0.51100000000E-03 0. -1.
        -11    1    3    3    0    0  0.50767533378E+01 -0.30253050079E+01  0.20591433377E+01  0.62582718373E+01  0.51100000000E-03 0.  1.
         12    1    3    3    0    0  0.80089127903E+01 -0.62721682092E+01  0.10458723959E+01  0.10226271422E+02  0.00000000000E+00 0. -1.
</event>
<event>
 7    1  0.2097247E-008  0.4614232E+02  0.7816164E-02  0.1320468E+00
        -11   -1    0    0    0    0  0.00000000000E+00  0.00000000000E+00  0.45593999997E+02  0.45594000000E+02  0.51100000000E-03 0.  1.
         11   -1    0    0    0    0 -0.00000000000E+00 -0.00000000000E+00 -0.45593999997E+02  0.45594000000E+02  0.51100000000E-03 0. -1.
    9900012    2    1    2    0    0  0.18730933744E+02 -0.37497632742E+02  0.16498281307E+02  0.46142316230E+02  0.99999860385E+01 0.  0.
         12    1    1    2    0    0 -0.18730933744E+02  0.37497632742E+02 -0.16498281307E+02  0.45045683770E+02  0.00000000000E+00 0. -1.
         11    1    3    3    0    0  0.91801139850E+01 -0.14634112036E+02  0.24287324345E+01  0.17445070059E+02  0.51100000000E-03 0. -1.
        -11    1    3    3    0    0  0.79922183338E+01 -0.16216679233E+02  0.11360816002E+02  0.21352385809E+02  0.51100000000E-03 0.  1.
         12    1    3    3    0    0  0.15586014256E+01 -0.66468414735E+01  0.27087328699E+01  0.73448603621E+01  0.00000000000E+00 0. -1.
</event>
<event>
 7    1  0.2097247E-008  0.4614231E+02  0.7816164E-02  0.1320468E+00
        -11   -1    0    0    0    0  0.00000000000E+00  0.00000000000E+00  0.45593999997E+02  0.45594000000E+02  0.51100000000E-03 0.  1.
         11   -1    0    0    0    0 -0.00000000000E+00 -0.00000000000E+00 -0.45593999997E+02  0.45594000000E+02  0.51100000000E-03 0. -1.
    9900012    2    1    2    0    0 -0.18763296388E+02 -0.32065324262E+02  0.25472877688E+02  0.46142314201E+02  0.99999675388E+01 0.  0.
         12    1    1    2    0    0  0.18763296388E+02  0.32065324262E+02 -0.25472877688E+02  0.45045685799E+02  0.00000000000E+00 0. -1.
         11    1    3    3    0    0 -0.47106085820E+01 -0.28374071466E+01  0.53645342027E+01  0.76823785380E+01  0.51100000000E-03 0. -1.
        -11    1    3    3    0    0 -0.12119914691E+02 -0.22118180090E+02  0.13737725443E+02  0.28719876797E+02  0.51100000000E-03 0.  1.
        -12    1    3    3    0    0 -0.19327731147E+01 -0.71097370259E+01  0.63706180418E+01  0.97400588666E+01  0.00000000000E+00 0.  1.
</event>
<event>
 7    1  0.2097247E-008  0.4614232E+02  0.7816164E-02  0.1320468E+00
        -11   -1    0    0    0    0  0.00000000000E+00  0.00000000000E+00  0.45593999997E+02  0.45594000000E+02  0.51100000000E-03 0. -1.
         11   -1    0    0    0    0 -0.00000000000E+00 -0.00000000000E+00 -0.45593999997E+02  0.45594000000E+02  0.51100000000E-03 0.  1.
    9900012    2    1    2    0    0  0.35427202212E+02  0.27037687870E+02 -0.65566979028E+01  0.46142317529E+02  0.99999978815E+01 0.  0.
         12    1    1    2    0    0 -0.35427202212E+02 -0.27037687870E+02  0.65566979028E+01  0.45045682471E+02  0.00000000000E+00 0. -1.
         11    1    3    3    0    0  0.14107477682E+02  0.65700917953E+01 -0.11221771819E+01  0.15602766250E+02  0.51100000000E-03 0. -1.
        -11    1    3    3    0    0  0.71200298003E+01  0.35726485804E+01 -0.99793744910E+00  0.80283573444E+01  0.51100000000E-03 0.  1.
         12    1    3    3    0    0  0.14199694729E+02  0.16894947494E+02 -0.44365832717E+01  0.22511193935E+02  0.00000000000E+00 0. -1.
</event>
<event>
 7    1  0.2097247E-008  0.4614232E+02  0.7816164E-02  0.1320468E+00
        -11   -1    0    0    0    0  0.00000000000E+00  0.00000000000E+00  0.45593999997E+02  0.45594000000E+02  0.51100000000E-03 0.  1.
         11   -1    0    0    0    0 -0.00000000000E+00 -0.00000000000E+00 -0.45593999997E+02  0.45594000000E+02  0.51100000000E-03 0. -1.
    9900012    2    1    2    0    0 -0.63139895186E+01 -0.35395890123E+02  0.27136285997E+02  0.46142317422E+02  0.99999969035E+01 0.  0.
         12    1    1    2    0    0  0.63139895186E+01  0.35395890123E+02 -0.27136285997E+02  0.45045682578E+02  0.00000000000E+00 0. -1.
         11    1    3    3    0    0 -0.74266607225E+00 -0.10743072257E+02  0.71221596161E+01  0.12910860245E+02  0.51100000000E-03 0. -1.
        -11    1    3    3    0    0 -0.14429039209E+01 -0.18973390104E+02  0.17257347121E+02  0.25688276191E+02  0.51100000000E-03 0.  1.
         12    1    3    3    0    0 -0.41284195254E+01 -0.56794277627E+01  0.27567792593E+01  0.75431809851E+01  0.00000000000E+00 0. -1.
</event>
<event>
 7    1  0.2097247E-008  0.4614232E+02  0.7816164E-02  0.1320468E+00
        -11   -1    0    0    0    0  0.00000000000E+00  0.00000000000E+00  0.45593999997E+02  0.45594000000E+02  0.51100000000E-03 0.  1.
         11   -1    0    0    0    0 -0.00000000000E+00 -0.00000000000E+00 -0.45593999997E+02  0.45594000000E+02  0.51100000000E-03 0. -1.
    9900012    2    1    2    0    0 -0.33449280093E+02 -0.22828482482E+02  0.19726114282E+02  0.46142317234E+02  0.99999951942E+01 0.  0.
         12    1    1    2    0    0  0.33449280093E+02  0.22828482482E+02 -0.19726114282E+02  0.45045682766E+02  0.00000000000E+00 0. -1.
         11    1    3    3    0    0 -0.20415486559E+02 -0.12937135881E+02  0.16223271409E+02  0.29109381850E+02  0.51100000000E-03 0. -1.
        -11    1    3    3    0    0 -0.61303796756E+01 -0.64231825640E+01  0.11277006387E+01  0.89504490507E+01  0.51100000000E-03 0.  1.
         12    1    3    3    0    0 -0.69034138586E+01 -0.34681640377E+01  0.23751422343E+01  0.80824863334E+01  0.00000000000E+00 0. -1.
</event>
<event>
 7    1  0.2097247E-008  0.4614232E+02  0.7816164E-02  0.1320468E+00
        -11   -1    0    0    0    0  0.00000000000E+00  0.00000000000E+00  0.45593999997E+02  0.45594000000E+02  0.51100000000E-03 0.  1.
         11   -1    0    0    0    0 -0.00000000000E+00 -0.00000000000E+00 -0.45593999997E+02  0.45594000000E+02  0.51100000000E-03 0. -1.
    9900012    2    1    2    0    0  0.11448329645E+02 -0.32786101869E+02  0.28690081676E+02  0.46142317477E+02  0.99999974050E+01 0.  0.
         12    1    1    2    0    0 -0.11448329645E+02  0.32786101869E+02 -0.28690081676E+02  0.45045682523E+02  0.00000000000E+00 0. -1.
         11    1    3    3    0    0  0.47473697673E+01 -0.62524988333E+01  0.10559472026E+02  0.13158028390E+02  0.51100000000E-03 0. -1.
        -11    1    3    3    0    0  0.40107672558E+00 -0.47113985247E+01  0.43008084257E+01  0.63917988058E+01  0.51100000000E-03 0.  1.
        -12    1    3    3    0    0  0.62998831518E+01 -0.21822204511E+02  0.13829801224E+02  0.26592490281E+02  0.00000000000E+00 0.  1.
</event>
<event>
 7    1  0.2097247E-008  0.4614232E+02  0.7816164E-02  0.1320468E+00
        -11   -1    0    0    0    0  0.00000000000E+00  0.00000000000E+00  0.45593999997E+02  0.45594000000E+02  0.51100000000E-03 0.  1.
         11   -1    0    0    0    0 -0.00000000000E+00 -0.00000000000E+00 -0.45593999997E+02  0.45594000000E+02  0.51100000000E-03 0. -1.
    9900012    2    1    2    0    0 -0.31042090475E+01  0.30350216203E+02  0.33141239780E+02  0.46142317504E+02  0.99999976578E+01 0.  0.
         12    1    1    2    0    0  0.31042090475E+01 -0.30350216203E+02 -0.33141239780E+02  0.45045682496E+02  0.00000000000E+00 0. -1.
         11    1    3    3    0    0  0.54813297944E+00  0.12045110284E+01  0.26057254945E+01  0.29225164147E+01  0.51100000000E-03 0. -1.
        -11    1    3    3    0    0  0.15574764594E+01  0.43828603981E+01  0.83894132888E+01  0.95925728448E+01  0.51100000000E-03 0.  1.
        -12    1    3    3    0    0 -0.52098184863E+01  0.24762844776E+02  0.22146100996E+02  0.33627228245E+02  0.00000000000E+00 0.  1.
</event>
<event>
 7    1  0.2097247E-008  0.4614232E+02  0.7816164E-02  0.1320468E+00
        -11   -1    0    0    0    0  0.00000000000E+00  0.00000000000E+00  0.45593999997E+02  0.45594000000E+02  0.51100000000E-03 0.  1.
         11   -1    0    0    0    0 -0.00000000000E+00 -0.00000000000E+00 -0.45593999997E+02  0.45594000000E+02  0.51100000000E-03 0. -1.
    9900012    2    1    2    0    0 -0.36899170560E+02 -0.22541200863E+02  0.12627701711E+02  0.46142319021E+02  0.10000011486E+02 0.  0.
         12    1    1    2    0    0  0.36899170560E+02  0.22541200863E+02 -0.12627701711E+02  0.45045680979E+02  0.00000000000E+00 0. -1.
         11    1    3    3    0    0 -0.78343431346E+01 -0.80654679255E+01  0.97641631631E+00  0.11286367630E+02  0.51100000000E-03 0. -1.
        -11    1    3    3    0    0 -0.14661935679E+02 -0.92888449524E+01  0.43392168564E+01  0.17890885992E+02  0.51100000000E-03 0.  1.
        -12    1    3    3    0    0 -0.14402891747E+02 -0.51868879852E+01  0.73120685388E+01  0.16965065398E+02  0.00000000000E+00 0.  1.
</event>
<event>
 7    1  0.2097247E-008  0.4614232E+02  0.7816164E-02  0.1320468E+00
        -11   -1    0    0    0    0  0.00000000000E+00  0.00000000000E+00  0.45593999997E+02  0.45594000000E+02  0.51100000000E-03 0.  1.
         11   -1    0    0    0    0 -0.00000000000E+00 -0.00000000000E+00 -0.45593999997E+02  0.45594000000E+02  0.51100000000E-03 0. -1.
    9900012    2    1    2    0    0 -0.31500693380E+02 -0.47055198193E+01  0.31854006528E+02  0.46142319496E+02  0.10000015821E+02 0.  0.
         12    1    1    2    0    0  0.31500693380E+02  0.47055198193E+01 -0.31854006528E+02  0.45045680504E+02  0.00000000000E+00 0. -1.
         11    1    3    3    0    0 -0.78036047485E+01 -0.36777497488E+01  0.11429423250E+02  0.14319699940E+02  0.51100000000E-03 0. -1.
        -11    1    3    3    0    0 -0.16033126031E+02 -0.24444480368E+01  0.16343769328E+02  0.23025100492E+02  0.51100000000E-03 0.  1.
         12    1    3    3    0    0 -0.76639626000E+01  0.14166779663E+01  0.40808139495E+01  0.87975190641E+01  0.00000000000E+00 0. -1.
</event>
<event>
 7    1  0.2097247E-008  0.4614232E+02  0.7816164E-02  0.1320468E+00
        -11   -1    0    0    0    0  0.00000000000E+00  0.00000000000E+00  0.45593999997E+02  0.45594000000E+02  0.51100000000E-03 0.  1.
         11   -1    0    0    0    0 -0.00000000000E+00 -0.00000000000E+00 -0.45593999997E+02  0.45594000000E+02  0.51100000000E-03 0. -1.
    9900012    2    1    2    0    0  0.23038577527E+02  0.38478962139E+02  0.42079542201E+01  0.46142318071E+02  0.10000002826E+02 0.  0.
         12    1    1    2    0    0 -0.23038577527E+02 -0.38478962139E+02 -0.42079542201E+01  0.45045681929E+02  0.00000000000E+00 0. -1.
         11    1    3    3    0    0  0.44622286738E+01  0.76613929867E+01  0.77158493698E+00  0.88996500387E+01  0.51100000000E-03 0. -1.
        -11    1    3    3    0    0  0.17433832305E+02  0.21563084320E+02  0.32193932470E+01  0.27915400899E+02  0.51100000000E-03 0.  1.
         12    1    3    3    0    0  0.11425165475E+01  0.92544848321E+01  0.21697603606E+00  0.93272671330E+01  0.00000000000E+00 0. -1.
</event>
<event>
 7    1  0.2097247E-008  0.4614232E+02  0.7816164E-02  0.1320468E+00
        -11   -1    0    0    0    0  0.00000000000E+00  0.00000000000E+00  0.45593999997E+02  0.45594000000E+02  0.51100000000E-03 0. -1.
         11   -1    0    0    0    0 -0.00000000000E+00 -0.00000000000E+00 -0.45593999997E+02  0.45594000000E+02  0.51100000000E-03 0.  1.
    9900012    2    1    2    0    0 -0.42457495749E+02  0.72860674168E+01 -0.13167678235E+02  0.46142317923E+02  0.10000001478E+02 0.  0.
         12    1    1    2    0    0  0.42457495749E+02 -0.72860674168E+01  0.13167678235E+02  0.45045682077E+02  0.00000000000E+00 0. -1.
         11    1    3    3    0    0 -0.13994637304E+02 -0.13047732820E+01 -0.40340974587E+01  0.14622798951E+02  0.51100000000E-03 0. -1.
        -11    1    3    3    0    0 -0.14402744328E+02  0.17676501476E+01 -0.37183594916E+01  0.14979647152E+02  0.51100000000E-03 0.  1.
        -12    1    3    3    0    0 -0.14060114117E+02  0.68231905512E+01 -0.54152212848E+01  0.16539871821E+02  0.00000000000E+00 0.  1.
</event>
<event>
 7    1  0.2097247E-008  0.4614232E+02  0.7816164E-02  0.1320468E+00
        -11   -1    0    0    0    0  0.00000000000E+00  0.00000000000E+00  0.45593999997E+02  0.45594000000E+02  0.51100000000E-03 0. -1.
         11   -1    0    0    0    0 -0.00000000000E+00 -0.00000000000E+00 -0.45593999997E+02  0.45594000000E+02  0.51100000000E-03 0.  1.
    9900012    2    1    2    0    0 -0.12852232087E+02 -0.86223202565E+01 -0.42303536601E+02  0.46142317797E+02  0.10000000327E+02 0.  0.
         12    1    1    2    0    0  0.12852232087E+02  0.86223202565E+01  0.42303536601E+02  0.45045682203E+02  0.00000000000E+00 0. -1.
         11    1    3    3    0    0 -0.29428208268E+01 -0.48371074496E+01 -0.76183843185E+01  0.94919746514E+01  0.51100000000E-03 0. -1.
        -11    1    3    3    0    0 -0.57070444717E+01 -0.48649435305E+01 -0.22298141170E+02  0.23525414599E+02  0.51100000000E-03 0.  1.
        -12    1    3    3    0    0 -0.42023667884E+01  0.10797307236E+01 -0.12387011113E+02  0.13124928547E+02  0.00000000000E+00 0.  1.
</event>
<event>
 7    1  0.2097247E-008  0.4614232E+02  0.7816164E-02  0.1320468E+00
        -11   -1    0    0    0    0  0.00000000000E+00  0.00000000000E+00  0.45593999997E+02  0.45594000000E+02  0.51100000000E-03 0.  1.
         11   -1    0    0    0    0 -0.00000000000E+00 -0.00000000000E+00 -0.45593999997E+02  0.45594000000E+02  0.51100000000E-03 0. -1.
    9900012    2    1    2    0    0 -0.97284190688E+01 -0.42259110148E+02  0.12191755290E+02  0.46142318463E+02  0.10000006400E+02 0.  0.
         12    1    1    2    0    0  0.97284190688E+01  0.42259110148E+02 -0.12191755290E+02  0.45045681537E+02  0.00000000000E+00 0. -1.
         11    1    3    3    0    0  0.11730348166E+01 -0.39800458631E+01  0.41274095499E+00  0.41697878975E+01  0.51100000000E-03 0. -1.
        -11    1    3    3    0    0 -0.78776719423E+01 -0.17046471188E+02  0.43547617464E+01  0.19277028954E+02  0.51100000000E-03 0.  1.
         12    1    3    3    0    0 -0.30237819430E+01 -0.21232593097E+02  0.74242525886E+01  0.22695501611E+02  0.00000000000E+00 0. -1.
</event>
<event>
 7    1  0.2097247E-008  0.4614232E+02  0.7816164E-02  0.1320468E+00
        -11   -1    0    0    0    0  0.00000000000E+00  0.00000000000E+00  0.45593999997E+02  0.45594000000E+02  0.51100000000E-03 0. -1.
         11   -1    0    0    0    0 -0.00000000000E+00 -0.00000000000E+00 -0.45593999997E+02  0.45594000000E+02  0.51100000000E-03 0.  1.
    9900012    2    1    2    0    0  0.35119436413E+02  0.24480830723E+02 -0.14015263512E+02  0.46142317652E+02  0.99999990057E+01 0.  0.
         12    1    1    2    0    0 -0.35119436413E+02 -0.24480830723E+02  0.14015263512E+02  0.45045682348E+02  0.00000000000E+00 0. -1.
         11    1    3    3    0    0  0.68152409878E+01  0.37370296742E+01 -0.40872793741E+01  0.87817283863E+01  0.51100000000E-03 0. -1.
        -11    1    3    3    0    0  0.17556537230E+01 -0.67573770188E+00 -0.21907884524E+00  0.18939211278E+01  0.51100000000E-03 0.  1.
        -12    1    3    3    0    0  0.26548541702E+02  0.21419538751E+02 -0.97089052925E+01  0.35466668138E+02  0.00000000000E+00 0.  1.
</event>
<event>
 7    1  0.2097247E-008  0.4614232E+02  0.7816164E-02  0.1320468E+00
        -11   -1    0    0    0    0  0.00000000000E+00  0.00000000000E+00  0.45593999997E+02  0.45594000000E+02  0.51100000000E-03 0. -1.
         11   -1    0    0    0    0 -0.00000000000E+00 -0.00000000000E+00 -0.45593999997E+02  0.45594000000E+02  0.51100000000E-03 0.  1.
    9900012    2    1    2    0    0  0.74004510609E+01  0.22447719746E+02 -0.38346404052E+02  0.46142317616E+02  0.99999986779E+01 0.  0.
         12    1    1    2    0    0 -0.74004510609E+01 -0.22447719746E+02  0.38346404052E+02  0.45045682384E+02  0.00000000000E+00 0. -1.
         11    1    3    3    0    0  0.20680124870E+00  0.85116080519E+01 -0.13970964411E+02  0.16360870552E+02  0.51100000000E-03 0. -1.
        -11    1    3    3    0    0  0.48371223595E+01  0.12949490691E+02 -0.16627322562E+02  0.21623018239E+02  0.51100000000E-03 0.  1.
         12    1    3    3    0    0  0.23565274527E+01  0.98662100293E+00 -0.77481170786E+01  0.81584288256E+01  0.00000000000E+00 0. -1.
</event>
<event>
 7    1  0.2097247E-008  0.4614232E+02  0.7816164E-02  0.1320468E+00
        -11   -1    0    0    0    0  0.00000000000E+00  0.00000000000E+00  0.45593999997E+02  0.45594000000E+02  0.51100000000E-03 0.  1.
         11   -1    0    0    0    0 -0.00000000000E+00 -0.00000000000E+00 -0.45593999997E+02  0.45594000000E+02  0.51100000000E-03 0. -1.
    9900012    2    1    2    0    0  0.40728221508E+02  0.19105306030E+02  0.23049355557E+01  0.46142317925E+02  0.10000001496E+02 0.  0.
         12    1    1    2    0    0 -0.40728221508E+02 -0.19105306030E+02 -0.23049355557E+01  0.45045682075E+02  0.00000000000E+00 0. -1.
         11    1    3    3    0    0 -0.10323801730E+00  0.63816539545E+00  0.52117861991E+00  0.83038579898E+00  0.51100000000E-03 0. -1.
        -11    1    3    3    0    0  0.36923790718E+02  0.18016400111E+02  0.30012987186E+01  0.41194232463E+02  0.51100000000E-03 0.  1.
         12    1    3    3    0    0  0.39076688073E+01  0.45074052362E+00 -0.12175417829E+01  0.41176996637E+01  0.00000000000E+00 0. -1.
</event>
<event>
 7    1  0.2097247E-008  0.4614232E+02  0.7816164E-02  0.1320468E+00
        -11   -1    0    0    0    0  0.00000000000E+00  0.00000000000E+00  0.45593999997E+02  0.45594000000E+02  0.51100000000E-03 0. -1.
         11   -1    0    0    0    0 -0.00000000000E+00 -0.00000000000E+00 -0.45593999997E+02  0.45594000000E+02  0.51100000000E-03 0.  1.
    9900012    2    1    2    0    0  0.33707127210E+02 -0.20192310509E+02 -0.22027567623E+02  0.46142316923E+02  0.99999923589E+01 0.  0.
         12    1    1    2    0    0 -0.33707127210E+02  0.20192310509E+02  0.22027567623E+02  0.45045683077E+02  0.00000000000E+00 0. -1.
         11    1    3    3    0    0  0.22041069182E+02 -0.14261805002E+02 -0.17774781612E+02  0.31704111314E+02  0.51100000000E-03 0. -1.
        -11    1    3    3    0    0 -0.15435718918E+00  0.33424965469E+00  0.78752855013E-01  0.37649866774E+00  0.51100000000E-03 0.  1.
        -12    1    3    3    0    0  0.11820415218E+02 -0.62647551616E+01 -0.43315388659E+01  0.14061706941E+02  0.00000000000E+00 0.  1.
</event>
<event>
 7    1  0.2097247E-008  0.4614232E+02  0.7816164E-02  0.1320468E+00
        -11   -1    0    0    0    0  0.00000000000E+00  0.00000000000E+00  0.45593999997E+02  0.45594000000E+02  0.51100000000E-03 0. -1.
         11   -1    0    0    0    0 -0.00000000000E+00 -0.00000000000E+00 -0.45593999997E+02  0.45594000000E+02  0.51100000000E-03 0.  1.
    9900012    2    1    2    0    0  0.70110668389E+01 -0.44265566010E+02 -0.45296881149E+01  0.46142318000E+02  0.10000002179E+02 0.  0.
         12    1    1    2    0    0 -0.70110668389E+01  0.44265566010E+02  0.45296881149E+01  0.45045682000E+02  0.00000000000E+00 0. -1.
         11    1    3    3    0    0 -0.16415904955E+00 -0.75876341618E+00  0.12940365909E+01  0.15090397858E+01  0.51100000000E-03 0. -1.
        -11    1    3    3    0    0  0.67216109921E+01 -0.34734964087E+02 -0.57878577707E+01  0.35849645498E+02  0.51100000000E-03 0.  1.
        -12    1    3    3    0    0  0.45361489640E+00 -0.87718385068E+01 -0.35866935094E-01  0.87836327166E+01  0.00000000000E+00 0.  1.
</event>
<event>
 7    1  0.2097247E-008  0.4614232E+02  0.7816164E-02  0.1320468E+00
        -11   -1    0    0    0    0  0.00000000000E+00  0.00000000000E+00  0.45593999997E+02  0.45594000000E+02  0.51100000000E-03 0.  1.
         11   -1    0    0    0    0 -0.00000000000E+00 -0.00000000000E+00 -0.45593999997E+02  0.45594000000E+02  0.51100000000E-03 0. -1.
    9900012    2    1    2    0    0  0.21099378499E+01  0.38923495085E+00  0.44994556379E+02  0.46142318239E+02  0.10000004358E+02 0.  0.
         12    1    1    2    0    0 -0.21099378499E+01 -0.38923495085E+00 -0.44994556379E+02  0.45045681761E+02  0.00000000000E+00 0. -1.
         11    1    3    3    0    0  0.11880226322E+00  0.11222078760E+01  0.23929608287E+01  0.26456995829E+01  0.51100000000E-03 0. -1.
        -11    1    3    3    0    0  0.37666553484E+01  0.70965634568E-01  0.80266691283E+01  0.88668002228E+01  0.51100000000E-03 0.  1.
        -12    1    3    3    0    0 -0.17755197617E+01 -0.80393855969E+00  0.34574926422E+02  0.34629818433E+02  0.00000000000E+00 0.  1.
</event>
<event>
 7    1  0.2097247E-008  0.4614232E+02  0.7816164E-02  0.1320468E+00
        -11   -1    0    0    0    0  0.00000000000E+00  0.00000000000E+00  0.45593999997E+02  0.45594000000E+02  0.51100000000E-03 0. -1.
         11   -1    0    0    0    0 -0.00000000000E+00 -0.00000000000E+00 -0.45593999997E+02  0.45594000000E+02  0.51100000000E-03 0.  1.
    9900012    2    1    2    0    0  0.40297463079E+02 -0.18577486794E+02  0.77527395672E+01  0.46142317444E+02  0.99999971071E+01 0.  0.
         12    1    1    2    0    0 -0.40297463079E+02  0.18577486794E+02 -0.77527395672E+01  0.45045682556E+02  0.00000000000E+00 0. -1.
         11    1    3    3    0    0  0.14121850571E+02 -0.82777228900E+01  0.23311295116E+01  0.16534253078E+02  0.51100000000E-03 0. -1.
        -11    1    3    3    0    0  0.24184484003E+02 -0.84570036969E+01  0.26953094412E+01  0.25761887960E+02  0.51100000000E-03 0.  1.
         12    1    3    3    0    0  0.19911285044E+01 -0.18427602073E+01  0.27263006143E+01  0.38461764055E+01  0.00000000000E+00 0. -1.
</event>
<event>
 7    1  0.2097247E-008  0.4614232E+02  0.7816164E-02  0.1320468E+00
        -11   -1    0    0    0    0  0.00000000000E+00  0.00000000000E+00  0.45593999997E+02  0.45594000000E+02  0.51100000000E-03 0.  1.
         11   -1    0    0    0    0 -0.00000000000E+00 -0.00000000000E+00 -0.45593999997E+02  0.45594000000E+02  0.51100000000E-03 0. -1.
    9900012    2    1    2    0    0 -0.30819947592E+02 -0.17020862023E+02  0.28098655904E+02  0.46142318995E+02  0.10000011253E+02 0.  0.
         12    1    1    2    0    0  0.30819947592E+02  0.17020862023E+02 -0.28098655904E+02  0.45045681005E+02  0.00000000000E+00 0. -1.
         11    1    3    3    0    0 -0.17458711089E+02 -0.13285316818E+02  0.16587776534E+02  0.27503828214E+02  0.51100000000E-03 0. -1.
        -11    1    3    3    0    0 -0.74009487557E+01 -0.40668271122E+01  0.83834366622E+01  0.11899375436E+02  0.51100000000E-03 0.  1.
        -12    1    3    3    0    0 -0.59602877474E+01  0.33128190735E+00  0.31274427078E+01  0.67391153443E+01  0.00000000000E+00 0.  1.
</event>
<event>
 7    1  0.2097247E-008  0.4614232E+02  0.7816164E-02  0.1320468E+00
        -11   -1    0    0    0    0  0.00000000000E+00  0.00000000000E+00  0.45593999997E+02  0.45594000000E+02  0.51100000000E-03 0.  1.
         11   -1    0    0    0    0 -0.00000000000E+00 -0.00000000000E+00 -0.45593999997E+02  0.45594000000E+02  0.51100000000E-03 0. -1.
    9900012    2    1    2    0    0 -0.24800605971E+02 -0.36373568847E+02 -0.95397617650E+01  0.46142316281E+02  0.99999865004E+01 0.  0.
         12    1    1    2    0    0  0.24800605971E+02  0.36373568847E+02  0.95397617650E+01  0.45045683719E+02  0.00000000000E+00 0. -1.
         11    1    3    3    0    0 -0.10256536545E+01 -0.67956706079E+01 -0.93638624093E+00  0.69361317665E+01  0.51100000000E-03 0. -1.
        -11    1    3    3    0    0 -0.12912667971E+02 -0.15492759313E+02 -0.21416400204E+01  0.20281745672E+02  0.51100000000E-03 0.  1.
        -12    1    3    3    0    0 -0.10862284345E+02 -0.14085138926E+02 -0.64617355037E+01  0.18924438842E+02  0.00000000000E+00 0.  1.
</event>
<event>
 7    1  0.2097247E-008  0.4614232E+02  0.7816164E-02  0.1320468E+00
        -11   -1    0    0    0    0  0.00000000000E+00  0.00000000000E+00  0.45593999997E+02  0.45594000000E+02  0.51100000000E-03 0.  1.
         11   -1    0    0    0    0 -0.00000000000E+00 -0.00000000000E+00 -0.45593999997E+02  0.45594000000E+02  0.51100000000E-03 0. -1.
    9900012    2    1    2    0    0 -0.36309640908E+02 -0.39129852990E+01  0.26370666008E+02  0.46142317604E+02  0.99999985661E+01 0.  0.
         12    1    1    2    0    0  0.36309640908E+02  0.39129852990E+01 -0.26370666008E+02  0.45045682396E+02  0.00000000000E+00 0. -1.
         11    1    3    3    0    0 -0.61406166153E+01 -0.19143231011E+01  0.64048382017E+01  0.90771007487E+01  0.51100000000E-03 0. -1.
        -11    1    3    3    0    0 -0.29139100588E+02 -0.23669557417E+01  0.16805877105E+02  0.33721316228E+02  0.51100000000E-03 0.  1.
        -12    1    3    3    0    0 -0.10299237041E+01  0.36829354376E+00  0.31599507016E+01  0.33439006276E+01  0.00000000000E+00 0.  1.
</event>
<event>
 7    1  0.2097247E-008  0.4614232E+02  0.7816164E-02  0.1320468E+00
        -11   -1    0    0    0    0  0.00000000000E+00  0.00000000000E+00  0.45593999997E+02  0.45594000000E+02  0.51100000000E-03 0.  1.
         11   -1    0    0    0    0 -0.00000000000E+00 -0.00000000000E+00 -0.45593999997E+02  0.45594000000E+02  0.51100000000E-03 0. -1.
    9900012    2    1    2    0    0  0.29792840217E+02 -0.14176465641E+02  0.30668024821E+02  0.46142320377E+02  0.10000023854E+02 0.  0.
         12    1    1    2    0    0 -0.29792840217E+02  0.14176465641E+02 -0.30668024821E+02  0.45045679623E+02  0.00000000000E+00 0. -1.
         11    1    3    3    0    0  0.17487233083E+02 -0.53698361962E+01  0.13221387512E+02  0.22570856202E+02  0.51100000000E-03 0. -1.
        -11    1    3    3    0    0  0.48384901715E+01 -0.57527011939E+01  0.62775275763E+01  0.97934626613E+01  0.51100000000E-03 0.  1.
         12    1    3    3    0    0  0.74671169618E+01 -0.30539282513E+01  0.11169109733E+02  0.13778001514E+02  0.00000000000E+00 0. -1.
</event>
<event>
 7    1  0.2097247E-008  0.4614232E+02  0.7816164E-02  0.1320468E+00
        -11   -1    0    0    0    0  0.00000000000E+00  0.00000000000E+00  0.45593999997E+02  0.45594000000E+02  0.51100000000E-03 0. -1.
         11   -1    0    0    0    0 -0.00000000000E+00 -0.00000000000E+00 -0.45593999997E+02  0.45594000000E+02  0.51100000000E-03 0.  1.
    9900012    2    1    2    0    0  0.34410252689E+02 -0.23029158395E+02 -0.17739952497E+02  0.46142317176E+02  0.99999946648E+01 0.  0.
         12    1    1    2    0    0 -0.34410252689E+02  0.23029158395E+02  0.17739952497E+02  0.45045682824E+02  0.00000000000E+00 0. -1.
         11    1    3    3    0    0  0.82167037620E+01 -0.40537696673E+01 -0.77825199681E+01  0.12021434463E+02  0.51100000000E-03 0. -1.
        -11    1    3    3    0    0  0.17305612799E+02 -0.10445220525E+02 -0.48648694104E+01  0.20790714774E+02  0.51100000000E-03 0.  1.
         12    1    3    3    0    0  0.88879361276E+01 -0.85301682030E+01 -0.50925631186E+01  0.13330167940E+02  0.00000000000E+00 0. -1.
</event>
<event>
 7    1  0.2097247E-008  0.4614232E+02  0.7816164E-02  0.1320468E+00
        -11   -1    0    0    0    0  0.00000000000E+00  0.00000000000E+00  0.45593999997E+02  0.45594000000E+02  0.51100000000E-03 0.  1.
         11   -1    0    0    0    0 -0.00000000000E+00 -0.00000000000E+00 -0.45593999997E+02  0.45594000000E+02  0.51100000000E-03 0. -1.
    9900012    2    1    2    0    0  0.34340604031E+02  0.25468867125E+02  0.14183553821E+02  0.46142317889E+02  0.10000001166E+02 0.  0.
         12    1    1    2    0    0 -0.34340604031E+02 -0.25468867125E+02 -0.14183553821E+02  0.45045682111E+02  0.00000000000E+00 0. -1.
         11    1    3    3    0    0  0.60214435570E+01  0.80576929534E+01  0.71429812101E+00  0.10084365142E+02  0.51100000000E-03 0. -1.
        -11    1    3    3    0    0  0.22304813435E+02  0.14928272395E+02  0.11931124327E+02  0.29371921065E+02  0.51100000000E-03 0.  1.
         12    1    3    3    0    0  0.60143470390E+01  0.24829017764E+01  0.15381313731E+01  0.66860316824E+01  0.00000000000E+00 0. -1.
</event>
<event>
 7    1  0.2097247E-008  0.4614232E+02  0.7816164E-02  0.1320468E+00
        -11   -1    0    0    0    0  0.00000000000E+00  0.00000000000E+00  0.45593999997E+02  0.45594000000E+02  0.51100000000E-03 0.  1.
         11   -1    0    0    0    0 -0.00000000000E+00 -0.00000000000E+00 -0.45593999997E+02  0.45594000000E+02  0.51100000000E-03 0. -1.
    9900012    2    1    2    0    0  0.32803385522E+02  0.26694700802E+01  0.30755897556E+02  0.46142318668E+02  0.10000008267E+02 0.  0.
         12    1    1    2    0    0 -0.32803385522E+02 -0.26694700802E+01 -0.30755897556E+02  0.45045681332E+02  0.00000000000E+00 0. -1.
         11    1    3    3    0    0  0.98231959320E+01 -0.13502922260E+01  0.80223099014E+01  0.12754447218E+02  0.51100000000E-03 0. -1.
        -11    1    3    3    0    0  0.11807683713E+02 -0.14365793414E+01  0.12797889078E+02  0.17472009615E+02  0.51100000000E-03 0.  1.
        -12    1    3    3    0    0  0.11172505877E+02  0.54563416476E+01  0.99356985762E+01  0.15915861835E+02  0.00000000000E+00 0.  1.
</event>
<event>
 7    1  0.2097247E-008  0.4614232E+02  0.7816164E-02  0.1320468E+00
        -11   -1    0    0    0    0  0.00000000000E+00  0.00000000000E+00  0.45593999997E+02  0.45594000000E+02  0.51100000000E-03 0.  1.
         11   -1    0    0    0    0 -0.00000000000E+00 -0.00000000000E+00 -0.45593999997E+02  0.45594000000E+02  0.51100000000E-03 0. -1.
    9900012    2    1    2    0    0  0.11713481173E+02 -0.26198740927E+02  0.34720796949E+02  0.46142318652E+02  0.10000008125E+02 0.  0.
         12    1    1    2    0    0 -0.11713481173E+02  0.26198740927E+02 -0.34720796949E+02  0.45045681348E+02  0.00000000000E+00 0. -1.
         11    1    3    3    0    0  0.26719101504E+01 -0.42728971288E+01  0.13967932400E+01  0.52295110040E+01  0.51100000000E-03 0. -1.
        -11    1    3    3    0    0  0.55700374255E+01 -0.14221043336E+02  0.20834808303E+02  0.25833169139E+02  0.51100000000E-03 0.  1.
         12    1    3    3    0    0  0.34715335967E+01 -0.77048004622E+01  0.12489195405E+02  0.15079638509E+02  0.00000000000E+00 0. -1.
</event>
<event>
 7    1  0.2097247E-008  0.4614231E+02  0.7816164E-02  0.1320468E+00
        -11   -1    0    0    0    0  0.00000000000E+00  0.00000000000E+00  0.45593999997E+02  0.45594000000E+02  0.51100000000E-03 0.  1.
         11   -1    0    0    0    0 -0.00000000000E+00 -0.00000000000E+00 -0.45593999997E+02  0.45594000000E+02  0.51100000000E-03 0. -1.
    9900012    2    1    2    0    0 -0.66050112710E+01 -0.39414808129E+02  0.20783659731E+02  0.46142314463E+02  0.99999699212E+01 0.  0.
         12    1    1    2    0    0  0.66050112710E+01  0.39414808129E+02 -0.20783659731E+02  0.45045685537E+02  0.00000000000E+00 0. -1.
         11    1    3    3    0    0 -0.60697856928E+01 -0.29397544171E+02  0.15850792669E+02  0.33945626083E+02  0.51100000000E-03 0. -1.
        -11    1    3    3    0    0 -0.16942406015E+01 -0.89322171795E+01  0.27514923393E+01  0.94987191406E+01  0.51100000000E-03 0.  1.
         12    1    3    3    0    0  0.11590150232E+01 -0.10850467783E+01  0.21813747229E+01  0.26979692394E+01  0.00000000000E+00 0. -1.
</event>
<event>
 7    1  0.2097247E-008  0.4614232E+02  0.7816164E-02  0.1320468E+00
        -11   -1    0    0    0    0  0.00000000000E+00  0.00000000000E+00  0.45593999997E+02  0.45594000000E+02  0.51100000000E-03 0.  1.
         11   -1    0    0    0    0 -0.00000000000E+00 -0.00000000000E+00 -0.45593999997E+02  0.45594000000E+02  0.51100000000E-03 0. -1.
    9900012    2    1    2    0    0  0.93730674970E+01 -0.20558530730E+02  0.38969293117E+02  0.46142318896E+02  0.10000010347E+02 0.  0.
         12    1    1    2    0    0 -0.93730674970E+01  0.20558530730E+02 -0.38969293117E+02  0.45045681104E+02  0.00000000000E+00 0. -1.
         11    1    3    3    0    0 -0.77143263962E+00 -0.34040214516E+01  0.24400154094E+01  0.42586554004E+01  0.51100000000E-03 0. -1.
        -11    1    3    3    0    0  0.12336619464E+01 -0.15181369897E+01  0.73040433502E+01  0.75614622422E+01  0.51100000000E-03 0.  1.
         12    1    3    3    0    0  0.89108381902E+01 -0.15636372288E+02  0.29225234358E+02  0.34322201253E+02  0.00000000000E+00 0. -1.
</event>
<event>
 7    1  0.2097247E-008  0.4614232E+02  0.7816164E-02  0.1320468E+00
        -11   -1    0    0    0    0  0.00000000000E+00  0.00000000000E+00  0.45593999997E+02  0.45594000000E+02  0.51100000000E-03 0.  1.
         11   -1    0    0    0    0 -0.00000000000E+00 -0.00000000000E+00 -0.45593999997E+02  0.45594000000E+02  0.51100000000E-03 0. -1.
    9900012    2    1    2    0    0 -0.16496773059E+02 -0.41247389147E+02  0.74580732362E+01  0.46142317752E+02  0.99999999174E+01 0.  0.
         12    1    1    2    0    0  0.16496773059E+02  0.41247389147E+02 -0.74580732362E+01  0.45045682248E+02  0.00000000000E+00 0. -1.
         11    1    3    3    0    0 -0.67957555922E+01 -0.14162400997E+02  0.18605375244E+01  0.15818264639E+02  0.51100000000E-03 0. -1.
        -11    1    3    3    0    0 -0.56725324254E+01 -0.17237323460E+02 -0.31972733999E+00  0.18149522584E+02  0.51100000000E-03 0.  1.
         12    1    3    3    0    0 -0.40284850411E+01 -0.98476646900E+01  0.59172630518E+01  0.12174530529E+02  0.00000000000E+00 0. -1.
</event>
<event>
 7    1  0.2097247E-008  0.4614232E+02  0.7816164E-02  0.1320468E+00
        -11   -1    0    0    0    0  0.00000000000E+00  0.00000000000E+00  0.45593999997E+02  0.45594000000E+02  0.51100000000E-03 0.  1.
         11   -1    0    0    0    0 -0.00000000000E+00 -0.00000000000E+00 -0.45593999997E+02  0.45594000000E+02  0.51100000000E-03 0. -1.
    9900012    2    1    2    0    0  0.40428020306E+01 -0.34742849569E+02  0.28384920048E+02  0.46142317293E+02  0.99999957290E+01 0.  0.
         12    1    1    2    0    0 -0.40428020306E+01  0.34742849569E+02 -0.28384920048E+02  0.45045682707E+02  0.00000000000E+00 0. -1.
         11    1    3    3    0    0 -0.15760477385E+01 -0.31730638449E+01  0.22625449467E+01  0.42037329286E+01  0.51100000000E-03 0. -1.
        -11    1    3    3    0    0  0.54565929945E+00 -0.21291199564E+02  0.15878447924E+02  0.26565730400E+02  0.51100000000E-03 0.  1.
        -12    1    3    3    0    0  0.50731904696E+01 -0.10278586160E+02  0.10243927178E+02  0.15372853965E+02  0.00000000000E+00 0.  1.
</event>
<event>
 7    1  0.2097247E-008  0.4614232E+02  0.7816164E-02  0.1320468E+00
        -11   -1    0    0    0    0  0.00000000000E+00  0.00000000000E+00  0.45593999997E+02  0.45594000000E+02  0.51100000000E-03 0.  1.
         11   -1    0    0    0    0 -0.00000000000E+00 -0.00000000000E+00 -0.45593999997E+02  0.45594000000E+02  0.51100000000E-03 0. -1.
    9900012    2    1    2    0    0  0.21440821800E+01 -0.24694456298E+02  0.37612497273E+02  0.46142320836E+02  0.10000028040E+02 0.  0.
         12    1    1    2    0    0 -0.21440821800E+01  0.24694456298E+02 -0.37612497273E+02  0.45045679164E+02  0.00000000000E+00 0. -1.
         11    1    3    3    0    0 -0.11213332017E+01 -0.48588155396E+01  0.11975862077E+02  0.12972538277E+02  0.51100000000E-03 0. -1.
        -11    1    3    3    0    0 -0.63732928169E+00 -0.12058126622E+02  0.17463582365E+02  0.21231611233E+02  0.51100000000E-03 0.  1.
         12    1    3    3    0    0  0.39027446634E+01 -0.77775141367E+01  0.81730528303E+01  0.11938171327E+02  0.00000000000E+00 0. -1.
</event>
<event>
 7    1  0.2097247E-008  0.4614232E+02  0.7816164E-02  0.1320468E+00
        -11   -1    0    0    0    0  0.00000000000E+00  0.00000000000E+00  0.45593999997E+02  0.45594000000E+02  0.51100000000E-03 0.  1.
         11   -1    0    0    0    0 -0.00000000000E+00 -0.00000000000E+00 -0.45593999997E+02  0.45594000000E+02  0.51100000000E-03 0. -1.
    9900012    2    1    2    0    0  0.11422167125E+01  0.32172967992E+02  0.31507284208E+02  0.46142317781E+02  0.10000000179E+02 0.  0.
         12    1    1    2    0    0 -0.11422167125E+01 -0.32172967992E+02 -0.31507284208E+02  0.45045682219E+02  0.00000000000E+00 0. -1.
         11    1    3    3    0    0 -0.20016174658E+01  0.17144541695E+01  0.14942429267E+01  0.30296184189E+01  0.51100000000E-03 0. -1.
        -11    1    3    3    0    0  0.16443402844E+01  0.75449684384E+01  0.52274174522E+01  0.93250360422E+01  0.51100000000E-03 0.  1.
        -12    1    3    3    0    0  0.14994938939E+01  0.22913545384E+02  0.24785623829E+02  0.33787663320E+02  0.00000000000E+00 0.  1.
</event>
<event>
 7    1  0.2097247E-008  0.4614232E+02  0.7816164E-02  0.1320468E+00
        -11   -1    0    0    0    0  0.00000000000E+00  0.00000000000E+00  0.45593999997E+02  0.45594000000E+02  0.51100000000E-03 0.  1.
         11   -1    0    0    0    0 -0.00000000000E+00 -0.00000000000E+00 -0.45593999997E+02  0.45594000000E+02  0.51100000000E-03 0. -1.
    9900012    2    1    2    0    0  0.25964677092E+02  0.34340010601E+02 -0.13255663323E+02  0.46142318801E+02  0.10000009482E+02 0.  0.
         12    1    1    2    0    0 -0.25964677092E+02 -0.34340010601E+02  0.13255663323E+02  0.45045681199E+02  0.00000000000E+00 0. -1.
         11    1    3    3    0    0  0.51317261092E+01  0.34984538518E+01 -0.49760236580E+01  0.79583040856E+01  0.51100000000E-03 0. -1.
        -11    1    3    3    0    0  0.11252191116E+02  0.15396759853E+02 -0.50086318969E+01  0.19716957489E+02  0.51100000000E-03 0.  1.
         12    1    3    3    0    0  0.95807598665E+01  0.15444796896E+02 -0.32710077681E+01  0.18467057226E+02  0.00000000000E+00 0. -1.
</event>
<event>
 7    1  0.2097247E-008  0.4614232E+02  0.7816164E-02  0.1320468E+00
        -11   -1    0    0    0    0  0.00000000000E+00  0.00000000000E+00  0.45593999997E+02  0.45594000000E+02  0.51100000000E-03 0.  1.
         11   -1    0    0    0    0 -0.00000000000E+00 -0.00000000000E+00 -0.45593999997E+02  0.45594000000E+02  0.51100000000E-03 0. -1.
    9900012    2    1    2    0    0 -0.27398789506E+02 -0.37587555046E+01  0.35556877430E+02  0.46142318276E+02  0.10000004699E+02 0.  0.
         12    1    1    2    0    0  0.27398789506E+02  0.37587555046E+01 -0.35556877430E+02  0.45045681724E+02  0.00000000000E+00 0. -1.
         11    1    3    3    0    0 -0.12770974830E+01  0.11189263055E+01  0.64069159909E+01  0.66280877207E+01  0.51100000000E-03 0. -1.
        -11    1    3    3    0    0 -0.95489008101E+01 -0.13904677000E+01  0.12180973149E+02  0.15539981152E+02  0.51100000000E-03 0.  1.
         12    1    3    3    0    0 -0.16572791213E+02 -0.34872141100E+01  0.16968988290E+02  0.23974249403E+02  0.00000000000E+00 0. -1.
</event>
<event>
 7    1  0.2097247E-008  0.4614232E+02  0.7816164E-02  0.1320468E+00
        -11   -1    0    0    0    0  0.00000000000E+00  0.00000000000E+00  0.45593999997E+02  0.45594000000E+02  0.51100000000E-03 0.  1.
         11   -1    0    0    0    0 -0.00000000000E+00 -0.00000000000E+00 -0.45593999997E+02  0.45594000000E+02  0.51100000000E-03 0. -1.
    9900012    2    1    2    0    0  0.59600665258E+01 -0.44326093235E+02  0.53654962762E+01  0.46142317801E+02  0.10000000364E+02 0.  0.
         12    1    1    2    0    0 -0.59600665258E+01  0.44326093235E+02 -0.53654962762E+01  0.45045682199E+02  0.00000000000E+00 0. -1.
         11    1    3    3    0    0 -0.12046947929E+01 -0.12816681412E+02  0.27786326821E+01  0.13169639775E+02  0.51100000000E-03 0. -1.
        -11    1    3    3    0    0  0.88375563045E+00 -0.44570972344E+01 -0.17401992961E+01  0.48656997053E+01  0.51100000000E-03 0.  1.
        -12    1    3    3    0    0  0.62810056882E+01 -0.27052314589E+02  0.43270628902E+01  0.28106978321E+02  0.00000000000E+00 0.  1.
</event>
<event>
 7    1  0.2097247E-008  0.4614233E+02  0.7816164E-02  0.1320468E+00
        -11   -1    0    0    0    0  0.00000000000E+00  0.00000000000E+00  0.45593999997E+02  0.45594000000E+02  0.51100000000E-03 0.  1.
         11   -1    0    0    0    0 -0.00000000000E+00 -0.00000000000E+00 -0.45593999997E+02  0.45594000000E+02  0.51100000000E-03 0. -1.
    9900012    2    1    2    0    0  0.29074766428E+02  0.14268638068E+02  0.31307763797E+02  0.46142332626E+02  0.10000135551E+02 0.  0.
         12    1    1    2    0    0 -0.29074766428E+02 -0.14268638068E+02 -0.31307763797E+02  0.45045667374E+02  0.00000000000E+00 0. -1.
         11    1    3    3    0    0  0.22628606990E+00  0.37392094805E+00 -0.56011695347E-01  0.44063571343E+00  0.51100000000E-03 0. -1.
        -11    1    3    3    0    0  0.24934799712E+02  0.14370488000E+02  0.29889371768E+02  0.41492525917E+02  0.51100000000E-03 0.  1.
        -12    1    3    3    0    0  0.39136806458E+01 -0.47577087978E+00  0.14744037250E+01  0.42091709958E+01  0.00000000000E+00 0.  1.
</event>
<event>
 7    1  0.2097247E-008  0.4614232E+02  0.7816164E-02  0.1320468E+00
        -11   -1    0    0    0    0  0.00000000000E+00  0.00000000000E+00  0.45593999997E+02  0.45594000000E+02  0.51100000000E-03 0. -1.
         11   -1    0    0    0    0 -0.00000000000E+00 -0.00000000000E+00 -0.45593999997E+02  0.45594000000E+02  0.51100000000E-03 0.  1.
    9900012    2    1    2    0    0 -0.33533763476E+02 -0.24325887893E+02  0.17687599544E+02  0.46142319938E+02  0.10000019846E+02 0.  0.
         12    1    1    2    0    0  0.33533763476E+02  0.24325887893E+02 -0.17687599544E+02  0.45045680062E+02  0.00000000000E+00 0. -1.
         11    1    3    3    0    0 -0.26530732404E+02 -0.22851029474E+02  0.13810877184E+02  0.37640266189E+02  0.51100000000E-03 0.  1.
        -11    1    3    3    0    0 -0.18564840336E+01 -0.13656428486E+01  0.19034937029E+01  0.29891138980E+01  0.51100000000E-03 0. -1.
         12    1    3    3    0    0 -0.51465470384E+01 -0.10921556982E+00  0.19732286570E+01  0.55129398502E+01  0.00000000000E+00 0. -1.
</event>
<event>
 7    1  0.2097247E-008  0.4614232E+02  0.7816164E-02  0.1320468E+00
        -11   -1    0    0    0    0  0.00000000000E+00  0.00000000000E+00  0.45593999997E+02  0.45594000000E+02  0.51100000000E-03 0. -1.
         11   -1    0    0    0    0 -0.00000000000E+00 -0.00000000000E+00 -0.45593999997E+02  0.45594000000E+02  0.51100000000E-03 0.  1.
    9900012    2    1    2    0    0  0.14603096646E+01 -0.19416836836E+02 -0.40619790599E+02  0.46142318239E+02  0.10000004356E+02 0.  0.
         12    1    1    2    0    0 -0.14603096646E+01  0.19416836836E+02  0.40619790599E+02  0.45045681761E+02  0.00000000000E+00 0. -1.
         11    1    3    3    0    0  0.26894600763E+01 -0.13872510662E+01 -0.91118721116E+01  0.96012433915E+01  0.51100000000E-03 0.  1.
        -11    1    3    3    0    0  0.10498588544E+01 -0.48380396288E+01 -0.64443194962E+01  0.81263820421E+01  0.51100000000E-03 0. -1.
        -12    1    3    3    0    0 -0.22790092661E+01 -0.13191546141E+02 -0.25063598991E+02  0.28414692805E+02  0.00000000000E+00 0.  1.
</event>
<event>
 7    1  0.2097247E-008  0.4614232E+02  0.7816164E-02  0.1320468E+00
        -11   -1    0    0    0    0  0.00000000000E+00  0.00000000000E+00  0.45593999997E+02  0.45594000000E+02  0.51100000000E-03 0. -1.
         11   -1    0    0    0    0 -0.00000000000E+00 -0.00000000000E+00 -0.45593999997E+02  0.45594000000E+02  0.51100000000E-03 0.  1.
    9900012    2    1    2    0    0 -0.32344864928E+02 -0.13905947309E+02 -0.28098894041E+02  0.46142317587E+02  0.99999984119E+01 0.  0.
         12    1    1    2    0    0  0.32344864928E+02  0.13905947309E+02  0.28098894041E+02  0.45045682413E+02  0.00000000000E+00 0. -1.
         11    1    3    3    0    0 -0.20352184486E+02 -0.11445411105E+02 -0.19539925004E+02  0.30446962380E+02  0.51100000000E-03 0. -1.
        -11    1    3    3    0    0 -0.91388353262E+01 -0.17056413623E+01 -0.36916123571E+01  0.10002775896E+02  0.51100000000E-03 0.  1.
        -12    1    3    3    0    0 -0.28538451151E+01 -0.75489484136E+00 -0.48673566799E+01  0.56925793110E+01  0.00000000000E+00 0.  1.
</event>
<event>
 7    1  0.2097247E-008  0.4614231E+02  0.7816164E-02  0.1320468E+00
        -11   -1    0    0    0    0  0.00000000000E+00  0.00000000000E+00  0.45593999997E+02  0.45594000000E+02  0.51100000000E-03 0.  1.
         11   -1    0    0    0    0 -0.00000000000E+00 -0.00000000000E+00 -0.45593999997E+02  0.45594000000E+02  0.51100000000E-03 0. -1.
    9900012    2    1    2    0    0  0.21255312520E+02  0.10669012744E+02  0.38255695234E+02  0.46142308074E+02  0.99999116693E+01 0.  0.
         12    1    1    2    0    0 -0.21255312520E+02 -0.10669012744E+02 -0.38255695234E+02  0.45045691926E+02  0.00000000000E+00 0. -1.
         11    1    3    3    0    0  0.82210986752E+00  0.17740796443E+01  0.14564295705E+01  0.24381161936E+01  0.51100000000E-03 0. -1.
        -11    1    3    3    0    0  0.20527518248E+02  0.73550693208E+01  0.35611841688E+02  0.41757386398E+02  0.51100000000E-03 0.  1.
        -12    1    3    3    0    0 -0.94315596381E-01  0.15398637792E+01  0.11874239754E+01  0.19468054827E+01  0.00000000000E+00 0.  1.
</event>
<event>
 7    1  0.2097247E-008  0.4614232E+02  0.7816164E-02  0.1320468E+00
        -11   -1    0    0    0    0  0.00000000000E+00  0.00000000000E+00  0.45593999997E+02  0.45594000000E+02  0.51100000000E-03 0.  1.
         11   -1    0    0    0    0 -0.00000000000E+00 -0.00000000000E+00 -0.45593999997E+02  0.45594000000E+02  0.51100000000E-03 0. -1.
    9900012    2    1    2    0    0 -0.17319853457E+02 -0.31771109951E+02  0.26827835849E+02  0.46142317325E+02  0.99999960265E+01 0.  0.
         12    1    1    2    0    0  0.17319853457E+02  0.31771109951E+02 -0.26827835849E+02  0.45045682675E+02  0.00000000000E+00 0. -1.
         11    1    3    3    0    0 -0.10131340163E+02 -0.24951678787E+02  0.20570202263E+02  0.33887513175E+02  0.51100000000E-03 0.  1.
        -11    1    3    3    0    0 -0.44668601523E+00 -0.52012416426E+00  0.19595922913E+01  0.20760683398E+01  0.51100000000E-03 0. -1.
        -12    1    3    3    0    0 -0.67418272782E+01 -0.62993069997E+01  0.42980412946E+01  0.10178735810E+02  0.00000000000E+00 0.  1.
</event>
<event>
 7    1  0.2097247E-008  0.4614232E+02  0.7816164E-02  0.1320468E+00
        -11   -1    0    0    0    0  0.00000000000E+00  0.00000000000E+00  0.45593999997E+02  0.45594000000E+02  0.51100000000E-03 0. -1.
         11   -1    0    0    0    0 -0.00000000000E+00 -0.00000000000E+00 -0.45593999997E+02  0.45594000000E+02  0.51100000000E-03 0.  1.
    9900012    2    1    2    0    0  0.30745337539E+02 -0.19022578354E+02 -0.26869670183E+02  0.46142318261E+02  0.10000004554E+02 0.  0.
         12    1    1    2    0    0 -0.30745337539E+02  0.19022578354E+02  0.26869670183E+02  0.45045681739E+02  0.00000000000E+00 0. -1.
         11    1    3    3    0    0  0.36418195189E+01 -0.21633133141E+01 -0.10061249308E+01  0.43537410971E+01  0.51100000000E-03 0. -1.
        -11    1    3    3    0    0  0.20651538339E+02 -0.12676293089E+02 -0.23472192412E+02  0.33736008346E+02  0.51100000000E-03 0.  1.
        -12    1    3    3    0    0  0.64519796814E+01 -0.41829719509E+01 -0.23913528402E+01  0.80525688173E+01  0.00000000000E+00 0.  1.
</event>
<event>
 7    1  0.2097247E-008  0.4614232E+02  0.7816164E-02  0.1320468E+00
        -11   -1    0    0    0    0  0.00000000000E+00  0.00000000000E+00  0.45593999997E+02  0.45594000000E+02  0.51100000000E-03 0.  1.
         11   -1    0    0    0    0 -0.00000000000E+00 -0.00000000000E+00 -0.45593999997E+02  0.45594000000E+02  0.51100000000E-03 0. -1.
    9900012    2    1    2    0    0 -0.19816525659E+02 -0.10617475780E+02  0.39034447950E+02  0.46142316435E+02  0.99999879065E+01 0.  0.
         12    1    1    2    0    0  0.19816525659E+02  0.10617475780E+02 -0.39034447950E+02  0.45045683565E+02  0.00000000000E+00 0. -1.
         11    1    3    3    0    0 -0.31902045622E+01  0.84590970082E+00  0.24444288262E+01  0.41070915400E+01  0.51100000000E-03 0.  1.
        -11    1    3    3    0    0  0.14540955967E+00 -0.43703414344E+00  0.19179290966E+01  0.19724591411E+01  0.51100000000E-03 0. -1.
        -12    1    3    3    0    0 -0.16771730656E+02 -0.11026351337E+02  0.34672090027E+02  0.40062765754E+02  0.00000000000E+00 0.  1.
</event>
<event>
 7    1  0.2097247E-008  0.4614232E+02  0.7816164E-02  0.1320468E+00
        -11   -1    0    0    0    0  0.00000000000E+00  0.00000000000E+00  0.45593999997E+02  0.45594000000E+02  0.51100000000E-03 0.  1.
         11   -1    0    0    0    0 -0.00000000000E+00 -0.00000000000E+00 -0.45593999997E+02  0.45594000000E+02  0.51100000000E-03 0. -1.
    9900012    2    1    2    0    0  0.80874482765E+01 -0.15086670700E+02  0.41666521374E+02  0.46142318122E+02  0.10000003292E+02 0.  0.
         12    1    1    2    0    0 -0.80874482765E+01  0.15086670700E+02 -0.41666521374E+02  0.45045681878E+02  0.00000000000E+00 0. -1.
         11    1    3    3    0    0  0.82489189816E+00 -0.50921246624E+01  0.61010084493E+01  0.79895234264E+01  0.51100000000E-03 0. -1.
        -11    1    3    3    0    0 -0.71436843837E-01 -0.24075075384E+01  0.26212172753E+01  0.35597719078E+01  0.51100000000E-03 0.  1.
        -12    1    3    3    0    0  0.73339932222E+01 -0.75870384996E+01  0.32944295649E+02  0.34593022788E+02  0.00000000000E+00 0.  1.
</event>
<event>
 7    1  0.2097247E-008  0.4614232E+02  0.7816164E-02  0.1320468E+00
        -11   -1    0    0    0    0  0.00000000000E+00  0.00000000000E+00  0.45593999997E+02  0.45594000000E+02  0.51100000000E-03 0. -1.
         11   -1    0    0    0    0 -0.00000000000E+00 -0.00000000000E+00 -0.45593999997E+02  0.45594000000E+02  0.51100000000E-03 0.  1.
    9900012    2    1    2    0    0  0.26527855589E+02 -0.36285407490E+02 -0.29589799615E+01  0.46142317840E+02  0.10000000719E+02 0.  0.
         12    1    1    2    0    0 -0.26527855589E+02  0.36285407490E+02  0.29589799615E+01  0.45045682160E+02  0.00000000000E+00 0. -1.
         11    1    3    3    0    0  0.66587051559E+01 -0.10634856419E+02  0.14377598077E+01  0.12629555769E+02  0.51100000000E-03 0. -1.
        -11    1    3    3    0    0  0.59835507659E-01 -0.31894883999E+01 -0.11406619855E+01  0.33878498442E+01  0.51100000000E-03 0.  1.
        -12    1    3    3    0    0  0.19809314925E+02 -0.22461062672E+02 -0.32560777837E+01  0.30124912227E+02  0.00000000000E+00 0.  1.
</event>
<event>
 7    1  0.2097247E-008  0.4614232E+02  0.7816164E-02  0.1320468E+00
        -11   -1    0    0    0    0  0.00000000000E+00  0.00000000000E+00  0.45593999997E+02  0.45594000000E+02  0.51100000000E-03 0.  1.
         11   -1    0    0    0    0 -0.00000000000E+00 -0.00000000000E+00 -0.45593999997E+02  0.45594000000E+02  0.51100000000E-03 0. -1.
    9900012    2    1    2    0    0 -0.19937848849E+02  0.40259949364E+02 -0.32759418459E+01  0.46142321689E+02  0.10000035822E+02 0.  0.
         12    1    1    2    0    0  0.19937848849E+02 -0.40259949364E+02  0.32759418459E+01  0.45045678311E+02  0.00000000000E+00 0. -1.
         11    1    3    3    0    0 -0.44446154557E+00  0.17420679169E+01 -0.89432854318E+00  0.20080265179E+01  0.51100000000E-03 0. -1.
        -11    1    3    3    0    0 -0.14996222723E+02  0.35702478089E+02 -0.27070410845E+01  0.38818574283E+02  0.51100000000E-03 0.  1.
         12    1    3    3    0    0 -0.44971645800E+01  0.28154033582E+01  0.32542778179E+00  0.53157208890E+01  0.00000000000E+00 0. -1.
</event>
<event>
 7    1  0.2097247E-008  0.4614232E+02  0.7816164E-02  0.1320468E+00
        -11   -1    0    0    0    0  0.00000000000E+00  0.00000000000E+00  0.45593999997E+02  0.45594000000E+02  0.51100000000E-03 0.  1.
         11   -1    0    0    0    0 -0.00000000000E+00 -0.00000000000E+00 -0.45593999997E+02  0.45594000000E+02  0.51100000000E-03 0. -1.
    9900012    2    1    2    0    0 -0.10711308784E+02 -0.90084835800E-01  0.43753552374E+02  0.46142316561E+02  0.99999890575E+01 0.  0.
         12    1    1    2    0    0  0.10711308784E+02  0.90084835800E-01 -0.43753552374E+02  0.45045683439E+02  0.00000000000E+00 0. -1.
         11    1    3    3    0    0 -0.32681337295E+01  0.12779737253E+01  0.49607554762E+01  0.60764307017E+01  0.51100000000E-03 0. -1.
        -11    1    3    3    0    0 -0.65000449654E+01  0.70271371537E+00  0.18029910103E+02  0.19178687382E+02  0.51100000000E-03 0.  1.
         12    1    3    3    0    0 -0.94313008952E+00 -0.20707722765E+01  0.20762886794E+02  0.20887198477E+02  0.00000000000E+00 0. -1.
</event>
<event>
 7    1  0.2097247E-008  0.4614232E+02  0.7816164E-02  0.1320468E+00
        -11   -1    0    0    0    0  0.00000000000E+00  0.00000000000E+00  0.45593999997E+02  0.45594000000E+02  0.51100000000E-03 0.  1.
         11   -1    0    0    0    0 -0.00000000000E+00 -0.00000000000E+00 -0.45593999997E+02  0.45594000000E+02  0.51100000000E-03 0. -1.
    9900012    2    1    2    0    0 -0.43034351658E+02 -0.60319576413E+01  0.11864805378E+02  0.46142317163E+02  0.99999945467E+01 0.  0.
         12    1    1    2    0    0  0.43034351658E+02  0.60319576413E+01 -0.11864805378E+02  0.45045682837E+02  0.00000000000E+00 0. -1.
         11    1    3    3    0    0 -0.98074572562E+01  0.31795693582E+00  0.27942103926E+01  0.10202692117E+02  0.51100000000E-03 0. -1.
        -11    1    3    3    0    0 -0.33176276314E+02 -0.57119047779E+01  0.78592919046E+01  0.34569634591E+02  0.51100000000E-03 0.  1.
         12    1    3    3    0    0 -0.50618087537E-01 -0.63800979924E+00  0.12113030808E+01  0.13699904555E+01  0.00000000000E+00 0. -1.
</event>
<event>
 7    1  0.2097247E-008  0.4614232E+02  0.7816164E-02  0.1320468E+00
        -11   -1    0    0    0    0  0.00000000000E+00  0.00000000000E+00  0.45593999997E+02  0.45594000000E+02  0.51100000000E-03 0. -1.
         11   -1    0    0    0    0 -0.00000000000E+00 -0.00000000000E+00 -0.45593999997E+02  0.45594000000E+02  0.51100000000E-03 0.  1.
    9900012    2    1    2    0    0 -0.13014028033E+02  0.14946489424E+02 -0.40451835297E+02  0.46142318180E+02  0.10000003818E+02 0.  0.
         12    1    1    2    0    0  0.13014028033E+02 -0.14946489424E+02  0.40451835297E+02  0.45045681820E+02  0.00000000000E+00 0. -1.
         11    1    3    3    0    0 -0.29404968772E-01  0.25898705520E+01 -0.14286318941E+01  0.29579187748E+01  0.51100000000E-03 0. -1.
        -11    1    3    3    0    0 -0.44334458961E+01  0.70452522272E+01 -0.15397856372E+02  0.17503856792E+02  0.51100000000E-03 0.  1.
         12    1    3    3    0    0 -0.85511771680E+01  0.53113666451E+01 -0.23625347031E+02  0.25680542613E+02  0.00000000000E+00 0. -1.
</event>
<event>
 7    1  0.2097247E-008  0.4614232E+02  0.7816164E-02  0.1320468E+00
        -11   -1    0    0    0    0  0.00000000000E+00  0.00000000000E+00  0.45593999997E+02  0.45594000000E+02  0.51100000000E-03 0.  1.
         11   -1    0    0    0    0 -0.00000000000E+00 -0.00000000000E+00 -0.45593999997E+02  0.45594000000E+02  0.51100000000E-03 0. -1.
    9900012    2    1    2    0    0  0.27279820726E+02  0.32161619344E+02  0.15828932506E+02  0.46142317833E+02  0.10000000651E+02 0.  0.
         12    1    1    2    0    0 -0.27279820726E+02 -0.32161619344E+02 -0.15828932506E+02  0.45045682167E+02  0.00000000000E+00 0. -1.
         11    1    3    3    0    0  0.79633892001E+00  0.15147589206E+01  0.23492408735E+01  0.29064726398E+01  0.51100000000E-03 0. -1.
        -11    1    3    3    0    0  0.14131247930E+02  0.21061406903E+02  0.96655007695E+01  0.27142161561E+02  0.51100000000E-03 0.  1.
        -12    1    3    3    0    0  0.12352233876E+02  0.95854535197E+01  0.38141908631E+01  0.16093683632E+02  0.00000000000E+00 0.  1.
</event>
<event>
 7    1  0.2097247E-008  0.4614232E+02  0.7816164E-02  0.1320468E+00
        -11   -1    0    0    0    0  0.00000000000E+00  0.00000000000E+00  0.45593999997E+02  0.45594000000E+02  0.51100000000E-03 0.  1.
         11   -1    0    0    0    0 -0.00000000000E+00 -0.00000000000E+00 -0.45593999997E+02  0.45594000000E+02  0.51100000000E-03 0. -1.
    9900012    2    1    2    0    0 -0.72745705404E+01  0.19778824148E+02  0.39811961085E+02  0.46142317558E+02  0.99999981457E+01 0.  0.
         12    1    1    2    0    0  0.72745705404E+01 -0.19778824148E+02 -0.39811961085E+02  0.45045682442E+02  0.00000000000E+00 0. -1.
         11    1    3    3    0    0 -0.26083839384E+00  0.15312362835E+01  0.12440077543E+01  0.19900444160E+01  0.51100000000E-03 0. -1.
        -11    1    3    3    0    0 -0.83670120312E+01  0.95957104063E+01  0.22410840267E+02  0.25774605918E+02  0.51100000000E-03 0.  1.
         12    1    3    3    0    0  0.13532798846E+01  0.86518774583E+01  0.16157113064E+02  0.18377667223E+02  0.00000000000E+00 0. -1.
</event>
<event>
 7    1  0.2097247E-008  0.4614232E+02  0.7816164E-02  0.1320468E+00
        -11   -1    0    0    0    0  0.00000000000E+00  0.00000000000E+00  0.45593999997E+02  0.45594000000E+02  0.51100000000E-03 0.  1.
         11   -1    0    0    0    0 -0.00000000000E+00 -0.00000000000E+00 -0.45593999997E+02  0.45594000000E+02  0.51100000000E-03 0. -1.
    9900012    2    1    2    0    0  0.35638296320E+01  0.35903855732E+02  0.26968977810E+02  0.46142317608E+02  0.99999986066E+01 0.  0.
         12    1    1    2    0    0 -0.35638296320E+01 -0.35903855732E+02 -0.26968977810E+02  0.45045682392E+02  0.00000000000E+00 0. -1.
         11    1    3    3    0    0  0.31920942627E+01  0.93835122527E+01  0.12159264269E+02  0.15687175520E+02  0.51100000000E-03 0. -1.
        -11    1    3    3    0    0  0.83725126154E+00  0.68954744089E+01  0.45693065372E+01  0.83142720362E+01  0.51100000000E-03 0.  1.
         12    1    3    3    0    0 -0.46551589228E+00  0.19624869070E+02  0.10240407003E+02  0.22140870052E+02  0.00000000000E+00 0. -1.
</event>
<event>
 7    1  0.2097247E-008  0.4614232E+02  0.7816164E-02  0.1320468E+00
        -11   -1    0    0    0    0  0.00000000000E+00  0.00000000000E+00  0.45593999997E+02  0.45594000000E+02  0.51100000000E-03 0.  1.
         11   -1    0    0    0    0 -0.00000000000E+00 -0.00000000000E+00 -0.45593999997E+02  0.45594000000E+02  0.51100000000E-03 0. -1.
    9900012    2    1    2    0    0  0.39921546463E+02 -0.39876546894E+01  0.20481267872E+02  0.46142316572E+02  0.99999891526E+01 0.  0.
         12    1    1    2    0    0 -0.39921546463E+02  0.39876546894E+01 -0.20481267872E+02  0.45045683428E+02  0.00000000000E+00 0. -1.
         11    1    3    3    0    0  0.11536317324E+02 -0.83967044416E+00  0.16041434326E+01  0.11677539992E+02  0.51100000000E-03 0. -1.
        -11    1    3    3    0    0  0.39858775438E+01 -0.12424117858E+01  0.42275680204E+01  0.59416444246E+01  0.51100000000E-03 0.  1.
        -12    1    3    3    0    0  0.24399351595E+02 -0.19055724595E+01  0.14649556419E+02  0.28523132155E+02  0.00000000000E+00 0.  1.
</event>
<event>
 7    1  0.2097247E-008  0.4614232E+02  0.7816164E-02  0.1320468E+00
        -11   -1    0    0    0    0  0.00000000000E+00  0.00000000000E+00  0.45593999997E+02  0.45594000000E+02  0.51100000000E-03 0.  1.
         11   -1    0    0    0    0 -0.00000000000E+00 -0.00000000000E+00 -0.45593999997E+02  0.45594000000E+02  0.51100000000E-03 0. -1.
    9900012    2    1    2    0    0 -0.36898042935E+02  0.69259595246E+01  0.24893350070E+02  0.46142319125E+02  0.10000012435E+02 0.  0.
         12    1    1    2    0    0  0.36898042935E+02 -0.69259595246E+01 -0.24893350070E+02  0.45045680875E+02  0.00000000000E+00 0. -1.
         11    1    3    3    0    0 -0.42641719723E+00 -0.29413939457E+00  0.28315762931E+00  0.59036269673E+00  0.51100000000E-03 0. -1.
        -11    1    3    3    0    0 -0.25099577513E+02  0.49267087371E+00  0.15528661989E+02  0.29518991503E+02  0.51100000000E-03 0.  1.
         12    1    3    3    0    0 -0.11372048225E+02  0.67274280454E+01  0.90815304524E+01  0.16032964925E+02  0.00000000000E+00 0. -1.
</event>
<event>
 7    1  0.2097247E-008  0.4614232E+02  0.7816164E-02  0.1320468E+00
        -11   -1    0    0    0    0  0.00000000000E+00  0.00000000000E+00  0.45593999997E+02  0.45594000000E+02  0.51100000000E-03 0.  1.
         11   -1    0    0    0    0 -0.00000000000E+00 -0.00000000000E+00 -0.45593999997E+02  0.45594000000E+02  0.51100000000E-03 0. -1.
    9900012    2    1    2    0    0  0.20005436206E+02 -0.36071749544E+02  0.18103175146E+02  0.46142317151E+02  0.99999944347E+01 0.  0.
         12    1    1    2    0    0 -0.20005436206E+02  0.36071749544E+02 -0.18103175146E+02  0.45045682849E+02  0.00000000000E+00 0. -1.
         11    1    3    3    0    0  0.45494200963E+01 -0.65833115544E+01  0.46680364731E+01  0.92643283086E+01  0.51100000000E-03 0. -1.
        -11    1    3    3    0    0  0.72735553710E+01 -0.15436643734E+02  0.11326430867E+02  0.20481274715E+02  0.51100000000E-03 0.  1.
         12    1    3    3    0    0  0.81824607392E+01 -0.14051794256E+02  0.21087078056E+01  0.16396714127E+02  0.00000000000E+00 0. -1.
</event>
<event>
 7    1  0.2097247E-008  0.4614232E+02  0.7816164E-02  0.1320468E+00
        -11   -1    0    0    0    0  0.00000000000E+00  0.00000000000E+00  0.45593999997E+02  0.45594000000E+02  0.51100000000E-03 0.  1.
         11   -1    0    0    0    0 -0.00000000000E+00 -0.00000000000E+00 -0.45593999997E+02  0.45594000000E+02  0.51100000000E-03 0. -1.
    9900012    2    1    2    0    0 -0.33484896503E+01 -0.29003555600E+02  0.34302986026E+02  0.46142317957E+02  0.10000001788E+02 0.  0.
         12    1    1    2    0    0  0.33484896503E+01  0.29003555600E+02 -0.34302986026E+02  0.45045682043E+02  0.00000000000E+00 0. -1.
         11    1    3    3    0    0 -0.25507914124E+00 -0.21287043188E+02  0.20530667956E+02  0.29575523665E+02  0.51100000000E-03 0.  1.
        -11    1    3    3    0    0  0.81374692612E+00 -0.39241596225E+00  0.12258490527E+01  0.15227870857E+01  0.51100000000E-03 0. -1.
        -12    1    3    3    0    0 -0.39071574351E+01 -0.73240964491E+01  0.12546469018E+02  0.15044007207E+02  0.00000000000E+00 0.  1.
</event>
<event>
 7    1  0.2097247E-008  0.4614232E+02  0.7816164E-02  0.1320468E+00
        -11   -1    0    0    0    0  0.00000000000E+00  0.00000000000E+00  0.45593999997E+02  0.45594000000E+02  0.51100000000E-03 0. -1.
         11   -1    0    0    0    0 -0.00000000000E+00 -0.00000000000E+00 -0.45593999997E+02  0.45594000000E+02  0.51100000000E-03 0.  1.
    9900012    2    1    2    0    0 -0.30245885034E+02 -0.32827490685E+02 -0.60543776197E+01  0.46142321023E+02  0.10000029742E+02 0.  0.
         12    1    1    2    0    0  0.30245885034E+02  0.32827490685E+02  0.60543776197E+01  0.45045678977E+02  0.00000000000E+00 0. -1.
         11    1    3    3    0    0 -0.61639385191E+01 -0.11195219694E+02  0.10874105441E+01  0.12826127398E+02  0.51100000000E-03 0. -1.
        -11    1    3    3    0    0 -0.12808865967E+02 -0.11979344113E+02 -0.22068727342E+01  0.17676029539E+02  0.51100000000E-03 0.  1.
         12    1    3    3    0    0 -0.11273080547E+02 -0.96529268784E+01 -0.49349154295E+01  0.15640164086E+02  0.00000000000E+00 0. -1.
</event>
<event>
 7    1  0.2097247E-008  0.4614233E+02  0.7816164E-02  0.1320468E+00
        -11   -1    0    0    0    0  0.00000000000E+00  0.00000000000E+00  0.45593999997E+02  0.45594000000E+02  0.51100000000E-03 0.  1.
         11   -1    0    0    0    0 -0.00000000000E+00 -0.00000000000E+00 -0.45593999997E+02  0.45594000000E+02  0.51100000000E-03 0. -1.
    9900012    2    1    2    0    0  0.16463768129E+02 -0.26184995157E+02  0.32747558023E+02  0.46142332186E+02  0.10000131532E+02 0.  0.
         12    1    1    2    0    0 -0.16463768129E+02  0.26184995157E+02 -0.32747558023E+02  0.45045667814E+02  0.00000000000E+00 0. -1.
         11    1    3    3    0    0  0.27214677968E+01 -0.16405353243E+01  0.59434046555E+01  0.67395698883E+01  0.51100000000E-03 0. -1.
        -11    1    3    3    0    0  0.51965849634E+01 -0.84362944887E+01  0.13874578802E+02  0.17049325417E+02  0.51100000000E-03 0.  1.
         12    1    3    3    0    0  0.85457153689E+01 -0.16108165344E+02  0.12929574566E+02  0.22353436880E+02  0.00000000000E+00 0. -1.
</event>
<event>
 7    1  0.2097247E-008  0.4614232E+02  0.7816164E-02  0.1320468E+00
        -11   -1    0    0    0    0  0.00000000000E+00  0.00000000000E+00  0.45593999997E+02  0.45594000000E+02  0.51100000000E-03 0. -1.
         11   -1    0    0    0    0 -0.00000000000E+00 -0.00000000000E+00 -0.45593999997E+02  0.45594000000E+02  0.51100000000E-03 0.  1.
    9900012    2    1    2    0    0  0.40358587797E+02  0.17853926245E+01 -0.19927623309E+02  0.46142318669E+02  0.10000008279E+02 0.  0.
         12    1    1    2    0    0 -0.40358587797E+02 -0.17853926245E+01  0.19927623309E+02  0.45045681331E+02  0.00000000000E+00 0. -1.
         11    1    3    3    0    0  0.23508615521E+02  0.32698269202E+01 -0.75729084245E+01  0.24913765554E+02  0.51100000000E-03 0. -1.
        -11    1    3    3    0    0  0.11846997860E+02 -0.25876096250E+01 -0.90661504402E+01  0.15140745223E+02  0.51100000000E-03 0.  1.
        -12    1    3    3    0    0  0.50029744169E+01  0.11031753292E+01 -0.32885644442E+01  0.60878078917E+01  0.00000000000E+00 0.  1.
</event>
<event>
 7    1  0.2097247E-008  0.4614232E+02  0.7816164E-02  0.1320468E+00
        -11   -1    0    0    0    0  0.00000000000E+00  0.00000000000E+00  0.45593999997E+02  0.45594000000E+02  0.51100000000E-03 0. -1.
         11   -1    0    0    0    0 -0.00000000000E+00 -0.00000000000E+00 -0.45593999997E+02  0.45594000000E+02  0.51100000000E-03 0.  1.
    9900012    2    1    2    0    0 -0.16281938719E+02 -0.37687614866E+02 -0.18537951024E+02  0.46142317955E+02  0.10000001765E+02 0.  0.
         12    1    1    2    0    0  0.16281938719E+02  0.37687614866E+02  0.18537951024E+02  0.45045682045E+02  0.00000000000E+00 0. -1.
         11    1    3    3    0    0 -0.32314827843E+01 -0.18668428168E+01 -0.10830297147E+01  0.38859409043E+01  0.51100000000E-03 0. -1.
        -11    1    3    3    0    0 -0.75244962895E+01 -0.24601640136E+02 -0.94481722198E+01  0.27406690796E+02  0.51100000000E-03 0.  1.
        -12    1    3    3    0    0 -0.55259596448E+01 -0.11219131913E+02 -0.80067490895E+01  0.14849686255E+02  0.00000000000E+00 0.  1.
</event>
<event>
 7    1  0.2097247E-008  0.4614232E+02  0.7816164E-02  0.1320468E+00
        -11   -1    0    0    0    0  0.00000000000E+00  0.00000000000E+00  0.45593999997E+02  0.45594000000E+02  0.51100000000E-03 0. -1.
         11   -1    0    0    0    0 -0.00000000000E+00 -0.00000000000E+00 -0.45593999997E+02  0.45594000000E+02  0.51100000000E-03 0.  1.
    9900012    2    1    2    0    0  0.39535310598E+02 -0.88994083734E+01 -0.19669094196E+02  0.46142317410E+02  0.99999967974E+01 0.  0.
         12    1    1    2    0    0 -0.39535310598E+02  0.88994083734E+01  0.19669094196E+02  0.45045682590E+02  0.00000000000E+00 0. -1.
         11    1    3    3    0    0  0.41073582293E+01 -0.82752805270E+00  0.63934307497E+00  0.42383905118E+01  0.51100000000E-03 0. -1.
        -11    1    3    3    0    0  0.18961586564E+02 -0.34619201616E+01 -0.81750663170E+01  0.20937009475E+02  0.51100000000E-03 0.  1.
        -12    1    3    3    0    0  0.16466365805E+02 -0.46099601590E+01 -0.12133370954E+02  0.20966917423E+02  0.00000000000E+00 0.  1.
</event>
<event>
 7    1  0.2097247E-008  0.4614232E+02  0.7816164E-02  0.1320468E+00
        -11   -1    0    0    0    0  0.00000000000E+00  0.00000000000E+00  0.45593999997E+02  0.45594000000E+02  0.51100000000E-03 0. -1.
         11   -1    0    0    0    0 -0.00000000000E+00 -0.00000000000E+00 -0.45593999997E+02  0.45594000000E+02  0.51100000000E-03 0.  1.
    9900012    2    1    2    0    0 -0.64265584843E+00 -0.33050905878E+02 -0.30599644422E+02  0.46142316249E+02  0.99999862107E+01 0.  0.
         12    1    1    2    0    0  0.64265584843E+00  0.33050905878E+02  0.30599644422E+02  0.45045683751E+02  0.00000000000E+00 0. -1.
         11    1    3    3    0    0 -0.23933821472E+01 -0.21285658221E+02 -0.21646314521E+02  0.30452757783E+02  0.51100000000E-03 0.  1.
        -11    1    3    3    0    0  0.76501113851E+00 -0.33960014755E+01 -0.56537974939E+01  0.66395402271E+01  0.51100000000E-03 0. -1.
        -12    1    3    3    0    0  0.98571516030E+00 -0.83692461807E+01 -0.32995324068E+01  0.90500182384E+01  0.00000000000E+00 0.  1.
</event>
<event>
 7    1  0.2097247E-008  0.4614232E+02  0.7816164E-02  0.1320468E+00
        -11   -1    0    0    0    0  0.00000000000E+00  0.00000000000E+00  0.45593999997E+02  0.45594000000E+02  0.51100000000E-03 0. -1.
         11   -1    0    0    0    0 -0.00000000000E+00 -0.00000000000E+00 -0.45593999997E+02  0.45594000000E+02  0.51100000000E-03 0.  1.
    9900012    2    1    2    0    0  0.23667145724E+02  0.35557184204E+02 -0.14306164108E+02  0.46142318001E+02  0.10000002191E+02 0.  0.
         12    1    1    2    0    0 -0.23667145724E+02 -0.35557184204E+02  0.14306164108E+02  0.45045681999E+02  0.00000000000E+00 0. -1.
         11    1    3    3    0    0 -0.73059837723E-01  0.20411079727E+01  0.83008472189E+00  0.22046542592E+01  0.51100000000E-03 0. -1.
        -11    1    3    3    0    0  0.93949335732E+01  0.11093569394E+02 -0.39526857603E+01  0.15065051734E+02  0.51100000000E-03 0.  1.
         12    1    3    3    0    0  0.14345271989E+02  0.22422506837E+02 -0.11183563070E+02  0.28872612009E+02  0.00000000000E+00 0. -1.
</event>
<event>
 7    1  0.2097247E-008  0.4614232E+02  0.7816164E-02  0.1320468E+00
        -11   -1    0    0    0    0  0.00000000000E+00  0.00000000000E+00  0.45593999997E+02  0.45594000000E+02  0.51100000000E-03 0.  1.
         11   -1    0    0    0    0 -0.00000000000E+00 -0.00000000000E+00 -0.45593999997E+02  0.45594000000E+02  0.51100000000E-03 0. -1.
    9900012    2    1    2    0    0 -0.19061562293E+02 -0.10994638977E+01  0.40799034729E+02  0.46142320820E+02  0.10000027895E+02 0.  0.
         12    1    1    2    0    0  0.19061562293E+02  0.10994638977E+01 -0.40799034729E+02  0.45045679180E+02  0.00000000000E+00 0. -1.
         11    1    3    3    0    0 -0.77219961980E+00 -0.10716931156E+01  0.79621057376E+00  0.15423261411E+01  0.51100000000E-03 0. -1.
        -11    1    3    3    0    0 -0.62178874608E+01  0.11464485037E+00  0.22456947888E+02  0.23302141031E+02  0.51100000000E-03 0.  1.
         12    1    3    3    0    0 -0.12071475213E+02 -0.14241563254E+00  0.17545876267E+02  0.21297853648E+02  0.00000000000E+00 0. -1.
</event>
<event>
 7    1  0.2097247E-008  0.4614232E+02  0.7816164E-02  0.1320468E+00
        -11   -1    0    0    0    0  0.00000000000E+00  0.00000000000E+00  0.45593999997E+02  0.45594000000E+02  0.51100000000E-03 0.  1.
         11   -1    0    0    0    0 -0.00000000000E+00 -0.00000000000E+00 -0.45593999997E+02  0.45594000000E+02  0.51100000000E-03 0. -1.
    9900012    2    1    2    0    0 -0.23421991908E+02  0.38193461549E+02  0.46672536567E+01  0.46142318001E+02  0.10000002189E+02 0.  0.
         12    1    1    2    0    0  0.23421991908E+02 -0.38193461549E+02 -0.46672536567E+01  0.45045681999E+02  0.00000000000E+00 0. -1.
         11    1    3    3    0    0 -0.14103197509E+01  0.34019120935E+01  0.20915125173E+01  0.42351425670E+01  0.51100000000E-03 0. -1.
        -11    1    3    3    0    0 -0.64396105551E+01  0.17029055386E+02  0.11535326188E+01  0.18242476510E+02  0.51100000000E-03 0.  1.
         12    1    3    3    0    0 -0.15572061602E+02  0.17762494070E+02  0.14222085207E+01  0.23664698925E+02  0.00000000000E+00 0. -1.
</event>
<event>
 7    1  0.2097247E-008  0.4614232E+02  0.7816164E-02  0.1320468E+00
        -11   -1    0    0    0    0  0.00000000000E+00  0.00000000000E+00  0.45593999997E+02  0.45594000000E+02  0.51100000000E-03 0. -1.
         11   -1    0    0    0    0 -0.00000000000E+00 -0.00000000000E+00 -0.45593999997E+02  0.45594000000E+02  0.51100000000E-03 0.  1.
    9900012    2    1    2    0    0  0.43633871686E+02  0.75444074802E+01 -0.82632204158E+01  0.46142315920E+02  0.99999832129E+01 0.  0.
         12    1    1    2    0    0 -0.43633871686E+02 -0.75444074802E+01  0.82632204158E+01  0.45045684080E+02  0.00000000000E+00 0. -1.
         11    1    3    3    0    0  0.73197793972E+01  0.20330261583E+01  0.20171693261E+01  0.78601105676E+01  0.51100000000E-03 0. -1.
        -11    1    3    3    0    0  0.25352599688E+02  0.23204717835E+01 -0.69698837035E+01  0.26395419666E+02  0.51100000000E-03 0.  1.
         12    1    3    3    0    0  0.10961492601E+02  0.31909095384E+01 -0.33105060384E+01  0.11886785687E+02  0.00000000000E+00 0. -1.
</event>
<event>
 7    1  0.2097247E-008  0.4614232E+02  0.7816164E-02  0.1320468E+00
        -11   -1    0    0    0    0  0.00000000000E+00  0.00000000000E+00  0.45593999997E+02  0.45594000000E+02  0.51100000000E-03 0.  1.
         11   -1    0    0    0    0 -0.00000000000E+00 -0.00000000000E+00 -0.45593999997E+02  0.45594000000E+02  0.51100000000E-03 0. -1.
    9900012    2    1    2    0    0 -0.25482047862E+02 -0.54147219684E+01  0.36748599662E+02  0.46142317028E+02  0.99999933176E+01 0.  0.
         12    1    1    2    0    0  0.25482047862E+02  0.54147219684E+01 -0.36748599662E+02  0.45045682972E+02  0.00000000000E+00 0. -1.
         11    1    3    3    0    0 -0.14493010899E+02 -0.15588357817E+01  0.21531757400E+02  0.26001805916E+02  0.51100000000E-03 0. -1.
        -11    1    3    3    0    0 -0.63126472915E+01  0.60794856660E+00  0.51169846070E+01  0.81487820572E+01  0.51100000000E-03 0.  1.
         12    1    3    3    0    0 -0.46763896716E+01 -0.44638347533E+01  0.10099857655E+02  0.11991729055E+02  0.00000000000E+00 0. -1.
</event>
<event>
 7    1  0.2097247E-008  0.4614232E+02  0.7816164E-02  0.1320468E+00
        -11   -1    0    0    0    0  0.00000000000E+00  0.00000000000E+00  0.45593999997E+02  0.45594000000E+02  0.51100000000E-03 0.  1.
         11   -1    0    0    0    0 -0.00000000000E+00 -0.00000000000E+00 -0.45593999997E+02  0.45594000000E+02  0.51100000000E-03 0. -1.
    9900012    2    1    2    0    0  0.88447569112E+01  0.14378546813E+02  0.41762916350E+02  0.46142317461E+02  0.99999972657E+01 0.  0.
         12    1    1    2    0    0 -0.88447569112E+01 -0.14378546813E+02 -0.41762916350E+02  0.45045682539E+02  0.00000000000E+00 0. -1.
         11    1    3    3    0    0  0.19316070917E+01  0.42317978959E+01  0.69728927045E+01  0.83821508170E+01  0.51100000000E-03 0. -1.
        -11    1    3    3    0    0  0.33773085338E+01  0.78531660685E+01  0.30771361758E+02  0.31936736448E+02  0.51100000000E-03 0.  1.
         12    1    3    3    0    0  0.35358412858E+01  0.22935828491E+01  0.40186618878E+01  0.58234301964E+01  0.00000000000E+00 0. -1.
</event>
<event>
 7    1  0.2097247E-008  0.4614232E+02  0.7816164E-02  0.1320468E+00
        -11   -1    0    0    0    0  0.00000000000E+00  0.00000000000E+00  0.45593999997E+02  0.45594000000E+02  0.51100000000E-03 0.  1.
         11   -1    0    0    0    0 -0.00000000000E+00 -0.00000000000E+00 -0.45593999997E+02  0.45594000000E+02  0.51100000000E-03 0. -1.
    9900012    2    1    2    0    0  0.22560123520E+02 -0.77719648457E+01  0.38206685848E+02  0.46142318139E+02  0.10000003448E+02 0.  0.
         12    1    1    2    0    0 -0.22560123520E+02  0.77719648457E+01 -0.38206685848E+02  0.45045681861E+02  0.00000000000E+00 0. -1.
         11    1    3    3    0    0  0.42144655738E+01 -0.38736409531E+01  0.12616048584E+02  0.13853934331E+02  0.51100000000E-03 0. -1.
        -11    1    3    3    0    0  0.17422283355E+02 -0.49100348769E+01  0.22283842484E+02  0.28709128094E+02  0.51100000000E-03 0.  1.
         12    1    3    3    0    0  0.92337459125E+00  0.10117109843E+01  0.33067947803E+01  0.35792557146E+01  0.00000000000E+00 0. -1.
</event>
<event>
 7    1  0.2097247E-008  0.4614232E+02  0.7816164E-02  0.1320468E+00
        -11   -1    0    0    0    0  0.00000000000E+00  0.00000000000E+00  0.45593999997E+02  0.45594000000E+02  0.51100000000E-03 0. -1.
         11   -1    0    0    0    0 -0.00000000000E+00 -0.00000000000E+00 -0.45593999997E+02  0.45594000000E+02  0.51100000000E-03 0.  1.
    9900012    2    1    2    0    0 -0.14998639649E+02 -0.42384679863E+02  0.27736639478E+01  0.46142317742E+02  0.99999998268E+01 0.  0.
         12    1    1    2    0    0  0.14998639649E+02  0.42384679863E+02 -0.27736639478E+01  0.45045682258E+02  0.00000000000E+00 0. -1.
         11    1    3    3    0    0 -0.31473972162E+01 -0.75412681619E+01  0.32064007472E+01  0.87782595507E+01  0.51100000000E-03 0. -1.
        -11    1    3    3    0    0 -0.68840919138E+01 -0.27227445155E+02 -0.19235847160E+01  0.28150038536E+02  0.51100000000E-03 0.  1.
        -12    1    3    3    0    0 -0.49671505186E+01 -0.76159665455E+01  0.14908479166E+01  0.92140196552E+01  0.00000000000E+00 0.  1.
</event>
<event>
 7    1  0.2097247E-008  0.4614231E+02  0.7816164E-02  0.1320468E+00
        -11   -1    0    0    0    0  0.00000000000E+00  0.00000000000E+00  0.45593999997E+02  0.45594000000E+02  0.51100000000E-03 0.  1.
         11   -1    0    0    0    0 -0.00000000000E+00 -0.00000000000E+00 -0.45593999997E+02  0.45594000000E+02  0.51100000000E-03 0. -1.
    9900012    2    1    2    0    0  0.32205956564E+02  0.26676736567E+02  0.16740424892E+02  0.46142314994E+02  0.99999747676E+01 0.  0.
         12    1    1    2    0    0 -0.32205956564E+02 -0.26676736567E+02 -0.16740424892E+02  0.45045685006E+02  0.00000000000E+00 0. -1.
         11    1    3    3    0    0 -0.34480645488E+00 -0.29156891048E-01  0.77855354737E+00  0.85199031853E+00  0.51100000000E-03 0. -1.
        -11    1    3    3    0    0  0.17518514941E+02  0.15713838600E+02  0.11233097945E+02  0.26076916593E+02  0.51100000000E-03 0.  1.
         12    1    3    3    0    0  0.15032248078E+02  0.10992054859E+02  0.47287733995E+01  0.19213408083E+02  0.00000000000E+00 0. -1.
</event>
<event>
 7    1  0.2097247E-008  0.4614232E+02  0.7816164E-02  0.1320468E+00
        -11   -1    0    0    0    0  0.00000000000E+00  0.00000000000E+00  0.45593999997E+02  0.45594000000E+02  0.51100000000E-03 0.  1.
         11   -1    0    0    0    0 -0.00000000000E+00 -0.00000000000E+00 -0.45593999997E+02  0.45594000000E+02  0.51100000000E-03 0. -1.
    9900012    2    1    2    0    0  0.14574886368E+02 -0.41083806978E+02 -0.11349316259E+02  0.46142317765E+02  0.10000000039E+02 0.  0.
         12    1    1    2    0    0 -0.14574886368E+02  0.41083806978E+02  0.11349316259E+02  0.45045682235E+02  0.00000000000E+00 0. -1.
         11    1    3    3    0    0  0.10078907367E+02 -0.30443759436E+02 -0.87460471996E+01  0.33240039173E+02  0.51100000000E-03 0. -1.
        -11    1    3    3    0    0  0.41540292076E+01 -0.11218738720E+02 -0.24178257279E+01  0.12204996462E+02  0.51100000000E-03 0.  1.
         12    1    3    3    0    0  0.34194979373E+00  0.57869117813E+00 -0.18544333163E+00  0.69728213108E+00  0.00000000000E+00 0. -1.
</event>
<event>
 7    1  0.2097247E-008  0.4614232E+02  0.7816164E-02  0.1320468E+00
        -11   -1    0    0    0    0  0.00000000000E+00  0.00000000000E+00  0.45593999997E+02  0.45594000000E+02  0.51100000000E-03 0. -1.
         11   -1    0    0    0    0 -0.00000000000E+00 -0.00000000000E+00 -0.45593999997E+02  0.45594000000E+02  0.51100000000E-03 0.  1.
    9900012    2    1    2    0    0  0.31305013019E+02 -0.42549442130E+01 -0.32109267177E+02  0.46142318419E+02  0.10000006002E+02 0.  0.
         12    1    1    2    0    0 -0.31305013019E+02  0.42549442130E+01  0.32109267177E+02  0.45045681581E+02  0.00000000000E+00 0. -1.
         11    1    3    3    0    0  0.14484715885E+02  0.84001043625E+00 -0.12380954467E+02  0.19073558807E+02  0.51100000000E-03 0. -1.
        -11    1    3    3    0    0  0.47610807489E+01 -0.24999687639E-03 -0.23448086758E+01  0.53071666590E+01  0.51100000000E-03 0.  1.
        -12    1    3    3    0    0  0.12059216386E+02 -0.50947046524E+01 -0.17383504035E+02  0.21761592953E+02  0.00000000000E+00 0.  1.
</event>
<event>
 7    1  0.2097247E-008  0.4614232E+02  0.7816164E-02  0.1320468E+00
        -11   -1    0    0    0    0  0.00000000000E+00  0.00000000000E+00  0.45593999997E+02  0.45594000000E+02  0.51100000000E-03 0.  1.
         11   -1    0    0    0    0 -0.00000000000E+00 -0.00000000000E+00 -0.45593999997E+02  0.45594000000E+02  0.51100000000E-03 0. -1.
    9900012    2    1    2    0    0  0.24978319095E+02 -0.29707913309E+02  0.22861253217E+02  0.46142318336E+02  0.10000005238E+02 0.  0.
         12    1    1    2    0    0 -0.24978319095E+02  0.29707913309E+02 -0.22861253217E+02  0.45045681664E+02  0.00000000000E+00 0. -1.
         11    1    3    3    0    0  0.92199247570E+01 -0.96968510075E+01  0.31531796162E+01  0.13746944167E+02  0.51100000000E-03 0. -1.
        -11    1    3    3    0    0  0.97732298123E+00 -0.10448227953E+01  0.23039660729E+01  0.27120241167E+01  0.51100000000E-03 0.  1.
        -12    1    3    3    0    0  0.14781071357E+02 -0.18966239506E+02  0.17404107528E+02  0.29683350052E+02  0.00000000000E+00 0.  1.
</event>
<event>
 7    1  0.2097247E-008  0.4614232E+02  0.7816164E-02  0.1320468E+00
        -11   -1    0    0    0    0  0.00000000000E+00  0.00000000000E+00  0.45593999997E+02  0.45594000000E+02  0.51100000000E-03 0. -1.
         11   -1    0    0    0    0 -0.00000000000E+00 -0.00000000000E+00 -0.45593999997E+02  0.45594000000E+02  0.51100000000E-03 0.  1.
    9900012    2    1    2    0    0  0.33261945476E+02 -0.24046373023E+02  0.18561478163E+02  0.46142317143E+02  0.99999943665E+01 0.  0.
         12    1    1    2    0    0 -0.33261945476E+02  0.24046373023E+02 -0.18561478163E+02  0.45045682857E+02  0.00000000000E+00 0. -1.
         11    1    3    3    0    0  0.13686817566E+02 -0.90958124860E+01  0.12525886490E+02  0.20663025250E+02  0.51100000000E-03 0. -1.
        -11    1    3    3    0    0  0.15858378536E+02 -0.12644179203E+02  0.58163310529E+01  0.21099600581E+02  0.51100000000E-03 0.  1.
         12    1    3    3    0    0  0.37167493745E+01 -0.23063813337E+01  0.21926062031E+00  0.43796913121E+01  0.00000000000E+00 0. -1.
</event>
<event>
 7    1  0.2097247E-008  0.4614232E+02  0.7816164E-02  0.1320468E+00
        -11   -1    0    0    0    0  0.00000000000E+00  0.00000000000E+00  0.45593999997E+02  0.45594000000E+02  0.51100000000E-03 0.  1.
         11   -1    0    0    0    0 -0.00000000000E+00 -0.00000000000E+00 -0.45593999997E+02  0.45594000000E+02  0.51100000000E-03 0. -1.
    9900012    2    1    2    0    0 -0.22343074018E+02  0.16746313522E+02  0.35347723739E+02  0.46142317114E+02  0.99999940988E+01 0.  0.
         12    1    1    2    0    0  0.22343074018E+02 -0.16746313522E+02 -0.35347723739E+02  0.45045682886E+02  0.00000000000E+00 0. -1.
         11    1    3    3    0    0 -0.11063934786E+02  0.71305337962E+01  0.19946847949E+02  0.23898366231E+02  0.51100000000E-03 0. -1.
        -11    1    3    3    0    0 -0.96895310232E+01  0.81739020728E+01  0.15585396942E+02  0.20089905044E+02  0.51100000000E-03 0.  1.
         12    1    3    3    0    0 -0.15896082091E+01  0.14418776527E+01 -0.18452115184E+00  0.21540458396E+01  0.00000000000E+00 0. -1.
</event>
<event>
 7    1  0.2097247E-008  0.4614232E+02  0.7816164E-02  0.1320468E+00
        -11   -1    0    0    0    0  0.00000000000E+00  0.00000000000E+00  0.45593999997E+02  0.45594000000E+02  0.51100000000E-03 0.  1.
         11   -1    0    0    0    0 -0.00000000000E+00 -0.00000000000E+00 -0.45593999997E+02  0.45594000000E+02  0.51100000000E-03 0. -1.
    9900012    2    1    2    0    0  0.21446044768E+02  0.38841533243E+02 -0.77791959606E+01  0.46142318402E+02  0.10000005845E+02 0.  0.
         12    1    1    2    0    0 -0.21446044768E+02 -0.38841533243E+02  0.77791959606E+01  0.45045681598E+02  0.00000000000E+00 0. -1.
         11    1    3    3    0    0  0.10110818466E+02  0.17154145052E+02 -0.61316501761E+01  0.20834838052E+02  0.51100000000E-03 0.  1.
        -11    1    3    3    0    0  0.56242985306E+00  0.54673587597E+01 -0.19547615209E+01  0.58334751231E+01  0.51100000000E-03 0. -1.
        -12    1    3    3    0    0  0.10772796449E+02  0.16220029431E+02  0.30721573639E+00  0.19474005227E+02  0.00000000000E+00 0.  1.
</event>
<event>
 7    1  0.2097247E-008  0.4614231E+02  0.7816164E-02  0.1320468E+00
        -11   -1    0    0    0    0  0.00000000000E+00  0.00000000000E+00  0.45593999997E+02  0.45594000000E+02  0.51100000000E-03 0.  1.
         11   -1    0    0    0    0 -0.00000000000E+00 -0.00000000000E+00 -0.45593999997E+02  0.45594000000E+02  0.51100000000E-03 0. -1.
    9900012    2    1    2    0    0 -0.35524185558E+02 -0.20275735773E+02  0.18869036451E+02  0.46142314776E+02  0.99999727812E+01 0.  0.
         12    1    1    2    0    0  0.35524185558E+02  0.20275735773E+02 -0.18869036451E+02  0.45045685224E+02  0.00000000000E+00 0. -1.
         11    1    3    3    0    0 -0.89708006862E+01 -0.54711037291E+01  0.86059137861E+01  0.13581973101E+02  0.51100000000E-03 0. -1.
        -11    1    3    3    0    0 -0.72865849975E+01 -0.37026071130E+01  0.54062459926E+01  0.97995467422E+01  0.51100000000E-03 0.  1.
         12    1    3    3    0    0 -0.19266799874E+02 -0.11102024931E+02  0.48568766720E+01  0.22760794933E+02  0.00000000000E+00 0. -1.
</event>
<event>
 7    1  0.2097247E-008  0.4614232E+02  0.7816164E-02  0.1320468E+00
        -11   -1    0    0    0    0  0.00000000000E+00  0.00000000000E+00  0.45593999997E+02  0.45594000000E+02  0.51100000000E-03 0.  1.
         11   -1    0    0    0    0 -0.00000000000E+00 -0.00000000000E+00 -0.45593999997E+02  0.45594000000E+02  0.51100000000E-03 0. -1.
    9900012    2    1    2    0    0 -0.22905158100E+02  0.33818820507E+02  0.18993539783E+02  0.46142318280E+02  0.10000004735E+02 0.  0.
         12    1    1    2    0    0  0.22905158100E+02 -0.33818820507E+02 -0.18993539783E+02  0.45045681720E+02  0.00000000000E+00 0. -1.
         11    1    3    3    0    0 -0.10589732288E+01  0.35156248784E+01  0.99700536272E+00  0.38046106949E+01  0.51100000000E-03 0. -1.
        -11    1    3    3    0    0 -0.76944267713E+01  0.16628221162E+02  0.59503540548E+01  0.19264180646E+02  0.51100000000E-03 0.  1.
        -12    1    3    3    0    0 -0.14151758100E+02  0.13674974467E+02  0.12046180366E+02  0.23073526939E+02  0.00000000000E+00 0.  1.
</event>
<event>
 7    1  0.2097247E-008  0.4614231E+02  0.7816164E-02  0.1320468E+00
        -11   -1    0    0    0    0  0.00000000000E+00  0.00000000000E+00  0.45593999997E+02  0.45594000000E+02  0.51100000000E-03 0.  1.
         11   -1    0    0    0    0 -0.00000000000E+00 -0.00000000000E+00 -0.45593999997E+02  0.45594000000E+02  0.51100000000E-03 0. -1.
    9900012    2    1    2    0    0  0.38735427071E+02 -0.11123196203E+01  0.22966131444E+02  0.46142314759E+02  0.99999726217E+01 0.  0.
         12    1    1    2    0    0 -0.38735427071E+02  0.11123196203E+01 -0.22966131444E+02  0.45045685241E+02  0.00000000000E+00 0. -1.
         11    1    3    3    0    0  0.31502168236E+01  0.14658127935E+01  0.73651883119E+00  0.35517507558E+01  0.51100000000E-03 0. -1.
        -11    1    3    3    0    0  0.24736050321E+02 -0.47415265943E+01  0.16727044295E+02  0.30234885001E+02  0.51100000000E-03 0.  1.
        -12    1    3    3    0    0  0.10849159927E+02  0.21633941806E+01  0.55025683176E+01  0.12355679002E+02  0.00000000000E+00 0.  1.
</event>
<event>
 7    1  0.2097247E-008  0.4614232E+02  0.7816164E-02  0.1320468E+00
        -11   -1    0    0    0    0  0.00000000000E+00  0.00000000000E+00  0.45593999997E+02  0.45594000000E+02  0.51100000000E-03 0. -1.
         11   -1    0    0    0    0 -0.00000000000E+00 -0.00000000000E+00 -0.45593999997E+02  0.45594000000E+02  0.51100000000E-03 0.  1.
    9900012    2    1    2    0    0 -0.44088753186E+02  0.70422917235E+01 -0.59750847940E+01  0.46142315761E+02  0.99999817636E+01 0.  0.
         12    1    1    2    0    0  0.44088753186E+02 -0.70422917235E+01  0.59750847940E+01  0.45045684239E+02  0.00000000000E+00 0. -1.
         11    1    3    3    0    0 -0.15672662298E+02  0.47809782208E+01 -0.62403819476E+01  0.17533752119E+02  0.51100000000E-03 0. -1.
        -11    1    3    3    0    0 -0.88282106679E+01  0.17913646504E+01  0.34868054970E+00  0.90148693442E+01  0.51100000000E-03 0.  1.
         12    1    3    3    0    0 -0.19587880221E+02  0.46994885235E+00 -0.83383396058E-01  0.19593694298E+02  0.00000000000E+00 0. -1.
</event>
<event>
 7    1  0.2097247E-008  0.4614232E+02  0.7816164E-02  0.1320468E+00
        -11   -1    0    0    0    0  0.00000000000E+00  0.00000000000E+00  0.45593999997E+02  0.45594000000E+02  0.51100000000E-03 0. -1.
         11   -1    0    0    0    0 -0.00000000000E+00 -0.00000000000E+00 -0.45593999997E+02  0.45594000000E+02  0.51100000000E-03 0.  1.
    9900012    2    1    2    0    0 -0.66932284752E+01  0.31813226941E+02 -0.31180646881E+02  0.46142318123E+02  0.10000003302E+02 0.  0.
         12    1    1    2    0    0  0.66932284752E+01 -0.31813226941E+02  0.31180646881E+02  0.45045681877E+02  0.00000000000E+00 0. -1.
         11    1    3    3    0    0 -0.16566309239E+01  0.69650185768E+01 -0.28083276883E+01  0.76904235552E+01  0.51100000000E-03 0. -1.
        -11    1    3    3    0    0 -0.42144405644E+01  0.21481625484E+02 -0.21140431393E+02  0.30432541505E+02  0.51100000000E-03 0.  1.
         12    1    3    3    0    0 -0.82215698692E+00  0.33665828803E+01 -0.72318878000E+01  0.80193530633E+01  0.00000000000E+00 0. -1.
</event>
<event>
 7    1  0.2097247E-008  0.4614232E+02  0.7816164E-02  0.1320468E+00
        -11   -1    0    0    0    0  0.00000000000E+00  0.00000000000E+00  0.45593999997E+02  0.45594000000E+02  0.51100000000E-03 0. -1.
         11   -1    0    0    0    0 -0.00000000000E+00 -0.00000000000E+00 -0.45593999997E+02  0.45594000000E+02  0.51100000000E-03 0.  1.
    9900012    2    1    2    0    0 -0.31336277178E+02 -0.28253086829E+02 -0.15777019276E+02  0.46142317411E+02  0.99999968034E+01 0.  0.
         12    1    1    2    0    0  0.31336277178E+02  0.28253086829E+02  0.15777019276E+02  0.45045682589E+02  0.00000000000E+00 0. -1.
         11    1    3    3    0    0 -0.54775779372E+01 -0.68620596913E+01 -0.58308992929E+01  0.10539976760E+02  0.51100000000E-03 0. -1.
        -11    1    3    3    0    0 -0.27181015009E+01 -0.43817238927E+01  0.15420075575E+00  0.51586197937E+01  0.51100000000E-03 0.  1.
        -12    1    3    3    0    0 -0.23140597739E+02 -0.17009303245E+02 -0.10100320739E+02  0.30443720857E+02  0.00000000000E+00 0.  1.
</event>
<event>
 7    1  0.2097247E-008  0.4614232E+02  0.7816164E-02  0.1320468E+00
        -11   -1    0    0    0    0  0.00000000000E+00  0.00000000000E+00  0.45593999997E+02  0.45594000000E+02  0.51100000000E-03 0.  1.
         11   -1    0    0    0    0 -0.00000000000E+00 -0.00000000000E+00 -0.45593999997E+02  0.45594000000E+02  0.51100000000E-03 0. -1.
    9900012    2    1    2    0    0  0.15495286221E+02  0.21954681140E+02  0.36152476129E+02  0.46142318195E+02  0.10000003957E+02 0.  0.
         12    1    1    2    0    0 -0.15495286221E+02 -0.21954681140E+02 -0.36152476129E+02  0.45045681805E+02  0.00000000000E+00 0. -1.
         11    1    3    3    0    0 -0.44960110515E+00  0.45526732282E+01  0.87905858928E+01  0.99097616156E+01  0.51100000000E-03 0. -1.
        -11    1    3    3    0    0  0.10083377242E+02  0.92686779422E+01  0.14895687225E+02  0.20235226353E+02  0.51100000000E-03 0.  1.
         12    1    3    3    0    0  0.58615100846E+01  0.81333299693E+01  0.12466203011E+02  0.15997330226E+02  0.00000000000E+00 0. -1.
</event>
<event>
 7    1  0.2097247E-008  0.4614232E+02  0.7816164E-02  0.1320468E+00
        -11   -1    0    0    0    0  0.00000000000E+00  0.00000000000E+00  0.45593999997E+02  0.45594000000E+02  0.51100000000E-03 0. -1.
         11   -1    0    0    0    0 -0.00000000000E+00 -0.00000000000E+00 -0.45593999997E+02  0.45594000000E+02  0.51100000000E-03 0.  1.
    9900012    2    1    2    0    0 -0.43417472096E+02 -0.10921511042E+02  0.49756608741E+01  0.46142317768E+02  0.10000000061E+02 0.  0.
         12    1    1    2    0    0  0.43417472096E+02  0.10921511042E+02 -0.49756608741E+01  0.45045682232E+02  0.00000000000E+00 0. -1.
         11    1    3    3    0    0 -0.82395686741E+01 -0.27176459701E+01  0.25998035226E+01  0.90573213574E+01  0.51100000000E-03 0. -1.
        -11    1    3    3    0    0 -0.26529649515E+02 -0.96630138135E+01  0.15906618904E+01  0.28279433249E+02  0.51100000000E-03 0.  1.
        -12    1    3    3    0    0 -0.86482539063E+01  0.14591487418E+01  0.78519546101E+00  0.88055631614E+01  0.00000000000E+00 0.  1.
</event>
<event>
 7    1  0.2097247E-008  0.4614232E+02  0.7816164E-02  0.1320468E+00
        -11   -1    0    0    0    0  0.00000000000E+00  0.00000000000E+00  0.45593999997E+02  0.45594000000E+02  0.51100000000E-03 0.  1.
         11   -1    0    0    0    0 -0.00000000000E+00 -0.00000000000E+00 -0.45593999997E+02  0.45594000000E+02  0.51100000000E-03 0. -1.
    9900012    2    1    2    0    0 -0.15372268964E+02 -0.52842386869E+01  0.42010520921E+02  0.46142315416E+02  0.99999786132E+01 0.  0.
         12    1    1    2    0    0  0.15372268964E+02  0.52842386869E+01 -0.42010520921E+02  0.45045684584E+02  0.00000000000E+00 0. -1.
         11    1    3    3    0    0 -0.33118885055E+01  0.85849542721E+00  0.28566311326E+01  0.44571248087E+01  0.51100000000E-03 0. -1.
        -11    1    3    3    0    0 -0.47975913310E+01 -0.33641359856E+01  0.10833496823E+02  0.12316612651E+02  0.51100000000E-03 0.  1.
         12    1    3    3    0    0 -0.72627891278E+01 -0.27785981285E+01  0.28320392965E+02  0.29368577956E+02  0.00000000000E+00 0. -1.
</event>
<event>
 7    1  0.2097247E-008  0.4614232E+02  0.7816164E-02  0.1320468E+00
        -11   -1    0    0    0    0  0.00000000000E+00  0.00000000000E+00  0.45593999997E+02  0.45594000000E+02  0.51100000000E-03 0.  1.
         11   -1    0    0    0    0 -0.00000000000E+00 -0.00000000000E+00 -0.45593999997E+02  0.45594000000E+02  0.51100000000E-03 0. -1.
    9900012    2    1    2    0    0 -0.44451713144E+02 -0.83979628544E+00 -0.72424806535E+01  0.46142316686E+02  0.99999901975E+01 0.  0.
         12    1    1    2    0    0  0.44451713144E+02  0.83979628544E+00  0.72424806535E+01  0.45045683314E+02  0.00000000000E+00 0. -1.
         11    1    3    3    0    0  0.37940307785E+00  0.16728720519E+00  0.34246808482E+00  0.53778839216E+00  0.51100000000E-03 0. -1.
        -11    1    3    3    0    0 -0.37404037013E+02 -0.14866856365E+00 -0.52443246036E+01  0.37770187027E+02  0.51100000000E-03 0.  1.
        -12    1    3    3    0    0 -0.74270792084E+01 -0.85841492698E+00 -0.23406241347E+01  0.78343412674E+01  0.00000000000E+00 0.  1.
</event>
<event>
 7    1  0.2097247E-008  0.4614232E+02  0.7816164E-02  0.1320468E+00
        -11   -1    0    0    0    0  0.00000000000E+00  0.00000000000E+00  0.45593999997E+02  0.45594000000E+02  0.51100000000E-03 0.  1.
         11   -1    0    0    0    0 -0.00000000000E+00 -0.00000000000E+00 -0.45593999997E+02  0.45594000000E+02  0.51100000000E-03 0. -1.
    9900012    2    1    2    0    0  0.30274170988E+02  0.16527543806E+01  0.33314508546E+02  0.46142317568E+02  0.99999982425E+01 0.  0.
         12    1    1    2    0    0 -0.30274170988E+02 -0.16527543806E+01 -0.33314508546E+02  0.45045682432E+02  0.00000000000E+00 0. -1.
         11    1    3    3    0    0  0.19110262570E+01 -0.23889353172E+00  0.21067402884E-01  0.19260154649E+01  0.51100000000E-03 0. -1.
        -11    1    3    3    0    0  0.27611556426E+02  0.11254022203E+01  0.33110725564E+02  0.43127540227E+02  0.51100000000E-03 0.  1.
        -12    1    3    3    0    0  0.75158830529E+00  0.76624569198E+00  0.18271557988E+00  0.10887618767E+01  0.00000000000E+00 0.  1.
</event>
<event>
 7    1  0.2097247E-008  0.4614232E+02  0.7816164E-02  0.1320468E+00
        -11   -1    0    0    0    0  0.00000000000E+00  0.00000000000E+00  0.45593999997E+02  0.45594000000E+02  0.51100000000E-03 0.  1.
         11   -1    0    0    0    0 -0.00000000000E+00 -0.00000000000E+00 -0.45593999997E+02  0.45594000000E+02  0.51100000000E-03 0. -1.
    9900012    2    1    2    0    0  0.39355840827E+01  0.24573641517E+02  0.37546781083E+02  0.46142318196E+02  0.10000003970E+02 0.  0.
         12    1    1    2    0    0 -0.39355840827E+01 -0.24573641517E+02 -0.37546781083E+02  0.45045681804E+02  0.00000000000E+00 0. -1.
         11    1    3    3    0    0 -0.16921613533E+01  0.11419964524E+02  0.20557450616E+02  0.23577272444E+02  0.51100000000E-03 0. -1.
        -11    1    3    3    0    0  0.21263506886E+00  0.34139124679E-01  0.16605036306E+01  0.16744108578E+01  0.51100000000E-03 0.  1.
         12    1    3    3    0    0  0.54151103671E+01  0.13119537868E+02  0.15328826836E+02  0.20890634895E+02  0.00000000000E+00 0. -1.
</event>
<event>
 7    1  0.2097247E-008  0.4614232E+02  0.7816164E-02  0.1320468E+00
        -11   -1    0    0    0    0  0.00000000000E+00  0.00000000000E+00  0.45593999997E+02  0.45594000000E+02  0.51100000000E-03 0.  1.
         11   -1    0    0    0    0 -0.00000000000E+00 -0.00000000000E+00 -0.45593999997E+02  0.45594000000E+02  0.51100000000E-03 0. -1.
    9900012    2    1    2    0    0  0.23596139543E+02  0.25781403285E+02  0.28419270637E+02  0.46142317630E+02  0.99999988051E+01 0.  0.
         12    1    1    2    0    0 -0.23596139543E+02 -0.25781403285E+02 -0.28419270637E+02  0.45045682370E+02  0.00000000000E+00 0. -1.
         11    1    3    3    0    0  0.80864491352E+01  0.11622144970E+02  0.11175104048E+02  0.18037401810E+02  0.51100000000E-03 0.  1.
        -11    1    3    3    0    0  0.74959264147E+01  0.11506643036E+02  0.10116610826E+02  0.17056891910E+02  0.51100000000E-03 0. -1.
         12    1    3    3    0    0  0.80137639930E+01  0.26526152782E+01  0.71275557627E+01  0.11048023909E+02  0.00000000000E+00 0. -1.
</event>
<event>
 7    1  0.2097247E-008  0.4614232E+02  0.7816164E-02  0.1320468E+00
        -11   -1    0    0    0    0  0.00000000000E+00  0.00000000000E+00  0.45593999997E+02  0.45594000000E+02  0.51100000000E-03 0. -1.
         11   -1    0    0    0    0 -0.00000000000E+00 -0.00000000000E+00 -0.45593999997E+02  0.45594000000E+02  0.51100000000E-03 0.  1.
    9900012    2    1    2    0    0  0.18003589475E+01 -0.44962765072E+02 -0.20547315838E+01  0.46142318107E+02  0.10000003157E+02 0.  0.
         12    1    1    2    0    0 -0.18003589475E+01  0.44962765072E+02  0.20547315838E+01  0.45045681893E+02  0.00000000000E+00 0. -1.
         11    1    3    3    0    0 -0.23965645720E+01 -0.15288370873E+02  0.12767987376E+01  0.15527653428E+02  0.51100000000E-03 0. -1.
        -11    1    3    3    0    0  0.95309507453E+00 -0.50031043260E+00 -0.44778274594E-01  0.10773607126E+01  0.51100000000E-03 0.  1.
        -12    1    3    3    0    0  0.32438284450E+01 -0.29174083767E+02 -0.32867520468E+01  0.29537303967E+02  0.00000000000E+00 0.  1.
</event>
<event>
 7    1  0.2097247E-008  0.4614232E+02  0.7816164E-02  0.1320468E+00
        -11   -1    0    0    0    0  0.00000000000E+00  0.00000000000E+00  0.45593999997E+02  0.45594000000E+02  0.51100000000E-03 0.  1.
         11   -1    0    0    0    0 -0.00000000000E+00 -0.00000000000E+00 -0.45593999997E+02  0.45594000000E+02  0.51100000000E-03 0. -1.
    9900012    2    1    2    0    0  0.56210269494E+01  0.75814525890E+00  0.44687165300E+02  0.46142317957E+02  0.10000001787E+02 0.  0.
         12    1    1    2    0    0 -0.56210269494E+01 -0.75814525890E+00 -0.44687165300E+02  0.45045682043E+02  0.00000000000E+00 0. -1.
         11    1    3    3    0    0 -0.11995205533E+01  0.56060266572E+00  0.93340577076E+00  0.16199912039E+01  0.51100000000E-03 0. -1.
        -11    1    3    3    0    0  0.28100418513E+01 -0.21296765461E+01  0.15999381250E+02  0.16383285936E+02  0.51100000000E-03 0.  1.
         12    1    3    3    0    0  0.40105056515E+01  0.23272191393E+01  0.27754378278E+02  0.28139040817E+02  0.00000000000E+00 0. -1.
</event>
<event>
 7    1  0.2097247E-008  0.4614232E+02  0.7816164E-02  0.1320468E+00
        -11   -1    0    0    0    0  0.00000000000E+00  0.00000000000E+00  0.45593999997E+02  0.45594000000E+02  0.51100000000E-03 0.  1.
         11   -1    0    0    0    0 -0.00000000000E+00 -0.00000000000E+00 -0.45593999997E+02  0.45594000000E+02  0.51100000000E-03 0. -1.
    9900012    2    1    2    0    0 -0.14562379935E+02 -0.74444633123E+01  0.41971779175E+02  0.46142321067E+02  0.10000030148E+02 0.  0.
         12    1    1    2    0    0  0.14562379935E+02  0.74444633123E+01 -0.41971779175E+02  0.45045678933E+02  0.00000000000E+00 0. -1.
         11    1    3    3    0    0 -0.47564387070E+01 -0.15637066088E+01  0.16058060474E+02  0.16820528945E+02  0.51100000000E-03 0. -1.
        -11    1    3    3    0    0 -0.56198716512E+01 -0.67348286739E+01  0.21291393656E+02  0.23027468786E+02  0.51100000000E-03 0.  1.
         12    1    3    3    0    0 -0.41860695767E+01  0.85407197041E+00  0.46223250452E+01  0.62943233358E+01  0.00000000000E+00 0. -1.
</event>
<event>
 7    1  0.2097247E-008  0.4614232E+02  0.7816164E-02  0.1320468E+00
        -11   -1    0    0    0    0  0.00000000000E+00  0.00000000000E+00  0.45593999997E+02  0.45594000000E+02  0.51100000000E-03 0. -1.
         11   -1    0    0    0    0 -0.00000000000E+00 -0.00000000000E+00 -0.45593999997E+02  0.45594000000E+02  0.51100000000E-03 0.  1.
    9900012    2    1    2    0    0 -0.13052483806E+02  0.41009735263E+02 -0.13302173114E+02  0.46142317306E+02  0.99999958479E+01 0.  0.
         12    1    1    2    0    0  0.13052483806E+02 -0.41009735263E+02  0.13302173114E+02  0.45045682694E+02  0.00000000000E+00 0. -1.
         11    1    3    3    0    0 -0.12433751347E+02  0.32204758117E+02 -0.11541050317E+02  0.36399731601E+02  0.51100000000E-03 0. -1.
        -11    1    3    3    0    0 -0.15230456715E+01  0.55212695153E+01 -0.25131472863E+01  0.62545978865E+01  0.51100000000E-03 0.  1.
         12    1    3    3    0    0  0.90431321294E+00  0.32837076304E+01  0.75202448875E+00  0.34879878183E+01  0.00000000000E+00 0. -1.
</event>
<event>
 7    1  0.2097247E-008  0.4614232E+02  0.7816164E-02  0.1320468E+00
        -11   -1    0    0    0    0  0.00000000000E+00  0.00000000000E+00  0.45593999997E+02  0.45594000000E+02  0.51100000000E-03 0.  1.
         11   -1    0    0    0    0 -0.00000000000E+00 -0.00000000000E+00 -0.45593999997E+02  0.45594000000E+02  0.51100000000E-03 0. -1.
    9900012    2    1    2    0    0  0.23010071283E+02  0.36240720477E+02  0.13647719939E+02  0.46142318069E+02  0.10000002805E+02 0.  0.
         12    1    1    2    0    0 -0.23010071283E+02 -0.36240720477E+02 -0.13647719939E+02  0.45045681931E+02  0.00000000000E+00 0. -1.
         11    1    3    3    0    0  0.12788470147E+02  0.24962545395E+02  0.89435088753E+01  0.29439089533E+02  0.51100000000E-03 0. -1.
        -11    1    3    3    0    0  0.72112903826E+01  0.10680139069E+02  0.44081888337E+01  0.13619846128E+02  0.51100000000E-03 0.  1.
         12    1    3    3    0    0  0.30103107537E+01  0.59803601307E+00  0.29602223051E+00  0.30833824070E+01  0.00000000000E+00 0. -1.
</event>
<event>
 7    1  0.2097247E-008  0.4614232E+02  0.7816164E-02  0.1320468E+00
        -11   -1    0    0    0    0  0.00000000000E+00  0.00000000000E+00  0.45593999997E+02  0.45594000000E+02  0.51100000000E-03 0.  1.
         11   -1    0    0    0    0 -0.00000000000E+00 -0.00000000000E+00 -0.45593999997E+02  0.45594000000E+02  0.51100000000E-03 0. -1.
    9900012    2    1    2    0    0 -0.12859620201E+02 -0.52450800671E+00  0.43167910799E+02  0.46142318042E+02  0.10000002559E+02 0.  0.
         12    1    1    2    0    0  0.12859620201E+02  0.52450800671E+00 -0.43167910799E+02  0.45045681958E+02  0.00000000000E+00 0. -1.
         11    1    3    3    0    0 -0.64000321434E+01  0.55629491595E+00  0.27477422804E+02  0.28218409588E+02  0.51100000000E-03 0. -1.
        -11    1    3    3    0    0 -0.23824305883E+01  0.82699315869E+00  0.11501997627E+02  0.11775221563E+02  0.51100000000E-03 0.  1.
         12    1    3    3    0    0 -0.40771574696E+01 -0.19077960813E+01  0.41884903684E+01  0.61486868913E+01  0.00000000000E+00 0. -1.
</event>
<event>
 7    1  0.2097247E-008  0.4614232E+02  0.7816164E-02  0.1320468E+00
        -11   -1    0    0    0    0  0.00000000000E+00  0.00000000000E+00  0.45593999997E+02  0.45594000000E+02  0.51100000000E-03 0.  1.
         11   -1    0    0    0    0 -0.00000000000E+00 -0.00000000000E+00 -0.45593999997E+02  0.45594000000E+02  0.51100000000E-03 0. -1.
    9900012    2    1    2    0    0  0.29422072326E+02  0.30670630668E+02  0.14925395177E+02  0.46142319333E+02  0.10000014333E+02 0.  0.
         12    1    1    2    0    0 -0.29422072326E+02 -0.30670630668E+02 -0.14925395177E+02  0.45045680667E+02  0.00000000000E+00 0. -1.
         11    1    3    3    0    0  0.65513289257E+01  0.72037845838E+01  0.69234096783E+01  0.11947720488E+02  0.51100000000E-03 0. -1.
        -11    1    3    3    0    0  0.60086697337E+01  0.66036981587E+01  0.47898428510E+01  0.10131906836E+02  0.51100000000E-03 0.  1.
        -12    1    3    3    0    0  0.16862073667E+02  0.16863147926E+02  0.32121426479E+01  0.24062692009E+02  0.00000000000E+00 0.  1.
</event>
<event>
 7    1  0.2097247E-008  0.4614232E+02  0.7816164E-02  0.1320468E+00
        -11   -1    0    0    0    0  0.00000000000E+00  0.00000000000E+00  0.45593999997E+02  0.45594000000E+02  0.51100000000E-03 0.  1.
         11   -1    0    0    0    0 -0.00000000000E+00 -0.00000000000E+00 -0.45593999997E+02  0.45594000000E+02  0.51100000000E-03 0. -1.
    9900012    2    1    2    0    0 -0.30363447916E+02  0.22823872640E+02  0.24212503281E+02  0.46142318222E+02  0.10000004205E+02 0.  0.
         12    1    1    2    0    0  0.30363447916E+02 -0.22823872640E+02 -0.24212503281E+02  0.45045681778E+02  0.00000000000E+00 0. -1.
         11    1    3    3    0    0 -0.57548103066E+01  0.25092244024E+01  0.37025877812E+01  0.72885667525E+01  0.51100000000E-03 0. -1.
        -11    1    3    3    0    0 -0.22808538125E+02  0.20433492898E+02  0.20810621239E+02  0.37024843012E+02  0.51100000000E-03 0.  1.
         12    1    3    3    0    0 -0.18000994844E+01 -0.11884466030E+00 -0.30070573832E+00  0.18289084581E+01  0.00000000000E+00 0. -1.
</event>
<event>
 7    1  0.2097247E-008  0.4614232E+02  0.7816164E-02  0.1320468E+00
        -11   -1    0    0    0    0  0.00000000000E+00  0.00000000000E+00  0.45593999997E+02  0.45594000000E+02  0.51100000000E-03 0.  1.
         11   -1    0    0    0    0 -0.00000000000E+00 -0.00000000000E+00 -0.45593999997E+02  0.45594000000E+02  0.51100000000E-03 0. -1.
    9900012    2    1    2    0    0 -0.64450998908E+00  0.38657237926E+02  0.23115277865E+02  0.46142317543E+02  0.99999980155E+01 0.  0.
         12    1    1    2    0    0  0.64450998908E+00 -0.38657237926E+02 -0.23115277865E+02  0.45045682457E+02  0.00000000000E+00 0. -1.
         11    1    3    3    0    0  0.35360940407E+01  0.30452304645E+02  0.16823343945E+02  0.34969582797E+02  0.51100000000E-03 0. -1.
        -11    1    3    3    0    0 -0.12468416635E+01  0.18607417576E+01  0.16519299719E+01  0.27831361655E+01  0.51100000000E-03 0.  1.
         12    1    3    3    0    0 -0.29337623663E+01  0.63441915232E+01  0.46400039484E+01  0.83895985808E+01  0.00000000000E+00 0. -1.
</event>
<event>
 7    1  0.2097247E-008  0.4614232E+02  0.7816164E-02  0.1320468E+00
        -11   -1    0    0    0    0  0.00000000000E+00  0.00000000000E+00  0.45593999997E+02  0.45594000000E+02  0.51100000000E-03 0.  1.
         11   -1    0    0    0    0 -0.00000000000E+00 -0.00000000000E+00 -0.45593999997E+02  0.45594000000E+02  0.51100000000E-03 0. -1.
    9900012    2    1    2    0    0  0.23849953808E+02 -0.16490146040E+02  0.34472716591E+02  0.46142318718E+02  0.10000008722E+02 0.  0.
         12    1    1    2    0    0 -0.23849953808E+02  0.16490146040E+02 -0.34472716591E+02  0.45045681282E+02  0.00000000000E+00 0. -1.
         11    1    3    3    0    0  0.28296934725E+01 -0.18630434432E+00  0.71661221895E+00  0.29249628699E+01  0.51100000000E-03 0. -1.
        -11    1    3    3    0    0  0.29650307025E+01 -0.30647123263E+01  0.81902072361E+01  0.92338163042E+01  0.51100000000E-03 0.  1.
        -12    1    3    3    0    0  0.18055229633E+02 -0.13239129369E+02  0.25565897136E+02  0.33983539543E+02  0.00000000000E+00 0.  1.
</event>
<event>
 7    1  0.2162694E-008  0.4614232E+02  0.7816164E-02  0.1320468E+00
        -11   -1    0    0    0    0  0.00000000000E+00  0.00000000000E+00  0.45593999997E+02  0.45594000000E+02  0.51100000000E-03 0. -1.
         11   -1    0    0    0    0 -0.00000000000E+00 -0.00000000000E+00 -0.45593999997E+02  0.45594000000E+02  0.51100000000E-03 0.  1.
    9900012    2    1    2    0    0 -0.19348266647E+02 -0.64266324618E+01 -0.40167853513E+02  0.46142317822E+02  0.10000000556E+02 0.  0.
         12    1    1    2    0    0  0.19348266647E+02  0.64266324618E+01  0.40167853513E+02  0.45045682178E+02  0.00000000000E+00 0. -1.
         11    1    3    3    0    0 -0.10093859678E+00 -0.19124442236E+00 -0.34679859470E+01  0.34747215456E+01  0.51100000000E-03 0. -1.
        -11    1    3    3    0    0  0.68990533062E+00 -0.47769928005E+00 -0.27740652596E+01  0.28982070825E+01  0.51100000000E-03 0.  1.
        -12    1    3    3    0    0 -0.19937233381E+02 -0.57576887594E+01 -0.33925802306E+02  0.39769389194E+02  0.00000000000E+00 0.  1.
</event>
<event>
 7    1  0.2097247E-008  0.4614232E+02  0.7816164E-02  0.1320468E+00
        -11   -1    0    0    0    0  0.00000000000E+00  0.00000000000E+00  0.45593999997E+02  0.45594000000E+02  0.51100000000E-03 0.  1.
         11   -1    0    0    0    0 -0.00000000000E+00 -0.00000000000E+00 -0.45593999997E+02  0.45594000000E+02  0.51100000000E-03 0. -1.
    9900012    2    1    2    0    0  0.25206364238E+02  0.22846276585E+02  0.29526265299E+02  0.46142317694E+02  0.99999993844E+01 0.  0.
         12    1    1    2    0    0 -0.25206364238E+02 -0.22846276585E+02 -0.29526265299E+02  0.45045682306E+02  0.00000000000E+00 0. -1.
         11    1    3    3    0    0  0.52276802169E+01  0.68174808052E+01  0.52290048736E+01  0.10057294726E+02  0.51100000000E-03 0. -1.
        -11    1    3    3    0    0  0.48412784066E+01  0.63983687286E+00  0.28426957432E+01  0.56505121170E+01  0.51100000000E-03 0.  1.
        -12    1    3    3    0    0  0.15137405615E+02  0.15388958907E+02  0.21454564683E+02  0.30434510850E+02  0.00000000000E+00 0.  1.
</event>
<event>
 7    1  0.2097247E-008  0.4614232E+02  0.7816164E-02  0.1320468E+00
        -11   -1    0    0    0    0  0.00000000000E+00  0.00000000000E+00  0.45593999997E+02  0.45594000000E+02  0.51100000000E-03 0.  1.
         11   -1    0    0    0    0 -0.00000000000E+00 -0.00000000000E+00 -0.45593999997E+02  0.45594000000E+02  0.51100000000E-03 0. -1.
    9900012    2    1    2    0    0  0.14022494508E+01 -0.72429089079E+01  0.44437456021E+02  0.46142317292E+02  0.99999957224E+01 0.  0.
         12    1    1    2    0    0 -0.14022494508E+01  0.72429089079E+01 -0.44437456021E+02  0.45045682708E+02  0.00000000000E+00 0. -1.
         11    1    3    3    0    0  0.25324091714E+01 -0.10607547908E+01  0.71154672872E+01  0.76268061411E+01  0.51100000000E-03 0. -1.
        -11    1    3    3    0    0 -0.33578485450E+00 -0.77304727485E+01  0.31678006338E+02  0.32609339862E+02  0.51100000000E-03 0.  1.
        -12    1    3    3    0    0 -0.79437486616E+00  0.15483186313E+01  0.56439823961E+01  0.59061712894E+01  0.00000000000E+00 0.  1.
</event>
<event>
 7    1  0.2097247E-008  0.4614232E+02  0.7816164E-02  0.1320468E+00
        -11   -1    0    0    0    0  0.00000000000E+00  0.00000000000E+00  0.45593999997E+02  0.45594000000E+02  0.51100000000E-03 0.  1.
         11   -1    0    0    0    0 -0.00000000000E+00 -0.00000000000E+00 -0.45593999997E+02  0.45594000000E+02  0.51100000000E-03 0. -1.
    9900012    2    1    2    0    0 -0.26335463881E+01  0.44443749643E+02 -0.68506212427E+01  0.46142318073E+02  0.10000002841E+02 0.  0.
         12    1    1    2    0    0  0.26335463881E+01 -0.44443749643E+02  0.68506212427E+01  0.45045681927E+02  0.00000000000E+00 0. -1.
         11    1    3    3    0    0 -0.52907891192E+00  0.18043865237E+02 -0.13162916434E+01  0.18099547539E+02  0.51100000000E-03 0. -1.
        -11    1    3    3    0    0  0.16793472111E+01  0.98203728524E+01  0.55817083463E+00  0.99785512454E+01  0.51100000000E-03 0.  1.
         12    1    3    3    0    0 -0.37838146872E+01  0.16579511554E+02 -0.60925004339E+01  0.18064219288E+02  0.00000000000E+00 0. -1.
</event>
<event>
 7    1  0.2097247E-008  0.4614232E+02  0.7816164E-02  0.1320468E+00
        -11   -1    0    0    0    0  0.00000000000E+00  0.00000000000E+00  0.45593999997E+02  0.45594000000E+02  0.51100000000E-03 0.  1.
         11   -1    0    0    0    0 -0.00000000000E+00 -0.00000000000E+00 -0.45593999997E+02  0.45594000000E+02  0.51100000000E-03 0. -1.
    9900012    2    1    2    0    0 -0.40959622220E+02 -0.17780824867E+02  0.59384412392E+01  0.46142317968E+02  0.10000001891E+02 0.  0.
         12    1    1    2    0    0  0.40959622220E+02  0.17780824867E+02 -0.59384412392E+01  0.45045682032E+02  0.00000000000E+00 0. -1.
         11    1    3    3    0    0 -0.28200364435E+02 -0.13964026116E+02  0.21732157544E+01  0.31543263094E+02  0.51100000000E-03 0. -1.
        -11    1    3    3    0    0 -0.10877471153E+02 -0.40313136579E+01  0.15804684171E+01  0.11707636361E+02  0.51100000000E-03 0.  1.
         12    1    3    3    0    0 -0.18817866321E+01  0.21451490729E+00  0.21847570676E+01  0.28914185132E+01  0.00000000000E+00 0. -1.
</event>
<event>
 7    1  0.2097247E-008  0.4614232E+02  0.7816164E-02  0.1320468E+00
        -11   -1    0    0    0    0  0.00000000000E+00  0.00000000000E+00  0.45593999997E+02  0.45594000000E+02  0.51100000000E-03 0.  1.
         11   -1    0    0    0    0 -0.00000000000E+00 -0.00000000000E+00 -0.45593999997E+02  0.45594000000E+02  0.51100000000E-03 0. -1.
    9900012    2    1    2    0    0 -0.36646496767E+02  0.24384470390E+02  0.95679340268E+01  0.46142317820E+02  0.10000000539E+02 0.  0.
         12    1    1    2    0    0  0.36646496767E+02 -0.24384470390E+02 -0.95679340268E+01  0.45045682180E+02  0.00000000000E+00 0. -1.
         11    1    3    3    0    0 -0.49455790064E+01  0.29883230267E+01  0.99199816931E-01  0.57791579910E+01  0.51100000000E-03 0. -1.
        -11    1    3    3    0    0 -0.31893266090E+02  0.19861362386E+02  0.96879584816E+01  0.38800910782E+02  0.51100000000E-03 0.  1.
         12    1    3    3    0    0  0.19234832860E+00  0.15347849770E+01 -0.21922427168E+00  0.15622490476E+01  0.00000000000E+00 0. -1.
</event>
<event>
 7    1  0.2097247E-008  0.4614232E+02  0.7816164E-02  0.1320468E+00
        -11   -1    0    0    0    0  0.00000000000E+00  0.00000000000E+00  0.45593999997E+02  0.45594000000E+02  0.51100000000E-03 0. -1.
         11   -1    0    0    0    0 -0.00000000000E+00 -0.00000000000E+00 -0.45593999997E+02  0.45594000000E+02  0.51100000000E-03 0.  1.
    9900012    2    1    2    0    0 -0.24108380692E+02  0.14963142639E+02 -0.34985766342E+02  0.46142317590E+02  0.99999984426E+01 0.  0.
         12    1    1    2    0    0  0.24108380692E+02 -0.14963142639E+02  0.34985766342E+02  0.45045682410E+02  0.00000000000E+00 0. -1.
         11    1    3    3    0    0 -0.74187814397E+01  0.16033517353E+01 -0.81738356059E+01  0.11154400191E+02  0.51100000000E-03 0. -1.
        -11    1    3    3    0    0 -0.10955403982E+02  0.88432986799E+01 -0.22404955595E+02  0.26461421796E+02  0.51100000000E-03 0.  1.
         12    1    3    3    0    0 -0.57341952696E+01  0.45164922234E+01 -0.44069751411E+01  0.85264956042E+01  0.00000000000E+00 0. -1.
</event>
<event>
 7    1  0.2097247E-008  0.4614232E+02  0.7816164E-02  0.1320468E+00
        -11   -1    0    0    0    0  0.00000000000E+00  0.00000000000E+00  0.45593999997E+02  0.45594000000E+02  0.51100000000E-03 0.  1.
         11   -1    0    0    0    0 -0.00000000000E+00 -0.00000000000E+00 -0.45593999997E+02  0.45594000000E+02  0.51100000000E-03 0. -1.
    9900012    2    1    2    0    0  0.26888857320E+02  0.43056104481E+00  0.36137479766E+02  0.46142317913E+02  0.10000001387E+02 0.  0.
         12    1    1    2    0    0 -0.26888857320E+02 -0.43056104481E+00 -0.36137479766E+02  0.45045682087E+02  0.00000000000E+00 0. -1.
         11    1    3    3    0    0  0.10709863754E+01  0.13104464395E+01  0.27963928685E+01  0.32686533960E+01  0.51100000000E-03 0. -1.
        -11    1    3    3    0    0  0.21422451684E+02  0.56882436846E+00  0.22430590060E+02  0.31022191542E+02  0.51100000000E-03 0.  1.
        -12    1    3    3    0    0  0.43954192606E+01 -0.14487097631E+01  0.10910496837E+02  0.11851472976E+02  0.00000000000E+00 0.  1.
</event>
<event>
 7    1  0.2097247E-008  0.4614232E+02  0.7816164E-02  0.1320468E+00
        -11   -1    0    0    0    0  0.00000000000E+00  0.00000000000E+00  0.45593999997E+02  0.45594000000E+02  0.51100000000E-03 0.  1.
         11   -1    0    0    0    0 -0.00000000000E+00 -0.00000000000E+00 -0.45593999997E+02  0.45594000000E+02  0.51100000000E-03 0. -1.
    9900012    2    1    2    0    0 -0.45108493856E+01 -0.22801342707E+02  0.38585806959E+02  0.46142317742E+02  0.99999998278E+01 0.  0.
         12    1    1    2    0    0  0.45108493856E+01  0.22801342707E+02 -0.38585806959E+02  0.45045682258E+02  0.00000000000E+00 0. -1.
         11    1    3    3    0    0  0.24781578230E+01 -0.54166153872E+01  0.10540787070E+02  0.12107401900E+02  0.51100000000E-03 0. -1.
        -11    1    3    3    0    0  0.56408426884E+00 -0.25638339015E+01  0.32672523770E+01  0.41912257984E+01  0.51100000000E-03 0.  1.
        -12    1    3    3    0    0 -0.75530914774E+01 -0.14820893418E+02  0.24777767512E+02  0.29843690044E+02  0.00000000000E+00 0.  1.
</event>
<event>
 7    1  0.2097247E-008  0.4614231E+02  0.7816164E-02  0.1320468E+00
        -11   -1    0    0    0    0  0.00000000000E+00  0.00000000000E+00  0.45593999997E+02  0.45594000000E+02  0.51100000000E-03 0.  1.
         11   -1    0    0    0    0 -0.00000000000E+00 -0.00000000000E+00 -0.45593999997E+02  0.45594000000E+02  0.51100000000E-03 0. -1.
    9900012    2    1    2    0    0 -0.11118554251E+02 -0.50857663791E+01  0.43354661633E+02  0.46142312597E+02  0.99999529079E+01 0.  0.
         12    1    1    2    0    0  0.11118554251E+02  0.50857663791E+01 -0.43354661633E+02  0.45045687403E+02  0.00000000000E+00 0. -1.
         11    1    3    3    0    0 -0.12076730896E+01 -0.25132224677E+01  0.29667221491E+01  0.40713882196E+01  0.51100000000E-03 0. -1.
        -11    1    3    3    0    0 -0.73269965554E+01 -0.15201493382E+01  0.17766385318E+02  0.19277971368E+02  0.51100000000E-03 0.  1.
        -12    1    3    3    0    0 -0.25838846060E+01 -0.10523945732E+01  0.22621554167E+02  0.22792953010E+02  0.00000000000E+00 0.  1.
</event>
<event>
 7    1  0.2097247E-008  0.4614232E+02  0.7816164E-02  0.1320468E+00
        -11   -1    0    0    0    0  0.00000000000E+00  0.00000000000E+00  0.45593999997E+02  0.45594000000E+02  0.51100000000E-03 0. -1.
         11   -1    0    0    0    0 -0.00000000000E+00 -0.00000000000E+00 -0.45593999997E+02  0.45594000000E+02  0.51100000000E-03 0.  1.
    9900012    2    1    2    0    0 -0.13979936827E+02 -0.39780781014E+02 -0.15848164057E+02  0.46142317901E+02  0.10000001276E+02 0.  0.
         12    1    1    2    0    0  0.13979936827E+02  0.39780781014E+02  0.15848164057E+02  0.45045682099E+02  0.00000000000E+00 0. -1.
         11    1    3    3    0    0 -0.37787265865E+01 -0.19489996473E+02 -0.79811501243E+01  0.21397137535E+02  0.51100000000E-03 0. -1.
        -11    1    3    3    0    0 -0.98237080159E+01 -0.20566772609E+02 -0.71472163907E+01  0.23886818062E+02  0.51100000000E-03 0.  1.
        -12    1    3    3    0    0 -0.37750222475E+00  0.27598806773E+00 -0.71979754225E+00  0.85836230407E+00  0.00000000000E+00 0.  1.
</event>
<event>
 7    1  0.2097247E-008  0.4614232E+02  0.7816164E-02  0.1320468E+00
        -11   -1    0    0    0    0  0.00000000000E+00  0.00000000000E+00  0.45593999997E+02  0.45594000000E+02  0.51100000000E-03 0.  1.
         11   -1    0    0    0    0 -0.00000000000E+00 -0.00000000000E+00 -0.45593999997E+02  0.45594000000E+02  0.51100000000E-03 0. -1.
    9900012    2    1    2    0    0 -0.40021775598E+02 -0.16848434956E+02  0.11979192721E+02  0.46142319400E+02  0.10000014946E+02 0.  0.
         12    1    1    2    0    0  0.40021775598E+02  0.16848434956E+02 -0.11979192721E+02  0.45045680600E+02  0.00000000000E+00 0. -1.
         11    1    3    3    0    0 -0.30575254828E+01  0.78797762536E+00  0.18222479331E+01  0.36455395495E+01  0.51100000000E-03 0. -1.
        -11    1    3    3    0    0 -0.16423745404E+02 -0.60467890106E+01  0.23773086733E+01  0.17662238454E+02  0.51100000000E-03 0.  1.
         12    1    3    3    0    0 -0.20540504711E+02 -0.11589623570E+02  0.77796361144E+01  0.24834541396E+02  0.00000000000E+00 0. -1.
</event>
<event>
 7    1  0.2097247E-008  0.4614232E+02  0.7816164E-02  0.1320468E+00
        -11   -1    0    0    0    0  0.00000000000E+00  0.00000000000E+00  0.45593999997E+02  0.45594000000E+02  0.51100000000E-03 0.  1.
         11   -1    0    0    0    0 -0.00000000000E+00 -0.00000000000E+00 -0.45593999997E+02  0.45594000000E+02  0.51100000000E-03 0. -1.
    9900012    2    1    2    0    0  0.35908642181E+02 -0.64439467415E+00  0.27189478390E+02  0.46142316934E+02  0.99999924564E+01 0.  0.
         12    1    1    2    0    0 -0.35908642181E+02  0.64439467415E+00 -0.27189478390E+02  0.45045683066E+02  0.00000000000E+00 0. -1.
         11    1    3    3    0    0  0.97529854607E+01  0.29299245162E+01  0.10108370321E+02  0.14348670108E+02  0.51100000000E-03 0. -1.
        -11    1    3    3    0    0  0.15778709255E+02 -0.79209160997E+00  0.79101953633E+01  0.17668227580E+02  0.51100000000E-03 0.  1.
        -12    1    3    3    0    0  0.10376947465E+02 -0.27822275804E+01  0.91709127060E+01  0.14125419245E+02  0.00000000000E+00 0.  1.
</event>
<event>
 7    1  0.2097247E-008  0.4614232E+02  0.7816164E-02  0.1320468E+00
        -11   -1    0    0    0    0  0.00000000000E+00  0.00000000000E+00  0.45593999997E+02  0.45594000000E+02  0.51100000000E-03 0.  1.
         11   -1    0    0    0    0 -0.00000000000E+00 -0.00000000000E+00 -0.45593999997E+02  0.45594000000E+02  0.51100000000E-03 0. -1.
    9900012    2    1    2    0    0  0.16867759578E+01  0.44566219240E+02  0.63340608231E+01  0.46142318331E+02  0.10000005197E+02 0.  0.
         12    1    1    2    0    0 -0.16867759578E+01 -0.44566219240E+02 -0.63340608231E+01  0.45045681669E+02  0.00000000000E+00 0. -1.
         11    1    3    3    0    0 -0.60164977889E+00  0.37030719433E+02  0.69939223625E+01  0.37690199183E+02  0.51100000000E-03 0. -1.
        -11    1    3    3    0    0 -0.73354070236E+00  0.14887427274E+01 -0.26575099954E+00  0.16807916960E+01  0.51100000000E-03 0.  1.
         12    1    3    3    0    0  0.30219664391E+01  0.60467570796E+01 -0.39411053990E+00  0.67713274515E+01  0.00000000000E+00 0. -1.
</event>
<event>
 7    1  0.2097247E-008  0.4614232E+02  0.7816164E-02  0.1320468E+00
        -11   -1    0    0    0    0  0.00000000000E+00  0.00000000000E+00  0.45593999997E+02  0.45594000000E+02  0.51100000000E-03 0.  1.
         11   -1    0    0    0    0 -0.00000000000E+00 -0.00000000000E+00 -0.45593999997E+02  0.45594000000E+02  0.51100000000E-03 0. -1.
    9900012    2    1    2    0    0  0.29432071079E+02 -0.33957179785E+02  0.31267765351E+01  0.46142316539E+02  0.99999888539E+01 0.  0.
         12    1    1    2    0    0 -0.29432071079E+02  0.33957179785E+02 -0.31267765351E+01  0.45045683461E+02  0.00000000000E+00 0. -1.
         11    1    3    3    0    0  0.12768047208E+02 -0.12034993217E+02  0.42442858951E+01  0.18052092794E+02  0.51100000000E-03 0. -1.
        -11    1    3    3    0    0  0.53568105734E+01 -0.97036308254E+01 -0.25737984173E+01  0.11378941483E+02  0.51100000000E-03 0.  1.
        -12    1    3    3    0    0  0.11307213298E+02 -0.12218555743E+02  0.14562890573E+01  0.16711282262E+02  0.00000000000E+00 0.  1.
</event>
<event>
 7    1  0.2097247E-008  0.4614232E+02  0.7816164E-02  0.1320468E+00
        -11   -1    0    0    0    0  0.00000000000E+00  0.00000000000E+00  0.45593999997E+02  0.45594000000E+02  0.51100000000E-03 0.  1.
         11   -1    0    0    0    0 -0.00000000000E+00 -0.00000000000E+00 -0.45593999997E+02  0.45594000000E+02  0.51100000000E-03 0. -1.
    9900012    2    1    2    0    0  0.15990482132E+02  0.15756771927E+02  0.39053064257E+02  0.46142320871E+02  0.10000028355E+02 0.  0.
         12    1    1    2    0    0 -0.15990482132E+02 -0.15756771927E+02 -0.39053064257E+02  0.45045679129E+02  0.00000000000E+00 0. -1.
         11    1    3    3    0    0  0.41354464524E+01  0.40621256309E+01  0.16374999708E+02  0.17370762727E+02  0.51100000000E-03 0. -1.
        -11    1    3    3    0    0  0.91823694166E+01  0.65121389228E+01  0.18278626693E+02  0.21466999220E+02  0.51100000000E-03 0.  1.
         12    1    3    3    0    0  0.26726662630E+01  0.51825073737E+01  0.43994378554E+01  0.73045589241E+01  0.00000000000E+00 0. -1.
</event>
<event>
 7    1  0.2097247E-008  0.4614232E+02  0.7816164E-02  0.1320468E+00
        -11   -1    0    0    0    0  0.00000000000E+00  0.00000000000E+00  0.45593999997E+02  0.45594000000E+02  0.51100000000E-03 0.  1.
         11   -1    0    0    0    0 -0.00000000000E+00 -0.00000000000E+00 -0.45593999997E+02  0.45594000000E+02  0.51100000000E-03 0. -1.
    9900012    2    1    2    0    0 -0.32442768767E+02 -0.31173150086E+02 -0.21942799609E+01  0.46142318785E+02  0.10000009338E+02 0.  0.
         12    1    1    2    0    0  0.32442768767E+02  0.31173150086E+02  0.21942799609E+01  0.45045681215E+02  0.00000000000E+00 0. -1.
         11    1    3    3    0    0 -0.19945855044E+01 -0.25140079937E+01  0.77715234243E+00  0.33019045339E+01  0.51100000000E-03 0. -1.
        -11    1    3    3    0    0 -0.24697185425E+02 -0.18126532141E+02 -0.80410417292E+00  0.30645859739E+02  0.51100000000E-03 0.  1.
         12    1    3    3    0    0 -0.57509978372E+01 -0.10532609952E+02 -0.21673281304E+01  0.12194554512E+02  0.00000000000E+00 0. -1.
</event>
<event>
 7    1  0.2097247E-008  0.4614233E+02  0.7816164E-02  0.1320468E+00
        -11   -1    0    0    0    0  0.00000000000E+00  0.00000000000E+00  0.45593999997E+02  0.45594000000E+02  0.51100000000E-03 0. -1.
         11   -1    0    0    0    0 -0.00000000000E+00 -0.00000000000E+00 -0.45593999997E+02  0.45594000000E+02  0.51100000000E-03 0.  1.
    9900012    2    1    2    0    0 -0.17391562283E+02  0.30332415275E+02 -0.28400538298E+02  0.46142329501E+02  0.10000107057E+02 0.  0.
         12    1    1    2    0    0  0.17391562283E+02 -0.30332415275E+02  0.28400538298E+02  0.45045670499E+02  0.00000000000E+00 0. -1.
         11    1    3    3    0    0 -0.35318099570E+01  0.41543186730E+01 -0.88802020837E+01  0.10420654227E+02  0.51100000000E-03 0. -1.
        -11    1    3    3    0    0 -0.69059042432E+01  0.87550315308E+01 -0.76263687267E+01  0.13509388985E+02  0.51100000000E-03 0.  1.
        -12    1    3    3    0    0 -0.69538480831E+01  0.17423065071E+02 -0.11893967488E+02  0.22212286290E+02  0.00000000000E+00 0.  1.
</event>
<event>
 7    1  0.2097247E-008  0.4614232E+02  0.7816164E-02  0.1320468E+00
        -11   -1    0    0    0    0  0.00000000000E+00  0.00000000000E+00  0.45593999997E+02  0.45594000000E+02  0.51100000000E-03 0.  1.
         11   -1    0    0    0    0 -0.00000000000E+00 -0.00000000000E+00 -0.45593999997E+02  0.45594000000E+02  0.51100000000E-03 0. -1.
    9900012    2    1    2    0    0  0.22997440297E+02 -0.32102732804E+02  0.21671311153E+02  0.46142318289E+02  0.10000004810E+02 0.  0.
         12    1    1    2    0    0 -0.22997440297E+02  0.32102732804E+02 -0.21671311153E+02  0.45045681711E+02  0.00000000000E+00 0. -1.
         11    1    3    3    0    0  0.60900674776E+01 -0.83375700843E+01  0.76920505294E+01  0.12875233528E+02  0.51100000000E-03 0.  1.
        -11    1    3    3    0    0  0.87997407206E+01 -0.18305852424E+02  0.81408700176E+01  0.21881806019E+02  0.51100000000E-03 0. -1.
         12    1    3    3    0    0  0.81076320992E+01 -0.54593102955E+01  0.58383906064E+01  0.11385278742E+02  0.00000000000E+00 0. -1.
</event>
<event>
 7    1  0.2097247E-008  0.4614232E+02  0.7816164E-02  0.1320468E+00
        -11   -1    0    0    0    0  0.00000000000E+00  0.00000000000E+00  0.45593999997E+02  0.45594000000E+02  0.51100000000E-03 0.  1.
         11   -1    0    0    0    0 -0.00000000000E+00 -0.00000000000E+00 -0.45593999997E+02  0.45594000000E+02  0.51100000000E-03 0. -1.
    9900012    2    1    2    0    0  0.39763023490E+02  0.20064593254E+02  0.67399964311E+01  0.46142317728E+02  0.99999996941E+01 0.  0.
         12    1    1    2    0    0 -0.39763023490E+02 -0.20064593254E+02 -0.67399964311E+01  0.45045682272E+02  0.00000000000E+00 0. -1.
         11    1    3    3    0    0  0.29727203165E+02  0.16915187170E+02  0.64290528038E+01  0.34801765548E+02  0.51100000000E-03 0.  1.
        -11    1    3    3    0    0  0.43625172730E+01  0.33699529647E+01  0.10607283719E+01  0.56136694667E+01  0.51100000000E-03 0. -1.
         12    1    3    3    0    0  0.56733030519E+01 -0.22054688152E+00 -0.74978474460E+00  0.57268827130E+01  0.00000000000E+00 0. -1.
</event>
<event>
 7    1  0.2097247E-008  0.4614232E+02  0.7816164E-02  0.1320468E+00
        -11   -1    0    0    0    0  0.00000000000E+00  0.00000000000E+00  0.45593999997E+02  0.45594000000E+02  0.51100000000E-03 0.  1.
         11   -1    0    0    0    0 -0.00000000000E+00 -0.00000000000E+00 -0.45593999997E+02  0.45594000000E+02  0.51100000000E-03 0. -1.
    9900012    2    1    2    0    0  0.22378760409E+02 -0.19238359461E+01  0.39046169871E+02  0.46142318256E+02  0.10000004509E+02 0.  0.
         12    1    1    2    0    0 -0.22378760409E+02  0.19238359461E+01 -0.39046169871E+02  0.45045681744E+02  0.00000000000E+00 0. -1.
         11    1    3    3    0    0  0.12352633263E+02  0.16354763515E+01  0.15572196155E+02  0.19943811691E+02  0.51100000000E-03 0. -1.
        -11    1    3    3    0    0  0.88759390415E+01 -0.22074397343E+01  0.22209795933E+02  0.24019369678E+02  0.51100000000E-03 0.  1.
         12    1    3    3    0    0  0.11501881052E+01 -0.13518725634E+01  0.12641777826E+01  0.21791368867E+01  0.00000000000E+00 0. -1.
</event>
<event>
 7    1  0.2097247E-008  0.4614232E+02  0.7816164E-02  0.1320468E+00
        -11   -1    0    0    0    0  0.00000000000E+00  0.00000000000E+00  0.45593999997E+02  0.45594000000E+02  0.51100000000E-03 0.  1.
         11   -1    0    0    0    0 -0.00000000000E+00 -0.00000000000E+00 -0.45593999997E+02  0.45594000000E+02  0.51100000000E-03 0. -1.
    9900012    2    1    2    0    0  0.18904910932E+02 -0.38713641050E+02  0.13151874123E+02  0.46142318146E+02  0.10000003510E+02 0.  0.
         12    1    1    2    0    0 -0.18904910932E+02  0.38713641050E+02 -0.13151874123E+02  0.45045681854E+02  0.00000000000E+00 0. -1.
         11    1    3    3    0    0  0.75873594963E-01 -0.19602268438E+01 -0.11586696639E+01  0.22783243256E+01  0.51100000000E-03 0. -1.
        -11    1    3    3    0    0  0.10654296249E+02 -0.17205965175E+02  0.60477395876E+01  0.21121894341E+02  0.51100000000E-03 0.  1.
        -12    1    3    3    0    0  0.81747410882E+01 -0.19547449032E+02  0.82628041990E+01  0.22742099480E+02  0.00000000000E+00 0.  1.
</event>
<event>
 7    1  0.2097247E-008  0.4614232E+02  0.7816164E-02  0.1320468E+00
        -11   -1    0    0    0    0  0.00000000000E+00  0.00000000000E+00  0.45593999997E+02  0.45594000000E+02  0.51100000000E-03 0.  1.
         11   -1    0    0    0    0 -0.00000000000E+00 -0.00000000000E+00 -0.45593999997E+02  0.45594000000E+02  0.51100000000E-03 0. -1.
    9900012    2    1    2    0    0 -0.24862285733E+02  0.35576761647E+02  0.12052978075E+02  0.46142317614E+02  0.99999986598E+01 0.  0.
         12    1    1    2    0    0  0.24862285733E+02 -0.35576761647E+02 -0.12052978075E+02  0.45045682386E+02  0.00000000000E+00 0. -1.
         11    1    3    3    0    0 -0.10917224364E+02  0.11724870005E+02  0.53712306829E+01  0.16896996294E+02  0.51100000000E-03 0. -1.
        -11    1    3    3    0    0 -0.58262053364E+01  0.10486767759E+02  0.64176006171E+01  0.13605240336E+02  0.51100000000E-03 0.  1.
        -12    1    3    3    0    0 -0.81188560323E+01  0.13365123883E+02  0.26414677504E+00  0.15640080985E+02  0.00000000000E+00 0.  1.
</event>
<event>
 7    1  0.2097247E-008  0.4614232E+02  0.7816164E-02  0.1320468E+00
        -11   -1    0    0    0    0  0.00000000000E+00  0.00000000000E+00  0.45593999997E+02  0.45594000000E+02  0.51100000000E-03 0. -1.
         11   -1    0    0    0    0 -0.00000000000E+00 -0.00000000000E+00 -0.45593999997E+02  0.45594000000E+02  0.51100000000E-03 0.  1.
    9900012    2    1    2    0    0 -0.29848166066E+02 -0.32725277199E+02 -0.82010136096E+01  0.46142318637E+02  0.10000007983E+02 0.  0.
         12    1    1    2    0    0  0.29848166066E+02  0.32725277199E+02  0.82010136096E+01  0.45045681363E+02  0.00000000000E+00 0. -1.
         11    1    3    3    0    0 -0.19917068522E+01 -0.51681332162E+01  0.69627064598E+00  0.55822298590E+01  0.51100000000E-03 0. -1.
        -11    1    3    3    0    0 -0.53199821237E+01 -0.44370740271E+01 -0.37131311905E+01  0.78598460046E+01  0.51100000000E-03 0.  1.
         12    1    3    3    0    0 -0.22536477090E+02 -0.23120069956E+02 -0.51841530651E+01  0.32700242773E+02  0.00000000000E+00 0. -1.
</event>
<event>
 7    1  0.2097247E-008  0.4614232E+02  0.7816164E-02  0.1320468E+00
        -11   -1    0    0    0    0  0.00000000000E+00  0.00000000000E+00  0.45593999997E+02  0.45594000000E+02  0.51100000000E-03 0.  1.
         11   -1    0    0    0    0 -0.00000000000E+00 -0.00000000000E+00 -0.45593999997E+02  0.45594000000E+02  0.51100000000E-03 0. -1.
    9900012    2    1    2    0    0 -0.26718549051E+02 -0.31259830143E+02  0.18386290901E+02  0.46142317221E+02  0.99999950761E+01 0.  0.
         12    1    1    2    0    0  0.26718549051E+02  0.31259830143E+02 -0.18386290901E+02  0.45045682779E+02  0.00000000000E+00 0. -1.
         11    1    3    3    0    0 -0.14336812322E+02 -0.18658055876E+02  0.10328384241E+02  0.25697135208E+02  0.51100000000E-03 0. -1.
        -11    1    3    3    0    0 -0.11466018712E+02 -0.12385251474E+02  0.89881618051E+01  0.19122005440E+02  0.51100000000E-03 0.  1.
         12    1    3    3    0    0 -0.91571801687E+00 -0.21652279280E+00 -0.93025514518E+00  0.13231765722E+01  0.00000000000E+00 0. -1.
</event>
<event>
 7    1  0.2097247E-008  0.4614232E+02  0.7816164E-02  0.1320468E+00
        -11   -1    0    0    0    0  0.00000000000E+00  0.00000000000E+00  0.45593999997E+02  0.45594000000E+02  0.51100000000E-03 0.  1.
         11   -1    0    0    0    0 -0.00000000000E+00 -0.00000000000E+00 -0.45593999997E+02  0.45594000000E+02  0.51100000000E-03 0. -1.
    9900012    2    1    2    0    0 -0.14603599235E+00  0.42363451132E+02  0.15311113493E+02  0.46142317469E+02  0.99999973359E+01 0.  0.
         12    1    1    2    0    0  0.14603599235E+00 -0.42363451132E+02 -0.15311113493E+02  0.45045682531E+02  0.00000000000E+00 0. -1.
         11    1    3    3    0    0 -0.61612113022E+00  0.94012249783E+01  0.61267540850E+01  0.11238316254E+02  0.51100000000E-03 0. -1.
        -11    1    3    3    0    0  0.19434735533E+01  0.11053269985E+02  0.59688467691E+01  0.12711372815E+02  0.51100000000E-03 0.  1.
         12    1    3    3    0    0 -0.14733884154E+01  0.21908956168E+02  0.32155126391E+01  0.22192628401E+02  0.00000000000E+00 0. -1.
</event>
<event>
 7    1  0.2097247E-008  0.4614232E+02  0.7816164E-02  0.1320468E+00
        -11   -1    0    0    0    0  0.00000000000E+00  0.00000000000E+00  0.45593999997E+02  0.45594000000E+02  0.51100000000E-03 0.  1.
         11   -1    0    0    0    0 -0.00000000000E+00 -0.00000000000E+00 -0.45593999997E+02  0.45594000000E+02  0.51100000000E-03 0. -1.
    9900012    2    1    2    0    0  0.41510399200E+02  0.37468912306E+01 -0.17086868425E+02  0.46142317541E+02  0.99999979947E+01 0.  0.
         12    1    1    2    0    0 -0.41510399200E+02 -0.37468912306E+01  0.17086868425E+02  0.45045682459E+02  0.00000000000E+00 0. -1.
         11    1    3    3    0    0  0.25765199422E+02  0.31831448301E+01 -0.10737611305E+02  0.28094024437E+02  0.51100000000E-03 0. -1.
        -11    1    3    3    0    0  0.15664078230E+02  0.65345686766E+00 -0.46612598227E+01  0.16355968210E+02  0.51100000000E-03 0.  1.
         12    1    3    3    0    0  0.81121547436E-01 -0.89710467119E-01 -0.16879972973E+01  0.16923248946E+01  0.00000000000E+00 0. -1.
</event>
<event>
 7    1  0.2097247E-008  0.4614232E+02  0.7816164E-02  0.1320468E+00
        -11   -1    0    0    0    0  0.00000000000E+00  0.00000000000E+00  0.45593999997E+02  0.45594000000E+02  0.51100000000E-03 0. -1.
         11   -1    0    0    0    0 -0.00000000000E+00 -0.00000000000E+00 -0.45593999997E+02  0.45594000000E+02  0.51100000000E-03 0.  1.
    9900012    2    1    2    0    0 -0.44681348348E+02 -0.61262838907E+00 -0.56846474843E+01  0.46142318512E+02  0.10000006846E+02 0.  0.
         12    1    1    2    0    0  0.44681348348E+02  0.61262838907E+00  0.56846474843E+01  0.45045681488E+02  0.00000000000E+00 0. -1.
         11    1    3    3    0    0 -0.83179470457E+01  0.85794466433E+00 -0.38344152869E+01  0.91992963294E+01  0.51100000000E-03 0. -1.
        -11    1    3    3    0    0 -0.21894102686E+02 -0.27815773004E+01  0.11807558466E+01  0.22101653543E+02  0.51100000000E-03 0.  1.
        -12    1    3    3    0    0 -0.14469298615E+02  0.13110042470E+01 -0.30309880440E+01  0.14841368639E+02  0.00000000000E+00 0.  1.
</event>
<event>
 7    1  0.2097247E-008  0.4614232E+02  0.7816164E-02  0.1320468E+00
        -11   -1    0    0    0    0  0.00000000000E+00  0.00000000000E+00  0.45593999997E+02  0.45594000000E+02  0.51100000000E-03 0.  1.
         11   -1    0    0    0    0 -0.00000000000E+00 -0.00000000000E+00 -0.45593999997E+02  0.45594000000E+02  0.51100000000E-03 0. -1.
    9900012    2    1    2    0    0 -0.41651495404E+02  0.16115778533E+02 -0.58777605299E+01  0.46142318120E+02  0.10000003275E+02 0.  0.
         12    1    1    2    0    0  0.41651495404E+02 -0.16115778533E+02  0.58777605299E+01  0.45045681880E+02  0.00000000000E+00 0. -1.
         11    1    3    3    0    0 -0.79351014115E+01  0.55301564560E+01  0.73192135950E+00  0.96996996849E+01  0.51100000000E-03 0. -1.
        -11    1    3    3    0    0 -0.15424130677E+02  0.79229566138E+01 -0.27065756094E+01  0.17550002861E+02  0.51100000000E-03 0.  1.
         12    1    3    3    0    0 -0.18292263316E+02  0.26626654635E+01 -0.39031062801E+01  0.18892615574E+02  0.00000000000E+00 0. -1.
</event>
<event>
 7    1  0.2097247E-008  0.4614232E+02  0.7816164E-02  0.1320468E+00
        -11   -1    0    0    0    0  0.00000000000E+00  0.00000000000E+00  0.45593999997E+02  0.45594000000E+02  0.51100000000E-03 0. -1.
         11   -1    0    0    0    0 -0.00000000000E+00 -0.00000000000E+00 -0.45593999997E+02  0.45594000000E+02  0.51100000000E-03 0.  1.
    9900012    2    1    2    0    0  0.34328694983E+02  0.77537236537E+00  0.29155665334E+02  0.46142319602E+02  0.10000016782E+02 0.  0.
         12    1    1    2    0    0 -0.34328694983E+02 -0.77537236537E+00 -0.29155665334E+02  0.45045680398E+02  0.00000000000E+00 0. -1.
         11    1    3    3    0    0  0.38006265768E+01 -0.43479587475E+00  0.20654321243E+01  0.43473923161E+01  0.51100000000E-03 0. -1.
        -11    1    3    3    0    0 -0.49554613314E+00  0.60741923710E+00  0.49052658112E+00  0.92473817245E+00  0.51100000000E-03 0.  1.
        -12    1    3    3    0    0  0.31023614539E+02  0.60274900301E+00  0.26599706628E+02  0.40870189113E+02  0.00000000000E+00 0.  1.
</event>
<event>
 7    1  0.2097247E-008  0.4614232E+02  0.7816164E-02  0.1320468E+00
        -11   -1    0    0    0    0  0.00000000000E+00  0.00000000000E+00  0.45593999997E+02  0.45594000000E+02  0.51100000000E-03 0.  1.
         11   -1    0    0    0    0 -0.00000000000E+00 -0.00000000000E+00 -0.45593999997E+02  0.45594000000E+02  0.51100000000E-03 0. -1.
    9900012    2    1    2    0    0 -0.24931265781E+02 -0.82851043096E+01  0.36591017679E+02  0.46142317169E+02  0.99999946045E+01 0.  0.
         12    1    1    2    0    0  0.24931265781E+02  0.82851043096E+01 -0.36591017679E+02  0.45045682831E+02  0.00000000000E+00 0. -1.
         11    1    3    3    0    0 -0.16642708176E+01 -0.25474085741E+01  0.15236151949E+01  0.34030120953E+01  0.51100000000E-03 0. -1.
        -11    1    3    3    0    0 -0.16836252080E+01 -0.18498697534E+01  0.35831384058E+01  0.43698390179E+01  0.51100000000E-03 0.  1.
         12    1    3    3    0    0 -0.21583369755E+02 -0.38878259820E+01  0.31484264079E+02  0.38369466056E+02  0.00000000000E+00 0. -1.
</event>
<event>
 7    1  0.2097247E-008  0.4614232E+02  0.7816164E-02  0.1320468E+00
        -11   -1    0    0    0    0  0.00000000000E+00  0.00000000000E+00  0.45593999997E+02  0.45594000000E+02  0.51100000000E-03 0.  1.
         11   -1    0    0    0    0 -0.00000000000E+00 -0.00000000000E+00 -0.45593999997E+02  0.45594000000E+02  0.51100000000E-03 0. -1.
    9900012    2    1    2    0    0  0.26129337473E+02  0.16359209175E+02  0.32844291003E+02  0.46142318152E+02  0.10000003568E+02 0.  0.
         12    1    1    2    0    0 -0.26129337473E+02 -0.16359209175E+02 -0.32844291003E+02  0.45045681848E+02  0.00000000000E+00 0. -1.
         11    1    3    3    0    0  0.89733070684E+01  0.87048298698E+01  0.17529014140E+02  0.21530458421E+02  0.51100000000E-03 0. -1.
        -11    1    3    3    0    0  0.11267311427E+02  0.27954137807E+01  0.98200361481E+01  0.15205254198E+02  0.51100000000E-03 0.  1.
         12    1    3    3    0    0  0.58887189771E+01  0.48589655246E+01  0.54952407148E+01  0.94066055341E+01  0.00000000000E+00 0. -1.
</event>
<event>
 7    1  0.2097247E-008  0.4614232E+02  0.7816164E-02  0.1320468E+00
        -11   -1    0    0    0    0  0.00000000000E+00  0.00000000000E+00  0.45593999997E+02  0.45594000000E+02  0.51100000000E-03 0. -1.
         11   -1    0    0    0    0 -0.00000000000E+00 -0.00000000000E+00 -0.45593999997E+02  0.45594000000E+02  0.51100000000E-03 0.  1.
    9900012    2    1    2    0    0  0.89976297704E+01 -0.41025783103E+02 -0.16280092852E+02  0.46142316034E+02  0.99999842500E+01 0.  0.
         12    1    1    2    0    0 -0.89976297704E+01  0.41025783103E+02  0.16280092852E+02  0.45045683966E+02  0.00000000000E+00 0. -1.
         11    1    3    3    0    0  0.16232932578E+01 -0.83992183165E+00  0.38072070001E+00  0.18669489004E+01  0.51100000000E-03 0. -1.
        -11    1    3    3    0    0  0.31691100623E+01 -0.91737849634E+01 -0.45267944445E+01  0.10709503133E+02  0.51100000000E-03 0.  1.
        -12    1    3    3    0    0  0.42052264503E+01 -0.31012076308E+02 -0.12134019108E+02  0.33565864001E+02  0.00000000000E+00 0.  1.
</event>
<event>
 7    1  0.2097247E-008  0.4614232E+02  0.7816164E-02  0.1320468E+00
        -11   -1    0    0    0    0  0.00000000000E+00  0.00000000000E+00  0.45593999997E+02  0.45594000000E+02  0.51100000000E-03 0. -1.
         11   -1    0    0    0    0 -0.00000000000E+00 -0.00000000000E+00 -0.45593999997E+02  0.45594000000E+02  0.51100000000E-03 0.  1.
    9900012    2    1    2    0    0  0.41582443390E+01 -0.43862529255E+02  0.93755548128E+01  0.46142317669E+02  0.99999991556E+01 0.  0.
         12    1    1    2    0    0 -0.41582443390E+01  0.43862529255E+02 -0.93755548128E+01  0.45045682331E+02  0.00000000000E+00 0. -1.
         11    1    3    3    0    0  0.24936029968E+01 -0.79602828526E+01  0.29142877498E+01  0.88361322052E+01  0.51100000000E-03 0.  1.
        -11    1    3    3    0    0  0.28831399421E+01 -0.73953815887E+01 -0.44290302290E+00  0.79498634024E+01  0.51100000000E-03 0. -1.
        -12    1    3    3    0    0 -0.12184985998E+01 -0.28506864814E+02  0.69041700860E+01  0.29356322061E+02  0.00000000000E+00 0.  1.
</event>
<event>
 7    1  0.2097247E-008  0.4614232E+02  0.7816164E-02  0.1320468E+00
        -11   -1    0    0    0    0  0.00000000000E+00  0.00000000000E+00  0.45593999997E+02  0.45594000000E+02  0.51100000000E-03 0.  1.
         11   -1    0    0    0    0 -0.00000000000E+00 -0.00000000000E+00 -0.45593999997E+02  0.45594000000E+02  0.51100000000E-03 0. -1.
    9900012    2    1    2    0    0 -0.36063370814E+01  0.30467905122E+02  0.32982032405E+02  0.46142319061E+02  0.10000011852E+02 0.  0.
         12    1    1    2    0    0  0.36063370814E+01 -0.30467905122E+02 -0.32982032405E+02  0.45045680939E+02  0.00000000000E+00 0. -1.
         11    1    3    3    0    0 -0.31522620877E+01  0.11392641860E+02  0.79776130958E+01  0.14260832928E+02  0.51100000000E-03 0. -1.
        -11    1    3    3    0    0 -0.22898745996E+01  0.10161733360E+02  0.10743563422E+02  0.14964240903E+02  0.51100000000E-03 0.  1.
        -12    1    3    3    0    0  0.18357996059E+01  0.89135299025E+01  0.14260855888E+02  0.16917245230E+02  0.00000000000E+00 0.  1.
</event>
<event>
 7    1  0.2097247E-008  0.4614232E+02  0.7816164E-02  0.1320468E+00
        -11   -1    0    0    0    0  0.00000000000E+00  0.00000000000E+00  0.45593999997E+02  0.45594000000E+02  0.51100000000E-03 0.  1.
         11   -1    0    0    0    0 -0.00000000000E+00 -0.00000000000E+00 -0.45593999997E+02  0.45594000000E+02  0.51100000000E-03 0. -1.
    9900012    2    1    2    0    0 -0.33948680687E+02  0.14868866944E+02  0.25603073954E+02  0.46142317405E+02  0.99999967490E+01 0.  0.
         12    1    1    2    0    0  0.33948680687E+02 -0.14868866944E+02 -0.25603073954E+02  0.45045682595E+02  0.00000000000E+00 0. -1.
         11    1    3    3    0    0 -0.88183008760E+01  0.21893037601E+00  0.47738673862E+01  0.10029963656E+02  0.51100000000E-03 0. -1.
        -11    1    3    3    0    0 -0.14461296209E+02  0.68726700815E+01  0.13892231155E+02  0.21198036910E+02  0.51100000000E-03 0.  1.
         12    1    3    3    0    0 -0.10669083602E+02  0.77772664866E+01  0.69369754125E+01  0.14914316839E+02  0.00000000000E+00 0. -1.
</event>
<event>
 7    1  0.2097247E-008  0.4614232E+02  0.7816164E-02  0.1320468E+00
        -11   -1    0    0    0    0  0.00000000000E+00  0.00000000000E+00  0.45593999997E+02  0.45594000000E+02  0.51100000000E-03 0.  1.
         11   -1    0    0    0    0 -0.00000000000E+00 -0.00000000000E+00 -0.45593999997E+02  0.45594000000E+02  0.51100000000E-03 0. -1.
    9900012    2    1    2    0    0 -0.32518099812E+02 -0.14995548109E+02  0.27328009349E+02  0.46142319036E+02  0.10000011629E+02 0.  0.
         12    1    1    2    0    0  0.32518099812E+02  0.14995548109E+02 -0.27328009349E+02  0.45045680964E+02  0.00000000000E+00 0. -1.
         11    1    3    3    0    0 -0.10039765247E+02 -0.64395041050E+00  0.61762661868E+01  0.11804991428E+02  0.51100000000E-03 0. -1.
        -11    1    3    3    0    0 -0.12549412527E+02 -0.78956027070E+01  0.88785495055E+01  0.17281693739E+02  0.51100000000E-03 0.  1.
        -12    1    3    3    0    0 -0.99289220378E+01 -0.64559949919E+01  0.12273193657E+02  0.17055633870E+02  0.00000000000E+00 0.  1.
</event>
<event>
 7    1  0.2097247E-008  0.4614232E+02  0.7816164E-02  0.1320468E+00
        -11   -1    0    0    0    0  0.00000000000E+00  0.00000000000E+00  0.45593999997E+02  0.45594000000E+02  0.51100000000E-03 0. -1.
         11   -1    0    0    0    0 -0.00000000000E+00 -0.00000000000E+00 -0.45593999997E+02  0.45594000000E+02  0.51100000000E-03 0.  1.
    9900012    2    1    2    0    0  0.27614669166E+02  0.32433695391E+02 -0.14649192589E+02  0.46142318816E+02  0.10000009617E+02 0.  0.
         12    1    1    2    0    0 -0.27614669166E+02 -0.32433695391E+02  0.14649192589E+02  0.45045681184E+02  0.00000000000E+00 0. -1.
         11    1    3    3    0    0  0.17422044140E+02  0.15623984567E+02 -0.97943838421E+01  0.25368611923E+02  0.51100000000E-03 0. -1.
        -11    1    3    3    0    0  0.47591112054E+01  0.81114677928E+01 -0.47072157420E+01  0.10516792739E+02  0.51100000000E-03 0.  1.
         12    1    3    3    0    0  0.54335138200E+01  0.86982430313E+01 -0.14759300459E+00  0.10256914154E+02  0.00000000000E+00 0. -1.
</event>
<event>
 7    1  0.2097247E-008  0.4614232E+02  0.7816164E-02  0.1320468E+00
        -11   -1    0    0    0    0  0.00000000000E+00  0.00000000000E+00  0.45593999997E+02  0.45594000000E+02  0.51100000000E-03 0.  1.
         11   -1    0    0    0    0 -0.00000000000E+00 -0.00000000000E+00 -0.45593999997E+02  0.45594000000E+02  0.51100000000E-03 0. -1.
    9900012    2    1    2    0    0  0.31860694402E+02 -0.19912339421E+01  0.31781199060E+02  0.46142317920E+02  0.10000001446E+02 0.  0.
         12    1    1    2    0    0 -0.31860694402E+02  0.19912339421E+01 -0.31781199060E+02  0.45045682080E+02  0.00000000000E+00 0. -1.
         11    1    3    3    0    0  0.38828375275E+01 -0.23161050709E+01  0.25067521663E+01  0.51695818641E+01  0.51100000000E-03 0. -1.
        -11    1    3    3    0    0  0.12697132640E+02 -0.89030030369E+00  0.91535622916E+01  0.15677930820E+02  0.51100000000E-03 0.  1.
        -12    1    3    3    0    0  0.15280724234E+02  0.12151714325E+01  0.20120884603E+02  0.25294805236E+02  0.00000000000E+00 0.  1.
</event>
<event>
 7    1  0.2097247E-008  0.4614232E+02  0.7816164E-02  0.1320468E+00
        -11   -1    0    0    0    0  0.00000000000E+00  0.00000000000E+00  0.45593999997E+02  0.45594000000E+02  0.51100000000E-03 0.  1.
         11   -1    0    0    0    0 -0.00000000000E+00 -0.00000000000E+00 -0.45593999997E+02  0.45594000000E+02  0.51100000000E-03 0. -1.
    9900012    2    1    2    0    0  0.16025733298E+01 -0.32161877084E+02  0.31498552900E+02  0.46142318590E+02  0.10000007563E+02 0.  0.
         12    1    1    2    0    0 -0.16025733298E+01  0.32161877084E+02 -0.31498552900E+02  0.45045681410E+02  0.00000000000E+00 0. -1.
         11    1    3    3    0    0  0.35518917580E+00 -0.56170233265E+01  0.28011650253E+01  0.62867826558E+01  0.51100000000E-03 0. -1.
        -11    1    3    3    0    0 -0.14486385223E+01 -0.16422929139E+02  0.21724647134E+02  0.27272173519E+02  0.51100000000E-03 0.  1.
        -12    1    3    3    0    0  0.26960226763E+01 -0.10121924618E+02  0.69727407409E+01  0.12583362416E+02  0.00000000000E+00 0.  1.
</event>
<event>
 7    1  0.2097247E-008  0.4614232E+02  0.7816164E-02  0.1320468E+00
        -11   -1    0    0    0    0  0.00000000000E+00  0.00000000000E+00  0.45593999997E+02  0.45594000000E+02  0.51100000000E-03 0.  1.
         11   -1    0    0    0    0 -0.00000000000E+00 -0.00000000000E+00 -0.45593999997E+02  0.45594000000E+02  0.51100000000E-03 0. -1.
    9900012    2    1    2    0    0  0.27327006600E+02  0.20770971059E+02  0.29170446707E+02  0.46142317748E+02  0.99999998840E+01 0.  0.
         12    1    1    2    0    0 -0.27327006600E+02 -0.20770971059E+02 -0.29170446707E+02  0.45045682252E+02  0.00000000000E+00 0. -1.
         11    1    3    3    0    0  0.64041915589E+01  0.99255956087E+01  0.10330093997E+02  0.15692098647E+02  0.51100000000E-03 0. -1.
        -11    1    3    3    0    0  0.57087562112E+01  0.25861347836E+01  0.74134576506E+01  0.97075921421E+01  0.51100000000E-03 0.  1.
        -12    1    3    3    0    0  0.15214058830E+02  0.82592406665E+01  0.11426895059E+02  0.20742626959E+02  0.00000000000E+00 0.  1.
</event>
<event>
 7    1  0.2097247E-008  0.4614232E+02  0.7816164E-02  0.1320468E+00
        -11   -1    0    0    0    0  0.00000000000E+00  0.00000000000E+00  0.45593999997E+02  0.45594000000E+02  0.51100000000E-03 0.  1.
         11   -1    0    0    0    0 -0.00000000000E+00 -0.00000000000E+00 -0.45593999997E+02  0.45594000000E+02  0.51100000000E-03 0. -1.
    9900012    2    1    2    0    0 -0.66138427142E+01 -0.37751299212E+02  0.23668751582E+02  0.46142319751E+02  0.10000018142E+02 0.  0.
         12    1    1    2    0    0  0.66138427142E+01  0.37751299212E+02 -0.23668751582E+02  0.45045680249E+02  0.00000000000E+00 0. -1.
         11    1    3    3    0    0 -0.33204683103E+01 -0.52691954737E+01  0.18993281299E+01  0.65113269267E+01  0.51100000000E-03 0. -1.
        -11    1    3    3    0    0 -0.29726294458E+01 -0.18273997778E+02  0.15291096618E+02  0.24012354251E+02  0.51100000000E-03 0.  1.
        -12    1    3    3    0    0 -0.32074495800E+00 -0.14208105960E+02  0.64783268347E+01  0.15618638573E+02  0.00000000000E+00 0.  1.
</event>
<event>
 7    1  0.2097247E-008  0.4614232E+02  0.7816164E-02  0.1320468E+00
        -11   -1    0    0    0    0  0.00000000000E+00  0.00000000000E+00  0.45593999997E+02  0.45594000000E+02  0.51100000000E-03 0.  1.
         11   -1    0    0    0    0 -0.00000000000E+00 -0.00000000000E+00 -0.45593999997E+02  0.45594000000E+02  0.51100000000E-03 0. -1.
    9900012    2    1    2    0    0 -0.40527007987E+02 -0.19319343543E+02 -0.36657972375E+01  0.46142317846E+02  0.10000000777E+02 0.  0.
         12    1    1    2    0    0  0.40527007987E+02  0.19319343543E+02  0.36657972375E+01  0.45045682154E+02  0.00000000000E+00 0. -1.
         11    1    3    3    0    0 -0.45142295891E+01 -0.21811084455E+01 -0.14078470258E+01  0.52074500808E+01  0.51100000000E-03 0. -1.
        -11    1    3    3    0    0 -0.52962094933E+01  0.55226164763E+00  0.67307679680E+00  0.53672954604E+01  0.51100000000E-03 0.  1.
        -12    1    3    3    0    0 -0.30716568905E+02 -0.17690496745E+02 -0.29310270085E+01  0.35567572305E+02  0.00000000000E+00 0.  1.
</event>
<event>
 7    1  0.2097247E-008  0.4614232E+02  0.7816164E-02  0.1320468E+00
        -11   -1    0    0    0    0  0.00000000000E+00  0.00000000000E+00  0.45593999997E+02  0.45594000000E+02  0.51100000000E-03 0. -1.
         11   -1    0    0    0    0 -0.00000000000E+00 -0.00000000000E+00 -0.45593999997E+02  0.45594000000E+02  0.51100000000E-03 0.  1.
    9900012    2    1    2    0    0 -0.28746417706E+02  0.34316377701E+02  0.50143044102E+01  0.46142316987E+02  0.99999929390E+01 0.  0.
         12    1    1    2    0    0  0.28746417706E+02 -0.34316377701E+02 -0.50143044102E+01  0.45045683013E+02  0.00000000000E+00 0. -1.
         11    1    3    3    0    0 -0.83738661416E+01  0.88232307207E+01 -0.20033580631E+00  0.12165984103E+02  0.51100000000E-03 0. -1.
        -11    1    3    3    0    0 -0.52058369688E+01  0.23512880183E+01 -0.46248497605E+00  0.57308975305E+01  0.51100000000E-03 0.  1.
        -12    1    3    3    0    0 -0.15166714595E+02  0.23141858962E+02  0.56771251926E+01  0.28245435353E+02  0.00000000000E+00 0.  1.
</event>
<event>
 7    1  0.2097247E-008  0.4614232E+02  0.7816164E-02  0.1320468E+00
        -11   -1    0    0    0    0  0.00000000000E+00  0.00000000000E+00  0.45593999997E+02  0.45594000000E+02  0.51100000000E-03 0.  1.
         11   -1    0    0    0    0 -0.00000000000E+00 -0.00000000000E+00 -0.45593999997E+02  0.45594000000E+02  0.51100000000E-03 0. -1.
    9900012    2    1    2    0    0 -0.27993321779E+02 -0.32839730973E+02  0.12924379340E+02  0.46142316789E+02  0.99999911372E+01 0.  0.
         12    1    1    2    0    0  0.27993321779E+02  0.32839730973E+02 -0.12924379340E+02  0.45045683211E+02  0.00000000000E+00 0. -1.
         11    1    3    3    0    0 -0.26719800948E+01 -0.68551248073E+01  0.92209050682E+00  0.74150161776E+01  0.51100000000E-03 0. -1.
        -11    1    3    3    0    0 -0.14601867890E+02 -0.11293606001E+02  0.41612711793E+01  0.18922903066E+02  0.51100000000E-03 0.  1.
         12    1    3    3    0    0 -0.10719473795E+02 -0.14691000165E+02  0.78410176540E+01  0.19804397545E+02  0.00000000000E+00 0. -1.
</event>
<event>
 7    1  0.2097247E-008  0.4614231E+02  0.7816164E-02  0.1320468E+00
        -11   -1    0    0    0    0  0.00000000000E+00  0.00000000000E+00  0.45593999997E+02  0.45594000000E+02  0.51100000000E-03 0.  1.
         11   -1    0    0    0    0 -0.00000000000E+00 -0.00000000000E+00 -0.45593999997E+02  0.45594000000E+02  0.51100000000E-03 0. -1.
    9900012    2    1    2    0    0  0.43113352697E+02  0.11186165526E+02  0.67247505501E+01  0.46142314858E+02  0.99999735299E+01 0.  0.
         12    1    1    2    0    0 -0.43113352697E+02 -0.11186165526E+02 -0.67247505501E+01  0.45045685142E+02  0.00000000000E+00 0. -1.
         11    1    3    3    0    0  0.23694382832E+02  0.46109041504E+01  0.51020988716E+01  0.24672163019E+02  0.51100000000E-03 0. -1.
        -11    1    3    3    0    0  0.13388766549E+02  0.14002869894E+01  0.93941812359E+00  0.13494531486E+02  0.51100000000E-03 0.  1.
         12    1    3    3    0    0  0.60302033151E+01  0.51749743865E+01  0.68323355493E+00  0.79756203528E+01  0.00000000000E+00 0. -1.
</event>
<event>
 7    1  0.2097247E-008  0.4614232E+02  0.7816164E-02  0.1320468E+00
        -11   -1    0    0    0    0  0.00000000000E+00  0.00000000000E+00  0.45593999997E+02  0.45594000000E+02  0.51100000000E-03 0.  1.
         11   -1    0    0    0    0 -0.00000000000E+00 -0.00000000000E+00 -0.45593999997E+02  0.45594000000E+02  0.51100000000E-03 0. -1.
    9900012    2    1    2    0    0 -0.37909719850E+02  0.23353456907E+02  0.68251548941E+01  0.46142317100E+02  0.99999939707E+01 0.  0.
         12    1    1    2    0    0  0.37909719850E+02 -0.23353456907E+02 -0.68251548941E+01  0.45045682900E+02  0.00000000000E+00 0. -1.
         11    1    3    3    0    0 -0.12389878626E+02  0.97887658996E+01  0.47199786874E+01  0.16480510589E+02  0.51100000000E-03 0. -1.
        -11    1    3    3    0    0 -0.78825337047E+01  0.69899545993E+01  0.25269664950E+01  0.10834175688E+02  0.51100000000E-03 0.  1.
         12    1    3    3    0    0 -0.17637307519E+02  0.65747364080E+01 -0.42179028824E+00  0.18827630823E+02  0.00000000000E+00 0. -1.
</event>
<event>
 7    1  0.2097247E-008  0.4614232E+02  0.7816164E-02  0.1320468E+00
        -11   -1    0    0    0    0  0.00000000000E+00  0.00000000000E+00  0.45593999997E+02  0.45594000000E+02  0.51100000000E-03 0. -1.
         11   -1    0    0    0    0 -0.00000000000E+00 -0.00000000000E+00 -0.45593999997E+02  0.45594000000E+02  0.51100000000E-03 0.  1.
    9900012    2    1    2    0    0 -0.17992737444E+02 -0.41121773981E+02 -0.37913697240E+01  0.46142318959E+02  0.10000010920E+02 0.  0.
         12    1    1    2    0    0  0.17992737444E+02  0.41121773981E+02  0.37913697240E+01  0.45045681041E+02  0.00000000000E+00 0. -1.
         11    1    3    3    0    0 -0.91616010326E+00 -0.42885813943E+00  0.69150950157E+00  0.12253384391E+01  0.51100000000E-03 0. -1.
        -11    1    3    3    0    0 -0.68480375641E+01 -0.22933373915E+02  0.18429587947E-01  0.23933984155E+02  0.51100000000E-03 0.  1.
         12    1    3    3    0    0 -0.10228539777E+02 -0.17759541927E+02 -0.45013088136E+01  0.20982996365E+02  0.00000000000E+00 0. -1.
</event>
<event>
 7    1  0.2097247E-008  0.4614232E+02  0.7816164E-02  0.1320468E+00
        -11   -1    0    0    0    0  0.00000000000E+00  0.00000000000E+00  0.45593999997E+02  0.45594000000E+02  0.51100000000E-03 0.  1.
         11   -1    0    0    0    0 -0.00000000000E+00 -0.00000000000E+00 -0.45593999997E+02  0.45594000000E+02  0.51100000000E-03 0. -1.
    9900012    2    1    2    0    0 -0.36351634989E+02  0.24241243420E+02 -0.10956014358E+02  0.46142317637E+02  0.99999988689E+01 0.  0.
         12    1    1    2    0    0  0.36351634989E+02 -0.24241243420E+02  0.10956014358E+02  0.45045682363E+02  0.00000000000E+00 0. -1.
         11    1    3    3    0    0 -0.14798767781E+00  0.10405766964E+01 -0.57450428049E+00  0.11978128582E+01  0.51100000000E-03 0. -1.
        -11    1    3    3    0    0 -0.19004871311E+02  0.14301412431E+02 -0.93362473556E+01  0.25551537058E+02  0.51100000000E-03 0.  1.
        -12    1    3    3    0    0 -0.17198776001E+02  0.88992542925E+01 -0.10452627223E+01  0.19392967721E+02  0.00000000000E+00 0.  1.
</event>
<event>
 7    1  0.2097247E-008  0.4614232E+02  0.7816164E-02  0.1320468E+00
        -11   -1    0    0    0    0  0.00000000000E+00  0.00000000000E+00  0.45593999997E+02  0.45594000000E+02  0.51100000000E-03 0.  1.
         11   -1    0    0    0    0 -0.00000000000E+00 -0.00000000000E+00 -0.45593999997E+02  0.45594000000E+02  0.51100000000E-03 0. -1.
    9900012    2    1    2    0    0 -0.38933794676E+02 -0.22222474827E+02  0.44084837575E+01  0.46142317806E+02  0.10000000409E+02 0.  0.
         12    1    1    2    0    0  0.38933794676E+02  0.22222474827E+02 -0.44084837575E+01  0.45045682194E+02  0.00000000000E+00 0. -1.
         11    1    3    3    0    0 -0.41176029487E+01 -0.36517940693E+01 -0.23130972631E+01  0.59699810031E+01  0.51100000000E-03 0. -1.
        -11    1    3    3    0    0 -0.28378574514E+02 -0.15481184057E+02  0.41937288495E+01  0.32597513911E+02  0.51100000000E-03 0.  1.
         12    1    3    3    0    0 -0.64376172128E+01 -0.30894967006E+01  0.25278521710E+01  0.75748228917E+01  0.00000000000E+00 0. -1.
</event>
<event>
 7    1  0.2097247E-008  0.4614232E+02  0.7816164E-02  0.1320468E+00
        -11   -1    0    0    0    0  0.00000000000E+00  0.00000000000E+00  0.45593999997E+02  0.45594000000E+02  0.51100000000E-03 0. -1.
         11   -1    0    0    0    0 -0.00000000000E+00 -0.00000000000E+00 -0.45593999997E+02  0.45594000000E+02  0.51100000000E-03 0.  1.
    9900012    2    1    2    0    0 -0.17495969437E+02 -0.17356228450E+02 -0.37706311016E+02  0.46142317599E+02  0.99999985235E+01 0.  0.
         12    1    1    2    0    0  0.17495969437E+02  0.17356228450E+02  0.37706311016E+02  0.45045682401E+02  0.00000000000E+00 0. -1.
         11    1    3    3    0    0  0.17594754518E+00 -0.65577166921E+00 -0.22598982578E+01  0.23596894748E+01  0.51100000000E-03 0. -1.
        -11    1    3    3    0    0 -0.17515021337E+02 -0.17414537591E+02 -0.32937864690E+02  0.41169710013E+02  0.51100000000E-03 0.  1.
        -12    1    3    3    0    0 -0.15689564517E+00  0.71408081078E+00 -0.25085480681E+01  0.26129181116E+01  0.00000000000E+00 0.  1.
</event>
<event>
 7    1  0.2097247E-008  0.4614232E+02  0.7816164E-02  0.1320468E+00
        -11   -1    0    0    0    0  0.00000000000E+00  0.00000000000E+00  0.45593999997E+02  0.45594000000E+02  0.51100000000E-03 0.  1.
         11   -1    0    0    0    0 -0.00000000000E+00 -0.00000000000E+00 -0.45593999997E+02  0.45594000000E+02  0.51100000000E-03 0. -1.
    9900012    2    1    2    0    0  0.14534387069E+01  0.25325685394E+02  0.37223791663E+02  0.46142317738E+02  0.99999997863E+01 0.  0.
         12    1    1    2    0    0 -0.14534387069E+01 -0.25325685394E+02 -0.37223791663E+02  0.45045682262E+02  0.00000000000E+00 0. -1.
         11    1    3    3    0    0 -0.19871068883E+00  0.39724096944E+01  0.27861500304E+01  0.48561463087E+01  0.51100000000E-03 0.  1.
        -11    1    3    3    0    0  0.27524315287E+01  0.56029871863E+01  0.54922260137E+01  0.83146792829E+01  0.51100000000E-03 0. -1.
        -12    1    3    3    0    0 -0.11002821329E+01  0.15750288513E+02  0.28945415619E+02  0.32971492146E+02  0.00000000000E+00 0.  1.
</event>
<event>
 7    1  0.2097247E-008  0.4614232E+02  0.7816164E-02  0.1320468E+00
        -11   -1    0    0    0    0  0.00000000000E+00  0.00000000000E+00  0.45593999997E+02  0.45594000000E+02  0.51100000000E-03 0.  1.
         11   -1    0    0    0    0 -0.00000000000E+00 -0.00000000000E+00 -0.45593999997E+02  0.45594000000E+02  0.51100000000E-03 0. -1.
    9900012    2    1    2    0    0  0.39698368269E+02 -0.16085461704E+02  0.13943138572E+02  0.46142316137E+02  0.99999851877E+01 0.  0.
         12    1    1    2    0    0 -0.39698368269E+02  0.16085461704E+02 -0.13943138572E+02  0.45045683863E+02  0.00000000000E+00 0. -1.
         11    1    3    3    0    0  0.30444381098E+02 -0.13224084030E+02  0.12824849583E+02  0.35583893913E+02  0.51100000000E-03 0.  1.
        -11    1    3    3    0    0  0.88895567840E+01 -0.23066283280E+01 -0.84859968364E-01  0.91843320680E+01  0.51100000000E-03 0. -1.
        -12    1    3    3    0    0  0.36443038685E+00 -0.55474934532E+00  0.12031489573E+01  0.13740901559E+01  0.00000000000E+00 0.  1.
</event>
<event>
 7    1  0.2097247E-008  0.4614232E+02  0.7816164E-02  0.1320468E+00
        -11   -1    0    0    0    0  0.00000000000E+00  0.00000000000E+00  0.45593999997E+02  0.45594000000E+02  0.51100000000E-03 0.  1.
         11   -1    0    0    0    0 -0.00000000000E+00 -0.00000000000E+00 -0.45593999997E+02  0.45594000000E+02  0.51100000000E-03 0. -1.
    9900012    2    1    2    0    0  0.40396838943E+02  0.50276227884E+01  0.19285537936E+02  0.46142316956E+02  0.99999926566E+01 0.  0.
         12    1    1    2    0    0 -0.40396838943E+02 -0.50276227884E+01 -0.19285537936E+02  0.45045683044E+02  0.00000000000E+00 0. -1.
         11    1    3    3    0    0  0.47551504557E+01  0.12221985786E+01  0.27243484631E+01  0.56149176336E+01  0.51100000000E-03 0. -1.
        -11    1    3    3    0    0  0.35654743923E+02  0.26157346742E+01  0.16378249973E+02  0.39323655788E+02  0.51100000000E-03 0.  1.
         12    1    3    3    0    0 -0.13055436204E-01  0.11896895356E+01  0.18293949948E+00  0.12037435341E+01  0.00000000000E+00 0. -1.
</event>
<event>
 7    1  0.2097247E-008  0.4614232E+02  0.7816164E-02  0.1320468E+00
        -11   -1    0    0    0    0  0.00000000000E+00  0.00000000000E+00  0.45593999997E+02  0.45594000000E+02  0.51100000000E-03 0. -1.
         11   -1    0    0    0    0 -0.00000000000E+00 -0.00000000000E+00 -0.45593999997E+02  0.45594000000E+02  0.51100000000E-03 0.  1.
    9900012    2    1    2    0    0 -0.38379112636E+02 -0.22323152307E+02 -0.76048701858E+01  0.46142318007E+02  0.10000002243E+02 0.  0.
         12    1    1    2    0    0  0.38379112636E+02  0.22323152307E+02  0.76048701858E+01  0.45045681993E+02  0.00000000000E+00 0. -1.
         11    1    3    3    0    0 -0.29820711679E+02 -0.14959335921E+02 -0.75823724404E+01  0.34213286137E+02  0.51100000000E-03 0.  1.
        -11    1    3    3    0    0 -0.66754475447E+01 -0.56482100653E+01 -0.16603579372E+01  0.89005991711E+01  0.51100000000E-03 0. -1.
        -12    1    3    3    0    0 -0.18829534130E+01 -0.17156063210E+01  0.16378601918E+01  0.30284326989E+01  0.00000000000E+00 0.  1.
</event>
<event>
 7    1  0.2097247E-008  0.4614232E+02  0.7816164E-02  0.1320468E+00
        -11   -1    0    0    0    0  0.00000000000E+00  0.00000000000E+00  0.45593999997E+02  0.45594000000E+02  0.51100000000E-03 0. -1.
         11   -1    0    0    0    0 -0.00000000000E+00 -0.00000000000E+00 -0.45593999997E+02  0.45594000000E+02  0.51100000000E-03 0.  1.
    9900012    2    1    2    0    0 -0.28462377784E+02  0.10596266767E+01 -0.34898191686E+02  0.46142317180E+02  0.99999946986E+01 0.  0.
         12    1    1    2    0    0  0.28462377784E+02 -0.10596266767E+01  0.34898191686E+02  0.45045682820E+02  0.00000000000E+00 0. -1.
         11    1    3    3    0    0 -0.25078567174E+02  0.76705608809E+00 -0.27473166041E+02  0.37206152167E+02  0.51100000000E-03 0. -1.
        -11    1    3    3    0    0 -0.15078971589E+01 -0.16738337397E+01 -0.34840791495E+01  0.41490096422E+01  0.51100000000E-03 0.  1.
         12    1    3    3    0    0 -0.18759134512E+01  0.19664043283E+01 -0.39409464956E+01  0.47871553703E+01  0.00000000000E+00 0. -1.
</event>
<event>
 7    1  0.2097247E-008  0.4614232E+02  0.7816164E-02  0.1320468E+00
        -11   -1    0    0    0    0  0.00000000000E+00  0.00000000000E+00  0.45593999997E+02  0.45594000000E+02  0.51100000000E-03 0.  1.
         11   -1    0    0    0    0 -0.00000000000E+00 -0.00000000000E+00 -0.45593999997E+02  0.45594000000E+02  0.51100000000E-03 0. -1.
    9900012    2    1    2    0    0  0.31192144690E+02  0.23871361944E+02 -0.22052698573E+02  0.46142319566E+02  0.10000016456E+02 0.  0.
         12    1    1    2    0    0 -0.31192144690E+02 -0.23871361944E+02  0.22052698573E+02  0.45045680434E+02  0.00000000000E+00 0. -1.
         11    1    3    3    0    0  0.13334971081E+02  0.10721105501E+02 -0.13403677827E+02  0.21735274014E+02  0.51100000000E-03 0. -1.
        -11    1    3    3    0    0  0.76981029632E+01  0.39052541154E+01 -0.57404522461E+01  0.10366512972E+02  0.51100000000E-03 0.  1.
        -12    1    3    3    0    0  0.10159070646E+02  0.92450023269E+01 -0.29085684998E+01  0.14040532580E+02  0.00000000000E+00 0.  1.
</event>
<event>
 7    1  0.2097247E-008  0.4614232E+02  0.7816164E-02  0.1320468E+00
        -11   -1    0    0    0    0  0.00000000000E+00  0.00000000000E+00  0.45593999997E+02  0.45594000000E+02  0.51100000000E-03 0. -1.
         11   -1    0    0    0    0 -0.00000000000E+00 -0.00000000000E+00 -0.45593999997E+02  0.45594000000E+02  0.51100000000E-03 0.  1.
    9900012    2    1    2    0    0 -0.34373576910E+02  0.27556215635E+02  0.93928495696E+01  0.46142318378E+02  0.10000005629E+02 0.  0.
         12    1    1    2    0    0  0.34373576910E+02 -0.27556215635E+02 -0.93928495696E+01  0.45045681622E+02  0.00000000000E+00 0. -1.
         11    1    3    3    0    0 -0.18609508473E+02  0.11725249074E+02  0.31874158168E+01  0.22225095980E+02  0.51100000000E-03 0. -1.
        -11    1    3    3    0    0 -0.12453260462E+01 -0.14265985105E+00  0.12491874121E+01  0.17696491873E+01  0.51100000000E-03 0.  1.
        -12    1    3    3    0    0 -0.14518742391E+02  0.15973626412E+02  0.49562463407E+01  0.22147573211E+02  0.00000000000E+00 0.  1.
</event>
<event>
 7    1  0.2097247E-008  0.4614232E+02  0.7816164E-02  0.1320468E+00
        -11   -1    0    0    0    0  0.00000000000E+00  0.00000000000E+00  0.45593999997E+02  0.45594000000E+02  0.51100000000E-03 0. -1.
         11   -1    0    0    0    0 -0.00000000000E+00 -0.00000000000E+00 -0.45593999997E+02  0.45594000000E+02  0.51100000000E-03 0.  1.
    9900012    2    1    2    0    0 -0.82284581174E+00 -0.36552763683E+02 -0.26312202127E+02  0.46142316645E+02  0.99999898251E+01 0.  0.
         12    1    1    2    0    0  0.82284581174E+00  0.36552763683E+02  0.26312202127E+02  0.45045683355E+02  0.00000000000E+00 0. -1.
         11    1    3    3    0    0 -0.55972859451E+00 -0.12354806365E+02 -0.55246112544E+01  0.13545326360E+02  0.51100000000E-03 0. -1.
        -11    1    3    3    0    0 -0.91172102745E+00 -0.14646250579E+02 -0.82914510565E+01  0.16855030470E+02  0.51100000000E-03 0.  1.
        -12    1    3    3    0    0  0.64860381022E+00 -0.95517067391E+01 -0.12496139816E+02  0.15741959816E+02  0.00000000000E+00 0.  1.
</event>
<event>
 7    1  0.2097247E-008  0.4614232E+02  0.7816164E-02  0.1320468E+00
        -11   -1    0    0    0    0  0.00000000000E+00  0.00000000000E+00  0.45593999997E+02  0.45594000000E+02  0.51100000000E-03 0.  1.
         11   -1    0    0    0    0 -0.00000000000E+00 -0.00000000000E+00 -0.45593999997E+02  0.45594000000E+02  0.51100000000E-03 0. -1.
    9900012    2    1    2    0    0 -0.44743615217E+02  0.56069059636E+00 -0.51776442502E+01  0.46142317892E+02  0.10000001189E+02 0.  0.
         12    1    1    2    0    0  0.44743615217E+02 -0.56069059636E+00  0.51776442502E+01  0.45045682108E+02  0.00000000000E+00 0. -1.
         11    1    3    3    0    0 -0.12182582190E+02  0.17657457662E+01  0.19654167017E+01  0.12465794399E+02  0.51100000000E-03 0. -1.
        -11    1    3    3    0    0 -0.60720350242E+01 -0.18684280312E+01 -0.21927297616E+01  0.67207660807E+01  0.51100000000E-03 0.  1.
         12    1    3    3    0    0 -0.26488998003E+02  0.66337286137E+00 -0.49503311903E+01  0.26955757412E+02  0.00000000000E+00 0. -1.
</event>
<event>
 7    1  0.2097247E-008  0.4614232E+02  0.7816164E-02  0.1320468E+00
        -11   -1    0    0    0    0  0.00000000000E+00  0.00000000000E+00  0.45593999997E+02  0.45594000000E+02  0.51100000000E-03 0. -1.
         11   -1    0    0    0    0 -0.00000000000E+00 -0.00000000000E+00 -0.45593999997E+02  0.45594000000E+02  0.51100000000E-03 0.  1.
    9900012    2    1    2    0    0 -0.10990644150E+02  0.37100833252E+02 -0.23061815094E+02  0.46142318717E+02  0.10000008720E+02 0.  0.
         12    1    1    2    0    0  0.10990644150E+02 -0.37100833252E+02  0.23061815094E+02  0.45045681283E+02  0.00000000000E+00 0. -1.
         11    1    3    3    0    0  0.36876155712E+00  0.23823905178E+00 -0.13491102741E+00  0.45928659706E+00  0.51100000000E-03 0. -1.
        -11    1    3    3    0    0 -0.11043225206E+01  0.12733890307E+02 -0.41627877912E+01  0.13442480911E+02  0.51100000000E-03 0.  1.
        -12    1    3    3    0    0 -0.10255083187E+02  0.24128703893E+02 -0.18764116275E+02  0.32240551210E+02  0.00000000000E+00 0.  1.
</event>
<event>
 7    1  0.2097247E-008  0.4614232E+02  0.7816164E-02  0.1320468E+00
        -11   -1    0    0    0    0  0.00000000000E+00  0.00000000000E+00  0.45593999997E+02  0.45594000000E+02  0.51100000000E-03 0.  1.
         11   -1    0    0    0    0 -0.00000000000E+00 -0.00000000000E+00 -0.45593999997E+02  0.45594000000E+02  0.51100000000E-03 0. -1.
    9900012    2    1    2    0    0  0.40009899070E+02  0.76077271443E+01  0.19246920213E+02  0.46142317925E+02  0.10000001497E+02 0.  0.
         12    1    1    2    0    0 -0.40009899070E+02 -0.76077271443E+01 -0.19246920213E+02  0.45045682075E+02  0.00000000000E+00 0. -1.
         11    1    3    3    0    0  0.13825886375E+01 -0.13833909963E+01  0.48055084267E+00  0.20140137444E+01  0.51100000000E-03 0. -1.
        -11    1    3    3    0    0  0.32261199289E+02  0.65313537911E+01  0.17146264359E+02  0.37113851102E+02  0.51100000000E-03 0.  1.
        -12    1    3    3    0    0  0.63661111437E+01  0.24597643494E+01  0.16201050117E+01  0.70144530790E+01  0.00000000000E+00 0.  1.
</event>
<event>
 7    1  0.2097247E-008  0.4614232E+02  0.7816164E-02  0.1320468E+00
        -11   -1    0    0    0    0  0.00000000000E+00  0.00000000000E+00  0.45593999997E+02  0.45594000000E+02  0.51100000000E-03 0.  1.
         11   -1    0    0    0    0 -0.00000000000E+00 -0.00000000000E+00 -0.45593999997E+02  0.45594000000E+02  0.51100000000E-03 0. -1.
    9900012    2    1    2    0    0  0.20627808323E+02  0.65748729702E+01  0.39501622990E+02  0.46142315971E+02  0.99999836746E+01 0.  0.
         12    1    1    2    0    0 -0.20627808323E+02 -0.65748729702E+01 -0.39501622990E+02  0.45045684029E+02  0.00000000000E+00 0. -1.
         11    1    3    3    0    0  0.11340408505E+02  0.80104906101E+00  0.16161322850E+02  0.19759425629E+02  0.51100000000E-03 0. -1.
        -11    1    3    3    0    0  0.70765569678E+01  0.11592423463E+01  0.13038943218E+02  0.14880710394E+02  0.51100000000E-03 0.  1.
         12    1    3    3    0    0  0.22108428504E+01  0.46145815629E+01  0.10301356923E+02  0.11502179948E+02  0.00000000000E+00 0. -1.
</event>
<event>
 7    1  0.2097247E-008  0.4614232E+02  0.7816164E-02  0.1320468E+00
        -11   -1    0    0    0    0  0.00000000000E+00  0.00000000000E+00  0.45593999997E+02  0.45594000000E+02  0.51100000000E-03 0.  1.
         11   -1    0    0    0    0 -0.00000000000E+00 -0.00000000000E+00 -0.45593999997E+02  0.45594000000E+02  0.51100000000E-03 0. -1.
    9900012    2    1    2    0    0  0.14070288412E+02  0.38804521038E+02  0.18037448360E+02  0.46142318605E+02  0.10000007695E+02 0.  0.
         12    1    1    2    0    0 -0.14070288412E+02 -0.38804521038E+02 -0.18037448360E+02  0.45045681395E+02  0.00000000000E+00 0. -1.
         11    1    3    3    0    0  0.19871107946E+01  0.18737141482E+01  0.22436818950E+01  0.35346177624E+01  0.51100000000E-03 0. -1.
        -11    1    3    3    0    0  0.12724226556E+02  0.29698980229E+02  0.12721282022E+02  0.34724146997E+02  0.51100000000E-03 0.  1.
        -12    1    3    3    0    0 -0.64104893789E+00  0.72318266605E+01  0.30724844435E+01  0.78835538460E+01  0.00000000000E+00 0.  1.
</event>
<event>
 7    1  0.2097247E-008  0.4614232E+02  0.7816164E-02  0.1320468E+00
        -11   -1    0    0    0    0  0.00000000000E+00  0.00000000000E+00  0.45593999997E+02  0.45594000000E+02  0.51100000000E-03 0.  1.
         11   -1    0    0    0    0 -0.00000000000E+00 -0.00000000000E+00 -0.45593999997E+02  0.45594000000E+02  0.51100000000E-03 0. -1.
    9900012    2    1    2    0    0 -0.36044940704E+01 -0.18787646901E+02  0.40781680499E+02  0.46142317433E+02  0.99999970075E+01 0.  0.
         12    1    1    2    0    0  0.36044940704E+01  0.18787646901E+02 -0.40781680499E+02  0.45045682567E+02  0.00000000000E+00 0. -1.
         11    1    3    3    0    0 -0.29471963673E+01 -0.56023131549E+01  0.15890735930E+02  0.17105185406E+02  0.51100000000E-03 0. -1.
        -11    1    3    3    0    0 -0.35485444401E+01 -0.51136105599E+01  0.84512065141E+01  0.10495907412E+02  0.51100000000E-03 0.  1.
        -12    1    3    3    0    0  0.28912467370E+01 -0.80717231865E+01  0.16439738056E+02  0.18541224615E+02  0.00000000000E+00 0.  1.
</event>
<event>
 7    1  0.2097247E-008  0.4614232E+02  0.7816164E-02  0.1320468E+00
        -11   -1    0    0    0    0  0.00000000000E+00  0.00000000000E+00  0.45593999997E+02  0.45594000000E+02  0.51100000000E-03 0.  1.
         11   -1    0    0    0    0 -0.00000000000E+00 -0.00000000000E+00 -0.45593999997E+02  0.45594000000E+02  0.51100000000E-03 0. -1.
    9900012    2    1    2    0    0 -0.22696023943E+02 -0.11019903395E+02  0.37317097285E+02  0.46142317372E+02  0.99999964531E+01 0.  0.
         12    1    1    2    0    0  0.22696023943E+02  0.11019903395E+02 -0.37317097285E+02  0.45045682628E+02  0.00000000000E+00 0. -1.
         11    1    3    3    0    0 -0.29193588082E-02  0.34400942252E-01 -0.21688963220E+00  0.21962085776E+00  0.51100000000E-03 0. -1.
        -11    1    3    3    0    0 -0.13231773809E+02 -0.50882586598E+01  0.14297675209E+02  0.20134391746E+02  0.51100000000E-03 0.  1.
        -12    1    3    3    0    0 -0.94613307749E+01 -0.59660456773E+01  0.23236311708E+02  0.25788304769E+02  0.00000000000E+00 0.  1.
</event>
<event>
 7    1  0.2097247E-008  0.4614232E+02  0.7816164E-02  0.1320468E+00
        -11   -1    0    0    0    0  0.00000000000E+00  0.00000000000E+00  0.45593999997E+02  0.45594000000E+02  0.51100000000E-03 0.  1.
         11   -1    0    0    0    0 -0.00000000000E+00 -0.00000000000E+00 -0.45593999997E+02  0.45594000000E+02  0.51100000000E-03 0. -1.
    9900012    2    1    2    0    0 -0.16581859514E+02 -0.32928800951E+02  0.25881450732E+02  0.46142317754E+02  0.99999999351E+01 0.  0.
         12    1    1    2    0    0  0.16581859514E+02  0.32928800951E+02 -0.25881450732E+02  0.45045682246E+02  0.00000000000E+00 0. -1.
         11    1    3    3    0    0  0.32093741100E+00 -0.38956260743E+01  0.14892794719E+01  0.41829244482E+01  0.51100000000E-03 0. -1.
        -11    1    3    3    0    0 -0.47899901448E+00 -0.76134049321E+00 -0.34128381448E+00  0.96205732969E+00  0.51100000000E-03 0.  1.
        -12    1    3    3    0    0 -0.16423797910E+02 -0.28271834384E+02  0.24733455075E+02  0.40997335976E+02  0.00000000000E+00 0.  1.
</event>
<event>
 7    1  0.2097247E-008  0.4614232E+02  0.7816164E-02  0.1320468E+00
        -11   -1    0    0    0    0  0.00000000000E+00  0.00000000000E+00  0.45593999997E+02  0.45594000000E+02  0.51100000000E-03 0.  1.
         11   -1    0    0    0    0 -0.00000000000E+00 -0.00000000000E+00 -0.45593999997E+02  0.45594000000E+02  0.51100000000E-03 0. -1.
    9900012    2    1    2    0    0 -0.12439309613E+01 -0.10988762790E+02  0.43667072499E+02  0.46142317715E+02  0.99999995773E+01 0.  0.
         12    1    1    2    0    0  0.12439309613E+01  0.10988762790E+02 -0.43667072499E+02  0.45045682285E+02  0.00000000000E+00 0. -1.
         11    1    3    3    0    0  0.27865451616E+01 -0.68217116183E+01  0.14386350293E+02  0.16163776117E+02  0.51100000000E-03 0. -1.
        -11    1    3    3    0    0 -0.20242950970E+00 -0.20308435509E+01  0.99095807951E+01  0.10117563690E+02  0.51100000000E-03 0.  1.
         12    1    3    3    0    0 -0.38280466132E+01 -0.21362076210E+01  0.19371141411E+02  0.19860977908E+02  0.00000000000E+00 0. -1.
</event>
<event>
 7    1  0.2097247E-008  0.4614232E+02  0.7816164E-02  0.1320468E+00
        -11   -1    0    0    0    0  0.00000000000E+00  0.00000000000E+00  0.45593999997E+02  0.45594000000E+02  0.51100000000E-03 0.  1.
         11   -1    0    0    0    0 -0.00000000000E+00 -0.00000000000E+00 -0.45593999997E+02  0.45594000000E+02  0.51100000000E-03 0. -1.
    9900012    2    1    2    0    0  0.42546998694E+02  0.12309935778E+02  0.82056022130E+01  0.46142317361E+02  0.99999963499E+01 0.  0.
         12    1    1    2    0    0 -0.42546998694E+02 -0.12309935778E+02 -0.82056022130E+01  0.45045682639E+02  0.00000000000E+00 0. -1.
         11    1    3    3    0    0  0.22506220723E+02  0.90064884899E+01  0.27077269199E+01  0.24392182999E+02  0.51100000000E-03 0. -1.
        -11    1    3    3    0    0  0.16645123676E+02  0.46983438655E+01  0.38124116903E+01  0.17710704685E+02  0.51100000000E-03 0.  1.
        -12    1    3    3    0    0  0.33956542958E+01 -0.13948965777E+01  0.16854636028E+01  0.40394296770E+01  0.00000000000E+00 0.  1.
</event>
<event>
 7    1  0.2097247E-008  0.4614232E+02  0.7816164E-02  0.1320468E+00
        -11   -1    0    0    0    0  0.00000000000E+00  0.00000000000E+00  0.45593999997E+02  0.45594000000E+02  0.51100000000E-03 0. -1.
         11   -1    0    0    0    0 -0.00000000000E+00 -0.00000000000E+00 -0.45593999997E+02  0.45594000000E+02  0.51100000000E-03 0.  1.
    9900012    2    1    2    0    0 -0.29836486760E+02  0.30839545561E+02 -0.13704743330E+02  0.46142317606E+02  0.99999985874E+01 0.  0.
         12    1    1    2    0    0  0.29836486760E+02 -0.30839545561E+02  0.13704743330E+02  0.45045682394E+02  0.00000000000E+00 0. -1.
         11    1    3    3    0    0 -0.15528698538E+01  0.52280044142E+01 -0.27781637938E+01  0.61205905976E+01  0.51100000000E-03 0. -1.
        -11    1    3    3    0    0 -0.14381721296E+02  0.14045804430E+02 -0.31978706266E+01  0.20355463796E+02  0.51100000000E-03 0.  1.
        -12    1    3    3    0    0 -0.13901895610E+02  0.11565736716E+02 -0.77287089096E+01  0.19666263213E+02  0.00000000000E+00 0.  1.
</event>
<event>
 7    1  0.2097247E-008  0.4614232E+02  0.7816164E-02  0.1320468E+00
        -11   -1    0    0    0    0  0.00000000000E+00  0.00000000000E+00  0.45593999997E+02  0.45594000000E+02  0.51100000000E-03 0.  1.
         11   -1    0    0    0    0 -0.00000000000E+00 -0.00000000000E+00 -0.45593999997E+02  0.45594000000E+02  0.51100000000E-03 0. -1.
    9900012    2    1    2    0    0  0.30620025919E+02 -0.10911208683E+02  0.31184502330E+02  0.46142315992E+02  0.99999838656E+01 0.  0.
         12    1    1    2    0    0 -0.30620025919E+02  0.10911208683E+02 -0.31184502330E+02  0.45045684008E+02  0.00000000000E+00 0. -1.
         11    1    3    3    0    0  0.28674476519E+01 -0.26102097734E+01  0.30716331042E+01  0.49467546215E+01  0.51100000000E-03 0. -1.
        -11    1    3    3    0    0  0.22515270561E+02 -0.81539743305E+01  0.18547180549E+02  0.30288985001E+02  0.51100000000E-03 0.  1.
         12    1    3    3    0    0  0.52373077061E+01 -0.14702457930E+00  0.95656886772E+01  0.10906576370E+02  0.00000000000E+00 0. -1.
</event>
<event>
 7    1  0.2097247E-008  0.4614232E+02  0.7816164E-02  0.1320468E+00
        -11   -1    0    0    0    0  0.00000000000E+00  0.00000000000E+00  0.45593999997E+02  0.45594000000E+02  0.51100000000E-03 0. -1.
         11   -1    0    0    0    0 -0.00000000000E+00 -0.00000000000E+00 -0.45593999997E+02  0.45594000000E+02  0.51100000000E-03 0.  1.
    9900012    2    1    2    0    0 -0.26714737776E+02  0.87406749914E+01 -0.35199955345E+02  0.46142317965E+02  0.10000001861E+02 0.  0.
         12    1    1    2    0    0  0.26714737776E+02 -0.87406749914E+01  0.35199955345E+02  0.45045682035E+02  0.00000000000E+00 0. -1.
         11    1    3    3    0    0 -0.99872257966E+00  0.15765966456E+01 -0.19607905765E+01  0.27069916365E+01  0.51100000000E-03 0. -1.
        -11    1    3    3    0    0 -0.32032482659E+01 -0.72664795460E+00 -0.82875974110E+01  0.89147679617E+01  0.51100000000E-03 0.  1.
        -12    1    3    3    0    0 -0.22512766930E+02  0.78907263004E+01 -0.24951567357E+02  0.34520558367E+02  0.00000000000E+00 0.  1.
</event>
<event>
 7    1  0.2097247E-008  0.4614232E+02  0.7816164E-02  0.1320468E+00
        -11   -1    0    0    0    0  0.00000000000E+00  0.00000000000E+00  0.45593999997E+02  0.45594000000E+02  0.51100000000E-03 0.  1.
         11   -1    0    0    0    0 -0.00000000000E+00 -0.00000000000E+00 -0.45593999997E+02  0.45594000000E+02  0.51100000000E-03 0. -1.
    9900012    2    1    2    0    0 -0.28790237073E+02  0.33859421686E+02 -0.73331672126E+01  0.46142317310E+02  0.99999958866E+01 0.  0.
         12    1    1    2    0    0  0.28790237073E+02 -0.33859421686E+02  0.73331672126E+01  0.45045682690E+02  0.00000000000E+00 0. -1.
         11    1    3    3    0    0 -0.12956199859E+01  0.14959042373E+00 -0.12418227628E+00  0.13101259258E+01  0.51100000000E-03 0. -1.
        -11    1    3    3    0    0 -0.14201453010E+02  0.23549422735E+02 -0.38751057506E+01  0.27771802671E+02  0.51100000000E-03 0.  1.
         12    1    3    3    0    0 -0.13293164077E+02  0.10160408527E+02 -0.33338791857E+01  0.17060388713E+02  0.00000000000E+00 0. -1.
</event>
<event>
 7    1  0.2097247E-008  0.4614231E+02  0.7816164E-02  0.1320468E+00
        -11   -1    0    0    0    0  0.00000000000E+00  0.00000000000E+00  0.45593999997E+02  0.45594000000E+02  0.51100000000E-03 0. -1.
         11   -1    0    0    0    0 -0.00000000000E+00 -0.00000000000E+00 -0.45593999997E+02  0.45594000000E+02  0.51100000000E-03 0.  1.
    9900012    2    1    2    0    0  0.39132718193E+02 -0.20738886551E+02 -0.82245569150E+01  0.46142307809E+02  0.99999092451E+01 0.  0.
         12    1    1    2    0    0 -0.39132718193E+02  0.20738886551E+02  0.82245569150E+01  0.45045692191E+02  0.00000000000E+00 0. -1.
         11    1    3    3    0    0  0.13531196291E+01 -0.20487549689E+01 -0.50809987111E-01  0.24557914344E+01  0.51100000000E-03 0. -1.
        -11    1    3    3    0    0  0.84408009638E+01 -0.61399132742E+01  0.99501219939E+00  0.10485022912E+02  0.51100000000E-03 0.  1.
        -12    1    3    3    0    0  0.29338797600E+02 -0.12550218308E+02 -0.91687591273E+01  0.33201493462E+02  0.00000000000E+00 0.  1.
</event>
<event>
 7    1  0.2097247E-008  0.4614232E+02  0.7816164E-02  0.1320468E+00
        -11   -1    0    0    0    0  0.00000000000E+00  0.00000000000E+00  0.45593999997E+02  0.45594000000E+02  0.51100000000E-03 0.  1.
         11   -1    0    0    0    0 -0.00000000000E+00 -0.00000000000E+00 -0.45593999997E+02  0.45594000000E+02  0.51100000000E-03 0. -1.
    9900012    2    1    2    0    0 -0.44186368474E+02  0.28252541823E+01  0.82883228527E+01  0.46142317456E+02  0.99999972219E+01 0.  0.
         12    1    1    2    0    0  0.44186368474E+02 -0.28252541823E+01 -0.82883228527E+01  0.45045682544E+02  0.00000000000E+00 0. -1.
         11    1    3    3    0    0 -0.41938313786E+01  0.23873042333E+01 -0.12061467792E+01  0.49741565565E+01  0.51100000000E-03 0. -1.
        -11    1    3    3    0    0 -0.23843738311E+02 -0.33900902219E+00  0.47016866843E+01  0.24305238976E+02  0.51100000000E-03 0.  1.
         12    1    3    3    0    0 -0.16148798784E+02  0.77695897123E+00  0.47927829476E+01  0.16862921924E+02  0.00000000000E+00 0. -1.
</event>
<event>
 7    1  0.2097247E-008  0.4614232E+02  0.7816164E-02  0.1320468E+00
        -11   -1    0    0    0    0  0.00000000000E+00  0.00000000000E+00  0.45593999997E+02  0.45594000000E+02  0.51100000000E-03 0. -1.
         11   -1    0    0    0    0 -0.00000000000E+00 -0.00000000000E+00 -0.45593999997E+02  0.45594000000E+02  0.51100000000E-03 0.  1.
    9900012    2    1    2    0    0  0.33027520556E+02 -0.30592492632E+02 -0.15478417299E+01  0.46142317260E+02  0.99999954286E+01 0.  0.
         12    1    1    2    0    0 -0.33027520556E+02  0.30592492632E+02  0.15478417299E+01  0.45045682740E+02  0.00000000000E+00 0. -1.
         11    1    3    3    0    0 -0.38976357560E+00 -0.44818767990E+00 -0.88840115630E+00  0.10686649227E+01  0.51100000000E-03 0. -1.
        -11    1    3    3    0    0  0.42019232901E+01 -0.30940894311E+01 -0.64929526551E+00  0.52584344958E+01  0.51100000000E-03 0.  1.
        -12    1    3    3    0    0  0.29215360842E+02 -0.27050215521E+02 -0.10145308125E-01  0.39815217841E+02  0.00000000000E+00 0.  1.
</event>
<event>
 7    1  0.2097247E-008  0.4614232E+02  0.7816164E-02  0.1320468E+00
        -11   -1    0    0    0    0  0.00000000000E+00  0.00000000000E+00  0.45593999997E+02  0.45594000000E+02  0.51100000000E-03 0.  1.
         11   -1    0    0    0    0 -0.00000000000E+00 -0.00000000000E+00 -0.45593999997E+02  0.45594000000E+02  0.51100000000E-03 0. -1.
    9900012    2    1    2    0    0  0.22318783900E+02  0.36429424295E+02  0.14278742283E+02  0.46142317072E+02  0.99999937196E+01 0.  0.
         12    1    1    2    0    0 -0.22318783900E+02 -0.36429424295E+02 -0.14278742283E+02  0.45045682928E+02  0.00000000000E+00 0. -1.
         11    1    3    3    0    0  0.15482629346E+02  0.22854147560E+02  0.77441682454E+01  0.28670472863E+02  0.51100000000E-03 0. -1.
        -11    1    3    3    0    0  0.16987186720E+00  0.63504205003E+01  0.29980732748E+01  0.70246096407E+01  0.51100000000E-03 0.  1.
         12    1    3    3    0    0  0.66662826872E+01  0.72248562349E+01  0.35365007626E+01  0.10447234568E+02  0.00000000000E+00 0. -1.
</event>
<event>
 7    1  0.2097247E-008  0.4614232E+02  0.7816164E-02  0.1320468E+00
        -11   -1    0    0    0    0  0.00000000000E+00  0.00000000000E+00  0.45593999997E+02  0.45594000000E+02  0.51100000000E-03 0.  1.
         11   -1    0    0    0    0 -0.00000000000E+00 -0.00000000000E+00 -0.45593999997E+02  0.45594000000E+02  0.51100000000E-03 0. -1.
    9900012    2    1    2    0    0  0.41433289225E+02  0.14194220337E+02  0.10531857549E+02  0.46142319071E+02  0.10000011941E+02 0.  0.
         12    1    1    2    0    0 -0.41433289225E+02 -0.14194220337E+02 -0.10531857549E+02  0.45045680929E+02  0.00000000000E+00 0. -1.
         11    1    3    3    0    0  0.41037623349E+01 -0.36188485330E+00  0.16981282352E+01  0.44559472296E+01  0.51100000000E-03 0. -1.
        -11    1    3    3    0    0  0.18465055873E+02  0.11101706454E+02  0.52576292922E+01  0.22177665355E+02  0.51100000000E-03 0.  1.
        -12    1    3    3    0    0  0.18864471017E+02  0.34543987367E+01  0.35761000211E+01  0.19508706486E+02  0.00000000000E+00 0.  1.
</event>
<event>
 7    1  0.2097247E-008  0.4614232E+02  0.7816164E-02  0.1320468E+00
        -11   -1    0    0    0    0  0.00000000000E+00  0.00000000000E+00  0.45593999997E+02  0.45594000000E+02  0.51100000000E-03 0.  1.
         11   -1    0    0    0    0 -0.00000000000E+00 -0.00000000000E+00 -0.45593999997E+02  0.45594000000E+02  0.51100000000E-03 0. -1.
    9900012    2    1    2    0    0  0.31881601433E+01 -0.21947516043E+02  0.39207852203E+02  0.46142317633E+02  0.99999988306E+01 0.  0.
         12    1    1    2    0    0 -0.31881601433E+01  0.21947516043E+02 -0.39207852203E+02  0.45045682367E+02  0.00000000000E+00 0. -1.
         11    1    3    3    0    0 -0.12553383407E+01 -0.22109312711E+01  0.50082904645E+01  0.56166774051E+01  0.51100000000E-03 0. -1.
        -11    1    3    3    0    0 -0.20324994455E+01 -0.69372741074E+01  0.13928355824E+02  0.15692543524E+02  0.51100000000E-03 0.  1.
         12    1    3    3    0    0  0.64759979294E+01 -0.12799310664E+02  0.20271205915E+02  0.24833096704E+02  0.00000000000E+00 0. -1.
</event>
<event>
 7    1  0.2097247E-008  0.4614231E+02  0.7816164E-02  0.1320468E+00
        -11   -1    0    0    0    0  0.00000000000E+00  0.00000000000E+00  0.45593999997E+02  0.45594000000E+02  0.51100000000E-03 0. -1.
         11   -1    0    0    0    0 -0.00000000000E+00 -0.00000000000E+00 -0.45593999997E+02  0.45594000000E+02  0.51100000000E-03 0.  1.
    9900012    2    1    2    0    0 -0.35390394306E+02  0.26321823513E+02 -0.91539865090E+01  0.46142313511E+02  0.99999612471E+01 0.  0.
         12    1    1    2    0    0  0.35390394306E+02 -0.26321823513E+02  0.91539865090E+01  0.45045686489E+02  0.00000000000E+00 0. -1.
         11    1    3    3    0    0 -0.24865246010E+01  0.10667911160E+01 -0.13099452328E+01  0.30061278500E+01  0.51100000000E-03 0.  1.
        -11    1    3    3    0    0 -0.69752230163E+01  0.15280804602E+01 -0.72982385077E-01  0.71410148235E+01  0.51100000000E-03 0. -1.
         12    1    3    3    0    0 -0.25928646689E+02  0.23726951937E+02 -0.77710588911E+01  0.35995170838E+02  0.00000000000E+00 0. -1.
</event>
<event>
 7    1  0.2097247E-008  0.4614231E+02  0.7816164E-02  0.1320468E+00
        -11   -1    0    0    0    0  0.00000000000E+00  0.00000000000E+00  0.45593999997E+02  0.45594000000E+02  0.51100000000E-03 0.  1.
         11   -1    0    0    0    0 -0.00000000000E+00 -0.00000000000E+00 -0.45593999997E+02  0.45594000000E+02  0.51100000000E-03 0. -1.
    9900012    2    1    2    0    0  0.14027394878E+02  0.24833295530E+02  0.34866221782E+02  0.46142314354E+02  0.99999689356E+01 0.  0.
         12    1    1    2    0    0 -0.14027394878E+02 -0.24833295530E+02 -0.34866221782E+02  0.45045685646E+02  0.00000000000E+00 0. -1.
         11    1    3    3    0    0  0.10045208689E+02  0.10651780919E+02  0.19072725030E+02  0.24044448313E+02  0.51100000000E-03 0. -1.
        -11    1    3    3    0    0  0.44409450902E+01  0.13189255574E+02  0.15730281470E+02  0.21002861979E+02  0.51100000000E-03 0.  1.
         12    1    3    3    0    0 -0.45875890163E+00  0.99225903688E+00  0.63215281842E-01  0.10950040630E+01  0.00000000000E+00 0. -1.
</event>
<event>
 7    1  0.2097247E-008  0.4614232E+02  0.7816164E-02  0.1320468E+00
        -11   -1    0    0    0    0  0.00000000000E+00  0.00000000000E+00  0.45593999997E+02  0.45594000000E+02  0.51100000000E-03 0.  1.
         11   -1    0    0    0    0 -0.00000000000E+00 -0.00000000000E+00 -0.45593999997E+02  0.45594000000E+02  0.51100000000E-03 0. -1.
    9900012    2    1    2    0    0  0.37083635320E+02 -0.25477383342E+02 -0.21955493691E+01  0.46142317548E+02  0.99999980560E+01 0.  0.
         12    1    1    2    0    0 -0.37083635320E+02  0.25477383342E+02  0.21955493691E+01  0.45045682452E+02  0.00000000000E+00 0. -1.
         11    1    3    3    0    0  0.12497058150E+02 -0.60694370889E+01  0.27832199912E+01  0.14169009943E+02  0.51100000000E-03 0. -1.
        -11    1    3    3    0    0  0.18614294635E+02 -0.15509619768E+02 -0.22351045983E+01  0.24331789143E+02  0.51100000000E-03 0.  1.
         12    1    3    3    0    0  0.59722825355E+01 -0.38983264852E+01 -0.27436647620E+01  0.76415184613E+01  0.00000000000E+00 0. -1.
</event>
<event>
 7    1  0.2097247E-008  0.4614232E+02  0.7816164E-02  0.1320468E+00
        -11   -1    0    0    0    0  0.00000000000E+00  0.00000000000E+00  0.45593999997E+02  0.45594000000E+02  0.51100000000E-03 0.  1.
         11   -1    0    0    0    0 -0.00000000000E+00 -0.00000000000E+00 -0.45593999997E+02  0.45594000000E+02  0.51100000000E-03 0. -1.
    9900012    2    1    2    0    0  0.44387030352E+02  0.45343769546E+01 -0.61922776368E+01  0.46142319406E+02  0.10000015004E+02 0.  0.
         12    1    1    2    0    0 -0.44387030352E+02 -0.45343769546E+01  0.61922776368E+01  0.45045680594E+02  0.00000000000E+00 0. -1.
         11    1    3    3    0    0  0.22190552874E+01  0.16086522339E+00 -0.27034736638E+01  0.35012646430E+01  0.51100000000E-03 0. -1.
        -11    1    3    3    0    0  0.14431612822E+02  0.26833826530E+01 -0.42826216068E+00  0.14685210242E+02  0.51100000000E-03 0.  1.
        -12    1    3    3    0    0  0.27736362242E+02  0.16901290781E+01 -0.30605418123E+01  0.27955844522E+02  0.00000000000E+00 0.  1.
</event>
<event>
 7    1  0.2097247E-008  0.4614232E+02  0.7816164E-02  0.1320468E+00
        -11   -1    0    0    0    0  0.00000000000E+00  0.00000000000E+00  0.45593999997E+02  0.45594000000E+02  0.51100000000E-03 0.  1.
         11   -1    0    0    0    0 -0.00000000000E+00 -0.00000000000E+00 -0.45593999997E+02  0.45594000000E+02  0.51100000000E-03 0. -1.
    9900012    2    1    2    0    0  0.20914370467E+02 -0.36383016923E+02  0.16370053215E+02  0.46142318135E+02  0.10000003410E+02 0.  0.
         12    1    1    2    0    0 -0.20914370467E+02  0.36383016923E+02 -0.16370053215E+02  0.45045681865E+02  0.00000000000E+00 0. -1.
         11    1    3    3    0    0  0.60003777376E+01 -0.15251865576E+02  0.56679893231E+01  0.17342146342E+02  0.51100000000E-03 0.  1.
        -11    1    3    3    0    0  0.11131219643E+02 -0.10641198488E+02  0.45148641243E+01  0.16047527982E+02  0.51100000000E-03 0. -1.
         12    1    3    3    0    0  0.37827730858E+01 -0.10489952859E+02  0.61871997677E+01  0.12752643811E+02  0.00000000000E+00 0. -1.
</event>
<event>
 7    1  0.2097247E-008  0.4614232E+02  0.7816164E-02  0.1320468E+00
        -11   -1    0    0    0    0  0.00000000000E+00  0.00000000000E+00  0.45593999997E+02  0.45594000000E+02  0.51100000000E-03 0.  1.
         11   -1    0    0    0    0 -0.00000000000E+00 -0.00000000000E+00 -0.45593999997E+02  0.45594000000E+02  0.51100000000E-03 0. -1.
    9900012    2    1    2    0    0  0.10465439418E+02 -0.39154585201E+02 -0.19659773614E+02  0.46142315822E+02  0.99999823218E+01 0.  0.
         12    1    1    2    0    0 -0.10465439418E+02  0.39154585201E+02  0.19659773614E+02  0.45045684178E+02  0.00000000000E+00 0. -1.
         11    1    3    3    0    0  0.48457739808E+00 -0.55603752264E+01 -0.58893564218E+01  0.81140068546E+01  0.51100000000E-03 0. -1.
        -11    1    3    3    0    0  0.37573208839E+01 -0.65338522101E+01 -0.43756795538E+01  0.87152313077E+01  0.51100000000E-03 0.  1.
        -12    1    3    3    0    0  0.62235411359E+01 -0.27060357765E+02 -0.93947376381E+01  0.29313077660E+02  0.00000000000E+00 0.  1.
</event>
<event>
 7    1  0.2097247E-008  0.4614232E+02  0.7816164E-02  0.1320468E+00
        -11   -1    0    0    0    0  0.00000000000E+00  0.00000000000E+00  0.45593999997E+02  0.45594000000E+02  0.51100000000E-03 0. -1.
         11   -1    0    0    0    0 -0.00000000000E+00 -0.00000000000E+00 -0.45593999997E+02  0.45594000000E+02  0.51100000000E-03 0.  1.
    9900012    2    1    2    0    0  0.55008723206E+01  0.25666350516E+02 -0.36607271015E+02  0.46142318339E+02  0.10000005274E+02 0.  0.
         12    1    1    2    0    0 -0.55008723206E+01 -0.25666350516E+02  0.36607271015E+02  0.45045681661E+02  0.00000000000E+00 0. -1.
         11    1    3    3    0    0  0.46085892452E+00  0.45011090318E+01 -0.80911761505E+01  0.92703562620E+01  0.51100000000E-03 0. -1.
        -11    1    3    3    0    0 -0.17736078582E+01  0.89324192072E+01 -0.85967173000E+01  0.12523471816E+02  0.51100000000E-03 0.  1.
        -12    1    3    3    0    0  0.68136212542E+01  0.12232822277E+02 -0.19919377564E+02  0.24348490261E+02  0.00000000000E+00 0.  1.
</event>
<event>
 7    1  0.2097247E-008  0.4614232E+02  0.7816164E-02  0.1320468E+00
        -11   -1    0    0    0    0  0.00000000000E+00  0.00000000000E+00  0.45593999997E+02  0.45594000000E+02  0.51100000000E-03 0.  1.
         11   -1    0    0    0    0 -0.00000000000E+00 -0.00000000000E+00 -0.45593999997E+02  0.45594000000E+02  0.51100000000E-03 0. -1.
    9900012    2    1    2    0    0  0.31417451257E+02  0.55863049982E+01  0.31793875961E+02  0.46142316570E+02  0.99999891420E+01 0.  0.
         12    1    1    2    0    0 -0.31417451257E+02 -0.55863049982E+01 -0.31793875961E+02  0.45045683430E+02  0.00000000000E+00 0. -1.
         11    1    3    3    0    0  0.28918268376E+01 -0.41348586788E+00  0.52070196954E+01  0.59704846864E+01  0.51100000000E-03 0. -1.
        -11    1    3    3    0    0  0.10116098221E+01  0.15377648675E+01  0.35970778266E+01  0.40406737522E+01  0.51100000000E-03 0.  1.
        -12    1    3    3    0    0  0.27514014597E+02  0.44620259986E+01  0.22989778439E+02  0.36131158132E+02  0.00000000000E+00 0.  1.
</event>
<event>
 7    1  0.2097247E-008  0.4614232E+02  0.7816164E-02  0.1320468E+00
        -11   -1    0    0    0    0  0.00000000000E+00  0.00000000000E+00  0.45593999997E+02  0.45594000000E+02  0.51100000000E-03 0.  1.
         11   -1    0    0    0    0 -0.00000000000E+00 -0.00000000000E+00 -0.45593999997E+02  0.45594000000E+02  0.51100000000E-03 0. -1.
    9900012    2    1    2    0    0  0.86974195817E+01 -0.44105777175E+02 -0.28546118975E+01  0.46142317669E+02  0.99999991629E+01 0.  0.
         12    1    1    2    0    0 -0.86974195817E+01  0.44105777175E+02  0.28546118975E+01  0.45045682331E+02  0.00000000000E+00 0. -1.
         11    1    3    3    0    0  0.31695539875E+01 -0.39964887977E+01  0.14932747718E+01  0.53148720582E+01  0.51100000000E-03 0. -1.
        -11    1    3    3    0    0  0.73149039516E+00 -0.14963495156E+02 -0.21369282516E+01  0.15133001292E+02  0.51100000000E-03 0.  1.
        -12    1    3    3    0    0  0.47963751990E+01 -0.25145793221E+02 -0.22109584177E+01  0.25694444319E+02  0.00000000000E+00 0.  1.
</event>
<event>
 7    1  0.2097247E-008  0.4614232E+02  0.7816164E-02  0.1320468E+00
        -11   -1    0    0    0    0  0.00000000000E+00  0.00000000000E+00  0.45593999997E+02  0.45594000000E+02  0.51100000000E-03 0.  1.
         11   -1    0    0    0    0 -0.00000000000E+00 -0.00000000000E+00 -0.45593999997E+02  0.45594000000E+02  0.51100000000E-03 0. -1.
    9900012    2    1    2    0    0 -0.28896521235E+02  0.25953216792E+02  0.22815236502E+02  0.46142318543E+02  0.10000007129E+02 0.  0.
         12    1    1    2    0    0  0.28896521235E+02 -0.25953216792E+02 -0.22815236502E+02  0.45045681457E+02  0.00000000000E+00 0. -1.
         11    1    3    3    0    0 -0.15032662554E+02  0.13541162389E+02  0.13097052151E+02  0.24101385803E+02  0.51100000000E-03 0. -1.
        -11    1    3    3    0    0 -0.24422730512E+01  0.40568964264E+01  0.55350945321E+01  0.72842554878E+01  0.51100000000E-03 0.  1.
         12    1    3    3    0    0 -0.11421585629E+02  0.83551579767E+01  0.41830898190E+01  0.14756677253E+02  0.00000000000E+00 0. -1.
</event>
<event>
 7    1  0.2097247E-008  0.4614232E+02  0.7816164E-02  0.1320468E+00
        -11   -1    0    0    0    0  0.00000000000E+00  0.00000000000E+00  0.45593999997E+02  0.45594000000E+02  0.51100000000E-03 0. -1.
         11   -1    0    0    0    0 -0.00000000000E+00 -0.00000000000E+00 -0.45593999997E+02  0.45594000000E+02  0.51100000000E-03 0.  1.
    9900012    2    1    2    0    0  0.23778765844E+01 -0.21106634757E+01 -0.44933330844E+02  0.46142318541E+02  0.10000007110E+02 0.  0.
         12    1    1    2    0    0 -0.23778765844E+01  0.21106634757E+01  0.44933330844E+02  0.45045681459E+02  0.00000000000E+00 0. -1.
         11    1    3    3    0    0 -0.32838824232E+00  0.13664566880E+01 -0.10474177222E+02  0.10568038203E+02  0.51100000000E-03 0. -1.
        -11    1    3    3    0    0  0.30180552469E+00  0.24243938765E+01 -0.10699232584E+02  0.10974623018E+02  0.51100000000E-03 0.  1.
         12    1    3    3    0    0  0.24044593020E+01 -0.59015140402E+01 -0.23759921039E+02  0.24599657320E+02  0.00000000000E+00 0. -1.
</event>
<event>
 7    1  0.2097247E-008  0.4614232E+02  0.7816164E-02  0.1320468E+00
        -11   -1    0    0    0    0  0.00000000000E+00  0.00000000000E+00  0.45593999997E+02  0.45594000000E+02  0.51100000000E-03 0.  1.
         11   -1    0    0    0    0 -0.00000000000E+00 -0.00000000000E+00 -0.45593999997E+02  0.45594000000E+02  0.51100000000E-03 0. -1.
    9900012    2    1    2    0    0  0.14191024506E+02 -0.36742507113E+02  0.21856725836E+02  0.46142317967E+02  0.10000001880E+02 0.  0.
         12    1    1    2    0    0 -0.14191024506E+02  0.36742507113E+02 -0.21856725836E+02  0.45045682033E+02  0.00000000000E+00 0. -1.
         11    1    3    3    0    0  0.58654624893E+01 -0.61646809224E+01  0.50911741716E+01  0.99159969642E+01  0.51100000000E-03 0. -1.
        -11    1    3    3    0    0  0.76306428903E+01 -0.19400859809E+02  0.12013202259E+02  0.24061111799E+02  0.51100000000E-03 0.  1.
        -12    1    3    3    0    0  0.69491912680E+00 -0.11176966382E+02  0.47523494062E+01  0.12165209204E+02  0.00000000000E+00 0.  1.
</event>
<event>
 7    1  0.2097247E-008  0.4614232E+02  0.7816164E-02  0.1320468E+00
        -11   -1    0    0    0    0  0.00000000000E+00  0.00000000000E+00  0.45593999997E+02  0.45594000000E+02  0.51100000000E-03 0.  1.
         11   -1    0    0    0    0 -0.00000000000E+00 -0.00000000000E+00 -0.45593999997E+02  0.45594000000E+02  0.51100000000E-03 0. -1.
    9900012    2    1    2    0    0 -0.32567882741E+02 -0.73934437164E+00  0.31111089812E+02  0.46142317348E+02  0.99999962287E+01 0.  0.
         12    1    1    2    0    0  0.32567882741E+02  0.73934437164E+00 -0.31111089812E+02  0.45045682652E+02  0.00000000000E+00 0. -1.
         11    1    3    3    0    0 -0.20231714214E+00  0.13395847792E+00 -0.20015932648E+00  0.31454906916E+00  0.51100000000E-03 0. -1.
        -11    1    3    3    0    0 -0.23706456164E+02 -0.11229621975E+01  0.17354983724E+02  0.29401574248E+02  0.51100000000E-03 0.  1.
         12    1    3    3    0    0 -0.86591094351E+01  0.24965934794E+00  0.13956265415E+02  0.16426194030E+02  0.00000000000E+00 0. -1.
</event>
<event>
 7    1  0.2097247E-008  0.4614232E+02  0.7816164E-02  0.1320468E+00
        -11   -1    0    0    0    0  0.00000000000E+00  0.00000000000E+00  0.45593999997E+02  0.45594000000E+02  0.51100000000E-03 0.  1.
         11   -1    0    0    0    0 -0.00000000000E+00 -0.00000000000E+00 -0.45593999997E+02  0.45594000000E+02  0.51100000000E-03 0. -1.
    9900012    2    1    2    0    0  0.34557631629E+02 -0.40625888065E+01  0.28607324783E+02  0.46142316934E+02  0.99999924619E+01 0.  0.
         12    1    1    2    0    0 -0.34557631629E+02  0.40625888065E+01 -0.28607324783E+02  0.45045683066E+02  0.00000000000E+00 0. -1.
         11    1    3    3    0    0  0.18257232646E+01 -0.79646303554E+00  0.54247012487E+01  0.57788409482E+01  0.51100000000E-03 0. -1.
        -11    1    3    3    0    0  0.49326367415E+01 -0.15719840598E+00  0.48456986850E+01  0.69163872484E+01  0.51100000000E-03 0.  1.
         12    1    3    3    0    0  0.27799271623E+02 -0.31089273650E+01  0.18336924850E+02  0.33447088738E+02  0.00000000000E+00 0. -1.
</event>
<event>
 7    1  0.2097247E-008  0.4614232E+02  0.7816164E-02  0.1320468E+00
        -11   -1    0    0    0    0  0.00000000000E+00  0.00000000000E+00  0.45593999997E+02  0.45594000000E+02  0.51100000000E-03 0.  1.
         11   -1    0    0    0    0 -0.00000000000E+00 -0.00000000000E+00 -0.45593999997E+02  0.45594000000E+02  0.51100000000E-03 0. -1.
    9900012    2    1    2    0    0 -0.16360137641E+01  0.13371987790E+02  0.42984030879E+02  0.46142317531E+02  0.99999979024E+01 0.  0.
         12    1    1    2    0    0  0.16360137641E+01 -0.13371987790E+02 -0.42984030879E+02  0.45045682469E+02  0.00000000000E+00 0. -1.
         11    1    3    3    0    0 -0.13362112070E+01  0.37552425141E+01  0.10949382881E+02  0.11652308461E+02  0.51100000000E-03 0.  1.
        -11    1    3    3    0    0 -0.70203455343E+00  0.65789590049E+01  0.85735978538E+01  0.10829687647E+02  0.51100000000E-03 0. -1.
         12    1    3    3    0    0  0.40223199639E+00  0.30377862706E+01  0.23461050144E+02  0.23660321423E+02  0.00000000000E+00 0. -1.
</event>
<event>
 7    1  0.2097247E-008  0.4614232E+02  0.7816164E-02  0.1320468E+00
        -11   -1    0    0    0    0  0.00000000000E+00  0.00000000000E+00  0.45593999997E+02  0.45594000000E+02  0.51100000000E-03 0.  1.
         11   -1    0    0    0    0 -0.00000000000E+00 -0.00000000000E+00 -0.45593999997E+02  0.45594000000E+02  0.51100000000E-03 0. -1.
    9900012    2    1    2    0    0 -0.21909371308E+02  0.18205371904E+02  0.34894948364E+02  0.46142317203E+02  0.99999949125E+01 0.  0.
         12    1    1    2    0    0  0.21909371308E+02 -0.18205371904E+02 -0.34894948364E+02  0.45045682797E+02  0.00000000000E+00 0. -1.
         11    1    3    3    0    0 -0.38126848962E+01  0.11631704224E+01  0.10603267562E+01  0.41247817689E+01  0.51100000000E-03 0. -1.
        -11    1    3    3    0    0 -0.55889746902E+01  0.56778441015E+01  0.12069285580E+02  0.14461749770E+02  0.51100000000E-03 0.  1.
         12    1    3    3    0    0 -0.12507711721E+02  0.11364357380E+02  0.21765336028E+02  0.27555785664E+02  0.00000000000E+00 0. -1.
</event>
<event>
 7    1  0.2097247E-008  0.4614232E+02  0.7816164E-02  0.1320468E+00
        -11   -1    0    0    0    0  0.00000000000E+00  0.00000000000E+00  0.45593999997E+02  0.45594000000E+02  0.51100000000E-03 0.  1.
         11   -1    0    0    0    0 -0.00000000000E+00 -0.00000000000E+00 -0.45593999997E+02  0.45594000000E+02  0.51100000000E-03 0. -1.
    9900012    2    1    2    0    0  0.37156741453E+02 -0.99208754636E+01  0.23453494981E+02  0.46142316165E+02  0.99999854459E+01 0.  0.
         12    1    1    2    0    0 -0.37156741453E+02  0.99208754636E+01 -0.23453494981E+02  0.45045683835E+02  0.00000000000E+00 0. -1.
         11    1    3    3    0    0  0.94724456183E+01 -0.51015817265E+01  0.76505786161E+01  0.13201693661E+02  0.51100000000E-03 0. -1.
        -11    1    3    3    0    0  0.14899282027E+02 -0.37038931927E+01  0.12202873799E+02  0.19611668948E+02  0.51100000000E-03 0.  1.
         12    1    3    3    0    0  0.12785013807E+02 -0.11154005444E+01  0.36000425661E+01  0.13328953556E+02  0.00000000000E+00 0. -1.
</event>
<event>
 7    1  0.2097247E-008  0.4614232E+02  0.7816164E-02  0.1320468E+00
        -11   -1    0    0    0    0  0.00000000000E+00  0.00000000000E+00  0.45593999997E+02  0.45594000000E+02  0.51100000000E-03 0.  1.
         11   -1    0    0    0    0 -0.00000000000E+00 -0.00000000000E+00 -0.45593999997E+02  0.45594000000E+02  0.51100000000E-03 0. -1.
    9900012    2    1    2    0    0  0.12757524170E+02  0.36488927900E+02  0.23128276817E+02  0.46142317957E+02  0.10000001786E+02 0.  0.
         12    1    1    2    0    0 -0.12757524170E+02 -0.36488927900E+02 -0.23128276817E+02  0.45045682043E+02  0.00000000000E+00 0. -1.
         11    1    3    3    0    0  0.41317622522E+01  0.47083908983E+01  0.69135088855E+01  0.93293627612E+01  0.51100000000E-03 0. -1.
        -11    1    3    3    0    0  0.59005076372E+01  0.25444415670E+02  0.13483200248E+02  0.29394403692E+02  0.51100000000E-03 0.  1.
        -12    1    3    3    0    0  0.27252542807E+01  0.63361213309E+01  0.27315676829E+01  0.74185515042E+01  0.00000000000E+00 0.  1.
</event>
<event>
 7    1  0.2097247E-008  0.4614232E+02  0.7816164E-02  0.1320468E+00
        -11   -1    0    0    0    0  0.00000000000E+00  0.00000000000E+00  0.45593999997E+02  0.45594000000E+02  0.51100000000E-03 0.  1.
         11   -1    0    0    0    0 -0.00000000000E+00 -0.00000000000E+00 -0.45593999997E+02  0.45594000000E+02  0.51100000000E-03 0. -1.
    9900012    2    1    2    0    0  0.14994431800E+02 -0.42468205726E+02  0.85557939548E+00  0.46142317647E+02  0.99999989563E+01 0.  0.
         12    1    1    2    0    0 -0.14994431800E+02  0.42468205726E+02 -0.85557939548E+00  0.45045682353E+02  0.00000000000E+00 0. -1.
         11    1    3    3    0    0  0.17507278459E+01 -0.16483422953E+02  0.26586127272E+01  0.16787986840E+02  0.51100000000E-03 0. -1.
        -11    1    3    3    0    0  0.74214714854E+01 -0.17061371016E+02 -0.42231141382E+00  0.18610399435E+02  0.51100000000E-03 0.  1.
        -12    1    3    3    0    0  0.58222324684E+01 -0.89234117568E+01 -0.13807219179E+01  0.10743931371E+02  0.00000000000E+00 0.  1.
</event>
<event>
 7    1  0.2097247E-008  0.4614232E+02  0.7816164E-02  0.1320468E+00
        -11   -1    0    0    0    0  0.00000000000E+00  0.00000000000E+00  0.45593999997E+02  0.45594000000E+02  0.51100000000E-03 0.  1.
         11   -1    0    0    0    0 -0.00000000000E+00 -0.00000000000E+00 -0.45593999997E+02  0.45594000000E+02  0.51100000000E-03 0. -1.
    9900012    2    1    2    0    0 -0.26529647403E+02 -0.15517948475E+02  0.32931509947E+02  0.46142320256E+02  0.10000022747E+02 0.  0.
         12    1    1    2    0    0  0.26529647403E+02  0.15517948475E+02 -0.32931509947E+02  0.45045679744E+02  0.00000000000E+00 0. -1.
         11    1    3    3    0    0 -0.11275876912E+02 -0.62037861306E+01  0.88503020991E+01  0.15619225653E+02  0.51100000000E-03 0. -1.
        -11    1    3    3    0    0 -0.45511064696E+01 -0.60196674237E+01  0.10196551124E+02  0.12685370356E+02  0.51100000000E-03 0.  1.
        -12    1    3    3    0    0 -0.10702664022E+02 -0.32944949206E+01  0.13884656724E+02  0.17837724247E+02  0.00000000000E+00 0.  1.
</event>
<event>
 7    1  0.2097247E-008  0.4614232E+02  0.7816164E-02  0.1320468E+00
        -11   -1    0    0    0    0  0.00000000000E+00  0.00000000000E+00  0.45593999997E+02  0.45594000000E+02  0.51100000000E-03 0. -1.
         11   -1    0    0    0    0 -0.00000000000E+00 -0.00000000000E+00 -0.45593999997E+02  0.45594000000E+02  0.51100000000E-03 0.  1.
    9900012    2    1    2    0    0 -0.41739259392E+02  0.16936791556E+02  0.30490178555E+00  0.46142315991E+02  0.99999838581E+01 0.  0.
         12    1    1    2    0    0  0.41739259392E+02 -0.16936791556E+02 -0.30490178555E+00  0.45045684009E+02  0.00000000000E+00 0. -1.
         11    1    3    3    0    0 -0.25297587854E+02  0.10164444480E+02 -0.24691613615E+01  0.27374817642E+02  0.51100000000E-03 0. -1.
        -11    1    3    3    0    0 -0.75623110851E+01  0.56919773940E+00 -0.10722055700E-01  0.75837095302E+01  0.51100000000E-03 0.  1.
         12    1    3    3    0    0 -0.88793604525E+01  0.62031493356E+01  0.27847852027E+01  0.11183788819E+02  0.00000000000E+00 0. -1.
</event>
<event>
 7    1  0.2097247E-008  0.4614232E+02  0.7816164E-02  0.1320468E+00
        -11   -1    0    0    0    0  0.00000000000E+00  0.00000000000E+00  0.45593999997E+02  0.45594000000E+02  0.51100000000E-03 0.  1.
         11   -1    0    0    0    0 -0.00000000000E+00 -0.00000000000E+00 -0.45593999997E+02  0.45594000000E+02  0.51100000000E-03 0. -1.
    9900012    2    1    2    0    0  0.15275877924E+02  0.24064975595E+02  0.34880337677E+02  0.46142318152E+02  0.10000003563E+02 0.  0.
         12    1    1    2    0    0 -0.15275877924E+02 -0.24064975595E+02 -0.34880337677E+02  0.45045681848E+02  0.00000000000E+00 0. -1.
         11    1    3    3    0    0  0.66694702506E+00  0.22161619531E+01  0.90259005961E+00  0.24841218193E+01  0.51100000000E-03 0. -1.
        -11    1    3    3    0    0 -0.10252273255E+00 -0.22861709391E+00 -0.24907136249E+00  0.35328952865E+00  0.51100000000E-03 0.  1.
        -12    1    3    3    0    0  0.14711453632E+02  0.22077430736E+02  0.34226818979E+02  0.43304906804E+02  0.00000000000E+00 0.  1.
</event>
<event>
 7    1  0.2097247E-008  0.4614232E+02  0.7816164E-02  0.1320468E+00
        -11   -1    0    0    0    0  0.00000000000E+00  0.00000000000E+00  0.45593999997E+02  0.45594000000E+02  0.51100000000E-03 0.  1.
         11   -1    0    0    0    0 -0.00000000000E+00 -0.00000000000E+00 -0.45593999997E+02  0.45594000000E+02  0.51100000000E-03 0. -1.
    9900012    2    1    2    0    0  0.22339192428E+02  0.20405354750E+02  0.33372075806E+02  0.46142318027E+02  0.10000002428E+02 0.  0.
         12    1    1    2    0    0 -0.22339192428E+02 -0.20405354750E+02 -0.33372075806E+02  0.45045681973E+02  0.00000000000E+00 0. -1.
         11    1    3    3    0    0  0.80076249020E+01  0.99673464227E+01  0.10684051019E+02  0.16661902584E+02  0.51100000000E-03 0. -1.
        -11    1    3    3    0    0  0.32602022461E+01  0.29311379937E+00  0.17427642946E+01  0.37083772775E+01  0.51100000000E-03 0.  1.
         12    1    3    3    0    0  0.11071365280E+02  0.10144894528E+02  0.20945260492E+02  0.25772038166E+02  0.00000000000E+00 0. -1.
</event>
<event>
 7    1  0.2097247E-008  0.4614232E+02  0.7816164E-02  0.1320468E+00
        -11   -1    0    0    0    0  0.00000000000E+00  0.00000000000E+00  0.45593999997E+02  0.45594000000E+02  0.51100000000E-03 0.  1.
         11   -1    0    0    0    0 -0.00000000000E+00 -0.00000000000E+00 -0.45593999997E+02  0.45594000000E+02  0.51100000000E-03 0. -1.
    9900012    2    1    2    0    0  0.16127217421E+02  0.14184127221E+02  0.39595919789E+02  0.46142317957E+02  0.10000001791E+02 0.  0.
         12    1    1    2    0    0 -0.16127217421E+02 -0.14184127221E+02 -0.39595919789E+02  0.45045682043E+02  0.00000000000E+00 0. -1.
         11    1    3    3    0    0  0.10481508301E+01 -0.98363070091E+00  0.20888035800E+01  0.25355966113E+01  0.51100000000E-03 0. -1.
        -11    1    3    3    0    0  0.43040285005E+01  0.84870870200E+01  0.17527541765E+02  0.19944172783E+02  0.51100000000E-03 0.  1.
        -12    1    3    3    0    0  0.10775038090E+02  0.66806709020E+01  0.19979574444E+02  0.23662548563E+02  0.00000000000E+00 0.  1.
</event>
<event>
 7    1  0.2097247E-008  0.4614232E+02  0.7816164E-02  0.1320468E+00
        -11   -1    0    0    0    0  0.00000000000E+00  0.00000000000E+00  0.45593999997E+02  0.45594000000E+02  0.51100000000E-03 0.  1.
         11   -1    0    0    0    0 -0.00000000000E+00 -0.00000000000E+00 -0.45593999997E+02  0.45594000000E+02  0.51100000000E-03 0. -1.
    9900012    2    1    2    0    0  0.10455809588E+02 -0.33815112652E+02  0.27862657955E+02  0.46142317564E+02  0.99999982019E+01 0.  0.
         12    1    1    2    0    0 -0.10455809588E+02  0.33815112652E+02 -0.27862657955E+02  0.45045682436E+02  0.00000000000E+00 0. -1.
         11    1    3    3    0    0  0.27530905146E+01 -0.61588975818E+01  0.53445552560E+01  0.86067298058E+01  0.51100000000E-03 0. -1.
        -11    1    3    3    0    0  0.90971115165E+01 -0.22717153830E+02  0.15991082920E+02  0.29232537511E+02  0.51100000000E-03 0.  1.
         12    1    3    3    0    0 -0.13943924430E+01 -0.49390612398E+01  0.65270197789E+01  0.83030502474E+01  0.00000000000E+00 0. -1.
</event>
<event>
 7    1  0.2097247E-008  0.4614232E+02  0.7816164E-02  0.1320468E+00
        -11   -1    0    0    0    0  0.00000000000E+00  0.00000000000E+00  0.45593999997E+02  0.45594000000E+02  0.51100000000E-03 0.  1.
         11   -1    0    0    0    0 -0.00000000000E+00 -0.00000000000E+00 -0.45593999997E+02  0.45594000000E+02  0.51100000000E-03 0. -1.
    9900012    2    1    2    0    0  0.35547943492E+02  0.26260486224E+02  0.87088383600E+01  0.46142319977E+02  0.10000020202E+02 0.  0.
         12    1    1    2    0    0 -0.35547943492E+02 -0.26260486224E+02 -0.87088383600E+01  0.45045680023E+02  0.00000000000E+00 0. -1.
         11    1    3    3    0    0  0.12751770519E+02  0.11887115059E+02 -0.74637203720E+00  0.17449017946E+02  0.51100000000E-03 0. -1.
        -11    1    3    3    0    0  0.87779905671E+01  0.63116765288E+01  0.25409181853E+01  0.11106153451E+02  0.51100000000E-03 0.  1.
         12    1    3    3    0    0  0.14018182405E+02  0.80616946364E+01  0.69142922119E+01  0.17587148579E+02  0.00000000000E+00 0. -1.
</event>
<event>
 7    1  0.2097247E-008  0.4614232E+02  0.7816164E-02  0.1320468E+00
        -11   -1    0    0    0    0  0.00000000000E+00  0.00000000000E+00  0.45593999997E+02  0.45594000000E+02  0.51100000000E-03 0. -1.
         11   -1    0    0    0    0 -0.00000000000E+00 -0.00000000000E+00 -0.45593999997E+02  0.45594000000E+02  0.51100000000E-03 0.  1.
    9900012    2    1    2    0    0 -0.20181366435E+02 -0.20183511810E+02 -0.34848980796E+02  0.46142321376E+02  0.10000032961E+02 0.  0.
         12    1    1    2    0    0  0.20181366435E+02  0.20183511810E+02  0.34848980796E+02  0.45045678624E+02  0.00000000000E+00 0. -1.
         11    1    3    3    0    0 -0.13645027684E+01 -0.38331601975E+01 -0.14913094732E+01  0.43334731002E+01  0.51100000000E-03 0. -1.
        -11    1    3    3    0    0 -0.17099003750E+02 -0.15176859644E+02 -0.28592597391E+02  0.36609419877E+02  0.51100000000E-03 0.  1.
         12    1    3    3    0    0 -0.17178599159E+01 -0.11734919689E+01 -0.47650739325E+01  0.51994283987E+01  0.00000000000E+00 0. -1.
</event>
<event>
 7    1  0.2097247E-008  0.4614232E+02  0.7816164E-02  0.1320468E+00
        -11   -1    0    0    0    0  0.00000000000E+00  0.00000000000E+00  0.45593999997E+02  0.45594000000E+02  0.51100000000E-03 0.  1.
         11   -1    0    0    0    0 -0.00000000000E+00 -0.00000000000E+00 -0.45593999997E+02  0.45594000000E+02  0.51100000000E-03 0. -1.
    9900012    2    1    2    0    0 -0.14734129566E+02 -0.35119385004E+02  0.24055092114E+02  0.46142320587E+02  0.10000025772E+02 0.  0.
         12    1    1    2    0    0  0.14734129566E+02  0.35119385004E+02 -0.24055092114E+02  0.45045679413E+02  0.00000000000E+00 0. -1.
         11    1    3    3    0    0 -0.52980012840E+01 -0.10515774035E+02  0.10037182052E+02  0.15472405920E+02  0.51100000000E-03 0. -1.
        -11    1    3    3    0    0 -0.60947479993E+01 -0.14201867296E+02  0.11985143504E+02  0.19557163725E+02  0.51100000000E-03 0.  1.
         12    1    3    3    0    0 -0.33413802823E+01 -0.10401743673E+02  0.20327665578E+01  0.11112750942E+02  0.00000000000E+00 0. -1.
</event>
<event>
 7    1  0.2097247E-008  0.4614232E+02  0.7816164E-02  0.1320468E+00
        -11   -1    0    0    0    0  0.00000000000E+00  0.00000000000E+00  0.45593999997E+02  0.45594000000E+02  0.51100000000E-03 0. -1.
         11   -1    0    0    0    0 -0.00000000000E+00 -0.00000000000E+00 -0.45593999997E+02  0.45594000000E+02  0.51100000000E-03 0.  1.
    9900012    2    1    2    0    0 -0.35792139373E+02  0.18753875502E+02 -0.19907999319E+02  0.46142317364E+02  0.99999963787E+01 0.  0.
         12    1    1    2    0    0  0.35792139373E+02 -0.18753875502E+02  0.19907999319E+02  0.45045682636E+02  0.00000000000E+00 0. -1.
         11    1    3    3    0    0 -0.50632459095E+01  0.56111630524E+01 -0.37244856774E+01  0.84257583494E+01  0.51100000000E-03 0. -1.
        -11    1    3    3    0    0 -0.20586190312E+02  0.10300595795E+02 -0.79724501759E+01  0.24360900381E+02  0.51100000000E-03 0.  1.
         12    1    3    3    0    0 -0.10142703151E+02  0.28421166550E+01 -0.82110634662E+01  0.13355658633E+02  0.00000000000E+00 0. -1.
</event>
<event>
 7    1  0.2097247E-008  0.4614232E+02  0.7816164E-02  0.1320468E+00
        -11   -1    0    0    0    0  0.00000000000E+00  0.00000000000E+00  0.45593999997E+02  0.45594000000E+02  0.51100000000E-03 0. -1.
         11   -1    0    0    0    0 -0.00000000000E+00 -0.00000000000E+00 -0.45593999997E+02  0.45594000000E+02  0.51100000000E-03 0.  1.
    9900012    2    1    2    0    0 -0.44521642018E+02  0.66130046584E+01  0.17902838242E+01  0.46142317024E+02  0.99999932800E+01 0.  0.
         12    1    1    2    0    0  0.44521642018E+02 -0.66130046584E+01 -0.17902838242E+01  0.45045682976E+02  0.00000000000E+00 0. -1.
         11    1    3    3    0    0 -0.14578937888E+02  0.37641988093E+01  0.30028871817E+01  0.15353564873E+02  0.51100000000E-03 0. -1.
        -11    1    3    3    0    0 -0.58772762274E+01  0.32036048527E+01 -0.44522564648E+00  0.67084786683E+01  0.51100000000E-03 0.  1.
        -12    1    3    3    0    0 -0.24065427902E+02 -0.35479900360E+00 -0.76737771105E+00  0.24080273483E+02  0.00000000000E+00 0.  1.
</event>
<event>
 7    1  0.2097247E-008  0.4614232E+02  0.7816164E-02  0.1320468E+00
        -11   -1    0    0    0    0  0.00000000000E+00  0.00000000000E+00  0.45593999997E+02  0.45594000000E+02  0.51100000000E-03 0.  1.
         11   -1    0    0    0    0 -0.00000000000E+00 -0.00000000000E+00 -0.45593999997E+02  0.45594000000E+02  0.51100000000E-03 0. -1.
    9900012    2    1    2    0    0 -0.27863982882E+02 -0.15057937033E+02  0.32030773915E+02  0.46142317773E+02  0.10000000107E+02 0.  0.
         12    1    1    2    0    0  0.27863982882E+02  0.15057937033E+02 -0.32030773915E+02  0.45045682227E+02  0.00000000000E+00 0. -1.
         11    1    3    3    0    0 -0.20389641220E+01 -0.44487747826E+01  0.31222249832E+01  0.58049341825E+01  0.51100000000E-03 0. -1.
        -11    1    3    3    0    0 -0.16420433161E+02 -0.84802185381E+01  0.18527186484E+02  0.26168709768E+02  0.51100000000E-03 0.  1.
         12    1    3    3    0    0 -0.94045855991E+01 -0.21289437127E+01  0.10381362448E+02  0.14168673823E+02  0.00000000000E+00 0. -1.
</event>
<event>
 7    1  0.2097247E-008  0.4614232E+02  0.7816164E-02  0.1320468E+00
        -11   -1    0    0    0    0  0.00000000000E+00  0.00000000000E+00  0.45593999997E+02  0.45594000000E+02  0.51100000000E-03 0.  1.
         11   -1    0    0    0    0 -0.00000000000E+00 -0.00000000000E+00 -0.45593999997E+02  0.45594000000E+02  0.51100000000E-03 0. -1.
    9900012    2    1    2    0    0 -0.31144948319E+02  0.30088082959E+02  0.12402133966E+02  0.46142317978E+02  0.10000001976E+02 0.  0.
         12    1    1    2    0    0  0.31144948319E+02 -0.30088082959E+02 -0.12402133966E+02  0.45045682022E+02  0.00000000000E+00 0. -1.
         11    1    3    3    0    0 -0.16814225709E+02  0.18979023893E+02  0.10396078591E+02  0.27404378928E+02  0.51100000000E-03 0. -1.
        -11    1    3    3    0    0 -0.83441186181E+01  0.82587251580E+01  0.27730722324E+01  0.12063199684E+02  0.51100000000E-03 0.  1.
         12    1    3    3    0    0 -0.59866039916E+01  0.28503339082E+01 -0.76701685669E+00  0.66747393656E+01  0.00000000000E+00 0. -1.
</event>
<event>
 7    1  0.2097247E-008  0.4614232E+02  0.7816164E-02  0.1320468E+00
        -11   -1    0    0    0    0  0.00000000000E+00  0.00000000000E+00  0.45593999997E+02  0.45594000000E+02  0.51100000000E-03 0.  1.
         11   -1    0    0    0    0 -0.00000000000E+00 -0.00000000000E+00 -0.45593999997E+02  0.45594000000E+02  0.51100000000E-03 0. -1.
    9900012    2    1    2    0    0  0.41661551131E+02  0.10347493300E+02  0.13651298256E+02  0.46142318694E+02  0.10000008508E+02 0.  0.
         12    1    1    2    0    0 -0.41661551131E+02 -0.10347493300E+02 -0.13651298256E+02  0.45045681306E+02  0.00000000000E+00 0. -1.
         11    1    3    3    0    0  0.17225639671E+01 -0.68832706882E+00  0.22860105117E+01  0.29439539900E+01  0.51100000000E-03 0. -1.
        -11    1    3    3    0    0  0.78261312510E+01  0.17600889500E+01  0.40311397918E+01  0.89775459760E+01  0.51100000000E-03 0.  1.
         12    1    3    3    0    0  0.32112855913E+02  0.92757314187E+01  0.73341479524E+01  0.34220818728E+02  0.00000000000E+00 0. -1.
</event>
<event>
 7    1  0.2097247E-008  0.4614232E+02  0.7816164E-02  0.1320468E+00
        -11   -1    0    0    0    0  0.00000000000E+00  0.00000000000E+00  0.45593999997E+02  0.45594000000E+02  0.51100000000E-03 0. -1.
         11   -1    0    0    0    0 -0.00000000000E+00 -0.00000000000E+00 -0.45593999997E+02  0.45594000000E+02  0.51100000000E-03 0.  1.
    9900012    2    1    2    0    0  0.14418198365E+02  0.27891133521E+02 -0.32300367203E+02  0.46142317691E+02  0.99999993649E+01 0.  0.
         12    1    1    2    0    0 -0.14418198365E+02 -0.27891133521E+02  0.32300367203E+02  0.45045682309E+02  0.00000000000E+00 0. -1.
         11    1    3    3    0    0  0.31948048214E+01  0.55397626821E+01 -0.74635049299E+01  0.98285123249E+01  0.51100000000E-03 0. -1.
        -11    1    3    3    0    0  0.79417207952E+01  0.21691843480E+02 -0.20959436939E+02  0.31191425101E+02  0.51100000000E-03 0.  1.
         12    1    3    3    0    0  0.32816727479E+01  0.65952735858E+00 -0.38774253349E+01  0.51223802659E+01  0.00000000000E+00 0. -1.
</event>
<event>
 7    1  0.2097247E-008  0.4614232E+02  0.7816164E-02  0.1320468E+00
        -11   -1    0    0    0    0  0.00000000000E+00  0.00000000000E+00  0.45593999997E+02  0.45594000000E+02  0.51100000000E-03 0.  1.
         11   -1    0    0    0    0 -0.00000000000E+00 -0.00000000000E+00 -0.45593999997E+02  0.45594000000E+02  0.51100000000E-03 0. -1.
    9900012    2    1    2    0    0  0.41713769626E+02  0.73976934744E+00  0.16986105065E+02  0.46142316518E+02  0.99999886631E+01 0.  0.
         12    1    1    2    0    0 -0.41713769626E+02 -0.73976934744E+00 -0.16986105065E+02  0.45045683482E+02  0.00000000000E+00 0. -1.
         11    1    3    3    0    0  0.16821610373E+02  0.91055345379E+00  0.36305924508E+01  0.17233017290E+02  0.51100000000E-03 0. -1.
        -11    1    3    3    0    0  0.58580097424E+01 -0.26750382403E+01  0.32279867875E+01  0.72036106704E+01  0.51100000000E-03 0.  1.
        -12    1    3    3    0    0  0.19034149511E+02  0.25042541340E+01  0.10127525827E+02  0.21705688557E+02  0.00000000000E+00 0.  1.
</event>
<event>
 7    1  0.2097247E-008  0.4614232E+02  0.7816164E-02  0.1320468E+00
        -11   -1    0    0    0    0  0.00000000000E+00  0.00000000000E+00  0.45593999997E+02  0.45594000000E+02  0.51100000000E-03 0.  1.
         11   -1    0    0    0    0 -0.00000000000E+00 -0.00000000000E+00 -0.45593999997E+02  0.45594000000E+02  0.51100000000E-03 0. -1.
    9900012    2    1    2    0    0 -0.21368678821E+01 -0.13164556503E+01  0.44975706568E+02  0.46142318286E+02  0.10000004783E+02 0.  0.
         12    1    1    2    0    0  0.21368678821E+01  0.13164556503E+01 -0.44975706568E+02  0.45045681714E+02  0.00000000000E+00 0. -1.
         11    1    3    3    0    0 -0.31173975066E+01  0.32818476137E+00  0.20918025112E+02  0.21151587347E+02  0.51100000000E-03 0. -1.
        -11    1    3    3    0    0  0.18707873458E+01 -0.38795365449E+01  0.16870709709E+02  0.17411820567E+02  0.51100000000E-03 0.  1.
         12    1    3    3    0    0 -0.89025772122E+00  0.22348961333E+01  0.71869717471E+01  0.75789103722E+01  0.00000000000E+00 0. -1.
</event>
<event>
 7    1  0.2097247E-008  0.4614232E+02  0.7816164E-02  0.1320468E+00
        -11   -1    0    0    0    0  0.00000000000E+00  0.00000000000E+00  0.45593999997E+02  0.45594000000E+02  0.51100000000E-03 0.  1.
         11   -1    0    0    0    0 -0.00000000000E+00 -0.00000000000E+00 -0.45593999997E+02  0.45594000000E+02  0.51100000000E-03 0. -1.
    9900012    2    1    2    0    0 -0.23100546453E+02 -0.31301975002E+02 -0.22708249698E+02  0.46142317745E+02  0.99999998526E+01 0.  0.
         12    1    1    2    0    0  0.23100546453E+02  0.31301975002E+02  0.22708249698E+02  0.45045682255E+02  0.00000000000E+00 0. -1.
         11    1    3    3    0    0 -0.28741356579E+01 -0.30264677996E+01 -0.12329836139E+01  0.43520583607E+01  0.51100000000E-03 0. -1.
        -11    1    3    3    0    0 -0.53632247884E+01 -0.30746962043E+01 -0.14916412476E+01  0.63594756664E+01  0.51100000000E-03 0.  1.
        -12    1    3    3    0    0 -0.14863186007E+02 -0.25200810998E+02 -0.19983624837E+02  0.35430783718E+02  0.00000000000E+00 0.  1.
</event>
<event>
 7    1  0.2097247E-008  0.4614232E+02  0.7816164E-02  0.1320468E+00
        -11   -1    0    0    0    0  0.00000000000E+00  0.00000000000E+00  0.45593999997E+02  0.45594000000E+02  0.51100000000E-03 0.  1.
         11   -1    0    0    0    0 -0.00000000000E+00 -0.00000000000E+00 -0.45593999997E+02  0.45594000000E+02  0.51100000000E-03 0. -1.
    9900012    2    1    2    0    0 -0.36146042700E+01  0.62289217299E+01  0.44466264982E+02  0.46142317061E+02  0.99999936169E+01 0.  0.
         12    1    1    2    0    0  0.36146042700E+01 -0.62289217299E+01 -0.44466264982E+02  0.45045682939E+02  0.00000000000E+00 0. -1.
         11    1    3    3    0    0 -0.78920625473E+00 -0.43810868652E+00  0.94630457467E+00  0.13077761058E+01  0.51100000000E-03 0. -1.
        -11    1    3    3    0    0 -0.35094160685E+01 -0.20677320673E+00  0.20544439529E+02  0.20843050451E+02  0.51100000000E-03 0.  1.
         12    1    3    3    0    0  0.68401805331E+00  0.68738036232E+01  0.22975520879E+02  0.23991490504E+02  0.00000000000E+00 0. -1.
</event>
<event>
 7    1  0.2097247E-008  0.4614232E+02  0.7816164E-02  0.1320468E+00
        -11   -1    0    0    0    0  0.00000000000E+00  0.00000000000E+00  0.45593999997E+02  0.45594000000E+02  0.51100000000E-03 0. -1.
         11   -1    0    0    0    0 -0.00000000000E+00 -0.00000000000E+00 -0.45593999997E+02  0.45594000000E+02  0.51100000000E-03 0.  1.
    9900012    2    1    2    0    0 -0.28005358317E+02 -0.23598747657E+02 -0.26228085054E+02  0.46142318397E+02  0.10000005803E+02 0.  0.
         12    1    1    2    0    0  0.28005358317E+02  0.23598747657E+02  0.26228085054E+02  0.45045681603E+02  0.00000000000E+00 0. -1.
         11    1    3    3    0    0  0.72656448734E+00 -0.64125515265E+00 -0.76737258503E+00  0.12361088425E+01  0.51100000000E-03 0. -1.
        -11    1    3    3    0    0 -0.38656145479E+01 -0.38044799585E+01 -0.22642098662E+01  0.58773880395E+01  0.51100000000E-03 0.  1.
         12    1    3    3    0    0 -0.24866308257E+02 -0.19153012546E+02 -0.23196502603E+02  0.39028821515E+02  0.00000000000E+00 0. -1.
</event>
<event>
 7    1  0.2097247E-008  0.4614232E+02  0.7816164E-02  0.1320468E+00
        -11   -1    0    0    0    0  0.00000000000E+00  0.00000000000E+00  0.45593999997E+02  0.45594000000E+02  0.51100000000E-03 0.  1.
         11   -1    0    0    0    0 -0.00000000000E+00 -0.00000000000E+00 -0.45593999997E+02  0.45594000000E+02  0.51100000000E-03 0. -1.
    9900012    2    1    2    0    0  0.22264690746E+02  0.20467380533E+02  0.33383878677E+02  0.46142317905E+02  0.10000001309E+02 0.  0.
         12    1    1    2    0    0 -0.22264690746E+02 -0.20467380533E+02 -0.33383878677E+02  0.45045682095E+02  0.00000000000E+00 0. -1.
         11    1    3    3    0    0  0.43908194214E+01  0.73593248269E+01  0.85945219847E+01  0.12136917463E+02  0.51100000000E-03 0. -1.
        -11    1    3    3    0    0  0.17742506101E+02  0.13665435766E+02  0.22897099374E+02  0.32028390803E+02  0.51100000000E-03 0.  1.
        -12    1    3    3    0    0  0.13136522360E+00 -0.55738005937E+00  0.18922573187E+01  0.19770096391E+01  0.00000000000E+00 0.  1.
</event>
<event>
 7    1  0.2097247E-008  0.4614232E+02  0.7816164E-02  0.1320468E+00
        -11   -1    0    0    0    0  0.00000000000E+00  0.00000000000E+00  0.45593999997E+02  0.45594000000E+02  0.51100000000E-03 0.  1.
         11   -1    0    0    0    0 -0.00000000000E+00 -0.00000000000E+00 -0.45593999997E+02  0.45594000000E+02  0.51100000000E-03 0. -1.
    9900012    2    1    2    0    0 -0.24424472499E+02  0.13323920386E+02  0.35426426662E+02  0.46142318550E+02  0.10000007193E+02 0.  0.
         12    1    1    2    0    0  0.24424472499E+02 -0.13323920386E+02 -0.35426426662E+02  0.45045681450E+02  0.00000000000E+00 0. -1.
         11    1    3    3    0    0 -0.15357748868E+01 -0.11599457408E+01  0.22105968177E+01  0.29310095831E+01  0.51100000000E-03 0. -1.
        -11    1    3    3    0    0 -0.13747352392E+02  0.11670363050E+02  0.20558793413E+02  0.27346865605E+02  0.51100000000E-03 0.  1.
         12    1    3    3    0    0 -0.91413452193E+01  0.28135030763E+01  0.12657036431E+02  0.15864443362E+02  0.00000000000E+00 0. -1.
</event>
<event>
 7    1  0.2097247E-008  0.4614232E+02  0.7816164E-02  0.1320468E+00
        -11   -1    0    0    0    0  0.00000000000E+00  0.00000000000E+00  0.45593999997E+02  0.45594000000E+02  0.51100000000E-03 0.  1.
         11   -1    0    0    0    0 -0.00000000000E+00 -0.00000000000E+00 -0.45593999997E+02  0.45594000000E+02  0.51100000000E-03 0. -1.
    9900012    2    1    2    0    0  0.42286941673E+02 -0.98719129356E+01  0.11978037833E+02  0.46142317728E+02  0.99999996969E+01 0.  0.
         12    1    1    2    0    0 -0.42286941673E+02  0.98719129356E+01 -0.11978037833E+02  0.45045682272E+02  0.00000000000E+00 0. -1.
         11    1    3    3    0    0  0.34235436436E+00  0.28763353394E+00 -0.55255522760E+00  0.71081439301E+00  0.51100000000E-03 0. -1.
        -11    1    3    3    0    0  0.30775452703E+02 -0.48225017133E+01  0.73118203218E+01  0.31997620669E+02  0.51100000000E-03 0.  1.
        -12    1    3    3    0    0  0.11169134606E+02 -0.53370447562E+01  0.52187727387E+01  0.13433882665E+02  0.00000000000E+00 0.  1.
</event>
<event>
 7    1  0.2097247E-008  0.4614232E+02  0.7816164E-02  0.1320468E+00
        -11   -1    0    0    0    0  0.00000000000E+00  0.00000000000E+00  0.45593999997E+02  0.45594000000E+02  0.51100000000E-03 0.  1.
         11   -1    0    0    0    0 -0.00000000000E+00 -0.00000000000E+00 -0.45593999997E+02  0.45594000000E+02  0.51100000000E-03 0. -1.
    9900012    2    1    2    0    0 -0.15175419968E+02 -0.34700495952E+02  0.24386382654E+02  0.46142318193E+02  0.10000003936E+02 0.  0.
         12    1    1    2    0    0  0.15175419968E+02  0.34700495952E+02 -0.24386382654E+02  0.45045681807E+02  0.00000000000E+00 0. -1.
         11    1    3    3    0    0 -0.71905845649E+01 -0.65835013670E+01  0.52441795067E+01  0.11070158788E+02  0.51100000000E-03 0. -1.
        -11    1    3    3    0    0 -0.76479091512E+00 -0.37166156019E+01  0.13704062136E+01  0.40343710944E+01  0.51100000000E-03 0.  1.
        -12    1    3    3    0    0 -0.72200444878E+01 -0.24400378983E+02  0.17771796934E+02  0.31037788310E+02  0.00000000000E+00 0.  1.
</event>
<event>
 7    1  0.2097247E-008  0.4614232E+02  0.7816164E-02  0.1320468E+00
        -11   -1    0    0    0    0  0.00000000000E+00  0.00000000000E+00  0.45593999997E+02  0.45594000000E+02  0.51100000000E-03 0. -1.
         11   -1    0    0    0    0 -0.00000000000E+00 -0.00000000000E+00 -0.45593999997E+02  0.45594000000E+02  0.51100000000E-03 0.  1.
    9900012    2    1    2    0    0  0.37959271221E+02  0.12217724306E+01 -0.24222188471E+02  0.46142318588E+02  0.10000007544E+02 0.  0.
         12    1    1    2    0    0 -0.37959271221E+02 -0.12217724306E+01  0.24222188471E+02  0.45045681412E+02  0.00000000000E+00 0. -1.
         11    1    3    3    0    0  0.10959959803E+02  0.14123579725E+01 -0.11149340575E+02  0.15697874680E+02  0.51100000000E-03 0. -1.
        -11    1    3    3    0    0  0.12634588122E+02 -0.50644453061E+00 -0.89657491728E+01  0.15500772934E+02  0.51100000000E-03 0.  1.
        -12    1    3    3    0    0  0.14364723296E+02  0.31585898874E+00 -0.41070987231E+01  0.14943670974E+02  0.00000000000E+00 0.  1.
</event>
<event>
 7    1  0.2097247E-008  0.4614232E+02  0.7816164E-02  0.1320468E+00
        -11   -1    0    0    0    0  0.00000000000E+00  0.00000000000E+00  0.45593999997E+02  0.45594000000E+02  0.51100000000E-03 0.  1.
         11   -1    0    0    0    0 -0.00000000000E+00 -0.00000000000E+00 -0.45593999997E+02  0.45594000000E+02  0.51100000000E-03 0. -1.
    9900012    2    1    2    0    0 -0.44329878192E+02 -0.14245438564E+01  0.78705833555E+01  0.46142317542E+02  0.99999980037E+01 0.  0.
         12    1    1    2    0    0  0.44329878192E+02  0.14245438564E+01 -0.78705833555E+01  0.45045682458E+02  0.00000000000E+00 0. -1.
         11    1    3    3    0    0 -0.16509606906E+02 -0.28273559589E+01 -0.74991860660E+00  0.16766736119E+02  0.51100000000E-03 0.  1.
        -11    1    3    3    0    0 -0.56008360375E+01 -0.73349118502E+00  0.70834399333E+00  0.56929012912E+01  0.51100000000E-03 0. -1.
        -12    1    3    3    0    0 -0.22219435249E+02  0.21363032875E+01  0.79121579688E+01  0.23682680132E+02  0.00000000000E+00 0.  1.
</event>
<event>
 7    1  0.2097247E-008  0.4614232E+02  0.7816164E-02  0.1320468E+00
        -11   -1    0    0    0    0  0.00000000000E+00  0.00000000000E+00  0.45593999997E+02  0.45594000000E+02  0.51100000000E-03 0.  1.
         11   -1    0    0    0    0 -0.00000000000E+00 -0.00000000000E+00 -0.45593999997E+02  0.45594000000E+02  0.51100000000E-03 0. -1.
    9900012    2    1    2    0    0 -0.15188281488E+02  0.41168928808E+02  0.10175900303E+02  0.46142317180E+02  0.99999946993E+01 0.  0.
         12    1    1    2    0    0  0.15188281488E+02 -0.41168928808E+02 -0.10175900303E+02  0.45045682820E+02  0.00000000000E+00 0. -1.
         11    1    3    3    0    0  0.11154363935E+01  0.35128682648E+01  0.21385661708E+01  0.42612096079E+01  0.51100000000E-03 0. -1.
        -11    1    3    3    0    0 -0.49688803233E+00  0.60930160132E+00  0.41204857109E+00  0.88765446211E+00  0.51100000000E-03 0.  1.
        -12    1    3    3    0    0 -0.15806829850E+02  0.37046758942E+02  0.76252855611E+01  0.40993453110E+02  0.00000000000E+00 0.  1.
</event>
<event>
 7    1  0.2097247E-008  0.4614232E+02  0.7816164E-02  0.1320468E+00
        -11   -1    0    0    0    0  0.00000000000E+00  0.00000000000E+00  0.45593999997E+02  0.45594000000E+02  0.51100000000E-03 0. -1.
         11   -1    0    0    0    0 -0.00000000000E+00 -0.00000000000E+00 -0.45593999997E+02  0.45594000000E+02  0.51100000000E-03 0.  1.
    9900012    2    1    2    0    0 -0.26928237388E+02  0.18965268596E+02 -0.30729499712E+02  0.46142317251E+02  0.99999953468E+01 0.  0.
         12    1    1    2    0    0  0.26928237388E+02 -0.18965268596E+02  0.30729499712E+02  0.45045682749E+02  0.00000000000E+00 0. -1.
         11    1    3    3    0    0 -0.60655524908E+01  0.47424310223E+01 -0.41960545015E+01  0.87686060842E+01  0.51100000000E-03 0.  1.
        -11    1    3    3    0    0 -0.83268283604E+01  0.10007768556E+02 -0.14582994362E+02  0.19548790930E+02  0.51100000000E-03 0. -1.
         12    1    3    3    0    0 -0.12535856537E+02  0.42150690186E+01 -0.11950450849E+02  0.17824920237E+02  0.00000000000E+00 0. -1.
</event>
<event>
 7    1  0.2097247E-008  0.4614232E+02  0.7816164E-02  0.1320468E+00
        -11   -1    0    0    0    0  0.00000000000E+00  0.00000000000E+00  0.45593999997E+02  0.45594000000E+02  0.51100000000E-03 0.  1.
         11   -1    0    0    0    0 -0.00000000000E+00 -0.00000000000E+00 -0.45593999997E+02  0.45594000000E+02  0.51100000000E-03 0. -1.
    9900012    2    1    2    0    0  0.12057309302E+02 -0.31860789722E+01  0.43284913309E+02  0.46142317333E+02  0.99999960928E+01 0.  0.
         12    1    1    2    0    0 -0.12057309302E+02  0.31860789722E+01 -0.43284913309E+02  0.45045682667E+02  0.00000000000E+00 0. -1.
         11    1    3    3    0    0  0.25099989614E+01 -0.84521049002E+00  0.87773233812E+01  0.91681994719E+01  0.51100000000E-03 0. -1.
        -11    1    3    3    0    0  0.81293820660E+01 -0.53473784508E+01  0.22478050133E+02  0.24493755268E+02  0.51100000000E-03 0.  1.
         12    1    3    3    0    0  0.14179282749E+01  0.30065099687E+01  0.12029539794E+02  0.12480362593E+02  0.00000000000E+00 0. -1.
</event>
<event>
 7    1  0.2097247E-008  0.4614232E+02  0.7816164E-02  0.1320468E+00
        -11   -1    0    0    0    0  0.00000000000E+00  0.00000000000E+00  0.45593999997E+02  0.45594000000E+02  0.51100000000E-03 0.  1.
         11   -1    0    0    0    0 -0.00000000000E+00 -0.00000000000E+00 -0.45593999997E+02  0.45594000000E+02  0.51100000000E-03 0. -1.
    9900012    2    1    2    0    0  0.10185440739E+02 -0.30149590245E+02  0.31880598175E+02  0.46142317244E+02  0.99999952862E+01 0.  0.
         12    1    1    2    0    0 -0.10185440739E+02  0.30149590245E+02 -0.31880598175E+02  0.45045682756E+02  0.00000000000E+00 0. -1.
         11    1    3    3    0    0  0.36742811309E+01 -0.10990435722E+02  0.10204741455E+02  0.15441074043E+02  0.51100000000E-03 0. -1.
        -11    1    3    3    0    0  0.49326476974E+01 -0.71342481493E+01  0.47806475976E+01  0.99036913157E+01  0.51100000000E-03 0.  1.
         12    1    3    3    0    0  0.15785119106E+01 -0.12024906374E+02  0.16895209122E+02  0.20797551886E+02  0.00000000000E+00 0. -1.
</event>
<event>
 7    1  0.2097247E-008  0.4614232E+02  0.7816164E-02  0.1320468E+00
        -11   -1    0    0    0    0  0.00000000000E+00  0.00000000000E+00  0.45593999997E+02  0.45594000000E+02  0.51100000000E-03 0.  1.
         11   -1    0    0    0    0 -0.00000000000E+00 -0.00000000000E+00 -0.45593999997E+02  0.45594000000E+02  0.51100000000E-03 0. -1.
    9900012    2    1    2    0    0  0.20671777148E+02 -0.38923514726E+02  0.93140315614E+01  0.46142317044E+02  0.99999934578E+01 0.  0.
         12    1    1    2    0    0 -0.20671777148E+02  0.38923514726E+02 -0.93140315614E+01  0.45045682956E+02  0.00000000000E+00 0. -1.
         11    1    3    3    0    0  0.54037553237E+00  0.40919418777E+00  0.25040117569E+00  0.72259712787E+00  0.51100000000E-03 0. -1.
        -11    1    3    3    0    0  0.82801661761E+01 -0.18598339403E+02  0.66446192760E+01  0.21415189610E+02  0.51100000000E-03 0.  1.
         12    1    3    3    0    0  0.11851235439E+02 -0.20734369511E+02  0.24190111097E+01  0.24004530306E+02  0.00000000000E+00 0. -1.
</event>
<event>
 7    1  0.2097247E-008  0.4614232E+02  0.7816164E-02  0.1320468E+00
        -11   -1    0    0    0    0  0.00000000000E+00  0.00000000000E+00  0.45593999997E+02  0.45594000000E+02  0.51100000000E-03 0.  1.
         11   -1    0    0    0    0 -0.00000000000E+00 -0.00000000000E+00 -0.45593999997E+02  0.45594000000E+02  0.51100000000E-03 0. -1.
    9900012    2    1    2    0    0 -0.20712332911E+02 -0.31389763369E+02  0.24795069983E+02  0.46142317916E+02  0.10000001410E+02 0.  0.
         12    1    1    2    0    0  0.20712332911E+02  0.31389763369E+02 -0.24795069983E+02  0.45045682084E+02  0.00000000000E+00 0. -1.
         11    1    3    3    0    0 -0.12956311738E+02 -0.13595263368E+02  0.11204402195E+02  0.21868603721E+02  0.51100000000E-03 0. -1.
        -11    1    3    3    0    0 -0.69428022491E+00  0.41869635825E-01  0.13471828758E+01  0.15161398547E+01  0.51100000000E-03 0.  1.
        -12    1    3    3    0    0 -0.70617409474E+01 -0.17836369637E+02  0.12243484912E+02  0.22757574340E+02  0.00000000000E+00 0.  1.
</event>
<event>
 7    1  0.2097247E-008  0.4614232E+02  0.7816164E-02  0.1320468E+00
        -11   -1    0    0    0    0  0.00000000000E+00  0.00000000000E+00  0.45593999997E+02  0.45594000000E+02  0.51100000000E-03 0.  1.
         11   -1    0    0    0    0 -0.00000000000E+00 -0.00000000000E+00 -0.45593999997E+02  0.45594000000E+02  0.51100000000E-03 0. -1.
    9900012    2    1    2    0    0  0.15546606882E+02  0.26936902232E+02  0.32585578572E+02  0.46142316319E+02  0.99999868540E+01 0.  0.
         12    1    1    2    0    0 -0.15546606882E+02 -0.26936902232E+02 -0.32585578572E+02  0.45045683681E+02  0.00000000000E+00 0. -1.
         11    1    3    3    0    0  0.95881861658E+01  0.15337906987E+02  0.12757956189E+02  0.22134817620E+02  0.51100000000E-03 0. -1.
        -11    1    3    3    0    0  0.55085724026E+01  0.78602993855E+01  0.12409820356E+02  0.15688604714E+02  0.51100000000E-03 0.  1.
         12    1    3    3    0    0  0.44984831410E+00  0.37386958589E+01  0.74178020265E+01  0.83188939851E+01  0.00000000000E+00 0. -1.
</event>
<event>
 7    1  0.2097247E-008  0.4614232E+02  0.7816164E-02  0.1320468E+00
        -11   -1    0    0    0    0  0.00000000000E+00  0.00000000000E+00  0.45593999997E+02  0.45594000000E+02  0.51100000000E-03 0.  1.
         11   -1    0    0    0    0 -0.00000000000E+00 -0.00000000000E+00 -0.45593999997E+02  0.45594000000E+02  0.51100000000E-03 0. -1.
    9900012    2    1    2    0    0 -0.14046835357E+02 -0.39156654805E+02  0.17278785158E+02  0.46142316349E+02  0.99999871192E+01 0.  0.
         12    1    1    2    0    0  0.14046835357E+02  0.39156654805E+02 -0.17278785158E+02  0.45045683651E+02  0.00000000000E+00 0. -1.
         11    1    3    3    0    0 -0.42044389236E+01 -0.20598271977E+02  0.51697670383E+01  0.21649309611E+02  0.51100000000E-03 0. -1.
        -11    1    3    3    0    0 -0.30736953650E+01 -0.93668231008E+01  0.51213240501E+01  0.11109137612E+02  0.51100000000E-03 0.  1.
        -12    1    3    3    0    0 -0.67687010687E+01 -0.91915597271E+01  0.69876940692E+01  0.13383869126E+02  0.00000000000E+00 0.  1.
</event>
<event>
 7    1  0.2097247E-008  0.4614232E+02  0.7816164E-02  0.1320468E+00
        -11   -1    0    0    0    0  0.00000000000E+00  0.00000000000E+00  0.45593999997E+02  0.45594000000E+02  0.51100000000E-03 0. -1.
         11   -1    0    0    0    0 -0.00000000000E+00 -0.00000000000E+00 -0.45593999997E+02  0.45594000000E+02  0.51100000000E-03 0.  1.
    9900012    2    1    2    0    0 -0.13257322384E+02  0.42347992704E+02 -0.77462512022E+01  0.46142317737E+02  0.99999997812E+01 0.  0.
         12    1    1    2    0    0  0.13257322384E+02 -0.42347992704E+02  0.77462512022E+01  0.45045682263E+02  0.00000000000E+00 0. -1.
         11    1    3    3    0    0 -0.24797107555E+01  0.13615663746E+01 -0.11402525344E+01  0.30500827081E+01  0.51100000000E-03 0. -1.
        -11    1    3    3    0    0 -0.27968462099E+01  0.12125504772E+02 -0.38292345800E+01  0.13019725513E+02  0.51100000000E-03 0.  1.
         12    1    3    3    0    0 -0.79807654182E+01  0.28860921558E+02 -0.27767640878E+01  0.30072509516E+02  0.00000000000E+00 0. -1.
</event>
<event>
 7    1  0.2097247E-008  0.4614232E+02  0.7816164E-02  0.1320468E+00
        -11   -1    0    0    0    0  0.00000000000E+00  0.00000000000E+00  0.45593999997E+02  0.45594000000E+02  0.51100000000E-03 0. -1.
         11   -1    0    0    0    0 -0.00000000000E+00 -0.00000000000E+00 -0.45593999997E+02  0.45594000000E+02  0.51100000000E-03 0.  1.
    9900012    2    1    2    0    0 -0.27773357937E+02  0.29720801373E+02 -0.19350144756E+02  0.46142317105E+02  0.99999940205E+01 0.  0.
         12    1    1    2    0    0  0.27773357937E+02 -0.29720801373E+02  0.19350144756E+02  0.45045682895E+02  0.00000000000E+00 0. -1.
         11    1    3    3    0    0 -0.89926024684E+00  0.38090068682E+01 -0.96943123857E+00  0.40319969620E+01  0.51100000000E-03 0. -1.
        -11    1    3    3    0    0 -0.12264577487E+02  0.13424120542E+02 -0.55865574998E+01  0.19022000374E+02  0.51100000000E-03 0.  1.
         12    1    3    3    0    0 -0.14609520204E+02  0.12487673962E+02 -0.12794156018E+02  0.23088319769E+02  0.00000000000E+00 0. -1.
</event>
<event>
 7    1  0.2097247E-008  0.4614232E+02  0.7816164E-02  0.1320468E+00
        -11   -1    0    0    0    0  0.00000000000E+00  0.00000000000E+00  0.45593999997E+02  0.45594000000E+02  0.51100000000E-03 0. -1.
         11   -1    0    0    0    0 -0.00000000000E+00 -0.00000000000E+00 -0.45593999997E+02  0.45594000000E+02  0.51100000000E-03 0.  1.
    9900012    2    1    2    0    0 -0.27009079679E+02  0.32792777748E+02 -0.14975212491E+02  0.46142316004E+02  0.99999839787E+01 0.  0.
         12    1    1    2    0    0  0.27009079679E+02 -0.32792777748E+02  0.14975212491E+02  0.45045683996E+02  0.00000000000E+00 0. -1.
         11    1    3    3    0    0 -0.43092884586E+01  0.24466342279E+01 -0.31771595180E+01  0.58864530005E+01  0.51100000000E-03 0. -1.
        -11    1    3    3    0    0 -0.65052928608E+00  0.13188277002E+01  0.81745619901E+00  0.16824772668E+01  0.51100000000E-03 0.  1.
        -12    1    3    3    0    0 -0.22049261934E+02  0.29027315820E+02 -0.12615509172E+02  0.38573385737E+02  0.00000000000E+00 0.  1.
</event>
<event>
 7    1  0.2097247E-008  0.4614232E+02  0.7816164E-02  0.1320468E+00
        -11   -1    0    0    0    0  0.00000000000E+00  0.00000000000E+00  0.45593999997E+02  0.45594000000E+02  0.51100000000E-03 0.  1.
         11   -1    0    0    0    0 -0.00000000000E+00 -0.00000000000E+00 -0.45593999997E+02  0.45594000000E+02  0.51100000000E-03 0. -1.
    9900012    2    1    2    0    0  0.31778736522E+02  0.10397080506E+02  0.30184865581E+02  0.46142317764E+02  0.10000000024E+02 0.  0.
         12    1    1    2    0    0 -0.31778736522E+02 -0.10397080506E+02 -0.30184865581E+02  0.45045682236E+02  0.00000000000E+00 0. -1.
         11    1    3    3    0    0  0.93281097543E+01  0.15744050049E+01  0.14148030525E+02  0.17019375744E+02  0.51100000000E-03 0.  1.
        -11    1    3    3    0    0  0.29140108969E+01  0.16592709302E+01  0.11794136426E+01  0.35546668379E+01  0.51100000000E-03 0. -1.
         12    1    3    3    0    0  0.19536615871E+02  0.71634045708E+01  0.14857421413E+02  0.25568275182E+02  0.00000000000E+00 0. -1.
</event>
<event>
 7    1  0.2097247E-008  0.4614232E+02  0.7816164E-02  0.1320468E+00
        -11   -1    0    0    0    0  0.00000000000E+00  0.00000000000E+00  0.45593999997E+02  0.45594000000E+02  0.51100000000E-03 0. -1.
         11   -1    0    0    0    0 -0.00000000000E+00 -0.00000000000E+00 -0.45593999997E+02  0.45594000000E+02  0.51100000000E-03 0.  1.
    9900012    2    1    2    0    0 -0.19063125280E+02  0.29491209523E+02 -0.28213104520E+02  0.46142318173E+02  0.10000003758E+02 0.  0.
         12    1    1    2    0    0  0.19063125280E+02 -0.29491209523E+02  0.28213104520E+02  0.45045681827E+02  0.00000000000E+00 0. -1.
         11    1    3    3    0    0 -0.11821004870E+02  0.13733073188E+02 -0.10460217664E+02  0.20922466612E+02  0.51100000000E-03 0. -1.
        -11    1    3    3    0    0 -0.75423259823E+01  0.13177871448E+02 -0.13981273420E+02  0.20640227320E+02  0.51100000000E-03 0.  1.
         12    1    3    3    0    0  0.30020557207E+00  0.25802648875E+01 -0.37716134357E+01  0.45796242405E+01  0.00000000000E+00 0. -1.
</event>
<event>
 7    1  0.2097247E-008  0.4614232E+02  0.7816164E-02  0.1320468E+00
        -11   -1    0    0    0    0  0.00000000000E+00  0.00000000000E+00  0.45593999997E+02  0.45594000000E+02  0.51100000000E-03 0. -1.
         11   -1    0    0    0    0 -0.00000000000E+00 -0.00000000000E+00 -0.45593999997E+02  0.45594000000E+02  0.51100000000E-03 0.  1.
    9900012    2    1    2    0    0 -0.62844516862E+01  0.35740836866E+02 -0.26687295368E+02  0.46142317777E+02  0.10000000142E+02 0.  0.
         12    1    1    2    0    0  0.62844516862E+01 -0.35740836866E+02  0.26687295368E+02  0.45045682223E+02  0.00000000000E+00 0. -1.
         11    1    3    3    0    0 -0.27511798049E+00 -0.19227335582E+00 -0.12465461952E+01  0.12909440827E+01  0.51100000000E-03 0. -1.
        -11    1    3    3    0    0  0.49020836534E+00  0.13564447406E+02 -0.10718925319E+02  0.17295372154E+02  0.51100000000E-03 0.  1.
         12    1    3    3    0    0 -0.64995420710E+01  0.22368662816E+02 -0.14721823854E+02  0.27556001540E+02  0.00000000000E+00 0. -1.
</event>
<event>
 7    1  0.2097247E-008  0.4614232E+02  0.7816164E-02  0.1320468E+00
        -11   -1    0    0    0    0  0.00000000000E+00  0.00000000000E+00  0.45593999997E+02  0.45594000000E+02  0.51100000000E-03 0.  1.
         11   -1    0    0    0    0 -0.00000000000E+00 -0.00000000000E+00 -0.45593999997E+02  0.45594000000E+02  0.51100000000E-03 0. -1.
    9900012    2    1    2    0    0 -0.32837919788E+02  0.29121778525E+02 -0.10134425291E+02  0.46142317228E+02  0.99999951344E+01 0.  0.
         12    1    1    2    0    0  0.32837919788E+02 -0.29121778525E+02  0.10134425291E+02  0.45045682772E+02  0.00000000000E+00 0. -1.
         11    1    3    3    0    0 -0.70178229781E+01  0.44843125970E+01  0.59964573738E+00  0.83497589241E+01  0.51100000000E-03 0. -1.
        -11    1    3    3    0    0 -0.20516000198E+02  0.19660444745E+02 -0.11107925497E+02  0.30509430686E+02  0.51100000000E-03 0.  1.
        -12    1    3    3    0    0 -0.53040966122E+01  0.49770211831E+01  0.37385446840E+00  0.72831276174E+01  0.00000000000E+00 0.  1.
</event>
<event>
 7    1  0.2097247E-008  0.4614232E+02  0.7816164E-02  0.1320468E+00
        -11   -1    0    0    0    0  0.00000000000E+00  0.00000000000E+00  0.45593999997E+02  0.45594000000E+02  0.51100000000E-03 0. -1.
         11   -1    0    0    0    0 -0.00000000000E+00 -0.00000000000E+00 -0.45593999997E+02  0.45594000000E+02  0.51100000000E-03 0.  1.
    9900012    2    1    2    0    0  0.32686042448E+02  0.29849732204E+02 -0.83504166187E+01  0.46142319394E+02  0.10000014890E+02 0.  0.
         12    1    1    2    0    0 -0.32686042448E+02 -0.29849732204E+02  0.83504166187E+01  0.45045680606E+02  0.00000000000E+00 0. -1.
         11    1    3    3    0    0  0.46712903570E+01  0.56667519381E+01  0.20582995342E+01  0.76269016226E+01  0.51100000000E-03 0.  1.
        -11    1    3    3    0    0  0.16457748541E+01  0.84508807118E+00 -0.79244211764E+00  0.20126384398E+01  0.51100000000E-03 0. -1.
        -12    1    3    3    0    0  0.26368977237E+02  0.23337892195E+02 -0.96162740352E+01  0.36502779332E+02  0.00000000000E+00 0.  1.
</event>
<event>
 7    1  0.2097247E-008  0.4614232E+02  0.7816164E-02  0.1320468E+00
        -11   -1    0    0    0    0  0.00000000000E+00  0.00000000000E+00  0.45593999997E+02  0.45594000000E+02  0.51100000000E-03 0.  1.
         11   -1    0    0    0    0 -0.00000000000E+00 -0.00000000000E+00 -0.45593999997E+02  0.45594000000E+02  0.51100000000E-03 0. -1.
    9900012    2    1    2    0    0  0.12503373517E+02  0.30835582155E+02  0.30363562819E+02  0.46142318484E+02  0.10000006593E+02 0.  0.
         12    1    1    2    0    0 -0.12503373517E+02 -0.30835582155E+02 -0.30363562819E+02  0.45045681516E+02  0.00000000000E+00 0. -1.
         11    1    3    3    0    0  0.24361769450E+01  0.15639097971E+01  0.22537704198E+01  0.36688217901E+01  0.51100000000E-03 0. -1.
        -11    1    3    3    0    0  0.10764462611E+02  0.22589344068E+02  0.23479937972E+02  0.34314131319E+02  0.51100000000E-03 0.  1.
        -12    1    3    3    0    0 -0.69726603941E+00  0.66823282909E+01  0.46298544268E+01  0.81593653754E+01  0.00000000000E+00 0.  1.
</event>
<event>
 7    1  0.2097247E-008  0.4614232E+02  0.7816164E-02  0.1320468E+00
        -11   -1    0    0    0    0  0.00000000000E+00  0.00000000000E+00  0.45593999997E+02  0.45594000000E+02  0.51100000000E-03 0.  1.
         11   -1    0    0    0    0 -0.00000000000E+00 -0.00000000000E+00 -0.45593999997E+02  0.45594000000E+02  0.51100000000E-03 0. -1.
    9900012    2    1    2    0    0 -0.16410913265E+02  0.18803446150E+02  0.37499678428E+02  0.46142317149E+02  0.99999944197E+01 0.  0.
         12    1    1    2    0    0  0.16410913265E+02 -0.18803446150E+02 -0.37499678428E+02  0.45045682851E+02  0.00000000000E+00 0. -1.
         11    1    3    3    0    0 -0.75452705765E+01  0.42753167713E+01  0.15869385574E+02  0.18084436411E+02  0.51100000000E-03 0.  1.
        -11    1    3    3    0    0 -0.83630522243E+00  0.10676158284E+01  0.12655181017E-01  0.13562339020E+01  0.51100000000E-03 0. -1.
         12    1    3    3    0    0 -0.80293374660E+01  0.13460513550E+02  0.21617637673E+02  0.26701646836E+02  0.00000000000E+00 0. -1.
</event>
<event>
 7    1  0.2097247E-008  0.4614232E+02  0.7816164E-02  0.1320468E+00
        -11   -1    0    0    0    0  0.00000000000E+00  0.00000000000E+00  0.45593999997E+02  0.45594000000E+02  0.51100000000E-03 0. -1.
         11   -1    0    0    0    0 -0.00000000000E+00 -0.00000000000E+00 -0.45593999997E+02  0.45594000000E+02  0.51100000000E-03 0.  1.
    9900012    2    1    2    0    0  0.43870314978E+02  0.69953294805E+00 -0.10199004925E+02  0.46142316699E+02  0.99999903107E+01 0.  0.
         12    1    1    2    0    0 -0.43870314978E+02 -0.69953294805E+00  0.10199004925E+02  0.45045683301E+02  0.00000000000E+00 0. -1.
         11    1    3    3    0    0  0.10586731529E+02 -0.41022030433E+00  0.10363254093E+01  0.10645240052E+02  0.51100000000E-03 0. -1.
        -11    1    3    3    0    0  0.16998890707E+02 -0.10106126573E+01 -0.36882759155E+01  0.17423748239E+02  0.51100000000E-03 0.  1.
        -12    1    3    3    0    0  0.16284692743E+02  0.21203659096E+01 -0.75470544185E+01  0.18073328407E+02  0.00000000000E+00 0.  1.
</event>
<event>
 7    1  0.2097247E-008  0.4614232E+02  0.7816164E-02  0.1320468E+00
        -11   -1    0    0    0    0  0.00000000000E+00  0.00000000000E+00  0.45593999997E+02  0.45594000000E+02  0.51100000000E-03 0.  1.
         11   -1    0    0    0    0 -0.00000000000E+00 -0.00000000000E+00 -0.45593999997E+02  0.45594000000E+02  0.51100000000E-03 0. -1.
    9900012    2    1    2    0    0  0.40783588711E+01 -0.29535906093E+02  0.33765524913E+02  0.46142318382E+02  0.10000005661E+02 0.  0.
         12    1    1    2    0    0 -0.40783588711E+01  0.29535906093E+02 -0.33765524913E+02  0.45045681618E+02  0.00000000000E+00 0. -1.
         11    1    3    3    0    0  0.29771747927E+01 -0.55289511248E+01  0.84130255194E+01  0.10498184078E+02  0.51100000000E-03 0. -1.
        -11    1    3    3    0    0 -0.24081373836E+01 -0.14100063170E+02  0.17013575888E+02  0.22227745541E+02  0.51100000000E-03 0.  1.
        -12    1    3    3    0    0  0.35093214620E+01 -0.99068917978E+01  0.83389235055E+01  0.13416388763E+02  0.00000000000E+00 0.  1.
</event>
<event>
 7    1  0.2097247E-008  0.4614232E+02  0.7816164E-02  0.1320468E+00
        -11   -1    0    0    0    0  0.00000000000E+00  0.00000000000E+00  0.45593999997E+02  0.45594000000E+02  0.51100000000E-03 0.  1.
         11   -1    0    0    0    0 -0.00000000000E+00 -0.00000000000E+00 -0.45593999997E+02  0.45594000000E+02  0.51100000000E-03 0. -1.
    9900012    2    1    2    0    0  0.65873727400E+01 -0.39954142340E+02  0.19732879536E+02  0.46142317582E+02  0.99999983647E+01 0.  0.
         12    1    1    2    0    0 -0.65873727400E+01  0.39954142340E+02 -0.19732879536E+02  0.45045682418E+02  0.00000000000E+00 0. -1.
         11    1    3    3    0    0  0.51632707520E+01 -0.19062557259E+02  0.61925453385E+01  0.20697537828E+02  0.51100000000E-03 0.  1.
        -11    1    3    3    0    0  0.22744539144E+00 -0.18202544163E+02  0.97649049209E+01  0.20657630885E+02  0.51100000000E-03 0. -1.
         12    1    3    3    0    0  0.11966565966E+01 -0.26890409186E+01  0.37754292768E+01  0.47871488692E+01  0.00000000000E+00 0. -1.
</event>
<event>
 7    1  0.2097247E-008  0.4614232E+02  0.7816164E-02  0.1320468E+00
        -11   -1    0    0    0    0  0.00000000000E+00  0.00000000000E+00  0.45593999997E+02  0.45594000000E+02  0.51100000000E-03 0.  1.
         11   -1    0    0    0    0 -0.00000000000E+00 -0.00000000000E+00 -0.45593999997E+02  0.45594000000E+02  0.51100000000E-03 0. -1.
    9900012    2    1    2    0    0  0.89664487006E+01  0.59895606702E+00  0.44140203038E+02  0.46142317911E+02  0.10000001363E+02 0.  0.
         12    1    1    2    0    0 -0.89664487006E+01 -0.59895606702E+00 -0.44140203038E+02  0.45045682089E+02  0.00000000000E+00 0. -1.
         11    1    3    3    0    0  0.79042185223E+01 -0.35395792795E+01  0.27569638686E+02  0.28897928463E+02  0.51100000000E-03 0.  1.
        -11    1    3    3    0    0  0.77616504247E+00  0.12048098864E+01  0.26254497295E+01  0.29911512129E+01  0.51100000000E-03 0. -1.
         12    1    3    3    0    0  0.28606513581E+00  0.29337254601E+01  0.13945114623E+02  0.14253238235E+02  0.00000000000E+00 0. -1.
</event>
<event>
 7    1  0.2097247E-008  0.4614232E+02  0.7816164E-02  0.1320468E+00
        -11   -1    0    0    0    0  0.00000000000E+00  0.00000000000E+00  0.45593999997E+02  0.45594000000E+02  0.51100000000E-03 0. -1.
         11   -1    0    0    0    0 -0.00000000000E+00 -0.00000000000E+00 -0.45593999997E+02  0.45594000000E+02  0.51100000000E-03 0.  1.
    9900012    2    1    2    0    0 -0.29143281787E+02  0.31797465847E+02  0.12988601766E+02  0.46142317816E+02  0.10000000499E+02 0.  0.
         12    1    1    2    0    0  0.29143281787E+02 -0.31797465847E+02 -0.12988601766E+02  0.45045682184E+02  0.00000000000E+00 0. -1.
         11    1    3    3    0    0  0.41051307038E+00 -0.97433640732E-01  0.16005433416E+00  0.45125596539E+00  0.51100000000E-03 0. -1.
        -11    1    3    3    0    0 -0.19601568075E+02  0.24458692958E+02  0.78891341715E+01  0.32321626977E+02  0.51100000000E-03 0.  1.
        -12    1    3    3    0    0 -0.99522267823E+01  0.74362065305E+01  0.49394132601E+01  0.13369434874E+02  0.00000000000E+00 0.  1.
</event>
<event>
 7    1  0.2097247E-008  0.4614232E+02  0.7816164E-02  0.1320468E+00
        -11   -1    0    0    0    0  0.00000000000E+00  0.00000000000E+00  0.45593999997E+02  0.45594000000E+02  0.51100000000E-03 0.  1.
         11   -1    0    0    0    0 -0.00000000000E+00 -0.00000000000E+00 -0.45593999997E+02  0.45594000000E+02  0.51100000000E-03 0. -1.
    9900012    2    1    2    0    0 -0.19542243939E+02 -0.39350757535E+02  0.99364060309E+01  0.46142316727E+02  0.99999905694E+01 0.  0.
         12    1    1    2    0    0  0.19542243939E+02  0.39350757535E+02 -0.99364060309E+01  0.45045683273E+02  0.00000000000E+00 0. -1.
         11    1    3    3    0    0  0.53777886907E+00 -0.47161700346E+01  0.28012640023E+00  0.47549907433E+01  0.51100000000E-03 0. -1.
        -11    1    3    3    0    0 -0.54497571289E+01 -0.13312332942E+02  0.36246171194E+01  0.14834281602E+02  0.51100000000E-03 0.  1.
         12    1    3    3    0    0 -0.14630265679E+02 -0.21322254558E+02  0.60316625113E+01  0.26553044381E+02  0.00000000000E+00 0. -1.
</event>
<event>
 7    1  0.2097247E-008  0.4614232E+02  0.7816164E-02  0.1320468E+00
        -11   -1    0    0    0    0  0.00000000000E+00  0.00000000000E+00  0.45593999997E+02  0.45594000000E+02  0.51100000000E-03 0.  1.
         11   -1    0    0    0    0 -0.00000000000E+00 -0.00000000000E+00 -0.45593999997E+02  0.45594000000E+02  0.51100000000E-03 0. -1.
    9900012    2    1    2    0    0 -0.34338672541E+02 -0.17241963487E+02  0.23509226231E+02  0.46142318134E+02  0.10000003403E+02 0.  0.
         12    1    1    2    0    0  0.34338672541E+02  0.17241963487E+02 -0.23509226231E+02  0.45045681866E+02  0.00000000000E+00 0. -1.
         11    1    3    3    0    0 -0.13745359354E+02 -0.61958349751E+01  0.39873276477E+01  0.15595578119E+02  0.51100000000E-03 0. -1.
        -11    1    3    3    0    0 -0.57079816770E+01 -0.23386754847E+01  0.62929908324E+01  0.88120481005E+01  0.51100000000E-03 0.  1.
         12    1    3    3    0    0 -0.14885331510E+02 -0.87074530274E+01  0.13228907750E+02  0.21734691915E+02  0.00000000000E+00 0. -1.
</event>
<event>
 7    1  0.2097247E-008  0.4614232E+02  0.7816164E-02  0.1320468E+00
        -11   -1    0    0    0    0  0.00000000000E+00  0.00000000000E+00  0.45593999997E+02  0.45594000000E+02  0.51100000000E-03 0.  1.
         11   -1    0    0    0    0 -0.00000000000E+00 -0.00000000000E+00 -0.45593999997E+02  0.45594000000E+02  0.51100000000E-03 0. -1.
    9900012    2    1    2    0    0 -0.33927052553E+02 -0.75681219797E+01  0.28649470409E+02  0.46142317411E+02  0.99999968061E+01 0.  0.
         12    1    1    2    0    0  0.33927052553E+02  0.75681219797E+01 -0.28649470409E+02  0.45045682589E+02  0.00000000000E+00 0. -1.
         11    1    3    3    0    0 -0.89299316839E+01 -0.12067144641E+01  0.36194450097E+01  0.97108301455E+01  0.51100000000E-03 0. -1.
        -11    1    3    3    0    0 -0.13361318417E+02 -0.19627848118E+01  0.93930618366E+01  0.16450135713E+02  0.51100000000E-03 0.  1.
         12    1    3    3    0    0 -0.11635802452E+02 -0.43986227037E+01  0.15636963563E+02  0.19981351552E+02  0.00000000000E+00 0. -1.
</event>
<event>
 7    1  0.2097247E-008  0.4614232E+02  0.7816164E-02  0.1320468E+00
        -11   -1    0    0    0    0  0.00000000000E+00  0.00000000000E+00  0.45593999997E+02  0.45594000000E+02  0.51100000000E-03 0.  1.
         11   -1    0    0    0    0 -0.00000000000E+00 -0.00000000000E+00 -0.45593999997E+02  0.45594000000E+02  0.51100000000E-03 0. -1.
    9900012    2    1    2    0    0  0.28826111681E+02 -0.31344289162E+02  0.14686875408E+02  0.46142317776E+02  0.10000000139E+02 0.  0.
         12    1    1    2    0    0 -0.28826111681E+02  0.31344289162E+02 -0.14686875408E+02  0.45045682224E+02  0.00000000000E+00 0. -1.
         11    1    3    3    0    0  0.77854489515E+01 -0.75072103459E+01  0.15971466510E+01  0.10932625496E+02  0.51100000000E-03 0. -1.
        -11    1    3    3    0    0  0.34144512331E+00 -0.22090439908E+01 -0.56499272085E+00  0.23055752344E+01  0.51100000000E-03 0.  1.
        -12    1    3    3    0    0  0.20699217607E+02 -0.21628034825E+02  0.13654721478E+02  0.32904117046E+02  0.00000000000E+00 0.  1.
</event>
<event>
 7    1  0.2097247E-008  0.4614232E+02  0.7816164E-02  0.1320468E+00
        -11   -1    0    0    0    0  0.00000000000E+00  0.00000000000E+00  0.45593999997E+02  0.45594000000E+02  0.51100000000E-03 0.  1.
         11   -1    0    0    0    0 -0.00000000000E+00 -0.00000000000E+00 -0.45593999997E+02  0.45594000000E+02  0.51100000000E-03 0. -1.
    9900012    2    1    2    0    0 -0.44206110340E+02 -0.13073380256E+01  0.85571119074E+01  0.46142317762E+02  0.10000000009E+02 0.  0.
         12    1    1    2    0    0  0.44206110340E+02  0.13073380256E+01 -0.85571119074E+01  0.45045682238E+02  0.00000000000E+00 0. -1.
         11    1    3    3    0    0 -0.29341860277E+02  0.34545724945E+01  0.75492506320E+01  0.30493770200E+02  0.51100000000E-03 0. -1.
        -11    1    3    3    0    0 -0.53546819452E+01 -0.17630186971E+01  0.13297786477E+00  0.56390191553E+01  0.51100000000E-03 0.  1.
         12    1    3    3    0    0 -0.95095681175E+01 -0.29988918229E+01  0.87488341069E+00  0.10009528407E+02  0.00000000000E+00 0. -1.
</event>
<event>
 7    1  0.2097247E-008  0.4614232E+02  0.7816164E-02  0.1320468E+00
        -11   -1    0    0    0    0  0.00000000000E+00  0.00000000000E+00  0.45593999997E+02  0.45594000000E+02  0.51100000000E-03 0.  1.
         11   -1    0    0    0    0 -0.00000000000E+00 -0.00000000000E+00 -0.45593999997E+02  0.45594000000E+02  0.51100000000E-03 0. -1.
    9900012    2    1    2    0    0 -0.69100057242E+01 -0.44071583156E+02 -0.62498687684E+01  0.46142317847E+02  0.10000000783E+02 0.  0.
         12    1    1    2    0    0  0.69100057242E+01  0.44071583156E+02  0.62498687684E+01  0.45045682153E+02  0.00000000000E+00 0. -1.
         11    1    3    3    0    0 -0.14889592811E+01 -0.51034405064E+01  0.10354213218E+01  0.54161058260E+01  0.51100000000E-03 0. -1.
        -11    1    3    3    0    0 -0.59916244685E+01 -0.22742733137E+02 -0.17932335209E+01  0.23587012550E+02  0.51100000000E-03 0.  1.
        -12    1    3    3    0    0  0.57057802544E+00 -0.16225409512E+02 -0.54920565693E+01  0.17139199471E+02  0.00000000000E+00 0.  1.
</event>
<event>
 7    1  0.2097247E-008  0.4614232E+02  0.7816164E-02  0.1320468E+00
        -11   -1    0    0    0    0  0.00000000000E+00  0.00000000000E+00  0.45593999997E+02  0.45594000000E+02  0.51100000000E-03 0.  1.
         11   -1    0    0    0    0 -0.00000000000E+00 -0.00000000000E+00 -0.45593999997E+02  0.45594000000E+02  0.51100000000E-03 0. -1.
    9900012    2    1    2    0    0 -0.14798286811E+00  0.45001735959E+02 -0.19837798203E+01  0.46142317403E+02  0.99999967318E+01 0.  0.
         12    1    1    2    0    0  0.14798286811E+00 -0.45001735959E+02  0.19837798203E+01  0.45045682597E+02  0.00000000000E+00 0. -1.
         11    1    3    3    0    0  0.84223271562E+00  0.14368113627E+02  0.77246218021E+00  0.14413491708E+02  0.51100000000E-03 0.  1.
        -11    1    3    3    0    0 -0.59290716565E+00  0.34392713243E+01 -0.28899900640E+01  0.45312436461E+01  0.51100000000E-03 0. -1.
         12    1    3    3    0    0 -0.39730841809E+00  0.27194351008E+02  0.13374806352E+00  0.27197582049E+02  0.00000000000E+00 0. -1.
</event>
<event>
 7    1  0.2097247E-008  0.4614232E+02  0.7816164E-02  0.1320468E+00
        -11   -1    0    0    0    0  0.00000000000E+00  0.00000000000E+00  0.45593999997E+02  0.45594000000E+02  0.51100000000E-03 0. -1.
         11   -1    0    0    0    0 -0.00000000000E+00 -0.00000000000E+00 -0.45593999997E+02  0.45594000000E+02  0.51100000000E-03 0.  1.
    9900012    2    1    2    0    0 -0.17135681912E+02  0.34677253307E+02 -0.23086135231E+02  0.46142321724E+02  0.10000036133E+02 0.  0.
         12    1    1    2    0    0  0.17135681912E+02 -0.34677253307E+02  0.23086135231E+02  0.45045678276E+02  0.00000000000E+00 0. -1.
         11    1    3    3    0    0 -0.24612261309E+01  0.10656772921E+02 -0.33462638036E+01  0.11437741248E+02  0.51100000000E-03 0. -1.
        -11    1    3    3    0    0 -0.20130706972E+01  0.97948868200E+00 -0.18539910525E+01  0.29067395470E+01  0.51100000000E-03 0.  1.
        -12    1    3    3    0    0 -0.12661385084E+02  0.23040991704E+02 -0.17885880375E+02  0.31797840929E+02  0.00000000000E+00 0.  1.
</event>
<event>
 7    1  0.2097247E-008  0.4614232E+02  0.7816164E-02  0.1320468E+00
        -11   -1    0    0    0    0  0.00000000000E+00  0.00000000000E+00  0.45593999997E+02  0.45594000000E+02  0.51100000000E-03 0. -1.
         11   -1    0    0    0    0 -0.00000000000E+00 -0.00000000000E+00 -0.45593999997E+02  0.45594000000E+02  0.51100000000E-03 0.  1.
    9900012    2    1    2    0    0 -0.40374754338E+01 -0.14897443863E+02 -0.42318770641E+02  0.46142318852E+02  0.10000009944E+02 0.  0.
         12    1    1    2    0    0  0.40374754338E+01  0.14897443863E+02  0.42318770641E+02  0.45045681148E+02  0.00000000000E+00 0. -1.
         11    1    3    3    0    0  0.15005403754E+01 -0.10089105808E+01 -0.10844107205E+02  0.10993824781E+02  0.51100000000E-03 0. -1.
        -11    1    3    3    0    0 -0.44815662857E+01 -0.13865590301E+02 -0.29722431402E+02  0.33102295381E+02  0.51100000000E-03 0.  1.
         12    1    3    3    0    0 -0.10564495235E+01 -0.22942981034E-01 -0.17522320338E+01  0.20461986894E+01  0.00000000000E+00 0. -1.
</event>
<event>
 7    1  0.2097247E-008  0.4614231E+02  0.7816164E-02  0.1320468E+00
        -11   -1    0    0    0    0  0.00000000000E+00  0.00000000000E+00  0.45593999997E+02  0.45594000000E+02  0.51100000000E-03 0. -1.
         11   -1    0    0    0    0 -0.00000000000E+00 -0.00000000000E+00 -0.45593999997E+02  0.45594000000E+02  0.51100000000E-03 0.  1.
    9900012    2    1    2    0    0 -0.28133599414E+01 -0.44955188609E+02  0.48022364218E+00  0.46142305514E+02  0.99998883192E+01 0.  0.
         12    1    1    2    0    0  0.28133599414E+01  0.44955188609E+02 -0.48022364218E+00  0.45045694486E+02  0.00000000000E+00 0. -1.
         11    1    3    3    0    0 -0.20756656052E+01 -0.14681204610E+02 -0.31922523737E+01  0.15166958561E+02  0.51100000000E-03 0. -1.
        -11    1    3    3    0    0 -0.60987994320E-01 -0.17504103596E+02 -0.53724472137E+00  0.17512452552E+02  0.51100000000E-03 0.  1.
         12    1    3    3    0    0 -0.67670634184E+00 -0.12769880402E+02  0.42097207373E+01  0.13462894401E+02  0.00000000000E+00 0. -1.
</event>
<event>
 7    1  0.2097247E-008  0.4614232E+02  0.7816164E-02  0.1320468E+00
        -11   -1    0    0    0    0  0.00000000000E+00  0.00000000000E+00  0.45593999997E+02  0.45594000000E+02  0.51100000000E-03 0.  1.
         11   -1    0    0    0    0 -0.00000000000E+00 -0.00000000000E+00 -0.45593999997E+02  0.45594000000E+02  0.51100000000E-03 0. -1.
    9900012    2    1    2    0    0  0.63355663249E+00  0.77162896093E+01  0.44375341525E+02  0.46142318134E+02  0.10000003401E+02 0.  0.
         12    1    1    2    0    0 -0.63355663249E+00 -0.77162896093E+01 -0.44375341525E+02  0.45045681866E+02  0.00000000000E+00 0. -1.
         11    1    3    3    0    0  0.91201896876E+00  0.11197870664E+01  0.82039821528E+00  0.16609500794E+01  0.51100000000E-03 0. -1.
        -11    1    3    3    0    0  0.24777620427E+01  0.19059647534E+01  0.23290075611E+02  0.23498928244E+02  0.51100000000E-03 0.  1.
        -12    1    3    3    0    0 -0.27562243790E+01  0.46905377895E+01  0.20264867698E+02  0.20982439810E+02  0.00000000000E+00 0.  1.
</event>
<event>
 7    1  0.2097247E-008  0.4614232E+02  0.7816164E-02  0.1320468E+00
        -11   -1    0    0    0    0  0.00000000000E+00  0.00000000000E+00  0.45593999997E+02  0.45594000000E+02  0.51100000000E-03 0. -1.
         11   -1    0    0    0    0 -0.00000000000E+00 -0.00000000000E+00 -0.45593999997E+02  0.45594000000E+02  0.51100000000E-03 0.  1.
    9900012    2    1    2    0    0 -0.48586664258E+00 -0.81526583253E+01 -0.44299115468E+02  0.46142317239E+02  0.99999952402E+01 0.  0.
         12    1    1    2    0    0  0.48586664258E+00  0.81526583253E+01  0.44299115468E+02  0.45045682761E+02  0.00000000000E+00 0. -1.
         11    1    3    3    0    0 -0.17365559027E+01 -0.80534708031E+01 -0.26883404714E+02  0.28117458414E+02  0.51100000000E-03 0. -1.
        -11    1    3    3    0    0  0.17043868230E+01  0.15675890480E+01 -0.14072419937E+02  0.14261671466E+02  0.51100000000E-03 0.  1.
        -12    1    3    3    0    0 -0.45369756296E+00 -0.16667765702E+01 -0.33432908171E+01  0.37631873593E+01  0.00000000000E+00 0.  1.
</event>
<event>
 7    1  0.2097247E-008  0.4614232E+02  0.7816164E-02  0.1320468E+00
        -11   -1    0    0    0    0  0.00000000000E+00  0.00000000000E+00  0.45593999997E+02  0.45594000000E+02  0.51100000000E-03 0.  1.
         11   -1    0    0    0    0 -0.00000000000E+00 -0.00000000000E+00 -0.45593999997E+02  0.45594000000E+02  0.51100000000E-03 0. -1.
    9900012    2    1    2    0    0 -0.16571824709E+01 -0.14068339867E+02  0.42760367793E+02  0.46142317697E+02  0.99999994137E+01 0.  0.
         12    1    1    2    0    0  0.16571824709E+01  0.14068339867E+02 -0.42760367793E+02  0.45045682303E+02  0.00000000000E+00 0. -1.
         11    1    3    3    0    0 -0.16531374951E+01 -0.52139732894E+01  0.24695121586E+02  0.25293623928E+02  0.51100000000E-03 0. -1.
        -11    1    3    3    0    0 -0.17742685092E+00 -0.23714158825E+01  0.11017190242E+02  0.11270917206E+02  0.51100000000E-03 0.  1.
         12    1    3    3    0    0  0.17338187508E+00 -0.64829506946E+01  0.70480559655E+01  0.95777765622E+01  0.00000000000E+00 0. -1.
</event>
<event>
 7    1  0.2097247E-008  0.4614232E+02  0.7816164E-02  0.1320468E+00
        -11   -1    0    0    0    0  0.00000000000E+00  0.00000000000E+00  0.45593999997E+02  0.45594000000E+02  0.51100000000E-03 0.  1.
         11   -1    0    0    0    0 -0.00000000000E+00 -0.00000000000E+00 -0.45593999997E+02  0.45594000000E+02  0.51100000000E-03 0. -1.
    9900012    2    1    2    0    0  0.43245647632E+02  0.10999797557E+02  0.61589042593E+01  0.46142315556E+02  0.99999798876E+01 0.  0.
         12    1    1    2    0    0 -0.43245647632E+02 -0.10999797557E+02 -0.61589042593E+01  0.45045684444E+02  0.00000000000E+00 0. -1.
         11    1    3    3    0    0  0.54839742929E+01  0.29730866408E+01  0.13197782572E+01  0.63761299491E+01  0.51100000000E-03 0. -1.
        -11    1    3    3    0    0  0.26111893132E+02  0.91980054624E+01  0.22575259484E+01  0.27776441296E+02  0.51100000000E-03 0.  1.
        -12    1    3    3    0    0  0.11649780207E+02 -0.11712945458E+01  0.25816000537E+01  0.11989744310E+02  0.00000000000E+00 0.  1.
</event>
<event>
 7    1  0.2097247E-008  0.4614232E+02  0.7816164E-02  0.1320468E+00
        -11   -1    0    0    0    0  0.00000000000E+00  0.00000000000E+00  0.45593999997E+02  0.45594000000E+02  0.51100000000E-03 0.  1.
         11   -1    0    0    0    0 -0.00000000000E+00 -0.00000000000E+00 -0.45593999997E+02  0.45594000000E+02  0.51100000000E-03 0. -1.
    9900012    2    1    2    0    0  0.21389409355E+02  0.53441395618E+01  0.39281635940E+02  0.46142316718E+02  0.99999904873E+01 0.  0.
         12    1    1    2    0    0 -0.21389409355E+02 -0.53441395618E+01 -0.39281635940E+02  0.45045683282E+02  0.00000000000E+00 0. -1.
         11    1    3    3    0    0  0.12303496503E+01  0.14344920859E+01  0.29642305656E+00  0.19129544417E+01  0.51100000000E-03 0. -1.
        -11    1    3    3    0    0  0.35057694724E+01  0.20033781965E+01  0.60436106010E+01  0.72683679839E+01  0.51100000000E-03 0.  1.
        -12    1    3    3    0    0  0.16653290232E+02  0.19062692793E+01  0.32941602283E+02  0.36960994292E+02  0.00000000000E+00 0.  1.
</event>
<event>
 7    1  0.2097247E-008  0.4614232E+02  0.7816164E-02  0.1320468E+00
        -11   -1    0    0    0    0  0.00000000000E+00  0.00000000000E+00  0.45593999997E+02  0.45594000000E+02  0.51100000000E-03 0. -1.
         11   -1    0    0    0    0 -0.00000000000E+00 -0.00000000000E+00 -0.45593999997E+02  0.45594000000E+02  0.51100000000E-03 0.  1.
    9900012    2    1    2    0    0  0.18904108201E+02  0.17002379708E+02 -0.37184234181E+02  0.46142317696E+02  0.99999994105E+01 0.  0.
         12    1    1    2    0    0 -0.18904108201E+02 -0.17002379708E+02  0.37184234181E+02  0.45045682304E+02  0.00000000000E+00 0. -1.
         11    1    3    3    0    0  0.91483486463E+01  0.50734888103E+01 -0.17736331562E+02  0.20591503811E+02  0.51100000000E-03 0. -1.
        -11    1    3    3    0    0  0.75285409605E+01  0.45065423802E+01 -0.93520332864E+01  0.12823742826E+02  0.51100000000E-03 0.  1.
         12    1    3    3    0    0  0.22272185939E+01  0.74223485171E+01 -0.10095869332E+02  0.12727071060E+02  0.00000000000E+00 0. -1.
</event>
<event>
 7    1  0.2097247E-008  0.4614232E+02  0.7816164E-02  0.1320468E+00
        -11   -1    0    0    0    0  0.00000000000E+00  0.00000000000E+00  0.45593999997E+02  0.45594000000E+02  0.51100000000E-03 0.  1.
         11   -1    0    0    0    0 -0.00000000000E+00 -0.00000000000E+00 -0.45593999997E+02  0.45594000000E+02  0.51100000000E-03 0. -1.
    9900012    2    1    2    0    0 -0.20810375538E+02 -0.34493887000E+02  0.20154738760E+02  0.46142318021E+02  0.10000002371E+02 0.  0.
         12    1    1    2    0    0  0.20810375538E+02  0.34493887000E+02 -0.20154738760E+02  0.45045681979E+02  0.00000000000E+00 0. -1.
         11    1    3    3    0    0 -0.18725918855E+01 -0.12960782930E+01  0.11603926003E+01  0.25559598117E+01  0.51100000000E-03 0. -1.
        -11    1    3    3    0    0 -0.62998402612E+01 -0.13704734757E+02  0.29928951949E+01  0.15377423841E+02  0.51100000000E-03 0.  1.
        -12    1    3    3    0    0 -0.12637943392E+02 -0.19493073950E+02  0.16001450965E+02  0.28208934368E+02  0.00000000000E+00 0.  1.
</event>
<event>
 7    1  0.2097247E-008  0.4614232E+02  0.7816164E-02  0.1320468E+00
        -11   -1    0    0    0    0  0.00000000000E+00  0.00000000000E+00  0.45593999997E+02  0.45594000000E+02  0.51100000000E-03 0.  1.
         11   -1    0    0    0    0 -0.00000000000E+00 -0.00000000000E+00 -0.45593999997E+02  0.45594000000E+02  0.51100000000E-03 0. -1.
    9900012    2    1    2    0    0 -0.64758088999E+01  0.26331715637E+02  0.35969682930E+02  0.46142318305E+02  0.10000004958E+02 0.  0.
         12    1    1    2    0    0  0.64758088999E+01 -0.26331715637E+02 -0.35969682930E+02  0.45045681695E+02  0.00000000000E+00 0. -1.
         11    1    3    3    0    0  0.79145203444E+00  0.35416541005E+01  0.45762612126E+01  0.58405373928E+01  0.51100000000E-03 0. -1.
        -11    1    3    3    0    0 -0.43614853807E+00  0.62294533563E+01  0.14014898560E+02  0.15343197078E+02  0.51100000000E-03 0.  1.
        -12    1    3    3    0    0 -0.68311123962E+01  0.16560608180E+02  0.17378523158E+02  0.24958583834E+02  0.00000000000E+00 0.  1.
</event>
<event>
 7    1  0.2097247E-008  0.4614232E+02  0.7816164E-02  0.1320468E+00
        -11   -1    0    0    0    0  0.00000000000E+00  0.00000000000E+00  0.45593999997E+02  0.45594000000E+02  0.51100000000E-03 0.  1.
         11   -1    0    0    0    0 -0.00000000000E+00 -0.00000000000E+00 -0.45593999997E+02  0.45594000000E+02  0.51100000000E-03 0. -1.
    9900012    2    1    2    0    0  0.40378235102E+02 -0.18330163816E+02  0.79193942383E+01  0.46142316737E+02  0.99999906626E+01 0.  0.
         12    1    1    2    0    0 -0.40378235102E+02  0.18330163816E+02 -0.79193942383E+01  0.45045683263E+02  0.00000000000E+00 0. -1.
         11    1    3    3    0    0  0.17888461955E+02 -0.12881414002E+02  0.55348302502E+01  0.22728005719E+02  0.51100000000E-03 0. -1.
        -11    1    3    3    0    0  0.85710907444E+01 -0.21096251126E+01 -0.38469321928E+00  0.88352761020E+01  0.51100000000E-03 0.  1.
         12    1    3    3    0    0  0.13918682403E+02 -0.33391247024E+01  0.27692572074E+01  0.14579034916E+02  0.00000000000E+00 0. -1.
</event>
<event>
 7    1  0.2097247E-008  0.4614232E+02  0.7816164E-02  0.1320468E+00
        -11   -1    0    0    0    0  0.00000000000E+00  0.00000000000E+00  0.45593999997E+02  0.45594000000E+02  0.51100000000E-03 0.  1.
         11   -1    0    0    0    0 -0.00000000000E+00 -0.00000000000E+00 -0.45593999997E+02  0.45594000000E+02  0.51100000000E-03 0. -1.
    9900012    2    1    2    0    0 -0.75207768828E+01  0.15944852023E+02  0.41452540363E+02  0.46142317704E+02  0.99999994765E+01 0.  0.
         12    1    1    2    0    0  0.75207768828E+01 -0.15944852023E+02 -0.41452540363E+02  0.45045682296E+02  0.00000000000E+00 0. -1.
         11    1    3    3    0    0  0.15605599578E+01  0.48886099848E+01  0.12713968437E+02  0.13710537869E+02  0.51100000000E-03 0. -1.
        -11    1    3    3    0    0 -0.12371987643E+01  0.48691075876E+01  0.89183439575E+01  0.10236001597E+02  0.51100000000E-03 0.  1.
         12    1    3    3    0    0 -0.78441380764E+01  0.61871344505E+01  0.19820227969E+02  0.22195778238E+02  0.00000000000E+00 0. -1.
</event>
<event>
 7    1  0.2097247E-008  0.4614232E+02  0.7816164E-02  0.1320468E+00
        -11   -1    0    0    0    0  0.00000000000E+00  0.00000000000E+00  0.45593999997E+02  0.45594000000E+02  0.51100000000E-03 0.  1.
         11   -1    0    0    0    0 -0.00000000000E+00 -0.00000000000E+00 -0.45593999997E+02  0.45594000000E+02  0.51100000000E-03 0. -1.
    9900012    2    1    2    0    0 -0.42046451095E+02  0.16054942777E+02 -0.18569565086E+01  0.46142317358E+02  0.99999963218E+01 0.  0.
         12    1    1    2    0    0  0.42046451095E+02 -0.16054942777E+02  0.18569565086E+01  0.45045682642E+02  0.00000000000E+00 0. -1.
         11    1    3    3    0    0 -0.97362782453E+01  0.67872086983E+01 -0.18236920047E+01  0.12007796166E+02  0.51100000000E-03 0. -1.
        -11    1    3    3    0    0 -0.92233212149E+01  0.47780680045E+01  0.18062459632E+01  0.10543344480E+02  0.51100000000E-03 0.  1.
        -12    1    3    3    0    0 -0.23086851635E+02  0.44896660738E+01 -0.18395104671E+01  0.23591176711E+02  0.00000000000E+00 0.  1.
</event>
<event>
 7    1  0.2097247E-008  0.4614232E+02  0.7816164E-02  0.1320468E+00
        -11   -1    0    0    0    0  0.00000000000E+00  0.00000000000E+00  0.45593999997E+02  0.45594000000E+02  0.51100000000E-03 0.  1.
         11   -1    0    0    0    0 -0.00000000000E+00 -0.00000000000E+00 -0.45593999997E+02  0.45594000000E+02  0.51100000000E-03 0. -1.
    9900012    2    1    2    0    0  0.37863652949E+02 -0.19513102765E+02  0.14652510295E+02  0.46142318164E+02  0.10000003671E+02 0.  0.
         12    1    1    2    0    0 -0.37863652949E+02  0.19513102765E+02 -0.14652510295E+02  0.45045681836E+02  0.00000000000E+00 0. -1.
         11    1    3    3    0    0 -0.27519330088E+00 -0.74171386635E+00  0.13313055416E+01  0.15486269785E+01  0.51100000000E-03 0. -1.
        -11    1    3    3    0    0  0.67593977633E+01 -0.25242848589E+01  0.25431103232E+01  0.76504171487E+01  0.51100000000E-03 0.  1.
         12    1    3    3    0    0  0.31379448487E+02 -0.16247104039E+02  0.10778094430E+02  0.36943274037E+02  0.00000000000E+00 0. -1.
</event>
<event>
 7    1  0.2097247E-008  0.4614232E+02  0.7816164E-02  0.1320468E+00
        -11   -1    0    0    0    0  0.00000000000E+00  0.00000000000E+00  0.45593999997E+02  0.45594000000E+02  0.51100000000E-03 0.  1.
         11   -1    0    0    0    0 -0.00000000000E+00 -0.00000000000E+00 -0.45593999997E+02  0.45594000000E+02  0.51100000000E-03 0. -1.
    9900012    2    1    2    0    0  0.27620466517E+02 -0.54914873232E+01  0.35157742395E+02  0.46142318143E+02  0.10000003485E+02 0.  0.
         12    1    1    2    0    0 -0.27620466517E+02  0.54914873232E+01 -0.35157742395E+02  0.45045681857E+02  0.00000000000E+00 0. -1.
         11    1    3    3    0    0  0.12281344608E+02 -0.67164441061E+01  0.15986862533E+02  0.21249042819E+02  0.51100000000E-03 0. -1.
        -11    1    3    3    0    0  0.14054742141E+02 -0.28876322342E-01  0.17455161248E+02  0.22410249105E+02  0.51100000000E-03 0.  1.
        -12    1    3    3    0    0  0.12843797678E+01  0.12538331052E+01  0.17157186137E+01  0.24830262192E+01  0.00000000000E+00 0.  1.
</event>
<event>
 7    1  0.2097247E-008  0.4614231E+02  0.7816164E-02  0.1320468E+00
        -11   -1    0    0    0    0  0.00000000000E+00  0.00000000000E+00  0.45593999997E+02  0.45594000000E+02  0.51100000000E-03 0.  1.
         11   -1    0    0    0    0 -0.00000000000E+00 -0.00000000000E+00 -0.45593999997E+02  0.45594000000E+02  0.51100000000E-03 0. -1.
    9900012    2    1    2    0    0 -0.13260849995E+02  0.29636799812E+02  0.31223772962E+02  0.46142311598E+02  0.99999437980E+01 0.  0.
         12    1    1    2    0    0  0.13260849995E+02 -0.29636799812E+02 -0.31223772962E+02  0.45045688402E+02  0.00000000000E+00 0. -1.
         11    1    3    3    0    0 -0.82749796826E+01  0.19603958466E+02  0.18139880249E+02  0.27961504466E+02  0.51100000000E-03 0. -1.
        -11    1    3    3    0    0 -0.30144243232E+01  0.81493903242E+01  0.12756590187E+02  0.15434698252E+02  0.51100000000E-03 0.  1.
         12    1    3    3    0    0 -0.19714459893E+01  0.18834510213E+01  0.32730252535E+00  0.27461088801E+01  0.00000000000E+00 0. -1.
</event>
<event>
 7    1  0.2097247E-008  0.4614232E+02  0.7816164E-02  0.1320468E+00
        -11   -1    0    0    0    0  0.00000000000E+00  0.00000000000E+00  0.45593999997E+02  0.45594000000E+02  0.51100000000E-03 0.  1.
         11   -1    0    0    0    0 -0.00000000000E+00 -0.00000000000E+00 -0.45593999997E+02  0.45594000000E+02  0.51100000000E-03 0. -1.
    9900012    2    1    2    0    0 -0.30412224380E+02 -0.32622610133E+02  0.63226114463E+01  0.46142317642E+02  0.99999989094E+01 0.  0.
         12    1    1    2    0    0  0.30412224380E+02  0.32622610133E+02 -0.63226114463E+01  0.45045682358E+02  0.00000000000E+00 0. -1.
         11    1    3    3    0    0 -0.54231192069E+01 -0.65854371440E+01 -0.12297884986E+01  0.86191985893E+01  0.51100000000E-03 0. -1.
        -11    1    3    3    0    0 -0.58862368849E+01 -0.47969231190E+01  0.44173267314E+01  0.87847044223E+01  0.51100000000E-03 0.  1.
        -12    1    3    3    0    0 -0.19102868288E+02 -0.21240249870E+02  0.31350732135E+01  0.28738414630E+02  0.00000000000E+00 0.  1.
</event>
<event>
 7    1  0.2097247E-008  0.4614232E+02  0.7816164E-02  0.1320468E+00
        -11   -1    0    0    0    0  0.00000000000E+00  0.00000000000E+00  0.45593999997E+02  0.45594000000E+02  0.51100000000E-03 0. -1.
         11   -1    0    0    0    0 -0.00000000000E+00 -0.00000000000E+00 -0.45593999997E+02  0.45594000000E+02  0.51100000000E-03 0.  1.
    9900012    2    1    2    0    0 -0.42758630357E+02 -0.91622230517E+01 -0.10810492495E+02  0.46142317085E+02  0.99999938379E+01 0.  0.
         12    1    1    2    0    0  0.42758630357E+02  0.91622230517E+01  0.10810492495E+02  0.45045682915E+02  0.00000000000E+00 0. -1.
         11    1    3    3    0    0 -0.70295200619E+01 -0.28033517881E+01  0.84177233524E+00  0.76145593750E+01  0.51100000000E-03 0. -1.
        -11    1    3    3    0    0 -0.26821624333E+02 -0.66331645389E+01 -0.71325673202E+01  0.28535450241E+02  0.51100000000E-03 0.  1.
        -12    1    3    3    0    0 -0.89074859625E+01  0.27429327530E+00 -0.45196975099E+01  0.99923074689E+01  0.00000000000E+00 0.  1.
</event>
<event>
 7    1  0.2097247E-008  0.4614232E+02  0.7816164E-02  0.1320468E+00
        -11   -1    0    0    0    0  0.00000000000E+00  0.00000000000E+00  0.45593999997E+02  0.45594000000E+02  0.51100000000E-03 0.  1.
         11   -1    0    0    0    0 -0.00000000000E+00 -0.00000000000E+00 -0.45593999997E+02  0.45594000000E+02  0.51100000000E-03 0. -1.
    9900012    2    1    2    0    0 -0.10676898809E+01 -0.36843090882E+02  0.25895176695E+02  0.46142317816E+02  0.10000000496E+02 0.  0.
         12    1    1    2    0    0  0.10676898809E+01  0.36843090882E+02 -0.25895176695E+02  0.45045682184E+02  0.00000000000E+00 0. -1.
         11    1    3    3    0    0  0.55302116899E+00 -0.17396048714E+01  0.33273630810E+01  0.37951815313E+01  0.51100000000E-03 0. -1.
        -11    1    3    3    0    0 -0.19966536714E+01 -0.14278471507E+02  0.55435721622E+01  0.15446441890E+02  0.51100000000E-03 0.  1.
         12    1    3    3    0    0  0.37594262153E+00 -0.20825014503E+02  0.17024241452E+02  0.26900694395E+02  0.00000000000E+00 0. -1.
</event>
<event>
 7    1  0.2097247E-008  0.4614232E+02  0.7816164E-02  0.1320468E+00
        -11   -1    0    0    0    0  0.00000000000E+00  0.00000000000E+00  0.45593999997E+02  0.45594000000E+02  0.51100000000E-03 0.  1.
         11   -1    0    0    0    0 -0.00000000000E+00 -0.00000000000E+00 -0.45593999997E+02  0.45594000000E+02  0.51100000000E-03 0. -1.
    9900012    2    1    2    0    0  0.31742353826E+02  0.25265331222E+02  0.19575481762E+02  0.46142317916E+02  0.10000001412E+02 0.  0.
         12    1    1    2    0    0 -0.31742353826E+02 -0.25265331222E+02 -0.19575481762E+02  0.45045682084E+02  0.00000000000E+00 0. -1.
         11    1    3    3    0    0  0.29313747781E+01  0.15191686909E+00  0.82155498579E+00  0.30481124784E+01  0.51100000000E-03 0. -1.
        -11    1    3    3    0    0  0.18188009739E+02  0.16299311956E+02  0.15454834327E+02  0.28901957941E+02  0.51100000000E-03 0.  1.
        -12    1    3    3    0    0  0.10622969310E+02  0.88141023972E+01  0.32990924499E+01  0.14192247497E+02  0.00000000000E+00 0.  1.
</event>
<event>
 7    1  0.2097247E-008  0.4614232E+02  0.7816164E-02  0.1320468E+00
        -11   -1    0    0    0    0  0.00000000000E+00  0.00000000000E+00  0.45593999997E+02  0.45594000000E+02  0.51100000000E-03 0.  1.
         11   -1    0    0    0    0 -0.00000000000E+00 -0.00000000000E+00 -0.45593999997E+02  0.45594000000E+02  0.51100000000E-03 0. -1.
    9900012    2    1    2    0    0 -0.88120363217E+01 -0.44174453599E+02  0.28132885887E+00  0.46142317845E+02  0.10000000763E+02 0.  0.
         12    1    1    2    0    0  0.88120363217E+01  0.44174453599E+02 -0.28132885887E+00  0.45045682155E+02  0.00000000000E+00 0. -1.
         11    1    3    3    0    0 -0.38201683363E+01 -0.10193508771E+02 -0.11514374857E+01  0.10946557254E+02  0.51100000000E-03 0. -1.
        -11    1    3    3    0    0  0.16703216817E+01 -0.76696048305E+01  0.17934938163E+01  0.80516726900E+01  0.51100000000E-03 0.  1.
         12    1    3    3    0    0 -0.66621896671E+01 -0.26311339998E+02 -0.36072747174E+00  0.27144087900E+02  0.00000000000E+00 0. -1.
</event>
<event>
 7    1  0.2097247E-008  0.4614232E+02  0.7816164E-02  0.1320468E+00
        -11   -1    0    0    0    0  0.00000000000E+00  0.00000000000E+00  0.45593999997E+02  0.45594000000E+02  0.51100000000E-03 0.  1.
         11   -1    0    0    0    0 -0.00000000000E+00 -0.00000000000E+00 -0.45593999997E+02  0.45594000000E+02  0.51100000000E-03 0. -1.
    9900012    2    1    2    0    0 -0.27459007063E+02  0.34717186340E+02 -0.83566362083E+01  0.46142318021E+02  0.10000002372E+02 0.  0.
         12    1    1    2    0    0  0.27459007063E+02 -0.34717186340E+02  0.83566362083E+01  0.45045681979E+02  0.00000000000E+00 0. -1.
         11    1    3    3    0    0 -0.17908508892E+00  0.76987895409E+00 -0.17204531791E+01  0.18933421444E+01  0.51100000000E-03 0. -1.
        -11    1    3    3    0    0 -0.47354093396E+01  0.39284675317E+01 -0.17534505936E+00  0.61552989295E+01  0.51100000000E-03 0.  1.
         12    1    3    3    0    0 -0.22544512634E+02  0.30018839854E+02 -0.64608379698E+01  0.38093676947E+02  0.00000000000E+00 0. -1.
</event>
<event>
 7    1  0.2097247E-008  0.4614232E+02  0.7816164E-02  0.1320468E+00
        -11   -1    0    0    0    0  0.00000000000E+00  0.00000000000E+00  0.45593999997E+02  0.45594000000E+02  0.51100000000E-03 0.  1.
         11   -1    0    0    0    0 -0.00000000000E+00 -0.00000000000E+00 -0.45593999997E+02  0.45594000000E+02  0.51100000000E-03 0. -1.
    9900012    2    1    2    0    0  0.19256073341E+02 -0.40686140570E+02  0.17190211123E+01  0.46142318424E+02  0.10000006049E+02 0.  0.
         12    1    1    2    0    0 -0.19256073341E+02  0.40686140570E+02 -0.17190211123E+01  0.45045681576E+02  0.00000000000E+00 0. -1.
         11    1    3    3    0    0  0.13086458684E+01 -0.59266011244E+01  0.11094514968E+01  0.61699301278E+01  0.51100000000E-03 0.  1.
        -11    1    3    3    0    0  0.13523727547E+02 -0.31797080060E+02 -0.38806394325E+00  0.34555695638E+02  0.51100000000E-03 0. -1.
        -12    1    3    3    0    0  0.44236999259E+01 -0.29624593857E+01  0.99763355882E+00  0.54166926592E+01  0.00000000000E+00 0.  1.
</event>
<event>
 7    1  0.2097247E-008  0.4614232E+02  0.7816164E-02  0.1320468E+00
        -11   -1    0    0    0    0  0.00000000000E+00  0.00000000000E+00  0.45593999997E+02  0.45594000000E+02  0.51100000000E-03 0. -1.
         11   -1    0    0    0    0 -0.00000000000E+00 -0.00000000000E+00 -0.45593999997E+02  0.45594000000E+02  0.51100000000E-03 0.  1.
    9900012    2    1    2    0    0 -0.44195294852E+02 -0.54701234556E+01 -0.67798934645E+01  0.46142319929E+02  0.10000019770E+02 0.  0.
         12    1    1    2    0    0  0.44195294852E+02  0.54701234556E+01  0.67798934645E+01  0.45045680071E+02  0.00000000000E+00 0. -1.
         11    1    3    3    0    0 -0.20291342029E+02  0.12064632576E+00 -0.44278225305E+01  0.20769177391E+02  0.51100000000E-03 0. -1.
        -11    1    3    3    0    0 -0.23819697334E+02 -0.51374891827E+01 -0.30281052630E+01  0.24554860984E+02  0.51100000000E-03 0.  1.
        -12    1    3    3    0    0 -0.84255488898E-01 -0.45328059867E+00  0.67603432905E+00  0.81828155460E+00  0.00000000000E+00 0.  1.
</event>
<event>
 7    1  0.2097247E-008  0.4614232E+02  0.7816164E-02  0.1320468E+00
        -11   -1    0    0    0    0  0.00000000000E+00  0.00000000000E+00  0.45593999997E+02  0.45594000000E+02  0.51100000000E-03 0.  1.
         11   -1    0    0    0    0 -0.00000000000E+00 -0.00000000000E+00 -0.45593999997E+02  0.45594000000E+02  0.51100000000E-03 0. -1.
    9900012    2    1    2    0    0  0.35145277229E+02 -0.19450639545E+01  0.28109423430E+02  0.46142317956E+02  0.10000001776E+02 0.  0.
         12    1    1    2    0    0 -0.35145277229E+02  0.19450639545E+01 -0.28109423430E+02  0.45045682044E+02  0.00000000000E+00 0. -1.
         11    1    3    3    0    0  0.35042121126E+01  0.25662826217E+01  0.26201933685E+01  0.50725459657E+01  0.51100000000E-03 0. -1.
        -11    1    3    3    0    0  0.60144451076E+01 -0.16903396888E+01  0.67503974750E+01  0.91977532336E+01  0.51100000000E-03 0.  1.
         12    1    3    3    0    0  0.25626620009E+02 -0.28210068874E+01  0.18738832586E+02  0.31872018757E+02  0.00000000000E+00 0. -1.
</event>
<event>
 7    1  0.2097247E-008  0.4614232E+02  0.7816164E-02  0.1320468E+00
        -11   -1    0    0    0    0  0.00000000000E+00  0.00000000000E+00  0.45593999997E+02  0.45594000000E+02  0.51100000000E-03 0.  1.
         11   -1    0    0    0    0 -0.00000000000E+00 -0.00000000000E+00 -0.45593999997E+02  0.45594000000E+02  0.51100000000E-03 0. -1.
    9900012    2    1    2    0    0  0.52011417125E+01 -0.17514419553E+01  0.44710111858E+02  0.46142317340E+02  0.99999961556E+01 0.  0.
         12    1    1    2    0    0 -0.52011417125E+01  0.17514419553E+01 -0.44710111858E+02  0.45045682660E+02  0.00000000000E+00 0. -1.
         11    1    3    3    0    0 -0.15129210244E+01  0.34504076900E+00  0.48303181937E+01  0.50734561466E+01  0.51100000000E-03 0. -1.
        -11    1    3    3    0    0  0.10228328269E+01 -0.11609366988E+01  0.25898066020E+02  0.25944243771E+02  0.51100000000E-03 0.  1.
        -12    1    3    3    0    0  0.56912299099E+01 -0.93554602555E+00  0.13981727644E+02  0.15124617422E+02  0.00000000000E+00 0.  1.
</event>
<event>
 7    1  0.2097247E-008  0.4614232E+02  0.7816164E-02  0.1320468E+00
        -11   -1    0    0    0    0  0.00000000000E+00  0.00000000000E+00  0.45593999997E+02  0.45594000000E+02  0.51100000000E-03 0.  1.
         11   -1    0    0    0    0 -0.00000000000E+00 -0.00000000000E+00 -0.45593999997E+02  0.45594000000E+02  0.51100000000E-03 0. -1.
    9900012    2    1    2    0    0 -0.37627049427E+02 -0.22364742734E+02  0.10636583613E+02  0.46142317886E+02  0.10000001139E+02 0.  0.
         12    1    1    2    0    0  0.37627049427E+02  0.22364742734E+02 -0.10636583613E+02  0.45045682114E+02  0.00000000000E+00 0. -1.
         11    1    3    3    0    0 -0.94985500086E+01 -0.88819338732E+01  0.57213605136E+01  0.14207222388E+02  0.51100000000E-03 0. -1.
        -11    1    3    3    0    0 -0.15622328130E+02 -0.98530357866E+01  0.38691867111E+01  0.18870878530E+02  0.51100000000E-03 0.  1.
        -12    1    3    3    0    0 -0.12506171289E+02 -0.36297730741E+01  0.10460363887E+01  0.13064216968E+02  0.00000000000E+00 0.  1.
</event>
<event>
 7    1  0.2097247E-008  0.4614232E+02  0.7816164E-02  0.1320468E+00
        -11   -1    0    0    0    0  0.00000000000E+00  0.00000000000E+00  0.45593999997E+02  0.45594000000E+02  0.51100000000E-03 0.  1.
         11   -1    0    0    0    0 -0.00000000000E+00 -0.00000000000E+00 -0.45593999997E+02  0.45594000000E+02  0.51100000000E-03 0. -1.
    9900012    2    1    2    0    0  0.59297286594E+01 -0.43754794567E+02  0.89145804066E+01  0.46142317927E+02  0.10000001513E+02 0.  0.
         12    1    1    2    0    0 -0.59297286594E+01  0.43754794567E+02 -0.89145804066E+01  0.45045682073E+02  0.00000000000E+00 0. -1.
         11    1    3    3    0    0  0.20729607889E+01 -0.18449057690E+02  0.73941378761E+01  0.19983447433E+02  0.51100000000E-03 0. -1.
        -11    1    3    3    0    0  0.90046638737E+00 -0.13533837276E+02  0.31158100124E+01  0.13917035008E+02  0.51100000000E-03 0.  1.
        -12    1    3    3    0    0  0.29563014831E+01 -0.11771899601E+02 -0.15953674818E+01  0.12241835487E+02  0.00000000000E+00 0.  1.
</event>
<event>
 7    1  0.2097247E-008  0.4614232E+02  0.7816164E-02  0.1320468E+00
        -11   -1    0    0    0    0  0.00000000000E+00  0.00000000000E+00  0.45593999997E+02  0.45594000000E+02  0.51100000000E-03 0. -1.
         11   -1    0    0    0    0 -0.00000000000E+00 -0.00000000000E+00 -0.45593999997E+02  0.45594000000E+02  0.51100000000E-03 0.  1.
    9900012    2    1    2    0    0  0.33230369618E+02  0.17824676768E+02 -0.24640148651E+02  0.46142317717E+02  0.99999995963E+01 0.  0.
         12    1    1    2    0    0 -0.33230369618E+02 -0.17824676768E+02  0.24640148651E+02  0.45045682283E+02  0.00000000000E+00 0. -1.
         11    1    3    3    0    0  0.17073366095E+02  0.12436798708E+02 -0.11040483429E+02  0.23834136580E+02  0.51100000000E-03 0. -1.
        -11    1    3    3    0    0  0.15850909798E+02  0.50097189217E+01 -0.11652030587E+02  0.20300700534E+02  0.51100000000E-03 0.  1.
         12    1    3    3    0    0  0.30609372570E+00  0.37815913768E+00 -0.19476346345E+01  0.20074806031E+01  0.00000000000E+00 0. -1.
</event>
<event>
 7    1  0.2097247E-008  0.4614232E+02  0.7816164E-02  0.1320468E+00
        -11   -1    0    0    0    0  0.00000000000E+00  0.00000000000E+00  0.45593999997E+02  0.45594000000E+02  0.51100000000E-03 0.  1.
         11   -1    0    0    0    0 -0.00000000000E+00 -0.00000000000E+00 -0.45593999997E+02  0.45594000000E+02  0.51100000000E-03 0. -1.
    9900012    2    1    2    0    0  0.30811162084E+02 -0.21135438242E+02  0.25161059841E+02  0.46142318842E+02  0.10000009855E+02 0.  0.
         12    1    1    2    0    0 -0.30811162084E+02  0.21135438242E+02 -0.25161059841E+02  0.45045681158E+02  0.00000000000E+00 0. -1.
         11    1    3    3    0    0  0.15129016149E+01 -0.29783886678E+01  0.14275451621E+01  0.36328440379E+01  0.51100000000E-03 0. -1.
        -11    1    3    3    0    0  0.13898149029E+02 -0.79263782496E+01  0.15479285653E+02  0.22261947425E+02  0.51100000000E-03 0.  1.
        -12    1    3    3    0    0  0.15400111440E+02 -0.10230671324E+02  0.82542290267E+01  0.20247527379E+02  0.00000000000E+00 0.  1.
</event>
<event>
 7    1  0.2097247E-008  0.4614232E+02  0.7816164E-02  0.1320468E+00
        -11   -1    0    0    0    0  0.00000000000E+00  0.00000000000E+00  0.45593999997E+02  0.45594000000E+02  0.51100000000E-03 0.  1.
         11   -1    0    0    0    0 -0.00000000000E+00 -0.00000000000E+00 -0.45593999997E+02  0.45594000000E+02  0.51100000000E-03 0. -1.
    9900012    2    1    2    0    0  0.50989524380E+00 -0.30230707021E+02  0.33390983500E+02  0.46142318528E+02  0.10000006990E+02 0.  0.
         12    1    1    2    0    0 -0.50989524380E+00  0.30230707021E+02 -0.33390983500E+02  0.45045681472E+02  0.00000000000E+00 0. -1.
         11    1    3    3    0    0 -0.35612656974E+00 -0.19699741738E+02  0.25592808582E+02  0.32298583592E+02  0.51100000000E-03 0.  1.
        -11    1    3    3    0    0 -0.16383000571E+01 -0.30420733162E+01  0.16126410414E+01  0.38129842024E+01  0.51100000000E-03 0. -1.
        -12    1    3    3    0    0  0.25043218706E+01 -0.74888919672E+01  0.61855338773E+01  0.10030750733E+02  0.00000000000E+00 0.  1.
</event>
<event>
 7    1  0.2097247E-008  0.4614231E+02  0.7816164E-02  0.1320468E+00
        -11   -1    0    0    0    0  0.00000000000E+00  0.00000000000E+00  0.45593999997E+02  0.45594000000E+02  0.51100000000E-03 0. -1.
         11   -1    0    0    0    0 -0.00000000000E+00 -0.00000000000E+00 -0.45593999997E+02  0.45594000000E+02  0.51100000000E-03 0.  1.
    9900012    2    1    2    0    0  0.43768410338E+02  0.92819433102E+01  0.52235577220E+01  0.46142314631E+02  0.99999714532E+01 0.  0.
         12    1    1    2    0    0 -0.43768410338E+02 -0.92819433102E+01 -0.52235577220E+01  0.45045685369E+02  0.00000000000E+00 0. -1.
         11    1    3    3    0    0  0.19887774969E+02  0.69690712202E+01  0.35924479176E+01  0.21377493520E+02  0.51100000000E-03 0. -1.
        -11    1    3    3    0    0  0.42781524849E+01 -0.79833694282E+00  0.22664615105E+01  0.49068094112E+01  0.51100000000E-03 0.  1.
         12    1    3    3    0    0  0.19602482884E+02  0.31112090329E+01 -0.63535170612E+00  0.19858011700E+02  0.00000000000E+00 0. -1.
</event>
<event>
 7    1  0.2097247E-008  0.4614232E+02  0.7816164E-02  0.1320468E+00
        -11   -1    0    0    0    0  0.00000000000E+00  0.00000000000E+00  0.45593999997E+02  0.45594000000E+02  0.51100000000E-03 0.  1.
         11   -1    0    0    0    0 -0.00000000000E+00 -0.00000000000E+00 -0.45593999997E+02  0.45594000000E+02  0.51100000000E-03 0. -1.
    9900012    2    1    2    0    0 -0.15960885065E+02 -0.49530156391E+01  0.41830984421E+02  0.46142317925E+02  0.10000001493E+02 0.  0.
         12    1    1    2    0    0  0.15960885065E+02  0.49530156391E+01 -0.41830984421E+02  0.45045682075E+02  0.00000000000E+00 0. -1.
         11    1    3    3    0    0 -0.37150286280E+00  0.92732240012E+00  0.48433306584E+00  0.11101891688E+01  0.51100000000E-03 0. -1.
        -11    1    3    3    0    0 -0.11690380569E+02 -0.30980562770E+01  0.35324048637E+02  0.37336997240E+02  0.51100000000E-03 0.  1.
         12    1    3    3    0    0 -0.38990016338E+01 -0.27822817623E+01  0.60226027177E+01  0.76951315155E+01  0.00000000000E+00 0. -1.
</event>
<event>
 7    1  0.2097247E-008  0.4614232E+02  0.7816164E-02  0.1320468E+00
        -11   -1    0    0    0    0  0.00000000000E+00  0.00000000000E+00  0.45593999997E+02  0.45594000000E+02  0.51100000000E-03 0.  1.
         11   -1    0    0    0    0 -0.00000000000E+00 -0.00000000000E+00 -0.45593999997E+02  0.45594000000E+02  0.51100000000E-03 0. -1.
    9900012    2    1    2    0    0 -0.93802268233E+01  0.37548577000E+02  0.23048408789E+02  0.46142318324E+02  0.10000005129E+02 0.  0.
         12    1    1    2    0    0  0.93802268233E+01 -0.37548577000E+02 -0.23048408789E+02  0.45045681676E+02  0.00000000000E+00 0. -1.
         11    1    3    3    0    0 -0.32984329249E+01  0.41218101054E+01  0.27809601312E+01  0.59668013053E+01  0.51100000000E-03 0. -1.
        -11    1    3    3    0    0 -0.45906885907E+01  0.17862439899E+02  0.72006768825E+01  0.19798760787E+02  0.51100000000E-03 0.  1.
         12    1    3    3    0    0 -0.14911053078E+01  0.15564326996E+02  0.13066771776E+02  0.20376756231E+02  0.00000000000E+00 0. -1.
</event>
<event>
 7    1  0.2097247E-008  0.4614232E+02  0.7816164E-02  0.1320468E+00
        -11   -1    0    0    0    0  0.00000000000E+00  0.00000000000E+00  0.45593999997E+02  0.45594000000E+02  0.51100000000E-03 0.  1.
         11   -1    0    0    0    0 -0.00000000000E+00 -0.00000000000E+00 -0.45593999997E+02  0.45594000000E+02  0.51100000000E-03 0. -1.
    9900012    2    1    2    0    0  0.31489151923E+02  0.23273661922E+02  0.22268440275E+02  0.46142318072E+02  0.10000002835E+02 0.  0.
         12    1    1    2    0    0 -0.31489151923E+02 -0.23273661922E+02 -0.22268440275E+02  0.45045681928E+02  0.00000000000E+00 0. -1.
         11    1    3    3    0    0  0.12117333861E+02  0.37676221132E+01  0.72884256529E+01  0.14633724921E+02  0.51100000000E-03 0. -1.
        -11    1    3    3    0    0  0.16422191657E+02  0.14695783001E+02  0.12593256640E+02  0.25381972537E+02  0.51100000000E-03 0.  1.
         12    1    3    3    0    0  0.29496264046E+01  0.48102568079E+01  0.23867579824E+01  0.61266206143E+01  0.00000000000E+00 0. -1.
</event>
<event>
 7    1  0.2097247E-008  0.4614232E+02  0.7816164E-02  0.1320468E+00
        -11   -1    0    0    0    0  0.00000000000E+00  0.00000000000E+00  0.45593999997E+02  0.45594000000E+02  0.51100000000E-03 0. -1.
         11   -1    0    0    0    0 -0.00000000000E+00 -0.00000000000E+00 -0.45593999997E+02  0.45594000000E+02  0.51100000000E-03 0.  1.
    9900012    2    1    2    0    0  0.47326469555E+01  0.10804753460E+02 -0.43473818562E+02  0.46142317134E+02  0.99999942771E+01 0.  0.
         12    1    1    2    0    0 -0.47326469555E+01 -0.10804753460E+02  0.43473818562E+02  0.45045682866E+02  0.00000000000E+00 0. -1.
         11    1    3    3    0    0 -0.83560853103E+00  0.64297584052E+01 -0.18914978275E+02  0.19995410428E+02  0.51100000000E-03 0. -1.
        -11    1    3    3    0    0  0.48354762773E+01  0.26506385082E+01 -0.23163458049E+02  0.23810785463E+02  0.51100000000E-03 0.  1.
        -12    1    3    3    0    0  0.73277920920E+00  0.17243565468E+01 -0.13953822382E+01  0.23361212427E+01  0.00000000000E+00 0.  1.
</event>
<event>
 7    1  0.2097247E-008  0.4614232E+02  0.7816164E-02  0.1320468E+00
        -11   -1    0    0    0    0  0.00000000000E+00  0.00000000000E+00  0.45593999997E+02  0.45594000000E+02  0.51100000000E-03 0. -1.
         11   -1    0    0    0    0 -0.00000000000E+00 -0.00000000000E+00 -0.45593999997E+02  0.45594000000E+02  0.51100000000E-03 0.  1.
    9900012    2    1    2    0    0 -0.72581714170E+01  0.11111620673E+02 -0.43046072216E+02  0.46142317638E+02  0.99999988742E+01 0.  0.
         12    1    1    2    0    0  0.72581714170E+01 -0.11111620673E+02  0.43046072216E+02  0.45045682362E+02  0.00000000000E+00 0. -1.
         11    1    3    3    0    0 -0.26514395104E+01  0.99590640745E+01 -0.30407867743E+02  0.32106876361E+02  0.51100000000E-03 0. -1.
        -11    1    3    3    0    0 -0.50394959099E+01  0.97368422706E+00 -0.12549879798E+02  0.13558910842E+02  0.51100000000E-03 0.  1.
         12    1    3    3    0    0  0.43276400328E+00  0.17887237114E+00 -0.88324674732E-01  0.47653043539E+00  0.00000000000E+00 0. -1.
</event>
<event>
 7    1  0.2097247E-008  0.4614232E+02  0.7816164E-02  0.1320468E+00
        -11   -1    0    0    0    0  0.00000000000E+00  0.00000000000E+00  0.45593999997E+02  0.45594000000E+02  0.51100000000E-03 0. -1.
         11   -1    0    0    0    0 -0.00000000000E+00 -0.00000000000E+00 -0.45593999997E+02  0.45594000000E+02  0.51100000000E-03 0.  1.
    9900012    2    1    2    0    0  0.51589028169E+01 -0.44112832769E+02 -0.75204554864E+01  0.46142317144E+02  0.99999943758E+01 0.  0.
         12    1    1    2    0    0 -0.51589028169E+01  0.44112832769E+02  0.75204554864E+01  0.45045682856E+02  0.00000000000E+00 0. -1.
         11    1    3    3    0    0  0.42479131174E+01 -0.32344644053E+02 -0.54206721672E+01  0.33069690833E+02  0.51100000000E-03 0.  1.
        -11    1    3    3    0    0  0.23307345628E+01 -0.34963175069E+01  0.62581564525E+00  0.42483179252E+01  0.51100000000E-03 0. -1.
        -12    1    3    3    0    0 -0.14197448632E+01 -0.82718712096E+01 -0.27255989644E+01  0.88243083865E+01  0.00000000000E+00 0.  1.
</event>
<event>
 7    1  0.2097247E-008  0.4614232E+02  0.7816164E-02  0.1320468E+00
        -11   -1    0    0    0    0  0.00000000000E+00  0.00000000000E+00  0.45593999997E+02  0.45594000000E+02  0.51100000000E-03 0.  1.
         11   -1    0    0    0    0 -0.00000000000E+00 -0.00000000000E+00 -0.45593999997E+02  0.45594000000E+02  0.51100000000E-03 0. -1.
    9900012    2    1    2    0    0  0.43860593166E+02  0.25550778479E+01  0.99415009130E+01  0.46142317675E+02  0.99999992176E+01 0.  0.
         12    1    1    2    0    0 -0.43860593166E+02 -0.25550778479E+01 -0.99415009130E+01  0.45045682325E+02  0.00000000000E+00 0. -1.
         11    1    3    3    0    0  0.14431536304E+02  0.33225316137E+00  0.36913920939E+01  0.14899866043E+02  0.51100000000E-03 0. -1.
        -11    1    3    3    0    0  0.29239402662E+02  0.33493049503E+01  0.63065578501E+01  0.30098723958E+02  0.51100000000E-03 0.  1.
         12    1    3    3    0    0  0.18965419993E+00 -0.11264802638E+01 -0.56449031120E-01  0.11437276744E+01  0.00000000000E+00 0. -1.
</event>
<event>
 7    1  0.2097247E-008  0.4614232E+02  0.7816164E-02  0.1320468E+00
        -11   -1    0    0    0    0  0.00000000000E+00  0.00000000000E+00  0.45593999997E+02  0.45594000000E+02  0.51100000000E-03 0.  1.
         11   -1    0    0    0    0 -0.00000000000E+00 -0.00000000000E+00 -0.45593999997E+02  0.45594000000E+02  0.51100000000E-03 0. -1.
    9900012    2    1    2    0    0  0.17252119383E+02  0.33605178233E+00  0.41609675512E+02  0.46142315965E+02  0.99999836175E+01 0.  0.
         12    1    1    2    0    0 -0.17252119383E+02 -0.33605178233E+00 -0.41609675512E+02  0.45045684035E+02  0.00000000000E+00 0. -1.
         11    1    3    3    0    0  0.92046911759E+01  0.30639671521E+01  0.17973451105E+02  0.20424475005E+02  0.51100000000E-03 0. -1.
        -11    1    3    3    0    0  0.53886100119E+01 -0.15927844961E+01  0.77614554298E+01  0.95819763599E+01  0.51100000000E-03 0.  1.
         12    1    3    3    0    0  0.26588181957E+01 -0.11351308736E+01  0.15874768977E+02  0.16135864600E+02  0.00000000000E+00 0. -1.
</event>
<event>
 7    1  0.2097247E-008  0.4614232E+02  0.7816164E-02  0.1320468E+00
        -11   -1    0    0    0    0  0.00000000000E+00  0.00000000000E+00  0.45593999997E+02  0.45594000000E+02  0.51100000000E-03 0.  1.
         11   -1    0    0    0    0 -0.00000000000E+00 -0.00000000000E+00 -0.45593999997E+02  0.45594000000E+02  0.51100000000E-03 0. -1.
    9900012    2    1    2    0    0  0.26886198110E+02 -0.24206172233E+01  0.36060871488E+02  0.46142317754E+02  0.99999999324E+01 0.  0.
         12    1    1    2    0    0 -0.26886198110E+02  0.24206172233E+01 -0.36060871488E+02  0.45045682246E+02  0.00000000000E+00 0. -1.
         11    1    3    3    0    0  0.27918373808E+01 -0.19772335817E+01  0.98593647206E+01  0.10436037637E+02  0.51100000000E-03 0. -1.
        -11    1    3    3    0    0  0.73935162860E+01  0.39979698776E+00  0.63853367456E+01  0.97773435206E+01  0.51100000000E-03 0.  1.
         12    1    3    3    0    0  0.16700844443E+02 -0.84318062943E+00  0.19816170022E+02  0.25928936597E+02  0.00000000000E+00 0. -1.
</event>
<event>
 7    1  0.2097247E-008  0.4614232E+02  0.7816164E-02  0.1320468E+00
        -11   -1    0    0    0    0  0.00000000000E+00  0.00000000000E+00  0.45593999997E+02  0.45594000000E+02  0.51100000000E-03 0.  1.
         11   -1    0    0    0    0 -0.00000000000E+00 -0.00000000000E+00 -0.45593999997E+02  0.45594000000E+02  0.51100000000E-03 0. -1.
    9900012    2    1    2    0    0 -0.58911057202E+01  0.34634746633E+02  0.28192952907E+02  0.46142318802E+02  0.10000009494E+02 0.  0.
         12    1    1    2    0    0  0.58911057202E+01 -0.34634746633E+02 -0.28192952907E+02  0.45045681198E+02  0.00000000000E+00 0. -1.
         11    1    3    3    0    0 -0.33157325157E+01  0.39150590924E+01  0.57695187757E+01  0.77206940735E+01  0.51100000000E-03 0. -1.
        -11    1    3    3    0    0 -0.50209836848E+00  0.11594685280E+02  0.11310208751E+02  0.16205235319E+02  0.51100000000E-03 0.  1.
         12    1    3    3    0    0 -0.20732748361E+01  0.19125002261E+02  0.11113225380E+02  0.22216389410E+02  0.00000000000E+00 0. -1.
</event>
<event>
 7    1  0.2097247E-008  0.4614230E+02  0.7816164E-02  0.1320468E+00
        -11   -1    0    0    0    0  0.00000000000E+00  0.00000000000E+00  0.45593999997E+02  0.45594000000E+02  0.51100000000E-03 0. -1.
         11   -1    0    0    0    0 -0.00000000000E+00 -0.00000000000E+00 -0.45593999997E+02  0.45594000000E+02  0.51100000000E-03 0.  1.
    9900012    2    1    2    0    0 -0.41101926414E+01 -0.40259238914E+02 -0.19784202053E+02  0.46142304841E+02  0.99998821844E+01 0.  0.
         12    1    1    2    0    0  0.41101926414E+01  0.40259238914E+02  0.19784202053E+02  0.45045695159E+02  0.00000000000E+00 0. -1.
         11    1    3    3    0    0 -0.49783248794E+01 -0.34051287035E+02 -0.13929725978E+02  0.37125612903E+02  0.51100000000E-03 0. -1.
        -11    1    3    3    0    0 -0.50510640453E+00 -0.47786287666E+01 -0.35337011568E+01  0.59646851967E+01  0.51100000000E-03 0.  1.
         12    1    3    3    0    0  0.13732386425E+01 -0.14293231126E+01 -0.23207749185E+01  0.30520067418E+01  0.00000000000E+00 0. -1.
</event>
<event>
 7    1  0.2097247E-008  0.4614232E+02  0.7816164E-02  0.1320468E+00
        -11   -1    0    0    0    0  0.00000000000E+00  0.00000000000E+00  0.45593999997E+02  0.45594000000E+02  0.51100000000E-03 0. -1.
         11   -1    0    0    0    0 -0.00000000000E+00 -0.00000000000E+00 -0.45593999997E+02  0.45594000000E+02  0.51100000000E-03 0.  1.
    9900012    2    1    2    0    0 -0.30307354887E+02  0.30245361740E+02 -0.13992702604E+02  0.46142318818E+02  0.10000009638E+02 0.  0.
         12    1    1    2    0    0  0.30307354887E+02 -0.30245361740E+02  0.13992702604E+02  0.45045681182E+02  0.00000000000E+00 0. -1.
         11    1    3    3    0    0 -0.65845478283E+00  0.36728560816E+01 -0.27252979920E+01  0.46206800261E+01  0.51100000000E-03 0. -1.
        -11    1    3    3    0    0 -0.88932334021E+01  0.10158338594E+02 -0.36862972550E+01  0.13995364627E+02  0.51100000000E-03 0.  1.
         12    1    3    3    0    0 -0.20755666702E+02  0.16414167064E+02 -0.75811073567E+01  0.27526274164E+02  0.00000000000E+00 0. -1.
</event>
<event>
 7    1  0.2097247E-008  0.4614232E+02  0.7816164E-02  0.1320468E+00
        -11   -1    0    0    0    0  0.00000000000E+00  0.00000000000E+00  0.45593999997E+02  0.45594000000E+02  0.51100000000E-03 0. -1.
         11   -1    0    0    0    0 -0.00000000000E+00 -0.00000000000E+00 -0.45593999997E+02  0.45594000000E+02  0.51100000000E-03 0.  1.
    9900012    2    1    2    0    0 -0.30090326508E+02  0.29312772392E+02  0.16261828861E+02  0.46142318158E+02  0.10000003623E+02 0.  0.
         12    1    1    2    0    0  0.30090326508E+02 -0.29312772392E+02 -0.16261828861E+02  0.45045681842E+02  0.00000000000E+00 0. -1.
         11    1    3    3    0    0 -0.11753114761E+02  0.90553421238E+01  0.45202616891E+01  0.15510244794E+02  0.51100000000E-03 0.  1.
        -11    1    3    3    0    0 -0.55943916394E+01  0.28440641725E+01  0.50046036220E+01  0.80269531272E+01  0.51100000000E-03 0. -1.
        -12    1    3    3    0    0 -0.12742820108E+02  0.17413366096E+02  0.67369635504E+01  0.22605120238E+02  0.00000000000E+00 0.  1.
</event>
<event>
 7    1  0.2097247E-008  0.4614232E+02  0.7816164E-02  0.1320468E+00
        -11   -1    0    0    0    0  0.00000000000E+00  0.00000000000E+00  0.45593999997E+02  0.45594000000E+02  0.51100000000E-03 0.  1.
         11   -1    0    0    0    0 -0.00000000000E+00 -0.00000000000E+00 -0.45593999997E+02  0.45594000000E+02  0.51100000000E-03 0. -1.
    9900012    2    1    2    0    0 -0.40247630239E+02  0.12765579982E+02  0.15693363249E+02  0.46142318495E+02  0.10000006696E+02 0.  0.
         12    1    1    2    0    0  0.40247630239E+02 -0.12765579982E+02 -0.15693363249E+02  0.45045681505E+02  0.00000000000E+00 0. -1.
         11    1    3    3    0    0 -0.39791521681E+01  0.29528654890E+01  0.29715418977E+01  0.57778134345E+01  0.51100000000E-03 0. -1.
        -11    1    3    3    0    0 -0.17015858551E+02  0.33646601443E+01  0.95923259822E+01  0.19821026667E+02  0.51100000000E-03 0.  1.
        -12    1    3    3    0    0 -0.19252619520E+02  0.64480543485E+01  0.31294953694E+01  0.20543478394E+02  0.00000000000E+00 0.  1.
</event>
<event>
 7    1  0.2097247E-008  0.4614232E+02  0.7816164E-02  0.1320468E+00
        -11   -1    0    0    0    0  0.00000000000E+00  0.00000000000E+00  0.45593999997E+02  0.45594000000E+02  0.51100000000E-03 0. -1.
         11   -1    0    0    0    0 -0.00000000000E+00 -0.00000000000E+00 -0.45593999997E+02  0.45594000000E+02  0.51100000000E-03 0.  1.
    9900012    2    1    2    0    0 -0.20678446401E+02 -0.39550268032E+02  0.61066881232E+01  0.46142317779E+02  0.10000000159E+02 0.  0.
         12    1    1    2    0    0  0.20678446401E+02  0.39550268032E+02 -0.61066881232E+01  0.45045682221E+02  0.00000000000E+00 0. -1.
         11    1    3    3    0    0  0.22062710565E+00 -0.50062029188E+00  0.62310031532E+00  0.82918710824E+00  0.51100000000E-03 0. -1.
        -11    1    3    3    0    0 -0.12268757061E+02 -0.26806414045E+02  0.68678623579E+01  0.30270014328E+02  0.51100000000E-03 0.  1.
        -12    1    3    3    0    0 -0.86303164457E+01 -0.12243233695E+02 -0.13842745501E+01  0.15043116342E+02  0.00000000000E+00 0.  1.
</event>
<event>
 7    1  0.2097247E-008  0.4614232E+02  0.7816164E-02  0.1320468E+00
        -11   -1    0    0    0    0  0.00000000000E+00  0.00000000000E+00  0.45593999997E+02  0.45594000000E+02  0.51100000000E-03 0.  1.
         11   -1    0    0    0    0 -0.00000000000E+00 -0.00000000000E+00 -0.45593999997E+02  0.45594000000E+02  0.51100000000E-03 0. -1.
    9900012    2    1    2    0    0 -0.64437482594E+01  0.25540828349E+02  0.36541176772E+02  0.46142318694E+02  0.10000008508E+02 0.  0.
         12    1    1    2    0    0  0.64437482594E+01 -0.25540828349E+02 -0.36541176772E+02  0.45045681306E+02  0.00000000000E+00 0. -1.
         11    1    3    3    0    0 -0.66314615920E+00  0.77287201698E+00 -0.16939752478E+00  0.10323709438E+01  0.51100000000E-03 0. -1.
        -11    1    3    3    0    0 -0.29974454278E+00  0.14406881004E+02  0.18438544092E+02  0.23401452424E+02  0.51100000000E-03 0.  1.
         12    1    3    3    0    0 -0.54808575574E+01  0.10361075329E+02  0.18272030205E+02  0.21708495327E+02  0.00000000000E+00 0. -1.
</event>
<event>
 7    1  0.2097247E-008  0.4614232E+02  0.7816164E-02  0.1320468E+00
        -11   -1    0    0    0    0  0.00000000000E+00  0.00000000000E+00  0.45593999997E+02  0.45594000000E+02  0.51100000000E-03 0.  1.
         11   -1    0    0    0    0 -0.00000000000E+00 -0.00000000000E+00 -0.45593999997E+02  0.45594000000E+02  0.51100000000E-03 0. -1.
    9900012    2    1    2    0    0  0.12181736968E+02 -0.36145279927E+02  0.23963251093E+02  0.46142318969E+02  0.10000011017E+02 0.  0.
         12    1    1    2    0    0 -0.12181736968E+02  0.36145279927E+02 -0.23963251093E+02  0.45045681031E+02  0.00000000000E+00 0. -1.
         11    1    3    3    0    0  0.40479109622E+01 -0.10210213044E+02  0.27380410320E+01  0.11319492149E+02  0.51100000000E-03 0. -1.
        -11    1    3    3    0    0  0.28878360667E+01 -0.45506288531E+01  0.59292886253E+01  0.80127575759E+01  0.51100000000E-03 0.  1.
        -12    1    3    3    0    0  0.52459899388E+01 -0.21384438031E+02  0.15295921436E+02  0.26810069245E+02  0.00000000000E+00 0.  1.
</event>
<event>
 7    1  0.2740397E-008  0.4614232E+02  0.7816164E-02  0.1320468E+00
        -11   -1    0    0    0    0  0.00000000000E+00  0.00000000000E+00  0.45593999997E+02  0.45594000000E+02  0.51100000000E-03 0. -1.
         11   -1    0    0    0    0 -0.00000000000E+00 -0.00000000000E+00 -0.45593999997E+02  0.45594000000E+02  0.51100000000E-03 0.  1.
    9900012    2    1    2    0    0  0.11466190998E+02  0.21182962488E+02 -0.38064708087E+02  0.46142318325E+02  0.10000005143E+02 0.  0.
         12    1    1    2    0    0 -0.11466190998E+02 -0.21182962488E+02  0.38064708087E+02  0.45045681675E+02  0.00000000000E+00 0. -1.
         11    1    3    3    0    0 -0.32797062701E+00  0.14462501677E+01 -0.10214884638E+01  0.18007340787E+01  0.51100000000E-03 0. -1.
        -11    1    3    3    0    0  0.96941822087E+00  0.56733124142E+01 -0.46249598464E+01  0.73835289177E+01  0.51100000000E-03 0.  1.
        -12    1    3    3    0    0  0.10824743405E+02  0.14063399906E+02 -0.32418259777E+02  0.36958055329E+02  0.00000000000E+00 0.  1.
</event>
<event>
 7    1  0.2097247E-008  0.4614232E+02  0.7816164E-02  0.1320468E+00
        -11   -1    0    0    0    0  0.00000000000E+00  0.00000000000E+00  0.45593999997E+02  0.45594000000E+02  0.51100000000E-03 0.  1.
         11   -1    0    0    0    0 -0.00000000000E+00 -0.00000000000E+00 -0.45593999997E+02  0.45594000000E+02  0.51100000000E-03 0. -1.
    9900012    2    1    2    0    0  0.92674597428E-01 -0.33092236939E+01  0.44923868993E+02  0.46142317018E+02  0.99999932236E+01 0.  0.
         12    1    1    2    0    0 -0.92674597428E-01  0.33092236939E+01 -0.44923868993E+02  0.45045682982E+02  0.00000000000E+00 0. -1.
         11    1    3    3    0    0  0.41242871673E+01 -0.11153183212E+01  0.18272641220E+02  0.18765476200E+02  0.51100000000E-03 0. -1.
        -11    1    3    3    0    0  0.14411419092E+00 -0.17397675984E+01  0.12309576852E+02  0.12432748801E+02  0.51100000000E-03 0.  1.
         12    1    3    3    0    0 -0.41757267607E+01 -0.45413777425E+00  0.14341650920E+02  0.14944092017E+02  0.00000000000E+00 0. -1.
</event>
<event>
 7    1  0.2097247E-008  0.4614232E+02  0.7816164E-02  0.1320468E+00
        -11   -1    0    0    0    0  0.00000000000E+00  0.00000000000E+00  0.45593999997E+02  0.45594000000E+02  0.51100000000E-03 0.  1.
         11   -1    0    0    0    0 -0.00000000000E+00 -0.00000000000E+00 -0.45593999997E+02  0.45594000000E+02  0.51100000000E-03 0. -1.
    9900012    2    1    2    0    0 -0.29768538999E+01 -0.43763587271E+02  0.10246966609E+02  0.46142317025E+02  0.99999932912E+01 0.  0.
         12    1    1    2    0    0  0.29768538999E+01  0.43763587271E+02 -0.10246966609E+02  0.45045682975E+02  0.00000000000E+00 0. -1.
         11    1    3    3    0    0 -0.31379897565E+01 -0.76901072305E+01 -0.10512970234E+00  0.83063699318E+01  0.51100000000E-03 0. -1.
        -11    1    3    3    0    0  0.26997339844E+00 -0.56426723922E+01 -0.12887953283E+00  0.56505970973E+01  0.51100000000E-03 0.  1.
        -12    1    3    3    0    0 -0.10883754185E+00 -0.30430807648E+02  0.10480975844E+02  0.32185349996E+02  0.00000000000E+00 0.  1.
</event>
<event>
 7    1  0.2097247E-008  0.4614232E+02  0.7816164E-02  0.1320468E+00
        -11   -1    0    0    0    0  0.00000000000E+00  0.00000000000E+00  0.45593999997E+02  0.45594000000E+02  0.51100000000E-03 0. -1.
         11   -1    0    0    0    0 -0.00000000000E+00 -0.00000000000E+00 -0.45593999997E+02  0.45594000000E+02  0.51100000000E-03 0.  1.
    9900012    2    1    2    0    0  0.50064563268E+01 -0.23125318701E+01 -0.44706835592E+02  0.46142316996E+02  0.99999930265E+01 0.  0.
         12    1    1    2    0    0 -0.50064563268E+01  0.23125318701E+01  0.44706835592E+02  0.45045683004E+02  0.00000000000E+00 0. -1.
         11    1    3    3    0    0 -0.14507082304E+01  0.99960767996E+00 -0.17094269189E+02  0.17184813332E+02  0.51100000000E-03 0. -1.
        -11    1    3    3    0    0  0.25077001020E+01 -0.18282385403E+01 -0.20126875041E+02  0.20364727230E+02  0.51100000000E-03 0.  1.
        -12    1    3    3    0    0  0.39494644553E+01 -0.14839010098E+01 -0.74856913621E+01  0.85927764348E+01  0.00000000000E+00 0.  1.
</event>
<event>
 7    1  0.2097247E-008  0.4614232E+02  0.7816164E-02  0.1320468E+00
        -11   -1    0    0    0    0  0.00000000000E+00  0.00000000000E+00  0.45593999997E+02  0.45594000000E+02  0.51100000000E-03 0.  1.
         11   -1    0    0    0    0 -0.00000000000E+00 -0.00000000000E+00 -0.45593999997E+02  0.45594000000E+02  0.51100000000E-03 0. -1.
    9900012    2    1    2    0    0  0.42564178613E+02 -0.12236139645E+02  0.82268451115E+01  0.46142318798E+02  0.10000009458E+02 0.  0.
         12    1    1    2    0    0 -0.42564178613E+02  0.12236139645E+02 -0.82268451115E+01  0.45045681202E+02  0.00000000000E+00 0. -1.
         11    1    3    3    0    0  0.76469977225E+01 -0.38150604786E+01  0.34258711890E+01  0.92069459806E+01  0.51100000000E-03 0. -1.
        -11    1    3    3    0    0  0.35149742792E+02 -0.79977533517E+01  0.44158005274E+01  0.36317595894E+02  0.51100000000E-03 0.  1.
        -12    1    3    3    0    0 -0.23256190086E+00 -0.42332581420E+00  0.38517339505E+00  0.61777692330E+00  0.00000000000E+00 0.  1.
</event>
<event>
 7    1  0.2097247E-008  0.4614232E+02  0.7816164E-02  0.1320468E+00
        -11   -1    0    0    0    0  0.00000000000E+00  0.00000000000E+00  0.45593999997E+02  0.45594000000E+02  0.51100000000E-03 0. -1.
         11   -1    0    0    0    0 -0.00000000000E+00 -0.00000000000E+00 -0.45593999997E+02  0.45594000000E+02  0.51100000000E-03 0.  1.
    9900012    2    1    2    0    0 -0.44300593881E+02 -0.99534654719E+00 -0.80981516047E+01  0.46142318827E+02  0.10000009717E+02 0.  0.
         12    1    1    2    0    0  0.44300593881E+02  0.99534654719E+00  0.80981516047E+01  0.45045681173E+02  0.00000000000E+00 0. -1.
         11    1    3    3    0    0 -0.21916264194E+02 -0.35779181029E+01 -0.50131647180E+01  0.22765235666E+02  0.51100000000E-03 0. -1.
        -11    1    3    3    0    0 -0.57842886794E+01  0.25874014188E+01 -0.23580181629E+01  0.67611309370E+01  0.51100000000E-03 0.  1.
         12    1    3    3    0    0 -0.16600041008E+02 -0.48298630704E-02 -0.72696872380E+00  0.16615952224E+02  0.00000000000E+00 0. -1.
</event>
<event>
 7    1  0.2097247E-008  0.4614232E+02  0.7816164E-02  0.1320468E+00
        -11   -1    0    0    0    0  0.00000000000E+00  0.00000000000E+00  0.45593999997E+02  0.45594000000E+02  0.51100000000E-03 0. -1.
         11   -1    0    0    0    0 -0.00000000000E+00 -0.00000000000E+00 -0.45593999997E+02  0.45594000000E+02  0.51100000000E-03 0.  1.
    9900012    2    1    2    0    0  0.12449350802E+02  0.19430371472E+02 -0.38685757961E+02  0.46142317188E+02  0.99999947779E+01 0.  0.
         12    1    1    2    0    0 -0.12449350802E+02 -0.19430371472E+02  0.38685757961E+02  0.45045682812E+02  0.00000000000E+00 0. -1.
         11    1    3    3    0    0  0.28539086859E+01  0.62822699749E+01 -0.73080358279E+01  0.10050825774E+02  0.51100000000E-03 0. -1.
        -11    1    3    3    0    0 -0.31876725431E-01 -0.83819022947E+00 -0.11839099617E+01  0.14509383326E+01  0.51100000000E-03 0.  1.
        -12    1    3    3    0    0  0.96273188411E+01  0.13986291727E+02 -0.30193812171E+02  0.34640553081E+02  0.00000000000E+00 0.  1.
</event>
<event>
 7    1  0.2097247E-008  0.4614232E+02  0.7816164E-02  0.1320468E+00
        -11   -1    0    0    0    0  0.00000000000E+00  0.00000000000E+00  0.45593999997E+02  0.45594000000E+02  0.51100000000E-03 0. -1.
         11   -1    0    0    0    0 -0.00000000000E+00 -0.00000000000E+00 -0.45593999997E+02  0.45594000000E+02  0.51100000000E-03 0.  1.
    9900012    2    1    2    0    0 -0.42201819814E+02 -0.13776722252E+02 -0.76368803754E+01  0.46142316372E+02  0.99999873364E+01 0.  0.
         12    1    1    2    0    0  0.42201819814E+02  0.13776722252E+02  0.76368803754E+01  0.45045683628E+02  0.00000000000E+00 0. -1.
         11    1    3    3    0    0 -0.18346562057E+01  0.48631691525E+00  0.66562213472E+00  0.20113479616E+01  0.51100000000E-03 0. -1.
        -11    1    3    3    0    0 -0.36017329470E+01  0.60054946594E+00 -0.12004216296E+01  0.38437159407E+01  0.51100000000E-03 0.  1.
        -12    1    3    3    0    0 -0.36765430661E+02 -0.14863588633E+02 -0.71020808805E+01  0.40287252470E+02  0.00000000000E+00 0.  1.
</event>
<event>
 7    1  0.2097247E-008  0.4614232E+02  0.7816164E-02  0.1320468E+00
        -11   -1    0    0    0    0  0.00000000000E+00  0.00000000000E+00  0.45593999997E+02  0.45594000000E+02  0.51100000000E-03 0.  1.
         11   -1    0    0    0    0 -0.00000000000E+00 -0.00000000000E+00 -0.45593999997E+02  0.45594000000E+02  0.51100000000E-03 0. -1.
    9900012    2    1    2    0    0  0.16070828524E+02 -0.27927172718E+02  0.31478801311E+02  0.46142318326E+02  0.10000005153E+02 0.  0.
         12    1    1    2    0    0 -0.16070828524E+02  0.27927172718E+02 -0.31478801311E+02  0.45045681674E+02  0.00000000000E+00 0. -1.
         11    1    3    3    0    0  0.62967172192E+01 -0.12076607646E+02  0.12969884913E+02  0.18807206461E+02  0.51100000000E-03 0. -1.
        -11    1    3    3    0    0  0.64965465131E+01 -0.43972714345E+01  0.99284702127E+01  0.12653680638E+02  0.51100000000E-03 0.  1.
         12    1    3    3    0    0  0.32775647913E+01 -0.11453293638E+02  0.85804461856E+01  0.14681431227E+02  0.00000000000E+00 0. -1.
</event>
<event>
 7    1  0.2097247E-008  0.4614232E+02  0.7816164E-02  0.1320468E+00
        -11   -1    0    0    0    0  0.00000000000E+00  0.00000000000E+00  0.45593999997E+02  0.45594000000E+02  0.51100000000E-03 0.  1.
         11   -1    0    0    0    0 -0.00000000000E+00 -0.00000000000E+00 -0.45593999997E+02  0.45594000000E+02  0.51100000000E-03 0. -1.
    9900012    2    1    2    0    0  0.42969992503E+02  0.12172165574E+02 -0.58763289648E+01  0.46142321933E+02  0.10000038039E+02 0.  0.
         12    1    1    2    0    0 -0.42969992503E+02 -0.12172165574E+02  0.58763289648E+01  0.45045678067E+02  0.00000000000E+00 0. -1.
         11    1    3    3    0    0  0.22831131503E+02  0.60133110166E+01  0.10570990751E+01  0.23633407156E+02  0.51100000000E-03 0. -1.
        -11    1    3    3    0    0  0.24093226535E+01 -0.35518944420E+00 -0.15198490863E+00  0.24401014044E+01  0.51100000000E-03 0.  1.
         12    1    3    3    0    0  0.17729538346E+02  0.65140440012E+01 -0.67814431313E+01  0.20068813372E+02  0.00000000000E+00 0. -1.
</event>
<event>
 7    1  0.2097247E-008  0.4614232E+02  0.7816164E-02  0.1320468E+00
        -11   -1    0    0    0    0  0.00000000000E+00  0.00000000000E+00  0.45593999997E+02  0.45594000000E+02  0.51100000000E-03 0.  1.
         11   -1    0    0    0    0 -0.00000000000E+00 -0.00000000000E+00 -0.45593999997E+02  0.45594000000E+02  0.51100000000E-03 0. -1.
    9900012    2    1    2    0    0 -0.35679639926E+02  0.22730629473E+02  0.15472399794E+02  0.46142318998E+02  0.10000011282E+02 0.  0.
         12    1    1    2    0    0  0.35679639926E+02 -0.22730629473E+02 -0.15472399794E+02  0.45045681002E+02  0.00000000000E+00 0. -1.
         11    1    3    3    0    0 -0.36158121826E+01  0.18534443459E+01  0.95367583040E+00  0.41735897659E+01  0.51100000000E-03 0. -1.
        -11    1    3    3    0    0 -0.29971560488E+02  0.17476872444E+02  0.15269366411E+02  0.37906319517E+02  0.51100000000E-03 0.  1.
         12    1    3    3    0    0 -0.20922672555E+01  0.34003126830E+01 -0.75064244645E+00  0.40624097151E+01  0.00000000000E+00 0. -1.
</event>
<event>
 7    1  0.2097247E-008  0.4614232E+02  0.7816164E-02  0.1320468E+00
        -11   -1    0    0    0    0  0.00000000000E+00  0.00000000000E+00  0.45593999997E+02  0.45594000000E+02  0.51100000000E-03 0.  1.
         11   -1    0    0    0    0 -0.00000000000E+00 -0.00000000000E+00 -0.45593999997E+02  0.45594000000E+02  0.51100000000E-03 0. -1.
    9900012    2    1    2    0    0 -0.14290306061E+01 -0.23304916263E+02  0.38522101368E+02  0.46142317140E+02  0.99999943380E+01 0.  0.
         12    1    1    2    0    0  0.14290306061E+01  0.23304916263E+02 -0.38522101368E+02  0.45045682860E+02  0.00000000000E+00 0. -1.
         11    1    3    3    0    0  0.63809591933E+00 -0.25987354501E+01  0.51327089602E+01  0.57883757543E+01  0.51100000000E-03 0. -1.
        -11    1    3    3    0    0 -0.12475548332E+01 -0.13322150524E+02  0.13010482130E+02  0.18663031189E+02  0.51100000000E-03 0.  1.
         12    1    3    3    0    0 -0.81957169225E+00 -0.73840302897E+01  0.20378910278E+02  0.21690910197E+02  0.00000000000E+00 0. -1.
</event>
<event>
 7    1  0.2097247E-008  0.4614232E+02  0.7816164E-02  0.1320468E+00
        -11   -1    0    0    0    0  0.00000000000E+00  0.00000000000E+00  0.45593999997E+02  0.45594000000E+02  0.51100000000E-03 0.  1.
         11   -1    0    0    0    0 -0.00000000000E+00 -0.00000000000E+00 -0.45593999997E+02  0.45594000000E+02  0.51100000000E-03 0. -1.
    9900012    2    1    2    0    0  0.19795897783E+02 -0.39138182173E+01  0.40273042837E+02  0.46142317394E+02  0.99999966543E+01 0.  0.
         12    1    1    2    0    0 -0.19795897783E+02  0.39138182173E+01 -0.40273042837E+02  0.45045682606E+02  0.00000000000E+00 0. -1.
         11    1    3    3    0    0  0.66009178527E+01 -0.38005746986E+01  0.10014701573E+02  0.12582159290E+02  0.51100000000E-03 0.  1.
        -11    1    3    3    0    0  0.25121198668E+01 -0.22982570404E+01  0.50056418228E+01  0.60538567845E+01  0.51100000000E-03 0. -1.
        -12    1    3    3    0    0  0.10682860064E+02  0.21850135217E+01  0.25252699442E+02  0.27506301320E+02  0.00000000000E+00 0.  1.
</event>
<event>
 7    1  0.2097247E-008  0.4614232E+02  0.7816164E-02  0.1320468E+00
        -11   -1    0    0    0    0  0.00000000000E+00  0.00000000000E+00  0.45593999997E+02  0.45594000000E+02  0.51100000000E-03 0.  1.
         11   -1    0    0    0    0 -0.00000000000E+00 -0.00000000000E+00 -0.45593999997E+02  0.45594000000E+02  0.51100000000E-03 0. -1.
    9900012    2    1    2    0    0  0.10176287190E+02 -0.43230433068E+02  0.75290324441E+01  0.46142317701E+02  0.99999994493E+01 0.  0.
         12    1    1    2    0    0 -0.10176287190E+02  0.43230433068E+02 -0.75290324441E+01  0.45045682299E+02  0.00000000000E+00 0. -1.
         11    1    3    3    0    0  0.49722203728E+01 -0.18189096099E+02  0.77150240773E+01  0.20373703372E+02  0.51100000000E-03 0. -1.
        -11    1    3    3    0    0  0.38731651421E+01 -0.11324215090E+02 -0.56871748859E+00  0.11981765124E+02  0.51100000000E-03 0.  1.
        -12    1    3    3    0    0  0.13309016753E+01 -0.13717121879E+02  0.38272585540E+00  0.13786849205E+02  0.00000000000E+00 0.  1.
</event>
<event>
 7    1  0.2097247E-008  0.4614232E+02  0.7816164E-02  0.1320468E+00
        -11   -1    0    0    0    0  0.00000000000E+00  0.00000000000E+00  0.45593999997E+02  0.45594000000E+02  0.51100000000E-03 0.  1.
         11   -1    0    0    0    0 -0.00000000000E+00 -0.00000000000E+00 -0.45593999997E+02  0.45594000000E+02  0.51100000000E-03 0. -1.
    9900012    2    1    2    0    0 -0.29992107723E+02  0.24632861011E+02  0.22865019830E+02  0.46142317642E+02  0.99999989133E+01 0.  0.
         12    1    1    2    0    0  0.29992107723E+02 -0.24632861011E+02 -0.22865019830E+02  0.45045682358E+02  0.00000000000E+00 0. -1.
         11    1    3    3    0    0 -0.12560412866E+02  0.11921023013E+02  0.69205892852E+01  0.18648574137E+02  0.51100000000E-03 0. -1.
        -11    1    3    3    0    0 -0.22941290171E+01  0.29375508662E+01  0.55688543086E+01  0.67010724224E+01  0.51100000000E-03 0.  1.
         12    1    3    3    0    0 -0.15137565840E+02  0.97742871321E+01  0.10375576236E+02  0.20792671082E+02  0.00000000000E+00 0. -1.
</event>
<event>
 7    1  0.2097247E-008  0.4614231E+02  0.7816164E-02  0.1320468E+00
        -11   -1    0    0    0    0  0.00000000000E+00  0.00000000000E+00  0.45593999997E+02  0.45594000000E+02  0.51100000000E-03 0.  1.
         11   -1    0    0    0    0 -0.00000000000E+00 -0.00000000000E+00 -0.45593999997E+02  0.45594000000E+02  0.51100000000E-03 0. -1.
    9900012    2    1    2    0    0 -0.22312889045E+02 -0.87784491158E+01  0.38133811689E+02  0.46142314521E+02  0.99999704506E+01 0.  0.
         12    1    1    2    0    0  0.22312889045E+02  0.87784491158E+01 -0.38133811689E+02  0.45045685479E+02  0.00000000000E+00 0. -1.
         11    1    3    3    0    0 -0.12078277164E+02 -0.91155887884E+00  0.17558640642E+02  0.21331234852E+02  0.51100000000E-03 0. -1.
        -11    1    3    3    0    0 -0.13117804035E+01  0.38824258752E+00  0.42001126154E+01  0.44172894830E+01  0.51100000000E-03 0.  1.
         12    1    3    3    0    0 -0.89228314776E+01 -0.82551328245E+01  0.16375058431E+02  0.20393790186E+02  0.00000000000E+00 0. -1.
</event>
<event>
 7    1  0.2097247E-008  0.4614232E+02  0.7816164E-02  0.1320468E+00
        -11   -1    0    0    0    0  0.00000000000E+00  0.00000000000E+00  0.45593999997E+02  0.45594000000E+02  0.51100000000E-03 0.  1.
         11   -1    0    0    0    0 -0.00000000000E+00 -0.00000000000E+00 -0.45593999997E+02  0.45594000000E+02  0.51100000000E-03 0. -1.
    9900012    2    1    2    0    0 -0.42399574881E+02 -0.29329064584E+00  0.15208665014E+02  0.46142318065E+02  0.10000002771E+02 0.  0.
         12    1    1    2    0    0  0.42399574881E+02  0.29329064584E+00 -0.15208665014E+02  0.45045681935E+02  0.00000000000E+00 0. -1.
         11    1    3    3    0    0 -0.29417640302E+01 -0.17681448439E+01  0.25999036207E+00  0.34420788846E+01  0.51100000000E-03 0. -1.
        -11    1    3    3    0    0 -0.18688632918E+02  0.53793636397E+00  0.10486625271E+02  0.21436503579E+02  0.51100000000E-03 0.  1.
         12    1    3    3    0    0 -0.20769177933E+02  0.93691783413E+00  0.44620493809E+01  0.21263735601E+02  0.00000000000E+00 0. -1.
</event>
<event>
 7    1  0.2097247E-008  0.4614232E+02  0.7816164E-02  0.1320468E+00
        -11   -1    0    0    0    0  0.00000000000E+00  0.00000000000E+00  0.45593999997E+02  0.45594000000E+02  0.51100000000E-03 0.  1.
         11   -1    0    0    0    0 -0.00000000000E+00 -0.00000000000E+00 -0.45593999997E+02  0.45594000000E+02  0.51100000000E-03 0. -1.
    9900012    2    1    2    0    0 -0.67542719450E-01 -0.12453937573E+01  0.45028411557E+02  0.46142318575E+02  0.10000007425E+02 0.  0.
         12    1    1    2    0    0  0.67542719450E-01  0.12453937573E+01 -0.45028411557E+02  0.45045681425E+02  0.00000000000E+00 0. -1.
         11    1    3    3    0    0 -0.32309427250E+01  0.16317650360E+01  0.84997650655E+01  0.92383794279E+01  0.51100000000E-03 0. -1.
        -11    1    3    3    0    0  0.18583593168E+01 -0.56780481867E+00  0.72671366346E+01  0.75224448678E+01  0.51100000000E-03 0.  1.
        -12    1    3    3    0    0  0.13050406888E+01 -0.23093539746E+01  0.29261509857E+02  0.29381494280E+02  0.00000000000E+00 0.  1.
</event>
<event>
 7    1  0.2097247E-008  0.4614232E+02  0.7816164E-02  0.1320468E+00
        -11   -1    0    0    0    0  0.00000000000E+00  0.00000000000E+00  0.45593999997E+02  0.45594000000E+02  0.51100000000E-03 0.  1.
         11   -1    0    0    0    0 -0.00000000000E+00 -0.00000000000E+00 -0.45593999997E+02  0.45594000000E+02  0.51100000000E-03 0. -1.
    9900012    2    1    2    0    0  0.75428768422E+01 -0.24940985321E+02  0.36744601759E+02  0.46142317651E+02  0.99999989935E+01 0.  0.
         12    1    1    2    0    0 -0.75428768422E+01  0.24940985321E+02 -0.36744601759E+02  0.45045682349E+02  0.00000000000E+00 0. -1.
         11    1    3    3    0    0  0.60889341420E+00  0.33121243798E+00  0.77738633309E+00  0.10415289919E+01  0.51100000000E-03 0. -1.
        -11    1    3    3    0    0  0.18330790169E+01 -0.38606285368E+01  0.11085063875E+02  0.11880373427E+02  0.51100000000E-03 0.  1.
        -12    1    3    3    0    0  0.51009044111E+01 -0.21411569222E+02  0.24882151551E+02  0.33220415232E+02  0.00000000000E+00 0.  1.
</event>
<event>
 7    1  0.2097247E-008  0.4614232E+02  0.7816164E-02  0.1320468E+00
        -11   -1    0    0    0    0  0.00000000000E+00  0.00000000000E+00  0.45593999997E+02  0.45594000000E+02  0.51100000000E-03 0.  1.
         11   -1    0    0    0    0 -0.00000000000E+00 -0.00000000000E+00 -0.45593999997E+02  0.45594000000E+02  0.51100000000E-03 0. -1.
    9900012    2    1    2    0    0  0.26214070270E+02  0.54529284500E+01  0.36224322092E+02  0.46142318522E+02  0.10000006940E+02 0.  0.
         12    1    1    2    0    0 -0.26214070270E+02 -0.54529284500E+01 -0.36224322092E+02  0.45045681478E+02  0.00000000000E+00 0. -1.
         11    1    3    3    0    0  0.25793212759E+00  0.95072373853E+00  0.15265884965E+01  0.18168316676E+01  0.51100000000E-03 0. -1.
        -11    1    3    3    0    0  0.15484489151E+02  0.56600777089E+01  0.25357781831E+02  0.30246040792E+02  0.51100000000E-03 0.  1.
        -12    1    3    3    0    0  0.10471648991E+02 -0.11578729975E+01  0.93399517646E+01  0.14079446063E+02  0.00000000000E+00 0.  1.
</event>
<event>
 7    1  0.2097247E-008  0.4614232E+02  0.7816164E-02  0.1320468E+00
        -11   -1    0    0    0    0  0.00000000000E+00  0.00000000000E+00  0.45593999997E+02  0.45594000000E+02  0.51100000000E-03 0.  1.
         11   -1    0    0    0    0 -0.00000000000E+00 -0.00000000000E+00 -0.45593999997E+02  0.45594000000E+02  0.51100000000E-03 0. -1.
    9900012    2    1    2    0    0  0.86162132964E+01 -0.20509078635E+02  0.39169529775E+02  0.46142317622E+02  0.99999987356E+01 0.  0.
         12    1    1    2    0    0 -0.86162132964E+01  0.20509078635E+02 -0.39169529775E+02  0.45045682378E+02  0.00000000000E+00 0. -1.
         11    1    3    3    0    0  0.57740092870E+01 -0.11017548254E+02  0.16378233745E+02  0.20566285363E+02  0.51100000000E-03 0. -1.
        -11    1    3    3    0    0  0.45242948330E+01 -0.68093717567E+01  0.13754805663E+02  0.16000983299E+02  0.51100000000E-03 0.  1.
        -12    1    3    3    0    0 -0.16820908235E+01 -0.26821586248E+01  0.90364903677E+01  0.95750489604E+01  0.00000000000E+00 0.  1.
</event>
<event>
 7    1  0.2097247E-008  0.4614232E+02  0.7816164E-02  0.1320468E+00
        -11   -1    0    0    0    0  0.00000000000E+00  0.00000000000E+00  0.45593999997E+02  0.45594000000E+02  0.51100000000E-03 0. -1.
         11   -1    0    0    0    0 -0.00000000000E+00 -0.00000000000E+00 -0.45593999997E+02  0.45594000000E+02  0.51100000000E-03 0.  1.
    9900012    2    1    2    0    0 -0.43233457856E+02 -0.12279912725E+02  0.30307657648E+01  0.46142315680E+02  0.99999810206E+01 0.  0.
         12    1    1    2    0    0  0.43233457856E+02  0.12279912725E+02 -0.30307657648E+01  0.45045684320E+02  0.00000000000E+00 0. -1.
         11    1    3    3    0    0 -0.15850356524E+02 -0.54955481855E+01  0.51387535507E+01  0.17545416499E+02  0.51100000000E-03 0. -1.
        -11    1    3    3    0    0 -0.19240096393E+02 -0.63359876287E+01 -0.37771088191E+00  0.20260027498E+02  0.51100000000E-03 0.  1.
         12    1    3    3    0    0 -0.81430049394E+01 -0.44837691091E+00 -0.17302769040E+01  0.83368716832E+01  0.00000000000E+00 0. -1.
</event>
<event>
 7    1  0.2097247E-008  0.4614232E+02  0.7816164E-02  0.1320468E+00
        -11   -1    0    0    0    0  0.00000000000E+00  0.00000000000E+00  0.45593999997E+02  0.45594000000E+02  0.51100000000E-03 0. -1.
         11   -1    0    0    0    0 -0.00000000000E+00 -0.00000000000E+00 -0.45593999997E+02  0.45594000000E+02  0.51100000000E-03 0.  1.
    9900012    2    1    2    0    0 -0.32931307698E+01  0.39095672937E+02 -0.22131362253E+02  0.46142317101E+02  0.99999939846E+01 0.  0.
         12    1    1    2    0    0  0.32931307698E+01 -0.39095672937E+02  0.22131362253E+02  0.45045682899E+02  0.00000000000E+00 0. -1.
         11    1    3    3    0    0 -0.17122975953E+01  0.74499371383E+01 -0.41289518983E+01  0.86880245430E+01  0.51100000000E-03 0.  1.
        -11    1    3    3    0    0 -0.18250579900E+01  0.29568479919E+02 -0.13635127499E+02  0.32611999993E+02  0.51100000000E-03 0. -1.
         12    1    3    3    0    0  0.24422481549E+00  0.20772558795E+01 -0.43672828553E+01  0.48422925653E+01  0.00000000000E+00 0. -1.
</event>
<event>
 7    1  0.2097247E-008  0.4614232E+02  0.7816164E-02  0.1320468E+00
        -11   -1    0    0    0    0  0.00000000000E+00  0.00000000000E+00  0.45593999997E+02  0.45594000000E+02  0.51100000000E-03 0.  1.
         11   -1    0    0    0    0 -0.00000000000E+00 -0.00000000000E+00 -0.45593999997E+02  0.45594000000E+02  0.51100000000E-03 0. -1.
    9900012    2    1    2    0    0  0.81174538935E+01  0.31234947187E+01  0.44198011783E+02  0.46142317382E+02  0.99999965438E+01 0.  0.
         12    1    1    2    0    0 -0.81174538935E+01 -0.31234947187E+01 -0.44198011783E+02  0.45045682618E+02  0.00000000000E+00 0. -1.
         11    1    3    3    0    0  0.18510001274E+01 -0.20219427062E+01  0.67847664681E+01  0.73176164198E+01  0.51100000000E-03 0. -1.
        -11    1    3    3    0    0  0.16415309805E+01  0.15902929565E+01  0.25053174203E+02  0.25157209574E+02  0.51100000000E-03 0.  1.
         12    1    3    3    0    0  0.46249227857E+01  0.35551444684E+01  0.12360071111E+02  0.13667491388E+02  0.00000000000E+00 0. -1.
</event>
<event>
 7    1  0.2097247E-008  0.4614232E+02  0.7816164E-02  0.1320468E+00
        -11   -1    0    0    0    0  0.00000000000E+00  0.00000000000E+00  0.45593999997E+02  0.45594000000E+02  0.51100000000E-03 0.  1.
         11   -1    0    0    0    0 -0.00000000000E+00 -0.00000000000E+00 -0.45593999997E+02  0.45594000000E+02  0.51100000000E-03 0. -1.
    9900012    2    1    2    0    0  0.24926794911E+02  0.44313969639E+01  0.37257631668E+02  0.46142317620E+02  0.99999987110E+01 0.  0.
         12    1    1    2    0    0 -0.24926794911E+02 -0.44313969639E+01 -0.37257631668E+02  0.45045682380E+02  0.00000000000E+00 0. -1.
         11    1    3    3    0    0  0.18972000139E+02  0.26132676283E+01  0.27574142060E+02  0.33572299110E+02  0.51100000000E-03 0.  1.
        -11    1    3    3    0    0  0.33032115439E+01  0.35287353417E+01  0.53607548771E+01  0.72180934276E+01  0.51100000000E-03 0. -1.
         12    1    3    3    0    0  0.26515832283E+01 -0.17106060061E+01  0.43227347315E+01  0.53519250820E+01  0.00000000000E+00 0. -1.
</event>
<event>
 7    1  0.2097247E-008  0.4614232E+02  0.7816164E-02  0.1320468E+00
        -11   -1    0    0    0    0  0.00000000000E+00  0.00000000000E+00  0.45593999997E+02  0.45594000000E+02  0.51100000000E-03 0.  1.
         11   -1    0    0    0    0 -0.00000000000E+00 -0.00000000000E+00 -0.45593999997E+02  0.45594000000E+02  0.51100000000E-03 0. -1.
    9900012    2    1    2    0    0 -0.34588764553E+02 -0.17187777253E+02  0.23179977464E+02  0.46142315684E+02  0.99999810630E+01 0.  0.
         12    1    1    2    0    0  0.34588764553E+02  0.17187777253E+02 -0.23179977464E+02  0.45045684316E+02  0.00000000000E+00 0. -1.
         11    1    3    3    0    0 -0.63798672509E+00  0.81441965595E+00  0.14123980749E+01  0.17507641248E+01  0.51100000000E-03 0. -1.
        -11    1    3    3    0    0 -0.88010331665E+01 -0.28551076762E+01  0.64332026930E+01  0.11269246727E+02  0.51100000000E-03 0.  1.
        -12    1    3    3    0    0 -0.25149744661E+02 -0.15147089233E+02  0.15334376696E+02  0.33122304833E+02  0.00000000000E+00 0.  1.
</event>
<event>
 7    1  0.2097247E-008  0.4614232E+02  0.7816164E-02  0.1320468E+00
        -11   -1    0    0    0    0  0.00000000000E+00  0.00000000000E+00  0.45593999997E+02  0.45594000000E+02  0.51100000000E-03 0.  1.
         11   -1    0    0    0    0 -0.00000000000E+00 -0.00000000000E+00 -0.45593999997E+02  0.45594000000E+02  0.51100000000E-03 0. -1.
    9900012    2    1    2    0    0  0.17890291979E+01 -0.39647315362E+02  0.21307352655E+02  0.46142317432E+02  0.99999969956E+01 0.  0.
         12    1    1    2    0    0 -0.17890291979E+01  0.39647315362E+02 -0.21307352655E+02  0.45045682568E+02  0.00000000000E+00 0. -1.
         11    1    3    3    0    0  0.13571734126E+01 -0.12793061818E+02  0.31784456460E+01  0.13251674134E+02  0.51100000000E-03 0. -1.
        -11    1    3    3    0    0 -0.12725788671E+01 -0.67622306441E+01  0.71833232778E+01  0.99472284497E+01  0.51100000000E-03 0.  1.
        -12    1    3    3    0    0  0.17044346523E+01 -0.20092022899E+02  0.10945583732E+02  0.22943414848E+02  0.00000000000E+00 0.  1.
</event>
<event>
 7    1  0.2097247E-008  0.4614232E+02  0.7816164E-02  0.1320468E+00
        -11   -1    0    0    0    0  0.00000000000E+00  0.00000000000E+00  0.45593999997E+02  0.45594000000E+02  0.51100000000E-03 0.  1.
         11   -1    0    0    0    0 -0.00000000000E+00 -0.00000000000E+00 -0.45593999997E+02  0.45594000000E+02  0.51100000000E-03 0. -1.
    9900012    2    1    2    0    0 -0.15974002308E+02  0.10676539923E+02  0.40742558434E+02  0.46142319605E+02  0.10000016815E+02 0.  0.
         12    1    1    2    0    0  0.15974002308E+02 -0.10676539923E+02 -0.40742558434E+02  0.45045680395E+02  0.00000000000E+00 0. -1.
         11    1    3    3    0    0 -0.16981183433E+01  0.47036262008E+01  0.14177478538E+02  0.15033582518E+02  0.51100000000E-03 0. -1.
        -11    1    3    3    0    0 -0.42224481603E+01  0.41191484476E+01  0.11103182752E+02  0.12572872380E+02  0.51100000000E-03 0.  1.
         12    1    3    3    0    0 -0.10053435804E+02  0.18537652749E+01  0.15461897144E+02  0.18535864707E+02  0.00000000000E+00 0. -1.
</event>
<event>
 7    1  0.2097247E-008  0.4614232E+02  0.7816164E-02  0.1320468E+00
        -11   -1    0    0    0    0  0.00000000000E+00  0.00000000000E+00  0.45593999997E+02  0.45594000000E+02  0.51100000000E-03 0.  1.
         11   -1    0    0    0    0 -0.00000000000E+00 -0.00000000000E+00 -0.45593999997E+02  0.45594000000E+02  0.51100000000E-03 0. -1.
    9900012    2    1    2    0    0  0.11909682049E+02 -0.22503647236E+02  0.37159908939E+02  0.46142317656E+02  0.99999990454E+01 0.  0.
         12    1    1    2    0    0 -0.11909682049E+02  0.22503647236E+02 -0.37159908939E+02  0.45045682344E+02  0.00000000000E+00 0. -1.
         11    1    3    3    0    0 -0.61453839205E+00 -0.54741741858E+01  0.82207955330E+01  0.98957425143E+01  0.51100000000E-03 0. -1.
        -11    1    3    3    0    0  0.10022223857E+02 -0.16348069745E+02  0.24587405262E+02  0.31180841124E+02  0.51100000000E-03 0.  1.
        -12    1    3    3    0    0  0.25019965832E+01 -0.68140330508E+00  0.43517081444E+01  0.50657340179E+01  0.00000000000E+00 0.  1.
</event>
<event>
 7    1  0.2097247E-008  0.4614232E+02  0.7816164E-02  0.1320468E+00
        -11   -1    0    0    0    0  0.00000000000E+00  0.00000000000E+00  0.45593999997E+02  0.45594000000E+02  0.51100000000E-03 0.  1.
         11   -1    0    0    0    0 -0.00000000000E+00 -0.00000000000E+00 -0.45593999997E+02  0.45594000000E+02  0.51100000000E-03 0. -1.
    9900012    2    1    2    0    0  0.85225718785E+01  0.13929773980E+02  0.41981433101E+02  0.46142316969E+02  0.99999927777E+01 0.  0.
         12    1    1    2    0    0 -0.85225718785E+01 -0.13929773980E+02 -0.41981433101E+02  0.45045683031E+02  0.00000000000E+00 0. -1.
         11    1    3    3    0    0  0.10842856811E+01  0.38523826573E+01  0.21401500316E+02  0.21772476745E+02  0.51100000000E-03 0.  1.
        -11    1    3    3    0    0  0.53498880534E+01  0.89246951795E+01  0.18400043708E+02  0.21138426974E+02  0.51100000000E-03 0. -1.
        -12    1    3    3    0    0  0.20883981440E+01  0.11526961428E+01  0.21798890772E+01  0.32314132503E+01  0.00000000000E+00 0.  1.
</event>
<event>
 7    1  0.2097247E-008  0.4614232E+02  0.7816164E-02  0.1320468E+00
        -11   -1    0    0    0    0  0.00000000000E+00  0.00000000000E+00  0.45593999997E+02  0.45594000000E+02  0.51100000000E-03 0.  1.
         11   -1    0    0    0    0 -0.00000000000E+00 -0.00000000000E+00 -0.45593999997E+02  0.45594000000E+02  0.51100000000E-03 0. -1.
    9900012    2    1    2    0    0  0.19547533693E+02  0.31583194217E+02  0.25485471505E+02  0.46142317763E+02  0.10000000015E+02 0.  0.
         12    1    1    2    0    0 -0.19547533693E+02 -0.31583194217E+02 -0.25485471505E+02  0.45045682237E+02  0.00000000000E+00 0. -1.
         11    1    3    3    0    0  0.11898913275E+01  0.22328624714E-01  0.24119196297E+00  0.12142955830E+01  0.51100000000E-03 0. -1.
        -11    1    3    3    0    0  0.41904343434E+01  0.42404399098E+01  0.68237729601E+01  0.90611780850E+01  0.51100000000E-03 0.  1.
        -12    1    3    3    0    0  0.14167208022E+02  0.27320425682E+02  0.18420506582E+02  0.35866844095E+02  0.00000000000E+00 0.  1.
</event>
<event>
 7    1  0.2097247E-008  0.4614232E+02  0.7816164E-02  0.1320468E+00
        -11   -1    0    0    0    0  0.00000000000E+00  0.00000000000E+00  0.45593999997E+02  0.45594000000E+02  0.51100000000E-03 0. -1.
         11   -1    0    0    0    0 -0.00000000000E+00 -0.00000000000E+00 -0.45593999997E+02  0.45594000000E+02  0.51100000000E-03 0.  1.
    9900012    2    1    2    0    0  0.12034981942E+02 -0.31351047925E+02 -0.30023066257E+02  0.46142317590E+02  0.99999984352E+01 0.  0.
         12    1    1    2    0    0 -0.12034981942E+02  0.31351047925E+02  0.30023066257E+02  0.45045682410E+02  0.00000000000E+00 0. -1.
         11    1    3    3    0    0  0.14400726068E+01 -0.14293132315E+02 -0.16534287131E+02  0.21903198207E+02  0.51100000000E-03 0. -1.
        -11    1    3    3    0    0  0.14445784546E+00 -0.75681346238E+00 -0.62757927754E+00  0.99372566469E+00  0.51100000000E-03 0.  1.
        -12    1    3    3    0    0  0.10450451489E+02 -0.16301102148E+02 -0.12861199849E+02  0.23245393718E+02  0.00000000000E+00 0.  1.
</event>
<event>
 7    1  0.2097247E-008  0.4614232E+02  0.7816164E-02  0.1320468E+00
        -11   -1    0    0    0    0  0.00000000000E+00  0.00000000000E+00  0.45593999997E+02  0.45594000000E+02  0.51100000000E-03 0. -1.
         11   -1    0    0    0    0 -0.00000000000E+00 -0.00000000000E+00 -0.45593999997E+02  0.45594000000E+02  0.51100000000E-03 0.  1.
    9900012    2    1    2    0    0 -0.38374014379E+01 -0.30482892908E+02 -0.32942086344E+02  0.46142318048E+02  0.10000002616E+02 0.  0.
         12    1    1    2    0    0  0.38374014379E+01  0.30482892908E+02  0.32942086344E+02  0.45045681952E+02  0.00000000000E+00 0. -1.
         11    1    3    3    0    0 -0.28460778635E+01 -0.14672710216E+02 -0.18181511267E+02  0.23536268534E+02  0.51100000000E-03 0. -1.
        -11    1    3    3    0    0 -0.37371213467E+01 -0.10433209239E+02 -0.93865611787E+01  0.14523273116E+02  0.51100000000E-03 0.  1.
         12    1    3    3    0    0  0.27457977723E+01 -0.53769734531E+01 -0.53740138983E+01  0.80827763980E+01  0.00000000000E+00 0. -1.
</event>
<event>
 7    1  0.2097247E-008  0.4614232E+02  0.7816164E-02  0.1320468E+00
        -11   -1    0    0    0    0  0.00000000000E+00  0.00000000000E+00  0.45593999997E+02  0.45594000000E+02  0.51100000000E-03 0.  1.
         11   -1    0    0    0    0 -0.00000000000E+00 -0.00000000000E+00 -0.45593999997E+02  0.45594000000E+02  0.51100000000E-03 0. -1.
    9900012    2    1    2    0    0  0.13294758585E+02  0.19685448074E+02  0.38273306674E+02  0.46142317904E+02  0.10000001305E+02 0.  0.
         12    1    1    2    0    0 -0.13294758585E+02 -0.19685448074E+02 -0.38273306674E+02  0.45045682096E+02  0.00000000000E+00 0. -1.
         11    1    3    3    0    0  0.12680824202E+01  0.21132177486E+01  0.12120152747E+01  0.27463982895E+01  0.51100000000E-03 0. -1.
        -11    1    3    3    0    0  0.18265580238E+01  0.77510831273E+01  0.93891942701E+01  0.12311481355E+02  0.51100000000E-03 0.  1.
        -12    1    3    3    0    0  0.10200118141E+02  0.98211471983E+01  0.27672097129E+02  0.31084438259E+02  0.00000000000E+00 0.  1.
</event>
<event>
 7    1  0.2097247E-008  0.4614232E+02  0.7816164E-02  0.1320468E+00
        -11   -1    0    0    0    0  0.00000000000E+00  0.00000000000E+00  0.45593999997E+02  0.45594000000E+02  0.51100000000E-03 0. -1.
         11   -1    0    0    0    0 -0.00000000000E+00 -0.00000000000E+00 -0.45593999997E+02  0.45594000000E+02  0.51100000000E-03 0.  1.
    9900012    2    1    2    0    0 -0.39341434213E+02 -0.21061001448E+01 -0.21838712750E+02  0.46142317873E+02  0.10000001018E+02 0.  0.
         12    1    1    2    0    0  0.39341434213E+02  0.21061001448E+01  0.21838712750E+02  0.45045682127E+02  0.00000000000E+00 0. -1.
         11    1    3    3    0    0 -0.12124621380E+02 -0.25281597580E+01 -0.47331595216E+01  0.13258990711E+02  0.51100000000E-03 0. -1.
        -11    1    3    3    0    0 -0.12130380286E+02 -0.21031581179E+01 -0.10657542849E+02  0.16283507601E+02  0.51100000000E-03 0.  1.
        -12    1    3    3    0    0 -0.15086432547E+02  0.25252177312E+01 -0.64480103792E+01  0.16599819561E+02  0.00000000000E+00 0.  1.
</event>
<event>
 7    1  0.2097247E-008  0.4614232E+02  0.7816164E-02  0.1320468E+00
        -11   -1    0    0    0    0  0.00000000000E+00  0.00000000000E+00  0.45593999997E+02  0.45594000000E+02  0.51100000000E-03 0. -1.
         11   -1    0    0    0    0 -0.00000000000E+00 -0.00000000000E+00 -0.45593999997E+02  0.45594000000E+02  0.51100000000E-03 0.  1.
    9900012    2    1    2    0    0 -0.28196001510E+02  0.26018268199E+02  0.23603996461E+02  0.46142318407E+02  0.10000005892E+02 0.  0.
         12    1    1    2    0    0  0.28196001510E+02 -0.26018268199E+02 -0.23603996461E+02  0.45045681593E+02  0.00000000000E+00 0. -1.
         11    1    3    3    0    0 -0.14090498201E+02  0.14735924346E+02  0.13938539258E+02  0.24697620995E+02  0.51100000000E-03 0. -1.
        -11    1    3    3    0    0  0.26048642114E-01  0.23098272385E+01  0.19038365985E+01  0.29934218644E+01  0.51100000000E-03 0.  1.
        -12    1    3    3    0    0 -0.14131551951E+02  0.89725166137E+01  0.77616206041E+01  0.18451275548E+02  0.00000000000E+00 0.  1.
</event>
<event>
 7    1  0.2097247E-008  0.4614231E+02  0.7816164E-02  0.1320468E+00
        -11   -1    0    0    0    0  0.00000000000E+00  0.00000000000E+00  0.45593999997E+02  0.45594000000E+02  0.51100000000E-03 0.  1.
         11   -1    0    0    0    0 -0.00000000000E+00 -0.00000000000E+00 -0.45593999997E+02  0.45594000000E+02  0.51100000000E-03 0. -1.
    9900012    2    1    2    0    0 -0.15229792330E+02 -0.11288929669E+02  0.40862301135E+02  0.46142310289E+02  0.99999318603E+01 0.  0.
         12    1    1    2    0    0  0.15229792330E+02  0.11288929669E+02 -0.40862301135E+02  0.45045689711E+02  0.00000000000E+00 0. -1.
         11    1    3    3    0    0 -0.73912254795E+01 -0.28078448204E+01  0.23168591808E+02  0.24480560722E+02  0.51100000000E-03 0. -1.
        -11    1    3    3    0    0 -0.49073525953E+01 -0.18474959367E+01  0.73188268217E+01  0.90033647620E+01  0.51100000000E-03 0.  1.
         12    1    3    3    0    0 -0.29312142553E+01 -0.66335889119E+01  0.10374882505E+02  0.12658384805E+02  0.00000000000E+00 0. -1.
</event>
<event>
 7    1  0.2097247E-008  0.4614232E+02  0.7816164E-02  0.1320468E+00
        -11   -1    0    0    0    0  0.00000000000E+00  0.00000000000E+00  0.45593999997E+02  0.45594000000E+02  0.51100000000E-03 0.  1.
         11   -1    0    0    0    0 -0.00000000000E+00 -0.00000000000E+00 -0.45593999997E+02  0.45594000000E+02  0.51100000000E-03 0. -1.
    9900012    2    1    2    0    0 -0.17514343462E+02 -0.39525889990E+02  0.12651689790E+02  0.46142318066E+02  0.10000002779E+02 0.  0.
         12    1    1    2    0    0  0.17514343462E+02  0.39525889990E+02 -0.12651689790E+02  0.45045681934E+02  0.00000000000E+00 0. -1.
         11    1    3    3    0    0  0.33423285557E+00  0.21709828758E+00  0.53489747650E+00  0.66705235155E+00  0.51100000000E-03 0. -1.
        -11    1    3    3    0    0 -0.15449763195E+01 -0.45867479493E+01 -0.10479919650E+00  0.48410940613E+01  0.51100000000E-03 0.  1.
        -12    1    3    3    0    0 -0.16303599998E+02 -0.35156240328E+02  0.12221591510E+02  0.40634171653E+02  0.00000000000E+00 0.  1.
</event>
<event>
 7    1  0.2097247E-008  0.4614232E+02  0.7816164E-02  0.1320468E+00
        -11   -1    0    0    0    0  0.00000000000E+00  0.00000000000E+00  0.45593999997E+02  0.45594000000E+02  0.51100000000E-03 0. -1.
         11   -1    0    0    0    0 -0.00000000000E+00 -0.00000000000E+00 -0.45593999997E+02  0.45594000000E+02  0.51100000000E-03 0.  1.
    9900012    2    1    2    0    0 -0.38143131131E+02 -0.23700697820E+02  0.35344197451E+01  0.46142315939E+02  0.99999833804E+01 0.  0.
         12    1    1    2    0    0  0.38143131131E+02  0.23700697820E+02 -0.35344197451E+01  0.45045684061E+02  0.00000000000E+00 0. -1.
         11    1    3    3    0    0 -0.85145255542E+01 -0.28839923642E+01 -0.72109711474E+00  0.90185663317E+01  0.51100000000E-03 0.  1.
        -11    1    3    3    0    0 -0.57371763278E+01 -0.76323461938E+01  0.32000981049E+00  0.95535494544E+01  0.51100000000E-03 0. -1.
         12    1    3    3    0    0 -0.23891429249E+02 -0.13184359262E+02  0.39355070493E+01  0.27570200152E+02  0.00000000000E+00 0. -1.
</event>
<event>
 7    1  0.2097247E-008  0.4614232E+02  0.7816164E-02  0.1320468E+00
        -11   -1    0    0    0    0  0.00000000000E+00  0.00000000000E+00  0.45593999997E+02  0.45594000000E+02  0.51100000000E-03 0.  1.
         11   -1    0    0    0    0 -0.00000000000E+00 -0.00000000000E+00 -0.45593999997E+02  0.45594000000E+02  0.51100000000E-03 0. -1.
    9900012    2    1    2    0    0 -0.17273010092E+02  0.25525804282E+02  0.32851027545E+02  0.46142316826E+02  0.99999914706E+01 0.  0.
         12    1    1    2    0    0  0.17273010092E+02 -0.25525804282E+02 -0.32851027545E+02  0.45045683174E+02  0.00000000000E+00 0. -1.
         11    1    3    3    0    0 -0.84133643888E+01  0.14570422361E+02  0.21667871796E+02  0.27433165631E+02  0.51100000000E-03 0.  1.
        -11    1    3    3    0    0 -0.92421670034E+01  0.94629031766E+01  0.88564730583E+01  0.15918583566E+02  0.51100000000E-03 0. -1.
         12    1    3    3    0    0  0.38252130033E+00  0.14924787446E+01  0.23266826910E+01  0.27905676292E+01  0.00000000000E+00 0. -1.
</event>
<event>
 7    1  0.2097247E-008  0.4614231E+02  0.7816164E-02  0.1320468E+00
        -11   -1    0    0    0    0  0.00000000000E+00  0.00000000000E+00  0.45593999997E+02  0.45594000000E+02  0.51100000000E-03 0.  1.
         11   -1    0    0    0    0 -0.00000000000E+00 -0.00000000000E+00 -0.45593999997E+02  0.45594000000E+02  0.51100000000E-03 0. -1.
    9900012    2    1    2    0    0 -0.18492687249E+01 -0.14333254987E+02  0.42664409027E+02  0.46142314402E+02  0.99999693726E+01 0.  0.
         12    1    1    2    0    0  0.18492687249E+01  0.14333254987E+02 -0.42664409027E+02  0.45045685598E+02  0.00000000000E+00 0. -1.
         11    1    3    3    0    0  0.14962307329E+01 -0.46380706220E+01  0.61450119165E+01  0.78429316722E+01  0.51100000000E-03 0. -1.
        -11    1    3    3    0    0 -0.17309883410E+01 -0.96275470870E+01  0.33139904382E+02  0.34553425970E+02  0.51100000000E-03 0.  1.
        -12    1    3    3    0    0 -0.16145111168E+01 -0.67637277833E-01  0.33794927283E+01  0.37459567601E+01  0.00000000000E+00 0.  1.
</event>
<event>
 7    1  0.2097247E-008  0.4614232E+02  0.7816164E-02  0.1320468E+00
        -11   -1    0    0    0    0  0.00000000000E+00  0.00000000000E+00  0.45593999997E+02  0.45594000000E+02  0.51100000000E-03 0.  1.
         11   -1    0    0    0    0 -0.00000000000E+00 -0.00000000000E+00 -0.45593999997E+02  0.45594000000E+02  0.51100000000E-03 0. -1.
    9900012    2    1    2    0    0  0.25550649683E+02 -0.32088083473E+02  0.18618074503E+02  0.46142317650E+02  0.99999989846E+01 0.  0.
         12    1    1    2    0    0 -0.25550649683E+02  0.32088083473E+02 -0.18618074503E+02  0.45045682350E+02  0.00000000000E+00 0. -1.
         11    1    3    3    0    0  0.62470517911E+01 -0.81516530065E+01  0.32752938189E+01  0.10779733423E+02  0.51100000000E-03 0.  1.
        -11    1    3    3    0    0 -0.54535862147E+00 -0.75068409834E+00  0.16873014712E+01  0.19255983894E+01  0.51100000000E-03 0. -1.
         12    1    3    3    0    0  0.19848956514E+02 -0.23185746368E+02  0.13655479212E+02  0.33436985837E+02  0.00000000000E+00 0. -1.
</event>
<event>
 7    1  0.2097247E-008  0.4614232E+02  0.7816164E-02  0.1320468E+00
        -11   -1    0    0    0    0  0.00000000000E+00  0.00000000000E+00  0.45593999997E+02  0.45594000000E+02  0.51100000000E-03 0. -1.
         11   -1    0    0    0    0 -0.00000000000E+00 -0.00000000000E+00 -0.45593999997E+02  0.45594000000E+02  0.51100000000E-03 0.  1.
    9900012    2    1    2    0    0  0.31127641574E+02 -0.56114294955E+01 -0.32073278454E+02  0.46142318723E+02  0.10000008771E+02 0.  0.
         12    1    1    2    0    0 -0.31127641574E+02  0.56114294955E+01  0.32073278454E+02  0.45045681277E+02  0.00000000000E+00 0. -1.
         11    1    3    3    0    0  0.52164261469E+01 -0.11954035741E+01 -0.25247783483E+01  0.59173133617E+01  0.51100000000E-03 0. -1.
        -11    1    3    3    0    0  0.95961073249E+00 -0.19296511268E+01 -0.31392690245E+01  0.38078099347E+01  0.51100000000E-03 0.  1.
        -12    1    3    3    0    0  0.24951604694E+02 -0.24863747946E+01 -0.26409231081E+02  0.36417195427E+02  0.00000000000E+00 0.  1.
</event>
<event>
 7    1  0.2097247E-008  0.4614232E+02  0.7816164E-02  0.1320468E+00
        -11   -1    0    0    0    0  0.00000000000E+00  0.00000000000E+00  0.45593999997E+02  0.45594000000E+02  0.51100000000E-03 0. -1.
         11   -1    0    0    0    0 -0.00000000000E+00 -0.00000000000E+00 -0.45593999997E+02  0.45594000000E+02  0.51100000000E-03 0.  1.
    9900012    2    1    2    0    0  0.23732159659E+02  0.34758813501E+02 -0.16053756340E+02  0.46142316403E+02  0.99999876194E+01 0.  0.
         12    1    1    2    0    0 -0.23732159659E+02 -0.34758813501E+02  0.16053756340E+02  0.45045683597E+02  0.00000000000E+00 0. -1.
         11    1    3    3    0    0  0.24782031125E+01  0.59206188895E+01 -0.87015375575E+00  0.64770661971E+01  0.51100000000E-03 0. -1.
        -11    1    3    3    0    0  0.74764009605E+01  0.52011562619E+01 -0.21395385452E+01  0.93555450526E+01  0.51100000000E-03 0.  1.
        -12    1    3    3    0    0  0.13777555586E+02  0.23637038349E+02 -0.13044064039E+02  0.30309705154E+02  0.00000000000E+00 0.  1.
</event>
<event>
 7    1  0.2097247E-008  0.4614232E+02  0.7816164E-02  0.1320468E+00
        -11   -1    0    0    0    0  0.00000000000E+00  0.00000000000E+00  0.45593999997E+02  0.45594000000E+02  0.51100000000E-03 0.  1.
         11   -1    0    0    0    0 -0.00000000000E+00 -0.00000000000E+00 -0.45593999997E+02  0.45594000000E+02  0.51100000000E-03 0. -1.
    9900012    2    1    2    0    0  0.23972588688E+02 -0.87334567128E+01  0.37123512088E+02  0.46142318473E+02  0.10000006489E+02 0.  0.
         12    1    1    2    0    0 -0.23972588688E+02  0.87334567128E+01 -0.37123512088E+02  0.45045681527E+02  0.00000000000E+00 0. -1.
         11    1    3    3    0    0  0.17086527675E+02 -0.73717855123E+01  0.22209855784E+02  0.28975340271E+02  0.51100000000E-03 0. -1.
        -11    1    3    3    0    0  0.32807386548E+00 -0.28825478194E+00 -0.32370252324E+00  0.54360543154E+00  0.51100000000E-03 0.  1.
        -12    1    3    3    0    0  0.65579871471E+01 -0.10734164186E+01  0.15237358827E+02  0.16623372770E+02  0.00000000000E+00 0.  1.
</event>
<event>
 7    1  0.2097247E-008  0.4614232E+02  0.7816164E-02  0.1320468E+00
        -11   -1    0    0    0    0  0.00000000000E+00  0.00000000000E+00  0.45593999997E+02  0.45594000000E+02  0.51100000000E-03 0.  1.
         11   -1    0    0    0    0 -0.00000000000E+00 -0.00000000000E+00 -0.45593999997E+02  0.45594000000E+02  0.51100000000E-03 0. -1.
    9900012    2    1    2    0    0 -0.12924161491E+02  0.37056044998E+02  0.22111738546E+02  0.46142318713E+02  0.10000008676E+02 0.  0.
         12    1    1    2    0    0  0.12924161491E+02 -0.37056044998E+02 -0.22111738546E+02  0.45045681287E+02  0.00000000000E+00 0. -1.
         11    1    3    3    0    0 -0.87964732324E+00  0.44010269929E+00  0.20344916798E+01  0.22597846037E+01  0.51100000000E-03 0. -1.
        -11    1    3    3    0    0 -0.11872213040E+02  0.35714848997E+02  0.20516682518E+02  0.42865302322E+02  0.51100000000E-03 0.  1.
        -12    1    3    3    0    0 -0.17230112770E+00  0.90109330180E+00 -0.43943565147E+00  0.10172317872E+01  0.00000000000E+00 0.  1.
</event>
<event>
 7    1  0.2097247E-008  0.4614232E+02  0.7816164E-02  0.1320468E+00
        -11   -1    0    0    0    0  0.00000000000E+00  0.00000000000E+00  0.45593999997E+02  0.45594000000E+02  0.51100000000E-03 0. -1.
         11   -1    0    0    0    0 -0.00000000000E+00 -0.00000000000E+00 -0.45593999997E+02  0.45594000000E+02  0.51100000000E-03 0.  1.
    9900012    2    1    2    0    0 -0.36702106648E+01  0.44080933552E+02 -0.85155298923E+01  0.46142318758E+02  0.10000009093E+02 0.  0.
         12    1    1    2    0    0  0.36702106648E+01 -0.44080933552E+02  0.85155298923E+01  0.45045681242E+02  0.00000000000E+00 0. -1.
         11    1    3    3    0    0 -0.22421345424E+01  0.50809342934E+01  0.79305476736E+00  0.56099907954E+01  0.51100000000E-03 0.  1.
        -11    1    3    3    0    0  0.18120435282E+00  0.11537899266E+02 -0.15561641126E+00  0.11540371364E+02  0.51100000000E-03 0. -1.
        -12    1    3    3    0    0 -0.16092804752E+01  0.27462099993E+02 -0.91529682484E+01  0.28991956599E+02  0.00000000000E+00 0.  1.
</event>
<event>
 7    1  0.2097247E-008  0.4614230E+02  0.7816164E-02  0.1320468E+00
        -11   -1    0    0    0    0  0.00000000000E+00  0.00000000000E+00  0.45593999997E+02  0.45594000000E+02  0.51100000000E-03 0.  1.
         11   -1    0    0    0    0 -0.00000000000E+00 -0.00000000000E+00 -0.45593999997E+02  0.45594000000E+02  0.51100000000E-03 0. -1.
    9900012    2    1    2    0    0 -0.20238962536E+02  0.15191551767E+02  0.37265480548E+02  0.46142302202E+02  0.99998581182E+01 0.  0.
         12    1    1    2    0    0  0.20238962536E+02 -0.15191551767E+02 -0.37265480548E+02  0.45045697798E+02  0.00000000000E+00 0. -1.
         11    1    3    3    0    0 -0.34539086292E+01 -0.63026000378E-01  0.18488212300E+01  0.39181114453E+01  0.51100000000E-03 0. -1.
        -11    1    3    3    0    0 -0.82444840760E+01  0.68913800795E+01  0.13444209737E+02  0.17210735394E+02  0.51100000000E-03 0.  1.
        -12    1    3    3    0    0 -0.85405698312E+01  0.83631976884E+01  0.21972449581E+02  0.25013455363E+02  0.00000000000E+00 0.  1.
</event>
<event>
 7    1  0.2097247E-008  0.4614232E+02  0.7816164E-02  0.1320468E+00
        -11   -1    0    0    0    0  0.00000000000E+00  0.00000000000E+00  0.45593999997E+02  0.45594000000E+02  0.51100000000E-03 0.  1.
         11   -1    0    0    0    0 -0.00000000000E+00 -0.00000000000E+00 -0.45593999997E+02  0.45594000000E+02  0.51100000000E-03 0. -1.
    9900012    2    1    2    0    0 -0.11875352618E+02  0.20987559091E+02  0.38047494339E+02  0.46142318055E+02  0.10000002683E+02 0.  0.
         12    1    1    2    0    0  0.11875352618E+02 -0.20987559091E+02 -0.38047494339E+02  0.45045681945E+02  0.00000000000E+00 0. -1.
         11    1    3    3    0    0 -0.79560230691E+01  0.10257939085E+02  0.13333229529E+02  0.18609100658E+02  0.51100000000E-03 0. -1.
        -11    1    3    3    0    0 -0.34896909497E+01  0.41494759731E+01  0.13097818649E+02  0.14175646278E+02  0.51100000000E-03 0.  1.
         12    1    3    3    0    0 -0.42963859947E+00  0.65801440332E+01  0.11616446160E+02  0.13357571119E+02  0.00000000000E+00 0. -1.
</event>
<event>
 7    1  0.2097247E-008  0.4614232E+02  0.7816164E-02  0.1320468E+00
        -11   -1    0    0    0    0  0.00000000000E+00  0.00000000000E+00  0.45593999997E+02  0.45594000000E+02  0.51100000000E-03 0.  1.
         11   -1    0    0    0    0 -0.00000000000E+00 -0.00000000000E+00 -0.45593999997E+02  0.45594000000E+02  0.51100000000E-03 0. -1.
    9900012    2    1    2    0    0 -0.27428836698E+02  0.18545285072E+02  0.30542507989E+02  0.46142317906E+02  0.10000001324E+02 0.  0.
         12    1    1    2    0    0  0.27428836698E+02 -0.18545285072E+02 -0.30542507989E+02  0.45045682094E+02  0.00000000000E+00 0. -1.
         11    1    3    3    0    0 -0.23400877425E+01  0.39583515485E+01  0.23154263645E+01  0.51483742225E+01  0.51100000000E-03 0. -1.
        -11    1    3    3    0    0 -0.34831703992E+01  0.49882261008E+01  0.59637284137E+01  0.85194443784E+01  0.51100000000E-03 0.  1.
        -12    1    3    3    0    0 -0.21605578557E+02  0.95987074230E+01  0.22263353211E+02  0.32474499305E+02  0.00000000000E+00 0.  1.
</event>
<event>
 7    1  0.2097247E-008  0.4614232E+02  0.7816164E-02  0.1320468E+00
        -11   -1    0    0    0    0  0.00000000000E+00  0.00000000000E+00  0.45593999997E+02  0.45594000000E+02  0.51100000000E-03 0. -1.
         11   -1    0    0    0    0 -0.00000000000E+00 -0.00000000000E+00 -0.45593999997E+02  0.45594000000E+02  0.51100000000E-03 0.  1.
    9900012    2    1    2    0    0  0.28682333349E+02  0.29301385963E+02 -0.18651166017E+02  0.46142318082E+02  0.10000002925E+02 0.  0.
         12    1    1    2    0    0 -0.28682333349E+02 -0.29301385963E+02  0.18651166017E+02  0.45045681918E+02  0.00000000000E+00 0. -1.
         11    1    3    3    0    0  0.38711558727E+01  0.14366253189E+01 -0.12683092413E+01  0.43195310729E+01  0.51100000000E-03 0. -1.
        -11    1    3    3    0    0  0.16680496271E+02  0.14337782531E+02 -0.12513990244E+02  0.25306341416E+02  0.51100000000E-03 0.  1.
        -12    1    3    3    0    0  0.81306812051E+01  0.13526978113E+02 -0.48688665310E+01  0.16516445593E+02  0.00000000000E+00 0.  1.
</event>
<event>
 7    1  0.2097247E-008  0.4614232E+02  0.7816164E-02  0.1320468E+00
        -11   -1    0    0    0    0  0.00000000000E+00  0.00000000000E+00  0.45593999997E+02  0.45594000000E+02  0.51100000000E-03 0. -1.
         11   -1    0    0    0    0 -0.00000000000E+00 -0.00000000000E+00 -0.45593999997E+02  0.45594000000E+02  0.51100000000E-03 0.  1.
    9900012    2    1    2    0    0 -0.18991732966E+02 -0.38116980619E+02 -0.14680709466E+02  0.46142319153E+02  0.10000012688E+02 0.  0.
         12    1    1    2    0    0  0.18991732966E+02  0.38116980619E+02  0.14680709466E+02  0.45045680847E+02  0.00000000000E+00 0. -1.
         11    1    3    3    0    0 -0.70595780072E+01 -0.14713363781E+02 -0.74001711725E+01  0.17918795970E+02  0.51100000000E-03 0. -1.
        -11    1    3    3    0    0 -0.72478282986E+01 -0.20494140519E+02 -0.54167052016E+01  0.22402712027E+02  0.51100000000E-03 0.  1.
         12    1    3    3    0    0 -0.46843266599E+01 -0.29094763197E+01 -0.18638330923E+01  0.58208111555E+01  0.00000000000E+00 0. -1.
</event>
<event>
 7    1  0.2097247E-008  0.4614232E+02  0.7816164E-02  0.1320468E+00
        -11   -1    0    0    0    0  0.00000000000E+00  0.00000000000E+00  0.45593999997E+02  0.45594000000E+02  0.51100000000E-03 0.  1.
         11   -1    0    0    0    0 -0.00000000000E+00 -0.00000000000E+00 -0.45593999997E+02  0.45594000000E+02  0.51100000000E-03 0. -1.
    9900012    2    1    2    0    0  0.33479358284E+02  0.29863135595E+02  0.40545208187E+01  0.46142318323E+02  0.10000005120E+02 0.  0.
         12    1    1    2    0    0 -0.33479358284E+02 -0.29863135595E+02 -0.40545208187E+01  0.45045681677E+02  0.00000000000E+00 0. -1.
         11    1    3    3    0    0  0.71302674447E+01  0.84871121401E+01  0.11969303061E+00  0.11085400895E+02  0.51100000000E-03 0. -1.
        -11    1    3    3    0    0  0.12632008661E+02  0.10092439241E+02 -0.20856790829E+01  0.16302608078E+02  0.51100000000E-03 0.  1.
        -12    1    3    3    0    0  0.13717082178E+02  0.11283584214E+02  0.60205068710E+01  0.18754309350E+02  0.00000000000E+00 0.  1.
</event>
<event>
 7    1  0.2097247E-008  0.4614232E+02  0.7816164E-02  0.1320468E+00
        -11   -1    0    0    0    0  0.00000000000E+00  0.00000000000E+00  0.45593999997E+02  0.45594000000E+02  0.51100000000E-03 0.  1.
         11   -1    0    0    0    0 -0.00000000000E+00 -0.00000000000E+00 -0.45593999997E+02  0.45594000000E+02  0.51100000000E-03 0. -1.
    9900012    2    1    2    0    0  0.14776670662E+02 -0.18096095518E+02  0.38513567911E+02  0.46142316721E+02  0.99999905157E+01 0.  0.
         12    1    1    2    0    0 -0.14776670662E+02  0.18096095518E+02 -0.38513567911E+02  0.45045683279E+02  0.00000000000E+00 0. -1.
         11    1    3    3    0    0  0.88826818693E+01 -0.12417022426E+02  0.22535830669E+02  0.27220362733E+02  0.51100000000E-03 0. -1.
        -11    1    3    3    0    0  0.22833223934E+01 -0.28944902227E+01  0.19476591740E+01  0.41695337054E+01  0.51100000000E-03 0.  1.
        -12    1    3    3    0    0  0.36106663990E+01 -0.27845828697E+01  0.14030078068E+02  0.14752420283E+02  0.00000000000E+00 0.  1.
</event>
<event>
 7    1  0.2097247E-008  0.4614232E+02  0.7816164E-02  0.1320468E+00
        -11   -1    0    0    0    0  0.00000000000E+00  0.00000000000E+00  0.45593999997E+02  0.45594000000E+02  0.51100000000E-03 0.  1.
         11   -1    0    0    0    0 -0.00000000000E+00 -0.00000000000E+00 -0.45593999997E+02  0.45594000000E+02  0.51100000000E-03 0. -1.
    9900012    2    1    2    0    0  0.35410754066E+01  0.40249432703E+02  0.19913749130E+02  0.46142318161E+02  0.10000003642E+02 0.  0.
         12    1    1    2    0    0 -0.35410754066E+01 -0.40249432703E+02 -0.19913749130E+02  0.45045681839E+02  0.00000000000E+00 0. -1.
         11    1    3    3    0    0 -0.24483282736E+01  0.72252320188E+01  0.41305222800E+01  0.86752235491E+01  0.51100000000E-03 0.  1.
        -11    1    3    3    0    0  0.54082681889E+00  0.40531683462E+00 -0.24233288924E+00  0.71798389591E+00  0.51100000000E-03 0. -1.
        -12    1    3    3    0    0  0.54485768614E+01  0.32618883850E+02  0.16025559739E+02  0.36749110716E+02  0.00000000000E+00 0.  1.
</event>
<event>
 7    1  0.2097247E-008  0.4614232E+02  0.7816164E-02  0.1320468E+00
        -11   -1    0    0    0    0  0.00000000000E+00  0.00000000000E+00  0.45593999997E+02  0.45594000000E+02  0.51100000000E-03 0.  1.
         11   -1    0    0    0    0 -0.00000000000E+00 -0.00000000000E+00 -0.45593999997E+02  0.45594000000E+02  0.51100000000E-03 0. -1.
    9900012    2    1    2    0    0 -0.34077640353E+02  0.25477043717E+02  0.14790140221E+02  0.46142316785E+02  0.99999910956E+01 0.  0.
         12    1    1    2    0    0  0.34077640353E+02 -0.25477043717E+02 -0.14790140221E+02  0.45045683215E+02  0.00000000000E+00 0. -1.
         11    1    3    3    0    0 -0.18927401419E+02  0.16172609153E+02  0.57111135004E+01  0.25542447592E+02  0.51100000000E-03 0. -1.
        -11    1    3    3    0    0 -0.14706959219E+02  0.98897137617E+01  0.89494870897E+01  0.19854329684E+02  0.51100000000E-03 0.  1.
         12    1    3    3    0    0 -0.44327971469E+00 -0.58527919733E+00  0.12953963136E+00  0.74553950960E+00  0.00000000000E+00 0. -1.
</event>
<event>
 7    1  0.2097247E-008  0.4614232E+02  0.7816164E-02  0.1320468E+00
        -11   -1    0    0    0    0  0.00000000000E+00  0.00000000000E+00  0.45593999997E+02  0.45594000000E+02  0.51100000000E-03 0.  1.
         11   -1    0    0    0    0 -0.00000000000E+00 -0.00000000000E+00 -0.45593999997E+02  0.45594000000E+02  0.51100000000E-03 0. -1.
    9900012    2    1    2    0    0  0.12254860322E+02  0.19996586296E+02  0.38458658462E+02  0.46142317902E+02  0.10000001283E+02 0.  0.
         12    1    1    2    0    0 -0.12254860322E+02 -0.19996586296E+02 -0.38458658462E+02  0.45045682098E+02  0.00000000000E+00 0. -1.
         11    1    3    3    0    0  0.45210687752E+01  0.13828402371E+02  0.27154008126E+02  0.30805923661E+02  0.51100000000E-03 0. -1.
        -11    1    3    3    0    0  0.63174084440E+01  0.44408793891E+01  0.10334892303E+02  0.12901203756E+02  0.51100000000E-03 0.  1.
        -12    1    3    3    0    0  0.14163831029E+01  0.17273045360E+01  0.96975803283E+00  0.24351904847E+01  0.00000000000E+00 0.  1.
</event>
<event>
 7    1  0.2097247E-008  0.4614232E+02  0.7816164E-02  0.1320468E+00
        -11   -1    0    0    0    0  0.00000000000E+00  0.00000000000E+00  0.45593999997E+02  0.45594000000E+02  0.51100000000E-03 0.  1.
         11   -1    0    0    0    0 -0.00000000000E+00 -0.00000000000E+00 -0.45593999997E+02  0.45594000000E+02  0.51100000000E-03 0. -1.
    9900012    2    1    2    0    0 -0.32437917403E+02  0.11088859605E+02  0.29222117373E+02  0.46142318336E+02  0.10000005246E+02 0.  0.
         12    1    1    2    0    0  0.32437917403E+02 -0.11088859605E+02 -0.29222117373E+02  0.45045681664E+02  0.00000000000E+00 0. -1.
         11    1    3    3    0    0 -0.51591436113E+01 -0.31301907823E+00  0.33320417752E+01  0.61495728631E+01  0.51100000000E-03 0. -1.
        -11    1    3    3    0    0 -0.67090680658E+01  0.35588453191E+01  0.11182154590E+02  0.13517305791E+02  0.51100000000E-03 0.  1.
        -12    1    3    3    0    0 -0.20569705726E+02  0.78430333640E+01  0.14707921008E+02  0.26475439682E+02  0.00000000000E+00 0.  1.
</event>
<event>
 7    1  0.2097247E-008  0.4614232E+02  0.7816164E-02  0.1320468E+00
        -11   -1    0    0    0    0  0.00000000000E+00  0.00000000000E+00  0.45593999997E+02  0.45594000000E+02  0.51100000000E-03 0. -1.
         11   -1    0    0    0    0 -0.00000000000E+00 -0.00000000000E+00 -0.45593999997E+02  0.45594000000E+02  0.51100000000E-03 0.  1.
    9900012    2    1    2    0    0  0.26161966931E+02 -0.35054340439E+02 -0.10763743855E+02  0.46142317864E+02  0.10000000940E+02 0.  0.
         12    1    1    2    0    0 -0.26161966931E+02  0.35054340439E+02  0.10763743855E+02  0.45045682136E+02  0.00000000000E+00 0. -1.
         11    1    3    3    0    0  0.95180314045E+01 -0.96955901620E+01 -0.45218331372E+01  0.14319370293E+02  0.51100000000E-03 0. -1.
        -11    1    3    3    0    0  0.16292278293E+02 -0.21079525719E+02 -0.67927403404E+01  0.27494109517E+02  0.51100000000E-03 0.  1.
         12    1    3    3    0    0  0.35165723328E+00 -0.42792245583E+01  0.55082962304E+00  0.43288380547E+01  0.00000000000E+00 0. -1.
</event>
<event>
 7    1  0.2097247E-008  0.4614232E+02  0.7816164E-02  0.1320468E+00
        -11   -1    0    0    0    0  0.00000000000E+00  0.00000000000E+00  0.45593999997E+02  0.45594000000E+02  0.51100000000E-03 0.  1.
         11   -1    0    0    0    0 -0.00000000000E+00 -0.00000000000E+00 -0.45593999997E+02  0.45594000000E+02  0.51100000000E-03 0. -1.
    9900012    2    1    2    0    0  0.71351223832E+00  0.12164879082E+02  0.43366114238E+02  0.46142320441E+02  0.10000024442E+02 0.  0.
         12    1    1    2    0    0 -0.71351223832E+00 -0.12164879082E+02 -0.43366114238E+02  0.45045679559E+02  0.00000000000E+00 0. -1.
         11    1    3    3    0    0 -0.31495434544E+01  0.62860978805E+01  0.27242456508E+02  0.28135139726E+02  0.51100000000E-03 0. -1.
        -11    1    3    3    0    0 -0.70277940997E+00  0.13435948188E+01  0.22451419742E+01  0.27092081282E+01  0.51100000000E-03 0.  1.
        -12    1    3    3    0    0  0.45658351027E+01  0.45351863824E+01  0.13878515756E+02  0.15297972588E+02  0.00000000000E+00 0.  1.
</event>
<event>
 7    1  0.2097247E-008  0.4614232E+02  0.7816164E-02  0.1320468E+00
        -11   -1    0    0    0    0  0.00000000000E+00  0.00000000000E+00  0.45593999997E+02  0.45594000000E+02  0.51100000000E-03 0.  1.
         11   -1    0    0    0    0 -0.00000000000E+00 -0.00000000000E+00 -0.45593999997E+02  0.45594000000E+02  0.51100000000E-03 0. -1.
    9900012    2    1    2    0    0  0.32773352024E+02  0.25765053484E+02  0.17064084108E+02  0.46142317073E+02  0.99999937240E+01 0.  0.
         12    1    1    2    0    0 -0.32773352024E+02 -0.25765053484E+02 -0.17064084108E+02  0.45045682927E+02  0.00000000000E+00 0. -1.
         11    1    3    3    0    0  0.14035045886E+02  0.13524329531E+02  0.81872384108E+01  0.21140503195E+02  0.51100000000E-03 0. -1.
        -11    1    3    3    0    0  0.12804626328E+02  0.11658651485E+02  0.75630235673E+01  0.18896611749E+02  0.51100000000E-03 0.  1.
         12    1    3    3    0    0  0.59336798099E+01  0.58207246806E+00  0.13138221301E+01  0.61052021288E+01  0.00000000000E+00 0. -1.
</event>
<event>
 7    1  0.2097247E-008  0.4614232E+02  0.7816164E-02  0.1320468E+00
        -11   -1    0    0    0    0  0.00000000000E+00  0.00000000000E+00  0.45593999997E+02  0.45594000000E+02  0.51100000000E-03 0.  1.
         11   -1    0    0    0    0 -0.00000000000E+00 -0.00000000000E+00 -0.45593999997E+02  0.45594000000E+02  0.51100000000E-03 0. -1.
    9900012    2    1    2    0    0  0.24344075503E+02  0.36529416423E+02  0.10103524152E+02  0.46142317892E+02  0.10000001195E+02 0.  0.
         12    1    1    2    0    0 -0.24344075503E+02 -0.36529416423E+02 -0.10103524152E+02  0.45045682108E+02  0.00000000000E+00 0. -1.
         11    1    3    3    0    0  0.23195365010E+02  0.31545160513E+02  0.87033220747E+01  0.40110720825E+02  0.51100000000E-03 0.  1.
        -11    1    3    3    0    0  0.78639311280E+00 -0.54435246171E-01 -0.42979230939E-02  0.78828678611E+00  0.51100000000E-03 0. -1.
         12    1    3    3    0    0  0.36231738021E+00  0.50386911559E+01  0.14045000003E+01  0.52433102806E+01  0.00000000000E+00 0. -1.
</event>
<event>
 7    1  0.2097247E-008  0.4614232E+02  0.7816164E-02  0.1320468E+00
        -11   -1    0    0    0    0  0.00000000000E+00  0.00000000000E+00  0.45593999997E+02  0.45594000000E+02  0.51100000000E-03 0. -1.
         11   -1    0    0    0    0 -0.00000000000E+00 -0.00000000000E+00 -0.45593999997E+02  0.45594000000E+02  0.51100000000E-03 0.  1.
    9900012    2    1    2    0    0 -0.39745505755E+02  0.60740176491E+01 -0.20310456391E+02  0.46142317000E+02  0.99999930597E+01 0.  0.
         12    1    1    2    0    0  0.39745505755E+02 -0.60740176491E+01  0.20310456391E+02  0.45045683000E+02  0.00000000000E+00 0. -1.
         11    1    3    3    0    0 -0.12504890369E+02  0.18905568781E+01 -0.34213113732E+01  0.13101597621E+02  0.51100000000E-03 0. -1.
        -11    1    3    3    0    0 -0.15072408167E+02  0.45285565430E+01 -0.64645910824E+01  0.17014001600E+02  0.51100000000E-03 0.  1.
        -12    1    3    3    0    0 -0.12168207219E+02 -0.34509577193E+00 -0.10424553936E+02  0.16026717779E+02  0.00000000000E+00 0.  1.
</event>
<event>
 7    1  0.2097247E-008  0.4614232E+02  0.7816164E-02  0.1320468E+00
        -11   -1    0    0    0    0  0.00000000000E+00  0.00000000000E+00  0.45593999997E+02  0.45594000000E+02  0.51100000000E-03 0. -1.
         11   -1    0    0    0    0 -0.00000000000E+00 -0.00000000000E+00 -0.45593999997E+02  0.45594000000E+02  0.51100000000E-03 0.  1.
    9900012    2    1    2    0    0  0.10646866567E+02 -0.17171189490E+02 -0.40260501523E+02  0.46142317643E+02  0.99999989190E+01 0.  0.
         12    1    1    2    0    0 -0.10646866567E+02  0.17171189490E+02  0.40260501523E+02  0.45045682357E+02  0.00000000000E+00 0. -1.
         11    1    3    3    0    0  0.58104588447E+00 -0.26456401732E+01 -0.24855997279E+01  0.36763069125E+01  0.51100000000E-03 0. -1.
        -11    1    3    3    0    0  0.23186743336E+01 -0.65858006956E+01 -0.22699469016E+02  0.23748998197E+02  0.51100000000E-03 0.  1.
        -12    1    3    3    0    0  0.77471463485E+01 -0.79397486210E+01 -0.15075432778E+02  0.18717012533E+02  0.00000000000E+00 0.  1.
</event>
<event>
 7    1  0.2097247E-008  0.4614232E+02  0.7816164E-02  0.1320468E+00
        -11   -1    0    0    0    0  0.00000000000E+00  0.00000000000E+00  0.45593999997E+02  0.45594000000E+02  0.51100000000E-03 0.  1.
         11   -1    0    0    0    0 -0.00000000000E+00 -0.00000000000E+00 -0.45593999997E+02  0.45594000000E+02  0.51100000000E-03 0. -1.
    9900012    2    1    2    0    0  0.20635227905E+02 -0.35053566593E+02  0.19353248997E+02  0.46142318650E+02  0.10000008105E+02 0.  0.
         12    1    1    2    0    0 -0.20635227905E+02  0.35053566593E+02 -0.19353248997E+02  0.45045681350E+02  0.00000000000E+00 0. -1.
         11    1    3    3    0    0  0.13271355623E+02 -0.27754671190E+02  0.11617472160E+02  0.32884894900E+02  0.51100000000E-03 0. -1.
        -11    1    3    3    0    0  0.37422871205E+01 -0.27464922221E+01  0.18947902662E+01  0.50137972468E+01  0.51100000000E-03 0.  1.
         12    1    3    3    0    0  0.36215851621E+01 -0.45524031802E+01  0.58409865707E+01  0.82436265029E+01  0.00000000000E+00 0. -1.
</event>
<event>
 7    1  0.2097247E-008  0.4614232E+02  0.7816164E-02  0.1320468E+00
        -11   -1    0    0    0    0  0.00000000000E+00  0.00000000000E+00  0.45593999997E+02  0.45594000000E+02  0.51100000000E-03 0. -1.
         11   -1    0    0    0    0 -0.00000000000E+00 -0.00000000000E+00 -0.45593999997E+02  0.45594000000E+02  0.51100000000E-03 0.  1.
    9900012    2    1    2    0    0  0.12644431896E+02 -0.37057796114E+02 -0.22269965475E+02  0.46142320151E+02  0.10000021792E+02 0.  0.
         12    1    1    2    0    0 -0.12644431896E+02  0.37057796114E+02  0.22269965475E+02  0.45045679849E+02  0.00000000000E+00 0. -1.
         11    1    3    3    0    0 -0.39376683040E+00 -0.11611409937E+01 -0.27516188965E+01  0.30124255239E+01  0.51100000000E-03 0. -1.
        -11    1    3    3    0    0  0.79019260446E+01 -0.22079007678E+02 -0.14432725534E+02  0.27535914400E+02  0.51100000000E-03 0.  1.
        -12    1    3    3    0    0  0.51362726821E+01 -0.13817647442E+02 -0.50856210452E+01  0.15593980227E+02  0.00000000000E+00 0.  1.
</event>
<event>
 7    1  0.2097247E-008  0.4614232E+02  0.7816164E-02  0.1320468E+00
        -11   -1    0    0    0    0  0.00000000000E+00  0.00000000000E+00  0.45593999997E+02  0.45594000000E+02  0.51100000000E-03 0.  1.
         11   -1    0    0    0    0 -0.00000000000E+00 -0.00000000000E+00 -0.45593999997E+02  0.45594000000E+02  0.51100000000E-03 0. -1.
    9900012    2    1    2    0    0  0.33638284403E+01  0.99179949855E+01  0.43811311731E+02  0.46142323161E+02  0.10000049241E+02 0.  0.
         12    1    1    2    0    0 -0.33638284403E+01 -0.99179949855E+01 -0.43811311731E+02  0.45045676839E+02  0.00000000000E+00 0. -1.
         11    1    3    3    0    0 -0.25017113329E+01  0.17684552983E+01  0.20151004808E+02  0.20382565804E+02  0.51100000000E-03 0. -1.
        -11    1    3    3    0    0  0.85141879272E+00  0.20895346860E+01  0.65623600401E+01  0.69394263972E+01  0.51100000000E-03 0.  1.
         12    1    3    3    0    0  0.50141209805E+01  0.60600050011E+01  0.17097946883E+02  0.18820330959E+02  0.00000000000E+00 0. -1.
</event>
<event>
 7    1  0.2097247E-008  0.4614232E+02  0.7816164E-02  0.1320468E+00
        -11   -1    0    0    0    0  0.00000000000E+00  0.00000000000E+00  0.45593999997E+02  0.45594000000E+02  0.51100000000E-03 0.  1.
         11   -1    0    0    0    0 -0.00000000000E+00 -0.00000000000E+00 -0.45593999997E+02  0.45594000000E+02  0.51100000000E-03 0. -1.
    9900012    2    1    2    0    0  0.36076631862E+02 -0.23965148994E+02  0.12379893046E+02  0.46142317803E+02  0.10000000380E+02 0.  0.
         12    1    1    2    0    0 -0.36076631862E+02  0.23965148994E+02 -0.12379893046E+02  0.45045682197E+02  0.00000000000E+00 0. -1.
         11    1    3    3    0    0  0.71227568084E+01 -0.70751202204E+01  0.65768598649E+01  0.12001919706E+02  0.51100000000E-03 0. -1.
        -11    1    3    3    0    0  0.76390100288E+01 -0.57005883990E+01  0.23863779207E+01  0.98257815036E+01  0.51100000000E-03 0.  1.
         12    1    3    3    0    0  0.21314865024E+02 -0.11189440375E+02  0.34166552607E+01  0.24314616593E+02  0.00000000000E+00 0. -1.
</event>
<event>
 7    1  0.2097247E-008  0.4614232E+02  0.7816164E-02  0.1320468E+00
        -11   -1    0    0    0    0  0.00000000000E+00  0.00000000000E+00  0.45593999997E+02  0.45594000000E+02  0.51100000000E-03 0.  1.
         11   -1    0    0    0    0 -0.00000000000E+00 -0.00000000000E+00 -0.45593999997E+02  0.45594000000E+02  0.51100000000E-03 0. -1.
    9900012    2    1    2    0    0 -0.24848921460E+02  0.76510740969E+01  0.36784584914E+02  0.46142317412E+02  0.99999968134E+01 0.  0.
         12    1    1    2    0    0  0.24848921460E+02 -0.76510740969E+01 -0.36784584914E+02  0.45045682588E+02  0.00000000000E+00 0. -1.
         11    1    3    3    0    0 -0.30903565879E+01  0.24467549848E+01  0.76647135517E+01  0.86188600109E+01  0.51100000000E-03 0. -1.
        -11    1    3    3    0    0 -0.39369711322E+01 -0.19359882355E+01  0.42814397039E+01  0.61301320004E+01  0.51100000000E-03 0.  1.
        -12    1    3    3    0    0 -0.17821593740E+02  0.71403073476E+01  0.24838431658E+02  0.31393325400E+02  0.00000000000E+00 0.  1.
</event>
<event>
 7    1  0.2097247E-008  0.4614230E+02  0.7816164E-02  0.1320468E+00
        -11   -1    0    0    0    0  0.00000000000E+00  0.00000000000E+00  0.45593999997E+02  0.45594000000E+02  0.51100000000E-03 0. -1.
         11   -1    0    0    0    0 -0.00000000000E+00 -0.00000000000E+00 -0.45593999997E+02  0.45594000000E+02  0.51100000000E-03 0.  1.
    9900012    2    1    2    0    0  0.26306821179E+02  0.19872616186E+02 -0.30694382221E+02  0.46142303041E+02  0.99998657677E+01 0.  0.
         12    1    1    2    0    0 -0.26306821179E+02 -0.19872616186E+02  0.30694382221E+02  0.45045696959E+02  0.00000000000E+00 0. -1.
         11    1    3    3    0    0  0.86913134011E+01  0.43790280227E+01 -0.67551287111E+01  0.11846796159E+02  0.51100000000E-03 0. -1.
        -11    1    3    3    0    0  0.80345762594E+01  0.38669371925E+01 -0.54694797835E+01  0.10460536711E+02  0.51100000000E-03 0.  1.
         12    1    3    3    0    0  0.95809315181E+01  0.11626650971E+02 -0.18469773727E+02  0.23834970171E+02  0.00000000000E+00 0. -1.
</event>
<event>
 7    1  0.2097247E-008  0.4614232E+02  0.7816164E-02  0.1320468E+00
        -11   -1    0    0    0    0  0.00000000000E+00  0.00000000000E+00  0.45593999997E+02  0.45594000000E+02  0.51100000000E-03 0. -1.
         11   -1    0    0    0    0 -0.00000000000E+00 -0.00000000000E+00 -0.45593999997E+02  0.45594000000E+02  0.51100000000E-03 0.  1.
    9900012    2    1    2    0    0 -0.36888740791E+02  0.23453517248E+02 -0.10875061633E+02  0.46142316145E+02  0.99999852664E+01 0.  0.
         12    1    1    2    0    0  0.36888740791E+02 -0.23453517248E+02  0.10875061633E+02  0.45045683855E+02  0.00000000000E+00 0. -1.
         11    1    3    3    0    0 -0.24249754536E+02  0.15988932989E+02 -0.29351045062E+01  0.29194372950E+02  0.51100000000E-03 0. -1.
        -11    1    3    3    0    0 -0.17811867813E+01  0.41707908330E+00 -0.19850095405E+01  0.26994155754E+01  0.51100000000E-03 0.  1.
         12    1    3    3    0    0 -0.10857799473E+02  0.70475051750E+01 -0.59549475859E+01  0.14248527620E+02  0.00000000000E+00 0. -1.
</event>
<event>
 7    1  0.2097247E-008  0.4614232E+02  0.7816164E-02  0.1320468E+00
        -11   -1    0    0    0    0  0.00000000000E+00  0.00000000000E+00  0.45593999997E+02  0.45594000000E+02  0.51100000000E-03 0.  1.
         11   -1    0    0    0    0 -0.00000000000E+00 -0.00000000000E+00 -0.45593999997E+02  0.45594000000E+02  0.51100000000E-03 0. -1.
    9900012    2    1    2    0    0 -0.25284846926E+02  0.22950113121E+02  0.29378264564E+02  0.46142316465E+02  0.99999881774E+01 0.  0.
         12    1    1    2    0    0  0.25284846926E+02 -0.22950113121E+02 -0.29378264564E+02  0.45045683535E+02  0.00000000000E+00 0. -1.
         11    1    3    3    0    0  0.26781356923E+00  0.16509051013E+01  0.31900386601E+01  0.36018826571E+01  0.51100000000E-03 0. -1.
        -11    1    3    3    0    0 -0.10812662950E+02  0.68957881483E+01  0.11583543817E+02  0.17281321185E+02  0.51100000000E-03 0.  1.
         12    1    3    3    0    0 -0.14739997545E+02  0.14403419872E+02  0.14604682087E+02  0.25259112623E+02  0.00000000000E+00 0. -1.
</event>
<event>
 7    1  0.2097247E-008  0.4614232E+02  0.7816164E-02  0.1320468E+00
        -11   -1    0    0    0    0  0.00000000000E+00  0.00000000000E+00  0.45593999997E+02  0.45594000000E+02  0.51100000000E-03 0. -1.
         11   -1    0    0    0    0 -0.00000000000E+00 -0.00000000000E+00 -0.45593999997E+02  0.45594000000E+02  0.51100000000E-03 0.  1.
    9900012    2    1    2    0    0 -0.32403995764E+02 -0.31161099834E+02 -0.28426041196E+01  0.46142317826E+02  0.10000000594E+02 0.  0.
         12    1    1    2    0    0  0.32403995764E+02  0.31161099834E+02  0.28426041196E+01  0.45045682174E+02  0.00000000000E+00 0. -1.
         11    1    3    3    0    0 -0.36323970908E+01 -0.29250840210E+01  0.10999486237E+01  0.47916920176E+01  0.51100000000E-03 0. -1.
        -11    1    3    3    0    0 -0.68456987209E+01 -0.12139960240E+02 -0.20237895335E+01  0.14083250688E+02  0.51100000000E-03 0.  1.
        -12    1    3    3    0    0 -0.21925899952E+02 -0.16096055573E+02 -0.19187632098E+01  0.27267375121E+02  0.00000000000E+00 0.  1.
</event>
<event>
 7    1  0.2097247E-008  0.4614232E+02  0.7816164E-02  0.1320468E+00
        -11   -1    0    0    0    0  0.00000000000E+00  0.00000000000E+00  0.45593999997E+02  0.45594000000E+02  0.51100000000E-03 0. -1.
         11   -1    0    0    0    0 -0.00000000000E+00 -0.00000000000E+00 -0.45593999997E+02  0.45594000000E+02  0.51100000000E-03 0.  1.
    9900012    2    1    2    0    0 -0.27371718284E+02  0.29172191125E+02 -0.20709560935E+02  0.46142316401E+02  0.99999875930E+01 0.  0.
         12    1    1    2    0    0  0.27371718284E+02 -0.29172191125E+02  0.20709560935E+02  0.45045683599E+02  0.00000000000E+00 0. -1.
         11    1    3    3    0    0 -0.45865091750E+01  0.65639224586E+01 -0.69287190716E+01  0.10589064769E+02  0.51100000000E-03 0. -1.
        -11    1    3    3    0    0 -0.83155290978E+01  0.94938160068E+01 -0.88424914287E+01  0.15410068834E+02  0.51100000000E-03 0.  1.
         12    1    3    3    0    0 -0.14469680011E+02  0.13114452659E+02 -0.49383504347E+01  0.20143182797E+02  0.00000000000E+00 0. -1.
</event>
<event>
 7    1  0.2097247E-008  0.4614232E+02  0.7816164E-02  0.1320468E+00
        -11   -1    0    0    0    0  0.00000000000E+00  0.00000000000E+00  0.45593999997E+02  0.45594000000E+02  0.51100000000E-03 0. -1.
         11   -1    0    0    0    0 -0.00000000000E+00 -0.00000000000E+00 -0.45593999997E+02  0.45594000000E+02  0.51100000000E-03 0.  1.
    9900012    2    1    2    0    0 -0.35340898096E+02 -0.27393039036E+02  0.54548921817E+01  0.46142317470E+02  0.99999973471E+01 0.  0.
         12    1    1    2    0    0  0.35340898096E+02  0.27393039036E+02 -0.54548921817E+01  0.45045682530E+02  0.00000000000E+00 0. -1.
         11    1    3    3    0    0  0.26252819713E+00 -0.12892487622E+01 -0.79527528095E-01  0.13181078537E+01  0.51100000000E-03 0. -1.
        -11    1    3    3    0    0 -0.16128364493E+02 -0.11542031016E+02  0.52064322071E+01  0.20504866685E+02  0.51100000000E-03 0.  1.
         12    1    3    3    0    0 -0.19475061801E+02 -0.14561759257E+02  0.32798750274E+00  0.24319342931E+02  0.00000000000E+00 0. -1.
</event>
<event>
 7    1  0.2097247E-008  0.4614232E+02  0.7816164E-02  0.1320468E+00
        -11   -1    0    0    0    0  0.00000000000E+00  0.00000000000E+00  0.45593999997E+02  0.45594000000E+02  0.51100000000E-03 0.  1.
         11   -1    0    0    0    0 -0.00000000000E+00 -0.00000000000E+00 -0.45593999997E+02  0.45594000000E+02  0.51100000000E-03 0. -1.
    9900012    2    1    2    0    0 -0.22406389006E+02  0.29233411437E+02  0.25932119165E+02  0.46142318554E+02  0.10000007232E+02 0.  0.
         12    1    1    2    0    0  0.22406389006E+02 -0.29233411437E+02 -0.25932119165E+02  0.45045681446E+02  0.00000000000E+00 0. -1.
         11    1    3    3    0    0 -0.66029934536E+01  0.86798855143E+01  0.75104941395E+01  0.13241882705E+02  0.51100000000E-03 0. -1.
        -11    1    3    3    0    0 -0.10667629506E+02  0.17469007466E+02  0.17311279113E+02  0.26807553523E+02  0.51100000000E-03 0.  1.
         12    1    3    3    0    0 -0.51357660465E+01  0.30845184565E+01  0.11103459130E+01  0.60928823261E+01  0.00000000000E+00 0. -1.
</event>
<event>
 7    1  0.2097247E-008  0.4614231E+02  0.7816164E-02  0.1320468E+00
        -11   -1    0    0    0    0  0.00000000000E+00  0.00000000000E+00  0.45593999997E+02  0.45594000000E+02  0.51100000000E-03 0. -1.
         11   -1    0    0    0    0 -0.00000000000E+00 -0.00000000000E+00 -0.45593999997E+02  0.45594000000E+02  0.51100000000E-03 0.  1.
    9900012    2    1    2    0    0  0.35704412593E+02  0.23926976152E+02  0.13483637165E+02  0.46142314994E+02  0.99999747685E+01 0.  0.
         12    1    1    2    0    0 -0.35704412593E+02 -0.23926976152E+02 -0.13483637165E+02  0.45045685006E+02  0.00000000000E+00 0. -1.
         11    1    3    3    0    0  0.73308275490E+01  0.84153777208E+01  0.66968364810E+01  0.13015653416E+02  0.51100000000E-03 0.  1.
        -11    1    3    3    0    0  0.11000405699E+02  0.55397540997E+01  0.14883031366E+01  0.12406161675E+02  0.51100000000E-03 0. -1.
        -12    1    3    3    0    0  0.17373179346E+02  0.99718443319E+01  0.52984975477E+01  0.20720499903E+02  0.00000000000E+00 0.  1.
</event>
<event>
 7    1  0.2097247E-008  0.4614232E+02  0.7816164E-02  0.1320468E+00
        -11   -1    0    0    0    0  0.00000000000E+00  0.00000000000E+00  0.45593999997E+02  0.45594000000E+02  0.51100000000E-03 0. -1.
         11   -1    0    0    0    0 -0.00000000000E+00 -0.00000000000E+00 -0.45593999997E+02  0.45594000000E+02  0.51100000000E-03 0.  1.
    9900012    2    1    2    0    0 -0.29456569049E+02 -0.27290228025E+02 -0.20412433522E+02  0.46142318208E+02  0.10000004079E+02 0.  0.
         12    1    1    2    0    0  0.29456569049E+02  0.27290228025E+02  0.20412433522E+02  0.45045681792E+02  0.00000000000E+00 0. -1.
         11    1    3    3    0    0 -0.33307421754E+00 -0.32538313339E+00 -0.23859953078E+01  0.24310052423E+01  0.51100000000E-03 0. -1.
        -11    1    3    3    0    0 -0.43927864292E+01 -0.52133171520E+01 -0.40794686998E+01  0.79446405503E+01  0.51100000000E-03 0.  1.
        -12    1    3    3    0    0 -0.24730708402E+02 -0.21751527739E+02 -0.13946969515E+02  0.35766672416E+02  0.00000000000E+00 0.  1.
</event>
<event>
 7    1  0.2097247E-008  0.4614232E+02  0.7816164E-02  0.1320468E+00
        -11   -1    0    0    0    0  0.00000000000E+00  0.00000000000E+00  0.45593999997E+02  0.45594000000E+02  0.51100000000E-03 0.  1.
         11   -1    0    0    0    0 -0.00000000000E+00 -0.00000000000E+00 -0.45593999997E+02  0.45594000000E+02  0.51100000000E-03 0. -1.
    9900012    2    1    2    0    0 -0.37936306556E+02 -0.11377322242E+02  0.21459420841E+02  0.46142316973E+02  0.99999928160E+01 0.  0.
         12    1    1    2    0    0  0.37936306556E+02  0.11377322242E+02 -0.21459420841E+02  0.45045683027E+02  0.00000000000E+00 0. -1.
         11    1    3    3    0    0 -0.83707981792E+01 -0.27373383659E+01  0.92159891721E+01  0.12747460146E+02  0.51100000000E-03 0. -1.
        -11    1    3    3    0    0 -0.11046025356E+02 -0.52964534861E+01  0.49146685622E+01  0.13199282671E+02  0.51100000000E-03 0.  1.
        -12    1    3    3    0    0 -0.18519483021E+02 -0.33435303898E+01  0.73287631063E+01  0.20195574156E+02  0.00000000000E+00 0.  1.
</event>
<event>
 7    1  0.2097247E-008  0.4614232E+02  0.7816164E-02  0.1320468E+00
        -11   -1    0    0    0    0  0.00000000000E+00  0.00000000000E+00  0.45593999997E+02  0.45594000000E+02  0.51100000000E-03 0.  1.
         11   -1    0    0    0    0 -0.00000000000E+00 -0.00000000000E+00 -0.45593999997E+02  0.45594000000E+02  0.51100000000E-03 0. -1.
    9900012    2    1    2    0    0  0.38720468185E+02 -0.28127724100E+01  0.22845724089E+02  0.46142318140E+02  0.10000003456E+02 0.  0.
         12    1    1    2    0    0 -0.38720468185E+02  0.28127724100E+01 -0.22845724089E+02  0.45045681860E+02  0.00000000000E+00 0. -1.
         11    1    3    3    0    0  0.70758106979E-01 -0.92090790894E+00 -0.12616962977E+00  0.93220015182E+00  0.51100000000E-03 0. -1.
        -11    1    3    3    0    0  0.15288430147E+02  0.45027005756E+00  0.11118156100E+02  0.18909051663E+02  0.51100000000E-03 0.  1.
        -12    1    3    3    0    0  0.23361279930E+02 -0.23421345586E+01  0.11853737619E+02  0.26301066325E+02  0.00000000000E+00 0.  1.
</event>
<event>
 7    1  0.2097247E-008  0.4614233E+02  0.7816164E-02  0.1320468E+00
        -11   -1    0    0    0    0  0.00000000000E+00  0.00000000000E+00  0.45593999997E+02  0.45594000000E+02  0.51100000000E-03 0.  1.
         11   -1    0    0    0    0 -0.00000000000E+00 -0.00000000000E+00 -0.45593999997E+02  0.45594000000E+02  0.51100000000E-03 0. -1.
    9900012    2    1    2    0    0  0.29994114754E+02 -0.32250918222E+02  0.94521789012E+01  0.46142330597E+02  0.10000117047E+02 0.  0.
         12    1    1    2    0    0 -0.29994114754E+02  0.32250918222E+02 -0.94521789012E+01  0.45045669403E+02  0.00000000000E+00 0. -1.
         11    1    3    3    0    0  0.89790609646E+01 -0.86563920578E+01  0.11456346883E+01  0.12524741050E+02  0.51100000000E-03 0. -1.
        -11    1    3    3    0    0  0.13796147292E+02 -0.12183861065E+02  0.14207295197E+01  0.18460731924E+02  0.51100000000E-03 0.  1.
        -12    1    3    3    0    0  0.72189064970E+01 -0.11410665099E+02  0.68858146932E+01  0.15156857623E+02  0.00000000000E+00 0.  1.
</event>
<event>
 7    1  0.2097247E-008  0.4614232E+02  0.7816164E-02  0.1320468E+00
        -11   -1    0    0    0    0  0.00000000000E+00  0.00000000000E+00  0.45593999997E+02  0.45594000000E+02  0.51100000000E-03 0.  1.
         11   -1    0    0    0    0 -0.00000000000E+00 -0.00000000000E+00 -0.45593999997E+02  0.45594000000E+02  0.51100000000E-03 0. -1.
    9900012    2    1    2    0    0 -0.14154985174E+02 -0.42739160316E+02 -0.14538761531E+01  0.46142321122E+02  0.10000030643E+02 0.  0.
         12    1    1    2    0    0  0.14154985174E+02  0.42739160316E+02  0.14538761531E+01  0.45045678878E+02  0.00000000000E+00 0. -1.
         11    1    3    3    0    0  0.69450894346E+00 -0.88986510375E+00  0.91486421301E+00  0.14529898020E+01  0.51100000000E-03 0. -1.
        -11    1    3    3    0    0 -0.56610031717E+01 -0.13003016908E+02 -0.25778896512E+01  0.14414261027E+02  0.51100000000E-03 0.  1.
        -12    1    3    3    0    0 -0.91884909454E+01 -0.28846278303E+02  0.20914928513E+00  0.30275070293E+02  0.00000000000E+00 0.  1.
</event>
<event>
 7    1  0.2097247E-008  0.4614232E+02  0.7816164E-02  0.1320468E+00
        -11   -1    0    0    0    0  0.00000000000E+00  0.00000000000E+00  0.45593999997E+02  0.45594000000E+02  0.51100000000E-03 0. -1.
         11   -1    0    0    0    0 -0.00000000000E+00 -0.00000000000E+00 -0.45593999997E+02  0.45594000000E+02  0.51100000000E-03 0.  1.
    9900012    2    1    2    0    0  0.41404307415E+02 -0.17202188626E+02  0.43452834144E+01  0.46142318143E+02  0.10000003484E+02 0.  0.
         12    1    1    2    0    0 -0.41404307415E+02  0.17202188626E+02 -0.43452834144E+01  0.45045681857E+02  0.00000000000E+00 0. -1.
         11    1    3    3    0    0  0.18838196064E+02 -0.10759829967E+02 -0.11267615273E+00  0.21694798179E+02  0.51100000000E-03 0. -1.
        -11    1    3    3    0    0  0.14177552219E+02 -0.47060237993E+01  0.33829137569E+00  0.14942024235E+02  0.51100000000E-03 0.  1.
         12    1    3    3    0    0  0.83885591315E+01 -0.17363348596E+01  0.41196681914E+01  0.95054957290E+01  0.00000000000E+00 0. -1.
</event>
<event>
 7    1  0.2097247E-008  0.4614232E+02  0.7816164E-02  0.1320468E+00
        -11   -1    0    0    0    0  0.00000000000E+00  0.00000000000E+00  0.45593999997E+02  0.45594000000E+02  0.51100000000E-03 0.  1.
         11   -1    0    0    0    0 -0.00000000000E+00 -0.00000000000E+00 -0.45593999997E+02  0.45594000000E+02  0.51100000000E-03 0. -1.
    9900012    2    1    2    0    0  0.28355637308E+02 -0.27008599131E+02  0.22262229513E+02  0.46142318109E+02  0.10000003172E+02 0.  0.
         12    1    1    2    0    0 -0.28355637308E+02  0.27008599131E+02 -0.22262229513E+02  0.45045681891E+02  0.00000000000E+00 0. -1.
         11    1    3    3    0    0  0.20071869731E+02 -0.23583098348E+02  0.18398626219E+02  0.36021548123E+02  0.51100000000E-03 0.  1.
        -11    1    3    3    0    0 -0.15536746894E+00 -0.10136363599E+00  0.34550448112E+00  0.39215716837E+00  0.51100000000E-03 0. -1.
        -12    1    3    3    0    0  0.84391350458E+01 -0.33241371465E+01  0.35180988129E+01  0.97286128172E+01  0.00000000000E+00 0.  1.
</event>
<event>
 7    1  0.2097247E-008  0.4614232E+02  0.7816164E-02  0.1320468E+00
        -11   -1    0    0    0    0  0.00000000000E+00  0.00000000000E+00  0.45593999997E+02  0.45594000000E+02  0.51100000000E-03 0.  1.
         11   -1    0    0    0    0 -0.00000000000E+00 -0.00000000000E+00 -0.45593999997E+02  0.45594000000E+02  0.51100000000E-03 0. -1.
    9900012    2    1    2    0    0  0.16635382326E+02 -0.39885688174E+02 -0.12708639930E+02  0.46142316577E+02  0.99999891981E+01 0.  0.
         12    1    1    2    0    0 -0.16635382326E+02  0.39885688174E+02  0.12708639930E+02  0.45045683423E+02  0.00000000000E+00 0. -1.
         11    1    3    3    0    0  0.49292811961E+00 -0.38425281382E+01  0.36344754256E+00  0.38910274994E+01  0.51100000000E-03 0. -1.
        -11    1    3    3    0    0  0.10593678771E+02 -0.15179887395E+02 -0.73546832478E+01  0.19918493346E+02  0.51100000000E-03 0.  1.
         12    1    3    3    0    0  0.55487754348E+01 -0.20863272641E+02 -0.57174042250E+01  0.22332795732E+02  0.00000000000E+00 0. -1.
</event>
<event>
 7    1  0.2097247E-008  0.4614232E+02  0.7816164E-02  0.1320468E+00
        -11   -1    0    0    0    0  0.00000000000E+00  0.00000000000E+00  0.45593999997E+02  0.45594000000E+02  0.51100000000E-03 0.  1.
         11   -1    0    0    0    0 -0.00000000000E+00 -0.00000000000E+00 -0.45593999997E+02  0.45594000000E+02  0.51100000000E-03 0. -1.
    9900012    2    1    2    0    0 -0.24285792174E+02  0.37026235026E+02 -0.82687167327E+01  0.46142318097E+02  0.10000003061E+02 0.  0.
         12    1    1    2    0    0  0.24285792174E+02 -0.37026235026E+02  0.82687167327E+01  0.45045681903E+02  0.00000000000E+00 0. -1.
         11    1    3    3    0    0 -0.87320904832E+00  0.36240120098E+00  0.20433978292E+00  0.96725574723E+00  0.51100000000E-03 0. -1.
        -11    1    3    3    0    0 -0.90496462552E+01  0.10060131506E+02 -0.61176171089E+01  0.14850171131E+02  0.51100000000E-03 0.  1.
         12    1    3    3    0    0 -0.14362936871E+02  0.26603702319E+02 -0.23554394067E+01  0.30324891219E+02  0.00000000000E+00 0. -1.
</event>
<event>
 7    1  0.2097247E-008  0.4614232E+02  0.7816164E-02  0.1320468E+00
        -11   -1    0    0    0    0  0.00000000000E+00  0.00000000000E+00  0.45593999997E+02  0.45594000000E+02  0.51100000000E-03 0.  1.
         11   -1    0    0    0    0 -0.00000000000E+00 -0.00000000000E+00 -0.45593999997E+02  0.45594000000E+02  0.51100000000E-03 0. -1.
    9900012    2    1    2    0    0  0.13332327140E+02  0.22496487823E+02  0.36677929979E+02  0.46142318089E+02  0.10000002986E+02 0.  0.
         12    1    1    2    0    0 -0.13332327140E+02 -0.22496487823E+02 -0.36677929979E+02  0.45045681911E+02  0.00000000000E+00 0. -1.
         11    1    3    3    0    0  0.14936849213E+02  0.20427218917E+02  0.32597959345E+02  0.41267513746E+02  0.51100000000E-03 0.  1.
        -11    1    3    3    0    0 -0.70482103237E+00  0.13211111145E+01  0.22493951877E+01  0.27022002584E+01  0.51100000000E-03 0. -1.
        -12    1    3    3    0    0 -0.89970103991E+00  0.74815779190E+00  0.18305754462E+01  0.21726040843E+01  0.00000000000E+00 0.  1.
</event>
<event>
 7    1  0.2097247E-008  0.4614232E+02  0.7816164E-02  0.1320468E+00
        -11   -1    0    0    0    0  0.00000000000E+00  0.00000000000E+00  0.45593999997E+02  0.45594000000E+02  0.51100000000E-03 0.  1.
         11   -1    0    0    0    0 -0.00000000000E+00 -0.00000000000E+00 -0.45593999997E+02  0.45594000000E+02  0.51100000000E-03 0. -1.
    9900012    2    1    2    0    0  0.15049420525E+02 -0.32318049284E+02  0.27534925435E+02  0.46142317783E+02  0.10000000198E+02 0.  0.
         12    1    1    2    0    0 -0.15049420525E+02  0.32318049284E+02 -0.27534925435E+02  0.45045682217E+02  0.00000000000E+00 0. -1.
         11    1    3    3    0    0 -0.11649043410E+00 -0.57438512332E+01  0.46191929882E+01  0.73717257907E+01  0.51100000000E-03 0. -1.
        -11    1    3    3    0    0  0.38498145353E+00 -0.19115420812E+01  0.37165953259E+01  0.41970566979E+01  0.51100000000E-03 0.  1.
        -12    1    3    3    0    0  0.14780929506E+02 -0.24662655970E+02  0.19199137121E+02  0.34573535294E+02  0.00000000000E+00 0.  1.
</event>
<event>
 7    1  0.2097247E-008  0.4614232E+02  0.7816164E-02  0.1320468E+00
        -11   -1    0    0    0    0  0.00000000000E+00  0.00000000000E+00  0.45593999997E+02  0.45594000000E+02  0.51100000000E-03 0.  1.
         11   -1    0    0    0    0 -0.00000000000E+00 -0.00000000000E+00 -0.45593999997E+02  0.45594000000E+02  0.51100000000E-03 0. -1.
    9900012    2    1    2    0    0  0.10243437289E+02  0.25724496820E+02  0.35530768829E+02  0.46142320099E+02  0.10000021322E+02 0.  0.
         12    1    1    2    0    0 -0.10243437289E+02 -0.25724496820E+02 -0.35530768829E+02  0.45045679901E+02  0.00000000000E+00 0. -1.
         11    1    3    3    0    0  0.36013363600E+01  0.60272624094E+01  0.10485158641E+02  0.12618877435E+02  0.51100000000E-03 0. -1.
        -11    1    3    3    0    0  0.50735135820E+01  0.56860606221E+01  0.12559591781E+02  0.14690649116E+02  0.51100000000E-03 0.  1.
         12    1    3    3    0    0  0.15685873468E+01  0.14011173788E+02  0.12486018406E+02  0.18832793548E+02  0.00000000000E+00 0. -1.
</event>
<event>
 7    1  0.5132353E-008  0.4614232E+02  0.7816164E-02  0.1320468E+00
        -11   -1    0    0    0    0  0.00000000000E+00  0.00000000000E+00  0.45593999997E+02  0.45594000000E+02  0.51100000000E-03 0.  1.
         11   -1    0    0    0    0 -0.00000000000E+00 -0.00000000000E+00 -0.45593999997E+02  0.45594000000E+02  0.51100000000E-03 0. -1.
    9900012    2    1    2    0    0  0.13754403569E+02  0.17968763957E+02  0.38949372029E+02  0.46142315666E+02  0.99999808967E+01 0.  0.
         12    1    1    2    0    0 -0.13754403569E+02 -0.17968763957E+02 -0.38949372029E+02  0.45045684334E+02  0.00000000000E+00 0. -1.
         11    1    3    3    0    0  0.28591319039E+01  0.10136125716E+02  0.11677719569E+02  0.15725292187E+02  0.51100000000E-03 0. -1.
        -11    1    3    3    0    0  0.10379999295E+02  0.76971089710E+01  0.25880315628E+02  0.28927160406E+02  0.51100000000E-03 0.  1.
         12    1    3    3    0    0  0.51527236989E+00  0.13552927004E+00  0.13913368315E+01  0.14898630732E+01  0.00000000000E+00 0. -1.
</event>
<event>
 7    1  0.2097247E-008  0.4614232E+02  0.7816164E-02  0.1320468E+00
        -11   -1    0    0    0    0  0.00000000000E+00  0.00000000000E+00  0.45593999997E+02  0.45594000000E+02  0.51100000000E-03 0.  1.
         11   -1    0    0    0    0 -0.00000000000E+00 -0.00000000000E+00 -0.45593999997E+02  0.45594000000E+02  0.51100000000E-03 0. -1.
    9900012    2    1    2    0    0  0.44565208281E+02  0.65426688276E+01  0.49918267965E+00  0.46142317766E+02  0.10000000047E+02 0.  0.
         12    1    1    2    0    0 -0.44565208281E+02 -0.65426688276E+01 -0.49918267965E+00  0.45045682234E+02  0.00000000000E+00 0. -1.
         11    1    3    3    0    0  0.22349176786E+02  0.54298770533E+01 -0.19583059090E+01  0.23082552505E+02  0.51100000000E-03 0. -1.
        -11    1    3    3    0    0  0.17504364999E+02  0.64354524707E+00 -0.41592496747E+00  0.17521128341E+02  0.51100000000E-03 0.  1.
        -12    1    3    3    0    0  0.47116664964E+01  0.46924652717E+00  0.28734135561E+01  0.55386369209E+01  0.00000000000E+00 0.  1.
</event>
<event>
 7    1  0.2097247E-008  0.4614232E+02  0.7816164E-02  0.1320468E+00
        -11   -1    0    0    0    0  0.00000000000E+00  0.00000000000E+00  0.45593999997E+02  0.45594000000E+02  0.51100000000E-03 0. -1.
         11   -1    0    0    0    0 -0.00000000000E+00 -0.00000000000E+00 -0.45593999997E+02  0.45594000000E+02  0.51100000000E-03 0.  1.
    9900012    2    1    2    0    0  0.23901458764E+02  0.24302862546E+02 -0.29448338208E+02  0.46142317830E+02  0.10000000629E+02 0.  0.
         12    1    1    2    0    0 -0.23901458764E+02 -0.24302862546E+02  0.29448338208E+02  0.45045682170E+02  0.00000000000E+00 0. -1.
         11    1    3    3    0    0  0.35123337640E+01  0.22850166767E+01 -0.21989141919E+01  0.47321256922E+01  0.51100000000E-03 0. -1.
        -11    1    3    3    0    0  0.92624193359E+01  0.70090626415E+01 -0.58600718447E+01  0.13009988984E+02  0.51100000000E-03 0.  1.
         12    1    3    3    0    0  0.11126705664E+02  0.15008783228E+02 -0.21389352171E+02  0.28400203154E+02  0.00000000000E+00 0. -1.
</event>
<event>
 7    1  0.2097247E-008  0.4614232E+02  0.7816164E-02  0.1320468E+00
        -11   -1    0    0    0    0  0.00000000000E+00  0.00000000000E+00  0.45593999997E+02  0.45594000000E+02  0.51100000000E-03 0.  1.
         11   -1    0    0    0    0 -0.00000000000E+00 -0.00000000000E+00 -0.45593999997E+02  0.45594000000E+02  0.51100000000E-03 0. -1.
    9900012    2    1    2    0    0 -0.19828916432E+02 -0.22893249567E+02  0.33344065285E+02  0.46142317717E+02  0.99999995994E+01 0.  0.
         12    1    1    2    0    0  0.19828916432E+02  0.22893249567E+02 -0.33344065285E+02  0.45045682283E+02  0.00000000000E+00 0. -1.
         11    1    3    3    0    0 -0.10333796324E+02 -0.13502325184E+02  0.15786496078E+02  0.23201585949E+02  0.51100000000E-03 0.  1.
        -11    1    3    3    0    0 -0.61191994071E+01 -0.88629567210E+01  0.10223778489E+02  0.14849991585E+02  0.51100000000E-03 0. -1.
         12    1    3    3    0    0 -0.33759207009E+01 -0.52796766208E+00  0.73337907172E+01  0.80907401833E+01  0.00000000000E+00 0. -1.
</event>
<event>
 7    1  0.2097247E-008  0.4614232E+02  0.7816164E-02  0.1320468E+00
        -11   -1    0    0    0    0  0.00000000000E+00  0.00000000000E+00  0.45593999997E+02  0.45594000000E+02  0.51100000000E-03 0.  1.
         11   -1    0    0    0    0 -0.00000000000E+00 -0.00000000000E+00 -0.45593999997E+02  0.45594000000E+02  0.51100000000E-03 0. -1.
    9900012    2    1    2    0    0  0.53880071589E+01 -0.34018716811E+02  0.29031186422E+02  0.46142317635E+02  0.99999988528E+01 0.  0.
         12    1    1    2    0    0 -0.53880071589E+01  0.34018716811E+02 -0.29031186422E+02  0.45045682365E+02  0.00000000000E+00 0. -1.
         11    1    3    3    0    0  0.16321853783E+01 -0.71464183160E+01  0.25461935219E+01  0.77600531937E+01  0.51100000000E-03 0. -1.
        -11    1    3    3    0    0  0.25025466236E+01 -0.98158032347E+01  0.13655868348E+02  0.17002807807E+02  0.51100000000E-03 0.  1.
         12    1    3    3    0    0  0.12532751570E+01 -0.17056495261E+02  0.12829124553E+02  0.21379456634E+02  0.00000000000E+00 0. -1.
</event>
<event>
 7    1  0.2097247E-008  0.4614232E+02  0.7816164E-02  0.1320468E+00
        -11   -1    0    0    0    0  0.00000000000E+00  0.00000000000E+00  0.45593999997E+02  0.45594000000E+02  0.51100000000E-03 0.  1.
         11   -1    0    0    0    0 -0.00000000000E+00 -0.00000000000E+00 -0.45593999997E+02  0.45594000000E+02  0.51100000000E-03 0. -1.
    9900012    2    1    2    0    0 -0.31026639721E+02  0.24589884300E+02  0.21489506464E+02  0.46142315741E+02  0.99999815814E+01 0.  0.
         12    1    1    2    0    0  0.31026639721E+02 -0.24589884300E+02 -0.21489506464E+02  0.45045684259E+02  0.00000000000E+00 0. -1.
         11    1    3    3    0    0 -0.16073439393E+02  0.10815538839E+02  0.71940887789E+01  0.20666065129E+02  0.51100000000E-03 0. -1.
        -11    1    3    3    0    0 -0.84215695832E+01  0.10980473864E+02  0.10828872298E+02  0.17571514335E+02  0.51100000000E-03 0.  1.
         12    1    3    3    0    0 -0.65316307453E+01  0.27938715970E+01  0.34665453872E+01  0.79047362773E+01  0.00000000000E+00 0. -1.
</event>
<event>
 7    1  0.2097247E-008  0.4614232E+02  0.7816164E-02  0.1320468E+00
        -11   -1    0    0    0    0  0.00000000000E+00  0.00000000000E+00  0.45593999997E+02  0.45594000000E+02  0.51100000000E-03 0.  1.
         11   -1    0    0    0    0 -0.00000000000E+00 -0.00000000000E+00 -0.45593999997E+02  0.45594000000E+02  0.51100000000E-03 0. -1.
    9900012    2    1    2    0    0 -0.74091713798E+01  0.30762810439E+02  0.32060369122E+02  0.46142316578E+02  0.99999892134E+01 0.  0.
         12    1    1    2    0    0  0.74091713798E+01 -0.30762810439E+02 -0.32060369122E+02  0.45045683422E+02  0.00000000000E+00 0. -1.
         11    1    3    3    0    0  0.40022221072E+00  0.54079041323E+01  0.23102661003E+01  0.58943137546E+01  0.51100000000E-03 0. -1.
        -11    1    3    3    0    0 -0.44266902997E+01  0.65111793052E+01  0.72249902051E+01  0.10686043547E+02  0.51100000000E-03 0.  1.
        -12    1    3    3    0    0 -0.33827032907E+01  0.18843727002E+02  0.22525112817E+02  0.29561959277E+02  0.00000000000E+00 0.  1.
</event>
<event>
 7    1  0.2097247E-008  0.4614232E+02  0.7816164E-02  0.1320468E+00
        -11   -1    0    0    0    0  0.00000000000E+00  0.00000000000E+00  0.45593999997E+02  0.45594000000E+02  0.51100000000E-03 0.  1.
         11   -1    0    0    0    0 -0.00000000000E+00 -0.00000000000E+00 -0.45593999997E+02  0.45594000000E+02  0.51100000000E-03 0. -1.
    9900012    2    1    2    0    0 -0.27775810112E+02  0.35339288823E+02  0.29584317185E+01  0.46142320073E+02  0.10000021079E+02 0.  0.
         12    1    1    2    0    0  0.27775810112E+02 -0.35339288823E+02 -0.29584317185E+01  0.45045679927E+02  0.00000000000E+00 0. -1.
         11    1    3    3    0    0 -0.22877829350E+01  0.11368264823E+01  0.29797002215E+00  0.25719859260E+01  0.51100000000E-03 0. -1.
        -11    1    3    3    0    0 -0.13607963614E+02  0.22948289088E+02  0.46625891608E+01  0.27083950667E+02  0.51100000000E-03 0.  1.
         12    1    3    3    0    0 -0.11880063563E+02  0.11254173252E+02 -0.20021274645E+01  0.16486383479E+02  0.00000000000E+00 0. -1.
</event>
<event>
 7    1  0.2097247E-008  0.4614232E+02  0.7816164E-02  0.1320468E+00
        -11   -1    0    0    0    0  0.00000000000E+00  0.00000000000E+00  0.45593999997E+02  0.45594000000E+02  0.51100000000E-03 0. -1.
         11   -1    0    0    0    0 -0.00000000000E+00 -0.00000000000E+00 -0.45593999997E+02  0.45594000000E+02  0.51100000000E-03 0.  1.
    9900012    2    1    2    0    0  0.44651187841E+02 -0.17976011517E+01 -0.56704026673E+01  0.46142318610E+02  0.10000007739E+02 0.  0.
         12    1    1    2    0    0 -0.44651187841E+02  0.17976011517E+01  0.56704026673E+01  0.45045681390E+02  0.00000000000E+00 0. -1.
         11    1    3    3    0    0  0.17657087282E+01  0.59392040375E+00  0.14196811673E+01  0.23422134055E+01  0.51100000000E-03 0. -1.
        -11    1    3    3    0    0  0.53015124569E+01 -0.34247612769E+00  0.71243551784E+00  0.53601202278E+01  0.51100000000E-03 0.  1.
         12    1    3    3    0    0  0.37583966656E+02 -0.20490454278E+01 -0.78025193524E+01  0.38439984976E+02  0.00000000000E+00 0. -1.
</event>
<event>
 7    1  0.2097247E-008  0.4614232E+02  0.7816164E-02  0.1320468E+00
        -11   -1    0    0    0    0  0.00000000000E+00  0.00000000000E+00  0.45593999997E+02  0.45594000000E+02  0.51100000000E-03 0.  1.
         11   -1    0    0    0    0 -0.00000000000E+00 -0.00000000000E+00 -0.45593999997E+02  0.45594000000E+02  0.51100000000E-03 0. -1.
    9900012    2    1    2    0    0  0.17394045099E+02  0.21150448264E+02  0.35766176191E+02  0.46142316234E+02  0.99999860718E+01 0.  0.
         12    1    1    2    0    0 -0.17394045099E+02 -0.21150448264E+02 -0.35766176191E+02  0.45045683766E+02  0.00000000000E+00 0. -1.
         11    1    3    3    0    0  0.34035477043E+01  0.31237382223E+01  0.21624688809E+01  0.51007988962E+01  0.51100000000E-03 0. -1.
        -11    1    3    3    0    0  0.12628678698E+01  0.12847875302E+00  0.38929937072E+01  0.40947212740E+01  0.51100000000E-03 0.  1.
        -12    1    3    3    0    0  0.12727629525E+02  0.17898231289E+02  0.29710713603E+02  0.36946796064E+02  0.00000000000E+00 0.  1.
</event>
<event>
 7    1  0.2097247E-008  0.4614232E+02  0.7816164E-02  0.1320468E+00
        -11   -1    0    0    0    0  0.00000000000E+00  0.00000000000E+00  0.45593999997E+02  0.45594000000E+02  0.51100000000E-03 0.  1.
         11   -1    0    0    0    0 -0.00000000000E+00 -0.00000000000E+00 -0.45593999997E+02  0.45594000000E+02  0.51100000000E-03 0. -1.
    9900012    2    1    2    0    0  0.34700927576E+02  0.20440375497E+02 -0.20177961712E+02  0.46142318032E+02  0.10000002472E+02 0.  0.
         12    1    1    2    0    0 -0.34700927576E+02 -0.20440375497E+02  0.20177961712E+02  0.45045681968E+02  0.00000000000E+00 0. -1.
         11    1    3    3    0    0  0.15038073611E+02  0.11300120495E+02 -0.12644665681E+02  0.22665479293E+02  0.51100000000E-03 0.  1.
        -11    1    3    3    0    0  0.13765314200E+00 -0.19759294193E+00  0.36516893515E+00  0.43742424547E+00  0.51100000000E-03 0. -1.
         12    1    3    3    0    0  0.19525200823E+02  0.93378479445E+01 -0.78984649663E+01  0.23039414494E+02  0.00000000000E+00 0. -1.
</event>
<event>
 7    1  0.2097247E-008  0.4614231E+02  0.7816164E-02  0.1320468E+00
        -11   -1    0    0    0    0  0.00000000000E+00  0.00000000000E+00  0.45593999997E+02  0.45594000000E+02  0.51100000000E-03 0.  1.
         11   -1    0    0    0    0 -0.00000000000E+00 -0.00000000000E+00 -0.45593999997E+02  0.45594000000E+02  0.51100000000E-03 0. -1.
    9900012    2    1    2    0    0  0.33350693196E+02 -0.19711449442E+02  0.22984874758E+02  0.46142307161E+02  0.99999033352E+01 0.  0.
         12    1    1    2    0    0 -0.33350693196E+02  0.19711449442E+02 -0.22984874758E+02  0.45045692839E+02  0.00000000000E+00 0. -1.
         11    1    3    3    0    0  0.59447802827E+01 -0.11129978442E+01  0.41203289407E+01  0.73182161523E+01  0.51100000000E-03 0. -1.
        -11    1    3    3    0    0  0.17187208607E+02 -0.12933274201E+02  0.82472059776E+01  0.23036625794E+02  0.51100000000E-03 0.  1.
        -12    1    3    3    0    0  0.10218704306E+02 -0.56651773971E+01  0.10617339840E+02  0.15787465215E+02  0.00000000000E+00 0.  1.
</event>
<event>
 7    1  0.2097247E-008  0.4614232E+02  0.7816164E-02  0.1320468E+00
        -11   -1    0    0    0    0  0.00000000000E+00  0.00000000000E+00  0.45593999997E+02  0.45594000000E+02  0.51100000000E-03 0. -1.
         11   -1    0    0    0    0 -0.00000000000E+00 -0.00000000000E+00 -0.45593999997E+02  0.45594000000E+02  0.51100000000E-03 0.  1.
    9900012    2    1    2    0    0  0.36604079117E+02 -0.20444207301E+02 -0.16470862523E+02  0.46142317272E+02  0.99999955388E+01 0.  0.
         12    1    1    2    0    0 -0.36604079117E+02  0.20444207301E+02  0.16470862523E+02  0.45045682728E+02  0.00000000000E+00 0. -1.
         11    1    3    3    0    0  0.23378881967E+01 -0.11184645971E+01 -0.18070949288E+01  0.31594741047E+01  0.51100000000E-03 0. -1.
        -11    1    3    3    0    0  0.31528087942E+02 -0.18692843242E+02 -0.15848965706E+02  0.39932849034E+02  0.51100000000E-03 0.  1.
         12    1    3    3    0    0  0.27381029786E+01 -0.63289946199E+00  0.11851981117E+01  0.30499941335E+01  0.00000000000E+00 0. -1.
</event>
<event>
 7    1  0.2097247E-008  0.4614232E+02  0.7816164E-02  0.1320468E+00
        -11   -1    0    0    0    0  0.00000000000E+00  0.00000000000E+00  0.45593999997E+02  0.45594000000E+02  0.51100000000E-03 0.  1.
         11   -1    0    0    0    0 -0.00000000000E+00 -0.00000000000E+00 -0.45593999997E+02  0.45594000000E+02  0.51100000000E-03 0. -1.
    9900012    2    1    2    0    0  0.51352134430E+00 -0.22083399786E+02  0.39257777477E+02  0.46142319378E+02  0.10000014740E+02 0.  0.
         12    1    1    2    0    0 -0.51352134430E+00  0.22083399786E+02 -0.39257777477E+02  0.45045680622E+02  0.00000000000E+00 0. -1.
         11    1    3    3    0    0  0.83730014581E+00 -0.45041757320E+01  0.96494429601E+01  0.10681779826E+02  0.51100000000E-03 0. -1.
        -11    1    3    3    0    0 -0.16118473828E+01 -0.13549463856E+02  0.15117627134E+02  0.20364888244E+02  0.51100000000E-03 0.  1.
        -12    1    3    3    0    0  0.12880685813E+01 -0.40297601983E+01  0.14490707383E+02  0.15095651307E+02  0.00000000000E+00 0.  1.
</event>
<event>
 7    1  0.2097247E-008  0.4614232E+02  0.7816164E-02  0.1320468E+00
        -11   -1    0    0    0    0  0.00000000000E+00  0.00000000000E+00  0.45593999997E+02  0.45594000000E+02  0.51100000000E-03 0.  1.
         11   -1    0    0    0    0 -0.00000000000E+00 -0.00000000000E+00 -0.45593999997E+02  0.45594000000E+02  0.51100000000E-03 0. -1.
    9900012    2    1    2    0    0  0.37810262161E+02 -0.62228224580E+01  0.23680666513E+02  0.46142318625E+02  0.10000007881E+02 0.  0.
         12    1    1    2    0    0 -0.37810262161E+02  0.62228224580E+01 -0.23680666513E+02  0.45045681375E+02  0.00000000000E+00 0. -1.
         11    1    3    3    0    0  0.20228269524E+02 -0.57441312376E+01  0.96897985814E+01  0.23153188299E+02  0.51100000000E-03 0. -1.
        -11    1    3    3    0    0  0.16977230029E+02 -0.15037530547E+01  0.13238035698E+02  0.21580852673E+02  0.51100000000E-03 0.  1.
         12    1    3    3    0    0  0.60476260826E+00  0.10250618343E+01  0.75283223395E+00  0.14082776534E+01  0.00000000000E+00 0. -1.
</event>
<event>
 7    1  0.2097247E-008  0.4614232E+02  0.7816164E-02  0.1320468E+00
        -11   -1    0    0    0    0  0.00000000000E+00  0.00000000000E+00  0.45593999997E+02  0.45594000000E+02  0.51100000000E-03 0.  1.
         11   -1    0    0    0    0 -0.00000000000E+00 -0.00000000000E+00 -0.45593999997E+02  0.45594000000E+02  0.51100000000E-03 0. -1.
    9900012    2    1    2    0    0 -0.11067340781E+02  0.31133320201E+02  0.30616069744E+02  0.46142318905E+02  0.10000010432E+02 0.  0.
         12    1    1    2    0    0  0.11067340781E+02 -0.31133320201E+02 -0.30616069744E+02  0.45045681095E+02  0.00000000000E+00 0. -1.
         11    1    3    3    0    0  0.59675629684E+00  0.87305808494E+01  0.51885911773E+01  0.10173526366E+02  0.51100000000E-03 0. -1.
        -11    1    3    3    0    0 -0.97679129553E+01  0.16537876408E+02  0.18076537820E+02  0.26375645953E+02  0.51100000000E-03 0.  1.
        -12    1    3    3    0    0 -0.18961841226E+01  0.58648629434E+01  0.73509407467E+01  0.95931465867E+01  0.00000000000E+00 0.  1.
</event>
<event>
 7    1  0.2097247E-008  0.4614232E+02  0.7816164E-02  0.1320468E+00
        -11   -1    0    0    0    0  0.00000000000E+00  0.00000000000E+00  0.45593999997E+02  0.45594000000E+02  0.51100000000E-03 0. -1.
         11   -1    0    0    0    0 -0.00000000000E+00 -0.00000000000E+00 -0.45593999997E+02  0.45594000000E+02  0.51100000000E-03 0.  1.
    9900012    2    1    2    0    0 -0.18240755699E+02 -0.42691522255E+00 -0.41185021720E+02  0.46142318307E+02  0.10000004981E+02 0.  0.
         12    1    1    2    0    0  0.18240755699E+02  0.42691522255E+00  0.41185021720E+02  0.45045681693E+02  0.00000000000E+00 0. -1.
         11    1    3    3    0    0 -0.58190334903E+01 -0.21056569962E+01 -0.82127949498E+01  0.10283236032E+02  0.51100000000E-03 0. -1.
        -11    1    3    3    0    0 -0.13116928612E+02  0.15134900924E+01 -0.29592463794E+02  0.32404604335E+02  0.51100000000E-03 0.  1.
        -12    1    3    3    0    0  0.69520640323E+00  0.16525168131E+00 -0.33797629763E+01  0.34544779399E+01  0.00000000000E+00 0.  1.
</event>
<event>
 7    1  0.2097247E-008  0.4614232E+02  0.7816164E-02  0.1320468E+00
        -11   -1    0    0    0    0  0.00000000000E+00  0.00000000000E+00  0.45593999997E+02  0.45594000000E+02  0.51100000000E-03 0.  1.
         11   -1    0    0    0    0 -0.00000000000E+00 -0.00000000000E+00 -0.45593999997E+02  0.45594000000E+02  0.51100000000E-03 0. -1.
    9900012    2    1    2    0    0 -0.21862783259E+02 -0.19406516086E+02  0.34271259920E+02  0.46142318576E+02  0.10000007429E+02 0.  0.
         12    1    1    2    0    0  0.21862783259E+02  0.19406516086E+02 -0.34271259920E+02  0.45045681424E+02  0.00000000000E+00 0. -1.
         11    1    3    3    0    0 -0.60447442583E+01 -0.55230766321E+01  0.13291260550E+02  0.15610922967E+02  0.51100000000E-03 0.  1.
        -11    1    3    3    0    0 -0.41643468946E+00 -0.13548000268E+01 -0.27756599901E+00  0.14442797888E+01  0.51100000000E-03 0. -1.
        -12    1    3    3    0    0 -0.15401604312E+02 -0.12528639427E+02  0.21257565370E+02  0.29087115820E+02  0.00000000000E+00 0.  1.
</event>
<event>
 7    1  0.2097247E-008  0.4614232E+02  0.7816164E-02  0.1320468E+00
        -11   -1    0    0    0    0  0.00000000000E+00  0.00000000000E+00  0.45593999997E+02  0.45594000000E+02  0.51100000000E-03 0.  1.
         11   -1    0    0    0    0 -0.00000000000E+00 -0.00000000000E+00 -0.45593999997E+02  0.45594000000E+02  0.51100000000E-03 0. -1.
    9900012    2    1    2    0    0 -0.26036553292E+02  0.87472668500E+01  0.35702895307E+02  0.46142317433E+02  0.99999970052E+01 0.  0.
         12    1    1    2    0    0  0.26036553292E+02 -0.87472668500E+01 -0.35702895307E+02  0.45045682567E+02  0.00000000000E+00 0. -1.
         11    1    3    3    0    0 -0.12852797049E+01 -0.73345407476E+00  0.65620127293E+01  0.67268053428E+01  0.51100000000E-03 0. -1.
        -11    1    3    3    0    0 -0.73263476687E+01  0.24802894572E+01  0.93220816062E+01  0.12113150362E+02  0.51100000000E-03 0.  1.
         12    1    3    3    0    0 -0.17424925918E+02  0.70004314676E+01  0.19818800971E+02  0.27302361728E+02  0.00000000000E+00 0. -1.
</event>
<event>
 7    1  0.2097247E-008  0.4614232E+02  0.7816164E-02  0.1320468E+00
        -11   -1    0    0    0    0  0.00000000000E+00  0.00000000000E+00  0.45593999997E+02  0.45594000000E+02  0.51100000000E-03 0. -1.
         11   -1    0    0    0    0 -0.00000000000E+00 -0.00000000000E+00 -0.45593999997E+02  0.45594000000E+02  0.51100000000E-03 0.  1.
    9900012    2    1    2    0    0 -0.39107666039E+02 -0.21762107307E+02  0.51102636627E+01  0.46142315943E+02  0.99999834251E+01 0.  0.
         12    1    1    2    0    0  0.39107666039E+02  0.21762107307E+02 -0.51102636627E+01  0.45045684057E+02  0.00000000000E+00 0. -1.
         11    1    3    3    0    0 -0.13834600900E+02 -0.80707697028E+01  0.52281670521E+01  0.16848360058E+02  0.51100000000E-03 0. -1.
        -11    1    3    3    0    0 -0.16159642749E+02 -0.11732324268E+02 -0.26238453445E+00  0.19971237629E+02  0.51100000000E-03 0.  1.
         12    1    3    3    0    0 -0.91134223892E+01 -0.19590133361E+01  0.14448114510E+00  0.93227182568E+01  0.00000000000E+00 0. -1.
</event>
<event>
 7    1  0.2097247E-008  0.4614232E+02  0.7816164E-02  0.1320468E+00
        -11   -1    0    0    0    0  0.00000000000E+00  0.00000000000E+00  0.45593999997E+02  0.45594000000E+02  0.51100000000E-03 0. -1.
         11   -1    0    0    0    0 -0.00000000000E+00 -0.00000000000E+00 -0.45593999997E+02  0.45594000000E+02  0.51100000000E-03 0.  1.
    9900012    2    1    2    0    0  0.12968122577E+01 -0.36285877250E+02 -0.26660215109E+02  0.46142315639E+02  0.99999806514E+01 0.  0.
         12    1    1    2    0    0 -0.12968122577E+01  0.36285877250E+02  0.26660215109E+02  0.45045684361E+02  0.00000000000E+00 0. -1.
         11    1    3    3    0    0  0.26379927916E+01 -0.74918755232E+01 -0.58077416205E+01  0.98395664445E+01  0.51100000000E-03 0. -1.
        -11    1    3    3    0    0  0.29561098155E+01 -0.13844151085E+02 -0.10265967256E+02  0.17486829000E+02  0.51100000000E-03 0.  1.
         12    1    3    3    0    0 -0.42972903494E+01 -0.14949850642E+02 -0.10586506233E+02  0.18815920195E+02  0.00000000000E+00 0. -1.
</event>
<event>
 7    1  0.2097247E-008  0.4614232E+02  0.7816164E-02  0.1320468E+00
        -11   -1    0    0    0    0  0.00000000000E+00  0.00000000000E+00  0.45593999997E+02  0.45594000000E+02  0.51100000000E-03 0. -1.
         11   -1    0    0    0    0 -0.00000000000E+00 -0.00000000000E+00 -0.45593999997E+02  0.45594000000E+02  0.51100000000E-03 0.  1.
    9900012    2    1    2    0    0  0.38689536036E+02  0.14989520237E+02 -0.17537037371E+02  0.46142316574E+02  0.99999891718E+01 0.  0.
         12    1    1    2    0    0 -0.38689536036E+02 -0.14989520237E+02  0.17537037371E+02  0.45045683426E+02  0.00000000000E+00 0. -1.
         11    1    3    3    0    0  0.18063878317E+02  0.97799161503E+01 -0.61123211416E+01  0.21431540536E+02  0.51100000000E-03 0. -1.
        -11    1    3    3    0    0  0.77497922001E+01  0.77037996941E+00 -0.16884208006E+01  0.79689101829E+01  0.51100000000E-03 0.  1.
         12    1    3    3    0    0  0.12875865519E+02  0.44392241174E+01 -0.97362954284E+01  0.16741865855E+02  0.00000000000E+00 0. -1.
</event>
<event>
 7    1  0.2097247E-008  0.4614232E+02  0.7816164E-02  0.1320468E+00
        -11   -1    0    0    0    0  0.00000000000E+00  0.00000000000E+00  0.45593999997E+02  0.45594000000E+02  0.51100000000E-03 0.  1.
         11   -1    0    0    0    0 -0.00000000000E+00 -0.00000000000E+00 -0.45593999997E+02  0.45594000000E+02  0.51100000000E-03 0. -1.
    9900012    2    1    2    0    0 -0.21836303864E+02 -0.34441916133E+02  0.19132269948E+02  0.46142317558E+02  0.99999981479E+01 0.  0.
         12    1    1    2    0    0  0.21836303864E+02  0.34441916133E+02 -0.19132269948E+02  0.45045682442E+02  0.00000000000E+00 0. -1.
         11    1    3    3    0    0 -0.36245870017E+01 -0.46625667533E+01  0.62062374709E+01  0.85670615422E+01  0.51100000000E-03 0. -1.
        -11    1    3    3    0    0 -0.68652582950E+01 -0.14753512042E+02  0.41030758335E+01  0.16781928393E+02  0.51100000000E-03 0.  1.
        -12    1    3    3    0    0 -0.11346458567E+02 -0.15025837337E+02  0.88229566433E+01  0.20793327623E+02  0.00000000000E+00 0.  1.
</event>
<event>
 7    1  0.2097247E-008  0.4614233E+02  0.7816164E-02  0.1320468E+00
        -11   -1    0    0    0    0  0.00000000000E+00  0.00000000000E+00  0.45593999997E+02  0.45594000000E+02  0.51100000000E-03 0. -1.
         11   -1    0    0    0    0 -0.00000000000E+00 -0.00000000000E+00 -0.45593999997E+02  0.45594000000E+02  0.51100000000E-03 0.  1.
    9900012    2    1    2    0    0  0.44304885547E+01 -0.43944184033E+02 -0.88539340148E+01  0.46142326659E+02  0.10000081141E+02 0.  0.
         12    1    1    2    0    0 -0.44304885547E+01  0.43944184033E+02  0.88539340148E+01  0.45045673341E+02  0.00000000000E+00 0. -1.
         11    1    3    3    0    0 -0.42936203501E-01 -0.19716753154E+02 -0.40342243894E+01  0.20125286710E+02  0.51100000000E-03 0. -1.
        -11    1    3    3    0    0  0.60686559278E+01 -0.21892770648E+02 -0.39537324098E+01  0.23059791665E+02  0.51100000000E-03 0.  1.
         12    1    3    3    0    0 -0.15952311696E+01 -0.23346602312E+01 -0.86597721564E+00  0.29572482847E+01  0.00000000000E+00 0. -1.
</event>
<event>
 7    1  0.2097247E-008  0.4614232E+02  0.7816164E-02  0.1320468E+00
        -11   -1    0    0    0    0  0.00000000000E+00  0.00000000000E+00  0.45593999997E+02  0.45594000000E+02  0.51100000000E-03 0.  1.
         11   -1    0    0    0    0 -0.00000000000E+00 -0.00000000000E+00 -0.45593999997E+02  0.45594000000E+02  0.51100000000E-03 0. -1.
    9900012    2    1    2    0    0  0.31874795107E+02 -0.25514869390E+01  0.31726976429E+02  0.46142315611E+02  0.99999803968E+01 0.  0.
         12    1    1    2    0    0 -0.31874795107E+02  0.25514869390E+01 -0.31726976429E+02  0.45045684389E+02  0.00000000000E+00 0. -1.
         11    1    3    3    0    0  0.19591856334E+02  0.91225989833E+00  0.16821674961E+02  0.25838765479E+02  0.51100000000E-03 0. -1.
        -11    1    3    3    0    0  0.68828438926E+01 -0.55390265248E-01  0.49575485171E+01  0.84825642168E+01  0.51100000000E-03 0.  1.
         12    1    3    3    0    0  0.54000948805E+01 -0.34083565720E+01  0.99477529508E+01  0.11820985915E+02  0.00000000000E+00 0. -1.
</event>
<event>
 7    1  0.2097247E-008  0.4614232E+02  0.7816164E-02  0.1320468E+00
        -11   -1    0    0    0    0  0.00000000000E+00  0.00000000000E+00  0.45593999997E+02  0.45594000000E+02  0.51100000000E-03 0. -1.
         11   -1    0    0    0    0 -0.00000000000E+00 -0.00000000000E+00 -0.45593999997E+02  0.45594000000E+02  0.51100000000E-03 0.  1.
    9900012    2    1    2    0    0 -0.15081919960E+02  0.24255650134E+02 -0.34832635487E+02  0.46142319096E+02  0.10000012176E+02 0.  0.
         12    1    1    2    0    0  0.15081919960E+02 -0.24255650134E+02  0.34832635487E+02  0.45045680904E+02  0.00000000000E+00 0. -1.
         11    1    3    3    0    0 -0.12581812543E+02  0.20244903342E+02 -0.24340978406E+02  0.34068186747E+02  0.51100000000E-03 0.  1.
        -11    1    3    3    0    0 -0.28730099051E+01  0.29033814603E+01 -0.49841195582E+01  0.64440094545E+01  0.51100000000E-03 0. -1.
        -12    1    3    3    0    0  0.37290248827E+00  0.11073653314E+01 -0.55075375236E+01  0.56301228953E+01  0.00000000000E+00 0.  1.
</event>
<event>
 7    1  0.2097247E-008  0.4614232E+02  0.7816164E-02  0.1320468E+00
        -11   -1    0    0    0    0  0.00000000000E+00  0.00000000000E+00  0.45593999997E+02  0.45594000000E+02  0.51100000000E-03 0.  1.
         11   -1    0    0    0    0 -0.00000000000E+00 -0.00000000000E+00 -0.45593999997E+02  0.45594000000E+02  0.51100000000E-03 0. -1.
    9900012    2    1    2    0    0  0.27229762065E+02  0.33752506527E+02 -0.12182846623E+02  0.46142318844E+02  0.10000009874E+02 0.  0.
         12    1    1    2    0    0 -0.27229762065E+02 -0.33752506527E+02  0.12182846623E+02  0.45045681156E+02  0.00000000000E+00 0. -1.
         11    1    3    3    0    0  0.38700535978E+00  0.40481454079E+01 -0.49910427844E+00  0.40971160265E+01  0.51100000000E-03 0. -1.
        -11    1    3    3    0    0  0.23244682771E+01  0.38825908228E+01  0.13518078717E+00  0.45272440154E+01  0.51100000000E-03 0.  1.
        -12    1    3    3    0    0  0.24518288428E+02  0.25821770296E+02 -0.11818923132E+02  0.37517958802E+02  0.00000000000E+00 0.  1.
</event>
<event>
 7    1  0.2097247E-008  0.4614232E+02  0.7816164E-02  0.1320468E+00
        -11   -1    0    0    0    0  0.00000000000E+00  0.00000000000E+00  0.45593999997E+02  0.45594000000E+02  0.51100000000E-03 0. -1.
         11   -1    0    0    0    0 -0.00000000000E+00 -0.00000000000E+00 -0.45593999997E+02  0.45594000000E+02  0.51100000000E-03 0.  1.
    9900012    2    1    2    0    0  0.28648490654E+02 -0.13752775688E+02 -0.31925516698E+02  0.46142317940E+02  0.10000001627E+02 0.  0.
         12    1    1    2    0    0 -0.28648490654E+02  0.13752775688E+02  0.31925516698E+02  0.45045682060E+02  0.00000000000E+00 0. -1.
         11    1    3    3    0    0  0.73399499956E+01  0.45983229451E+00 -0.88515882581E+01  0.11508124375E+02  0.51100000000E-03 0. -1.
        -11    1    3    3    0    0  0.10696509541E+02 -0.55837780620E+01 -0.94183387070E+01  0.15306828478E+02  0.51100000000E-03 0.  1.
        -12    1    3    3    0    0  0.10612031118E+02 -0.86288299203E+01 -0.13655589733E+02  0.19327365087E+02  0.00000000000E+00 0.  1.
</event>
<event>
 7    1  0.2097247E-008  0.4614232E+02  0.7816164E-02  0.1320468E+00
        -11   -1    0    0    0    0  0.00000000000E+00  0.00000000000E+00  0.45593999997E+02  0.45594000000E+02  0.51100000000E-03 0.  1.
         11   -1    0    0    0    0 -0.00000000000E+00 -0.00000000000E+00 -0.45593999997E+02  0.45594000000E+02  0.51100000000E-03 0. -1.
    9900012    2    1    2    0    0  0.34786147167E+02 -0.13774407810E+02  0.25085909260E+02  0.46142321088E+02  0.10000030335E+02 0.  0.
         12    1    1    2    0    0 -0.34786147167E+02  0.13774407810E+02 -0.25085909260E+02  0.45045678912E+02  0.00000000000E+00 0. -1.
         11    1    3    3    0    0  0.87917612821E+01 -0.32395893362E+01  0.77735695779E+01  0.12174497515E+02  0.51100000000E-03 0. -1.
        -11    1    3    3    0    0  0.23071842181E+02 -0.99721920735E+01  0.11940890573E+02  0.27826954277E+02  0.51100000000E-03 0.  1.
         12    1    3    3    0    0  0.29225437037E+01 -0.56262640024E+00  0.53714491097E+01  0.61408692956E+01  0.00000000000E+00 0. -1.
</event>
<event>
 7    1  0.2097247E-008  0.4614232E+02  0.7816164E-02  0.1320468E+00
        -11   -1    0    0    0    0  0.00000000000E+00  0.00000000000E+00  0.45593999997E+02  0.45594000000E+02  0.51100000000E-03 0.  1.
         11   -1    0    0    0    0 -0.00000000000E+00 -0.00000000000E+00 -0.45593999997E+02  0.45594000000E+02  0.51100000000E-03 0. -1.
    9900012    2    1    2    0    0  0.39866975222E+02  0.21402984066E+01  0.20860415094E+02  0.46142317537E+02  0.99999979595E+01 0.  0.
         12    1    1    2    0    0 -0.39866975222E+02 -0.21402984066E+01 -0.20860415094E+02  0.45045682463E+02  0.00000000000E+00 0. -1.
         11    1    3    3    0    0  0.52603106990E+00 -0.81863476018E+00  0.36435082579E+00  0.10390492493E+01  0.51100000000E-03 0. -1.
        -11    1    3    3    0    0  0.30167670112E+02  0.34357460354E+01  0.18942879989E+02  0.35787223605E+02  0.51100000000E-03 0.  1.
        -12    1    3    3    0    0  0.91732740406E+01 -0.47681286861E+00  0.15531842786E+01  0.93160446832E+01  0.00000000000E+00 0.  1.
</event>
<event>
 7    1  0.2097247E-008  0.4614232E+02  0.7816164E-02  0.1320468E+00
        -11   -1    0    0    0    0  0.00000000000E+00  0.00000000000E+00  0.45593999997E+02  0.45594000000E+02  0.51100000000E-03 0.  1.
         11   -1    0    0    0    0 -0.00000000000E+00 -0.00000000000E+00 -0.45593999997E+02  0.45594000000E+02  0.51100000000E-03 0. -1.
    9900012    2    1    2    0    0 -0.40672761610E+02 -0.12291846977E+02  0.14958292218E+02  0.46142317131E+02  0.99999942514E+01 0.  0.
         12    1    1    2    0    0  0.40672761610E+02  0.12291846977E+02 -0.14958292218E+02  0.45045682869E+02  0.00000000000E+00 0. -1.
         11    1    3    3    0    0 -0.14081099159E+02 -0.16584955747E+01  0.87348987980E+01  0.16653120380E+02  0.51100000000E-03 0. -1.
        -11    1    3    3    0    0 -0.90307363015E+00 -0.87354151337E+00  0.76870836145E+00  0.14729323009E+01  0.51100000000E-03 0.  1.
        -12    1    3    3    0    0 -0.25688588820E+02 -0.97598098893E+01  0.54546850590E+01  0.28016264450E+02  0.00000000000E+00 0.  1.
</event>
<event>
 7    1  0.2097247E-008  0.4614232E+02  0.7816164E-02  0.1320468E+00
        -11   -1    0    0    0    0  0.00000000000E+00  0.00000000000E+00  0.45593999997E+02  0.45594000000E+02  0.51100000000E-03 0.  1.
         11   -1    0    0    0    0 -0.00000000000E+00 -0.00000000000E+00 -0.45593999997E+02  0.45594000000E+02  0.51100000000E-03 0. -1.
    9900012    2    1    2    0    0  0.22915064463E+02 -0.38334142542E+02  0.58742578344E+01  0.46142316867E+02  0.99999918509E+01 0.  0.
         12    1    1    2    0    0 -0.22915064463E+02  0.38334142542E+02 -0.58742578344E+01  0.45045683133E+02  0.00000000000E+00 0. -1.
         11    1    3    3    0    0  0.10240113912E+02 -0.11157817810E+02  0.51971017824E+01  0.16011455224E+02  0.51100000000E-03 0. -1.
        -11    1    3    3    0    0  0.51852147207E+01 -0.11213937292E+02 -0.11301586424E+01  0.12406292763E+02  0.51100000000E-03 0.  1.
         12    1    3    3    0    0  0.74897358305E+01 -0.15962387440E+02  0.18073146944E+01  0.17724568881E+02  0.00000000000E+00 0. -1.
</event>
<event>
 7    1  0.2097247E-008  0.4614231E+02  0.7816164E-02  0.1320468E+00
        -11   -1    0    0    0    0  0.00000000000E+00  0.00000000000E+00  0.45593999997E+02  0.45594000000E+02  0.51100000000E-03 0.  1.
         11   -1    0    0    0    0 -0.00000000000E+00 -0.00000000000E+00 -0.45593999997E+02  0.45594000000E+02  0.51100000000E-03 0. -1.
    9900012    2    1    2    0    0 -0.27290009768E+02  0.80924328059E+00  0.35828960821E+02  0.46142312733E+02  0.99999541541E+01 0.  0.
         12    1    1    2    0    0  0.27290009768E+02 -0.80924328059E+00 -0.35828960821E+02  0.45045687267E+02  0.00000000000E+00 0. -1.
         11    1    3    3    0    0 -0.17807729622E+01  0.14691029738E-01 -0.42056375815E-01  0.17813301685E+01  0.51100000000E-03 0. -1.
        -11    1    3    3    0    0 -0.22485473888E+02  0.24804530045E+01  0.30578836859E+02  0.38037014170E+02  0.51100000000E-03 0.  1.
         12    1    3    3    0    0 -0.30237629180E+01 -0.16859007536E+01  0.52921803379E+01  0.63239683953E+01  0.00000000000E+00 0. -1.
</event>
<event>
 7    1  0.2097247E-008  0.4614232E+02  0.7816164E-02  0.1320468E+00
        -11   -1    0    0    0    0  0.00000000000E+00  0.00000000000E+00  0.45593999997E+02  0.45594000000E+02  0.51100000000E-03 0.  1.
         11   -1    0    0    0    0 -0.00000000000E+00 -0.00000000000E+00 -0.45593999997E+02  0.45594000000E+02  0.51100000000E-03 0. -1.
    9900012    2    1    2    0    0 -0.34065399450E+02  0.26096194137E+02  0.13698565652E+02  0.46142317753E+02  0.99999999274E+01 0.  0.
         12    1    1    2    0    0  0.34065399450E+02 -0.26096194137E+02 -0.13698565652E+02  0.45045682247E+02  0.00000000000E+00 0. -1.
         11    1    3    3    0    0 -0.14256234373E+02  0.83005775605E+01  0.53209709462E+01  0.17333566812E+02  0.51100000000E-03 0. -1.
        -11    1    3    3    0    0 -0.43540289181E+01  0.43151544627E+01  0.52349918678E+01  0.80612198812E+01  0.51100000000E-03 0.  1.
        -12    1    3    3    0    0 -0.15455136159E+02  0.13480462114E+02  0.31426028384E+01  0.20747531060E+02  0.00000000000E+00 0.  1.
</event>
<event>
 7    1  0.2097247E-008  0.4614233E+02  0.7816164E-02  0.1320468E+00
        -11   -1    0    0    0    0  0.00000000000E+00  0.00000000000E+00  0.45593999997E+02  0.45594000000E+02  0.51100000000E-03 0.  1.
         11   -1    0    0    0    0 -0.00000000000E+00 -0.00000000000E+00 -0.45593999997E+02  0.45594000000E+02  0.51100000000E-03 0. -1.
    9900012    2    1    2    0    0  0.73883925805E+01 -0.44252614091E+02  0.40286486523E+01  0.46142331964E+02  0.10000129514E+02 0.  0.
         12    1    1    2    0    0 -0.73883925805E+01  0.44252614091E+02 -0.40286486523E+01  0.45045668036E+02  0.00000000000E+00 0. -1.
         11    1    3    3    0    0  0.18351811226E+01 -0.15288312507E+02  0.41154474670E+01  0.15938547524E+02  0.51100000000E-03 0. -1.
        -11    1    3    3    0    0  0.29623646917E+01 -0.36089586112E+01 -0.62514704306E+00  0.47107319931E+01  0.51100000000E-03 0.  1.
         12    1    3    3    0    0  0.25908467661E+01 -0.25355342973E+02  0.53834822837E+00  0.25493052447E+02  0.00000000000E+00 0. -1.
</event>
<event>
 7    1  0.2097247E-008  0.4614232E+02  0.7816164E-02  0.1320468E+00
        -11   -1    0    0    0    0  0.00000000000E+00  0.00000000000E+00  0.45593999997E+02  0.45594000000E+02  0.51100000000E-03 0.  1.
         11   -1    0    0    0    0 -0.00000000000E+00 -0.00000000000E+00 -0.45593999997E+02  0.45594000000E+02  0.51100000000E-03 0. -1.
    9900012    2    1    2    0    0 -0.13698556947E+02  0.34791245264E+02  0.25120356214E+02  0.46142317568E+02  0.99999982434E+01 0.  0.
         12    1    1    2    0    0  0.13698556947E+02 -0.34791245264E+02 -0.25120356214E+02  0.45045682432E+02  0.00000000000E+00 0. -1.
         11    1    3    3    0    0 -0.77097598012E+01  0.12525181067E+02  0.78509050159E+01  0.16672050467E+02  0.51100000000E-03 0. -1.
        -11    1    3    3    0    0 -0.37939318556E+01  0.41186964040E+01  0.41504995102E+01  0.69702385496E+01  0.51100000000E-03 0.  1.
        -12    1    3    3    0    0 -0.21948652900E+01  0.18147367792E+02  0.13118951687E+02  0.22500028551E+02  0.00000000000E+00 0.  1.
</event>
<event>
 7    1  0.2097247E-008  0.4614232E+02  0.7816164E-02  0.1320468E+00
        -11   -1    0    0    0    0  0.00000000000E+00  0.00000000000E+00  0.45593999997E+02  0.45594000000E+02  0.51100000000E-03 0. -1.
         11   -1    0    0    0    0 -0.00000000000E+00 -0.00000000000E+00 -0.45593999997E+02  0.45594000000E+02  0.51100000000E-03 0.  1.
    9900012    2    1    2    0    0  0.34762395557E+02 -0.21030152037E+02 -0.19453067085E+02  0.46142320312E+02  0.10000023257E+02 0.  0.
         12    1    1    2    0    0 -0.34762395557E+02  0.21030152037E+02  0.19453067085E+02  0.45045679688E+02  0.00000000000E+00 0. -1.
         11    1    3    3    0    0  0.73361329247E+01 -0.69859195801E+01 -0.71429833819E+01  0.12395326963E+02  0.51100000000E-03 0. -1.
        -11    1    3    3    0    0  0.15634301194E+02 -0.11104248602E+02 -0.87864604610E+01  0.21093544001E+02  0.51100000000E-03 0.  1.
         12    1    3    3    0    0  0.11791961438E+02 -0.29399838556E+01 -0.35236232423E+01  0.12653449347E+02  0.00000000000E+00 0. -1.
</event>
<event>
 7    1  0.2097247E-008  0.4614232E+02  0.7816164E-02  0.1320468E+00
        -11   -1    0    0    0    0  0.00000000000E+00  0.00000000000E+00  0.45593999997E+02  0.45594000000E+02  0.51100000000E-03 0. -1.
         11   -1    0    0    0    0 -0.00000000000E+00 -0.00000000000E+00 -0.45593999997E+02  0.45594000000E+02  0.51100000000E-03 0.  1.
    9900012    2    1    2    0    0  0.15078662591E+01 -0.24726459877E+02 -0.37622359932E+02  0.46142318236E+02  0.10000004330E+02 0.  0.
         12    1    1    2    0    0 -0.15078662591E+01  0.24726459877E+02  0.37622359932E+02  0.45045681764E+02  0.00000000000E+00 0. -1.
         11    1    3    3    0    0  0.14821531760E+01 -0.77748015105E+01 -0.95745972219E+01  0.12422448583E+02  0.51100000000E-03 0. -1.
        -11    1    3    3    0    0  0.35288406644E+01 -0.60329505466E+01 -0.79886981159E+01  0.10614542222E+02  0.51100000000E-03 0.  1.
        -12    1    3    3    0    0 -0.35031275812E+01 -0.10918707820E+02 -0.20059064594E+02  0.23105327431E+02  0.00000000000E+00 0.  1.
</event>
<event>
 7    1  0.2097247E-008  0.4614232E+02  0.7816164E-02  0.1320468E+00
        -11   -1    0    0    0    0  0.00000000000E+00  0.00000000000E+00  0.45593999997E+02  0.45594000000E+02  0.51100000000E-03 0.  1.
         11   -1    0    0    0    0 -0.00000000000E+00 -0.00000000000E+00 -0.45593999997E+02  0.45594000000E+02  0.51100000000E-03 0. -1.
    9900012    2    1    2    0    0 -0.82556416937E+01  0.32754432410E+02  0.29801092260E+02  0.46142316942E+02  0.99999925316E+01 0.  0.
         12    1    1    2    0    0  0.82556416937E+01 -0.32754432410E+02 -0.29801092260E+02  0.45045683058E+02  0.00000000000E+00 0. -1.
         11    1    3    3    0    0 -0.23315317701E+01  0.82868452936E+01  0.47726575214E+01  0.98430739809E+01  0.51100000000E-03 0. -1.
        -11    1    3    3    0    0 -0.69638078308E+01  0.19624579158E+02  0.22767970328E+02  0.30854484273E+02  0.51100000000E-03 0.  1.
         12    1    3    3    0    0  0.10396979071E+01  0.48430079582E+01  0.22604644103E+01  0.54447586881E+01  0.00000000000E+00 0. -1.
</event>
<event>
 7    1  0.2097247E-008  0.4614232E+02  0.7816164E-02  0.1320468E+00
        -11   -1    0    0    0    0  0.00000000000E+00  0.00000000000E+00  0.45593999997E+02  0.45594000000E+02  0.51100000000E-03 0. -1.
         11   -1    0    0    0    0 -0.00000000000E+00 -0.00000000000E+00 -0.45593999997E+02  0.45594000000E+02  0.51100000000E-03 0.  1.
    9900012    2    1    2    0    0 -0.22455633604E+02  0.52117542562E+01 -0.38700070808E+02  0.46142319369E+02  0.10000014661E+02 0.  0.
         12    1    1    2    0    0  0.22455633604E+02 -0.52117542562E+01  0.38700070808E+02  0.45045680631E+02  0.00000000000E+00 0. -1.
         11    1    3    3    0    0 -0.54302231374E+01  0.16243153037E+01 -0.44918414084E+01  0.72320372667E+01  0.51100000000E-03 0. -1.
        -11    1    3    3    0    0 -0.27873736224E+01 -0.13378005688E+01 -0.92966363687E+01  0.97972756471E+01  0.51100000000E-03 0.  1.
        -12    1    3    3    0    0 -0.14238036844E+02  0.49252395213E+01 -0.24911593031E+02  0.29113006455E+02  0.00000000000E+00 0.  1.
</event>
<event>
 7    1  0.2097247E-008  0.4614232E+02  0.7816164E-02  0.1320468E+00
        -11   -1    0    0    0    0  0.00000000000E+00  0.00000000000E+00  0.45593999997E+02  0.45594000000E+02  0.51100000000E-03 0. -1.
         11   -1    0    0    0    0 -0.00000000000E+00 -0.00000000000E+00 -0.45593999997E+02  0.45594000000E+02  0.51100000000E-03 0.  1.
    9900012    2    1    2    0    0 -0.25397897150E+02  0.25433726914E+02 -0.27151164169E+02  0.46142319185E+02  0.10000012984E+02 0.  0.
         12    1    1    2    0    0  0.25397897150E+02 -0.25433726914E+02  0.27151164169E+02  0.45045680815E+02  0.00000000000E+00 0. -1.
         11    1    3    3    0    0 -0.34917491712E+01  0.83037388617E+01 -0.68412779467E+01  0.11311386987E+02  0.51100000000E-03 0. -1.
        -11    1    3    3    0    0  0.18234069590E+00  0.76332202276E+00 -0.79744183116E+00  0.11188486828E+01  0.51100000000E-03 0.  1.
        -12    1    3    3    0    0 -0.22088488674E+02  0.16366666030E+02 -0.19512444391E+02  0.33712083516E+02  0.00000000000E+00 0.  1.
</event>
<event>
 7    1  0.2097247E-008  0.4614232E+02  0.7816164E-02  0.1320468E+00
        -11   -1    0    0    0    0  0.00000000000E+00  0.00000000000E+00  0.45593999997E+02  0.45594000000E+02  0.51100000000E-03 0.  1.
         11   -1    0    0    0    0 -0.00000000000E+00 -0.00000000000E+00 -0.45593999997E+02  0.45594000000E+02  0.51100000000E-03 0. -1.
    9900012    2    1    2    0    0 -0.28189184316E+02  0.25341994122E+02  0.24336529639E+02  0.46142318150E+02  0.10000003550E+02 0.  0.
         12    1    1    2    0    0  0.28189184316E+02 -0.25341994122E+02 -0.24336529639E+02  0.45045681850E+02  0.00000000000E+00 0. -1.
         11    1    3    3    0    0 -0.19868655176E+01  0.10053562869E+01  0.25625885282E+01  0.33948838087E+01  0.51100000000E-03 0. -1.
        -11    1    3    3    0    0 -0.93822946418E+01  0.14578210948E+02  0.10582905216E+02  0.20311316310E+02  0.51100000000E-03 0.  1.
         12    1    3    3    0    0 -0.16820024156E+02  0.97584268868E+01  0.11191035895E+02  0.22436118032E+02  0.00000000000E+00 0. -1.
</event>
<event>
 7    1  0.2097247E-008  0.4614232E+02  0.7816164E-02  0.1320468E+00
        -11   -1    0    0    0    0  0.00000000000E+00  0.00000000000E+00  0.45593999997E+02  0.45594000000E+02  0.51100000000E-03 0.  1.
         11   -1    0    0    0    0 -0.00000000000E+00 -0.00000000000E+00 -0.45593999997E+02  0.45594000000E+02  0.51100000000E-03 0. -1.
    9900012    2    1    2    0    0  0.12584621801E+02 -0.32744600325E+02  0.28258311299E+02  0.46142315259E+02  0.99999771836E+01 0.  0.
         12    1    1    2    0    0 -0.12584621801E+02  0.32744600325E+02 -0.28258311299E+02  0.45045684741E+02  0.00000000000E+00 0. -1.
         11    1    3    3    0    0  0.37625976281E+01 -0.25629509696E+01  0.37390827111E+01  0.58912306325E+01  0.51100000000E-03 0. -1.
        -11    1    3    3    0    0  0.35911307339E+01 -0.93059105551E+01  0.48319182041E+01  0.11083484335E+02  0.51100000000E-03 0.  1.
         12    1    3    3    0    0  0.52308934387E+01 -0.20875738801E+02  0.19687310384E+02  0.29167600292E+02  0.00000000000E+00 0. -1.
</event>
<event>
 7    1  0.2097247E-008  0.4614232E+02  0.7816164E-02  0.1320468E+00
        -11   -1    0    0    0    0  0.00000000000E+00  0.00000000000E+00  0.45593999997E+02  0.45594000000E+02  0.51100000000E-03 0.  1.
         11   -1    0    0    0    0 -0.00000000000E+00 -0.00000000000E+00 -0.45593999997E+02  0.45594000000E+02  0.51100000000E-03 0. -1.
    9900012    2    1    2    0    0  0.33245358655E+02 -0.14399289373E+02  0.26767893191E+02  0.46142317494E+02  0.99999975629E+01 0.  0.
         12    1    1    2    0    0 -0.33245358655E+02  0.14399289373E+02 -0.26767893191E+02  0.45045682506E+02  0.00000000000E+00 0. -1.
         11    1    3    3    0    0  0.71942830435E+01 -0.42242683598E+01  0.45535388358E+01  0.95045708938E+01  0.51100000000E-03 0.  1.
        -11    1    3    3    0    0  0.16516031288E+02 -0.98649373435E+01  0.17454928726E+02  0.25976351079E+02  0.51100000000E-03 0. -1.
         12    1    3    3    0    0  0.95350443231E+01 -0.31008367007E+00  0.47594256294E+01  0.10661395521E+02  0.00000000000E+00 0. -1.
</event>
<event>
 7    1  0.2097247E-008  0.4614232E+02  0.7816164E-02  0.1320468E+00
        -11   -1    0    0    0    0  0.00000000000E+00  0.00000000000E+00  0.45593999997E+02  0.45594000000E+02  0.51100000000E-03 0.  1.
         11   -1    0    0    0    0 -0.00000000000E+00 -0.00000000000E+00 -0.45593999997E+02  0.45594000000E+02  0.51100000000E-03 0. -1.
    9900012    2    1    2    0    0  0.31140826759E+02  0.27850367142E+02  0.16843967511E+02  0.46142320044E+02  0.10000020815E+02 0.  0.
         12    1    1    2    0    0 -0.31140826759E+02 -0.27850367142E+02 -0.16843967511E+02  0.45045679956E+02  0.00000000000E+00 0. -1.
         11    1    3    3    0    0  0.67125329146E+01  0.10055573562E+02  0.75760037574E+01  0.14267743023E+02  0.51100000000E-03 0. -1.
        -11    1    3    3    0    0  0.52244758150E+01  0.26604299972E+01  0.44117524453E+00  0.58794277926E+01  0.51100000000E-03 0.  1.
        -12    1    3    3    0    0  0.19203818030E+02  0.15134363583E+02  0.88267885087E+01  0.25995149228E+02  0.00000000000E+00 0.  1.
</event>
<event>
 7    1  0.2097247E-008  0.4614232E+02  0.7816164E-02  0.1320468E+00
        -11   -1    0    0    0    0  0.00000000000E+00  0.00000000000E+00  0.45593999997E+02  0.45594000000E+02  0.51100000000E-03 0. -1.
         11   -1    0    0    0    0 -0.00000000000E+00 -0.00000000000E+00 -0.45593999997E+02  0.45594000000E+02  0.51100000000E-03 0.  1.
    9900012    2    1    2    0    0  0.25037708001E+01  0.75717441756E+01 -0.44334109762E+02  0.46142318004E+02  0.10000002213E+02 0.  0.
         12    1    1    2    0    0 -0.25037708001E+01 -0.75717441756E+01  0.44334109762E+02  0.45045681996E+02  0.00000000000E+00 0. -1.
         11    1    3    3    0    0  0.24022257708E+01  0.19699943836E+01 -0.35401219444E+01  0.47099925868E+01  0.51100000000E-03 0. -1.
        -11    1    3    3    0    0 -0.14333705371E+01  0.22163201427E+00 -0.13012434116E+02  0.13093017748E+02  0.51100000000E-03 0.  1.
        -12    1    3    3    0    0  0.15349155664E+01  0.53801177777E+01 -0.27781553702E+02  0.28339307669E+02  0.00000000000E+00 0.  1.
</event>
<event>
 7    1  0.2097247E-008  0.4614232E+02  0.7816164E-02  0.1320468E+00
        -11   -1    0    0    0    0  0.00000000000E+00  0.00000000000E+00  0.45593999997E+02  0.45594000000E+02  0.51100000000E-03 0.  1.
         11   -1    0    0    0    0 -0.00000000000E+00 -0.00000000000E+00 -0.45593999997E+02  0.45594000000E+02  0.51100000000E-03 0. -1.
    9900012    2    1    2    0    0  0.43551503477E+02  0.80332920520E+01 -0.82368845965E+01  0.46142317586E+02  0.99999984002E+01 0.  0.
         12    1    1    2    0    0 -0.43551503477E+02 -0.80332920520E+01  0.82368845965E+01  0.45045682414E+02  0.00000000000E+00 0. -1.
         11    1    3    3    0    0  0.88945178819E+01  0.27329080721E+01 -0.22317230249E+01  0.95687942189E+01  0.51100000000E-03 0. -1.
        -11    1    3    3    0    0  0.19881826991E+02 -0.84366159597E+00 -0.51175552674E+01  0.20547218341E+02  0.51100000000E-03 0.  1.
        -12    1    3    3    0    0  0.14775158605E+02  0.61440455759E+01 -0.88760630422E+00  0.16026305026E+02  0.00000000000E+00 0.  1.
</event>
<event>
 7    1  0.2097247E-008  0.4614232E+02  0.7816164E-02  0.1320468E+00
        -11   -1    0    0    0    0  0.00000000000E+00  0.00000000000E+00  0.45593999997E+02  0.45594000000E+02  0.51100000000E-03 0. -1.
         11   -1    0    0    0    0 -0.00000000000E+00 -0.00000000000E+00 -0.45593999997E+02  0.45594000000E+02  0.51100000000E-03 0.  1.
    9900012    2    1    2    0    0  0.26244174480E+02  0.36482564007E+02 -0.30625822152E+01  0.46142316739E+02  0.99999906797E+01 0.  0.
         12    1    1    2    0    0 -0.26244174480E+02 -0.36482564007E+02  0.30625822152E+01  0.45045683261E+02  0.00000000000E+00 0. -1.
         11    1    3    3    0    0 -0.22648246790E+00  0.21609418058E+01 -0.73765764357E+00  0.22945811942E+01  0.51100000000E-03 0. -1.
        -11    1    3    3    0    0  0.16007441308E+02  0.25302714043E+02 -0.23605583837E+01  0.30033943319E+02  0.51100000000E-03 0.  1.
         12    1    3    3    0    0  0.10463215639E+02  0.90189081582E+01  0.35633812058E-01  0.13813792226E+02  0.00000000000E+00 0. -1.
</event>
<event>
 7    1  0.2097247E-008  0.4614231E+02  0.7816164E-02  0.1320468E+00
        -11   -1    0    0    0    0  0.00000000000E+00  0.00000000000E+00  0.45593999997E+02  0.45594000000E+02  0.51100000000E-03 0.  1.
         11   -1    0    0    0    0 -0.00000000000E+00 -0.00000000000E+00 -0.45593999997E+02  0.45594000000E+02  0.51100000000E-03 0. -1.
    9900012    2    1    2    0    0 -0.18846688843E+02  0.25564426317E+02  0.31943338354E+02  0.46142307215E+02  0.99999038341E+01 0.  0.
         12    1    1    2    0    0  0.18846688843E+02 -0.25564426317E+02 -0.31943338354E+02  0.45045692785E+02  0.00000000000E+00 0. -1.
         11    1    3    3    0    0 -0.39431120263E+01  0.10107777039E+02  0.60965804736E+01  0.12445223294E+02  0.51100000000E-03 0. -1.
        -11    1    3    3    0    0 -0.75956607729E+01  0.65158044395E+01  0.13311417842E+02  0.16653636699E+02  0.51100000000E-03 0.  1.
         12    1    3    3    0    0 -0.73079160436E+01  0.89408448393E+01  0.12535340038E+02  0.17043447222E+02  0.00000000000E+00 0. -1.
</event>
<event>
 7    1  0.2097247E-008  0.4614232E+02  0.7816164E-02  0.1320468E+00
        -11   -1    0    0    0    0  0.00000000000E+00  0.00000000000E+00  0.45593999997E+02  0.45594000000E+02  0.51100000000E-03 0.  1.
         11   -1    0    0    0    0 -0.00000000000E+00 -0.00000000000E+00 -0.45593999997E+02  0.45594000000E+02  0.51100000000E-03 0. -1.
    9900012    2    1    2    0    0 -0.24019848068E+02 -0.27933135426E+02  0.25921032774E+02  0.46142322116E+02  0.10000039712E+02 0.  0.
         12    1    1    2    0    0  0.24019848068E+02  0.27933135426E+02 -0.25921032774E+02  0.45045677884E+02  0.00000000000E+00 0. -1.
         11    1    3    3    0    0 -0.23272239390E+01 -0.46911886637E+01  0.64887695243E+01  0.83383063353E+01  0.51100000000E-03 0. -1.
        -11    1    3    3    0    0 -0.16233269651E+02 -0.18628106778E+02  0.17853204634E+02  0.30483804252E+02  0.51100000000E-03 0.  1.
         12    1    3    3    0    0 -0.54593544775E+01 -0.46138399845E+01  0.15790586157E+01  0.73202115287E+01  0.00000000000E+00 0. -1.
</event>
<event>
 7    1  0.2097247E-008  0.4614232E+02  0.7816164E-02  0.1320468E+00
        -11   -1    0    0    0    0  0.00000000000E+00  0.00000000000E+00  0.45593999997E+02  0.45594000000E+02  0.51100000000E-03 0.  1.
         11   -1    0    0    0    0 -0.00000000000E+00 -0.00000000000E+00 -0.45593999997E+02  0.45594000000E+02  0.51100000000E-03 0. -1.
    9900012    2    1    2    0    0 -0.42757278611E+02  0.14155328287E+02 -0.74517738048E+00  0.46142317827E+02  0.10000000597E+02 0.  0.
         12    1    1    2    0    0  0.42757278611E+02 -0.14155328287E+02  0.74517738048E+00  0.45045682173E+02  0.00000000000E+00 0. -1.
         11    1    3    3    0    0 -0.16574634099E+02  0.39857664238E+01 -0.30578196579E+01  0.17319211611E+02  0.51100000000E-03 0.  1.
        -11    1    3    3    0    0 -0.77911289615E+01  0.29355224319E+01  0.34839575685E+01  0.90253500233E+01  0.51100000000E-03 0. -1.
         12    1    3    3    0    0 -0.18391515551E+02  0.72340394318E+01 -0.11713152911E+01  0.19797756193E+02  0.00000000000E+00 0. -1.
</event>
<event>
 7    1  0.2097247E-008  0.4614232E+02  0.7816164E-02  0.1320468E+00
        -11   -1    0    0    0    0  0.00000000000E+00  0.00000000000E+00  0.45593999997E+02  0.45594000000E+02  0.51100000000E-03 0.  1.
         11   -1    0    0    0    0 -0.00000000000E+00 -0.00000000000E+00 -0.45593999997E+02  0.45594000000E+02  0.51100000000E-03 0. -1.
    9900012    2    1    2    0    0  0.16485393824E+02 -0.20365715212E+02  0.36641272751E+02  0.46142318360E+02  0.10000005459E+02 0.  0.
         12    1    1    2    0    0 -0.16485393824E+02  0.20365715212E+02 -0.36641272751E+02  0.45045681640E+02  0.00000000000E+00 0. -1.
         11    1    3    3    0    0  0.22172788311E+01 -0.85012539625E+01  0.16216885496E+02  0.18443834195E+02  0.51100000000E-03 0. -1.
        -11    1    3    3    0    0  0.87370962943E+01 -0.87348187829E+01  0.13520501431E+02  0.18314963010E+02  0.51100000000E-03 0.  1.
         12    1    3    3    0    0  0.55310186983E+01 -0.31296424664E+01  0.69038858238E+01  0.93835211556E+01  0.00000000000E+00 0. -1.
</event>
<event>
 7    1  0.2097247E-008  0.4614232E+02  0.7816164E-02  0.1320468E+00
        -11   -1    0    0    0    0  0.00000000000E+00  0.00000000000E+00  0.45593999997E+02  0.45594000000E+02  0.51100000000E-03 0. -1.
         11   -1    0    0    0    0 -0.00000000000E+00 -0.00000000000E+00 -0.45593999997E+02  0.45594000000E+02  0.51100000000E-03 0.  1.
    9900012    2    1    2    0    0 -0.35767569516E+02  0.56513580032E+01 -0.26792846211E+02  0.46142317804E+02  0.10000000395E+02 0.  0.
         12    1    1    2    0    0  0.35767569516E+02 -0.56513580032E+01  0.26792846211E+02  0.45045682196E+02  0.00000000000E+00 0. -1.
         11    1    3    3    0    0 -0.64345248767E+01  0.43007362258E+01 -0.59568357626E+01  0.97664392199E+01  0.51100000000E-03 0. -1.
        -11    1    3    3    0    0 -0.86963380995E+01 -0.15199252102E+01 -0.79321946610E+01  0.11868284686E+02  0.51100000000E-03 0.  1.
         12    1    3    3    0    0 -0.20636706540E+02  0.28705469876E+01 -0.12903815787E+02  0.24507593899E+02  0.00000000000E+00 0. -1.
</event>
<event>
 7    1  0.2097247E-008  0.4614232E+02  0.7816164E-02  0.1320468E+00
        -11   -1    0    0    0    0  0.00000000000E+00  0.00000000000E+00  0.45593999997E+02  0.45594000000E+02  0.51100000000E-03 0. -1.
         11   -1    0    0    0    0 -0.00000000000E+00 -0.00000000000E+00 -0.45593999997E+02  0.45594000000E+02  0.51100000000E-03 0.  1.
    9900012    2    1    2    0    0  0.41732255560E+02  0.72605841033E+01 -0.15323713794E+02  0.46142318297E+02  0.10000004886E+02 0.  0.
         12    1    1    2    0    0 -0.41732255560E+02 -0.72605841033E+01  0.15323713794E+02  0.45045681703E+02  0.00000000000E+00 0. -1.
         11    1    3    3    0    0  0.81149498798E+00 -0.12340905416E+00 -0.20892244655E-01  0.82109113816E+00  0.51100000000E-03 0.  1.
        -11    1    3    3    0    0  0.25212786484E+02 -0.18915185953E+00 -0.86198508012E+01  0.26646241926E+02  0.51100000000E-03 0. -1.
        -12    1    3    3    0    0  0.15707974089E+02  0.75731450170E+01 -0.66829707477E+01  0.18674985232E+02  0.00000000000E+00 0.  1.
</event>
<event>
 7    1  0.2097247E-008  0.4614232E+02  0.7816164E-02  0.1320468E+00
        -11   -1    0    0    0    0  0.00000000000E+00  0.00000000000E+00  0.45593999997E+02  0.45594000000E+02  0.51100000000E-03 0.  1.
         11   -1    0    0    0    0 -0.00000000000E+00 -0.00000000000E+00 -0.45593999997E+02  0.45594000000E+02  0.51100000000E-03 0. -1.
    9900012    2    1    2    0    0 -0.13958885737E+02 -0.34298418820E+02  0.25649200725E+02  0.46142317383E+02  0.99999965566E+01 0.  0.
         12    1    1    2    0    0  0.13958885737E+02  0.34298418820E+02 -0.25649200725E+02  0.45045682617E+02  0.00000000000E+00 0. -1.
         11    1    3    3    0    0 -0.66567158641E+01 -0.14684574907E+02  0.13930286397E+02  0.21307310615E+02  0.51100000000E-03 0. -1.
        -11    1    3    3    0    0  0.11978503636E+01 -0.28066589688E+01  0.13738431030E+01  0.33465841082E+01  0.51100000000E-03 0.  1.
        -12    1    3    3    0    0 -0.85000202364E+01 -0.16807184944E+02  0.10345071225E+02  0.21488422660E+02  0.00000000000E+00 0.  1.
</event>
<event>
 7    1  0.2097247E-008  0.4614232E+02  0.7816164E-02  0.1320468E+00
        -11   -1    0    0    0    0  0.00000000000E+00  0.00000000000E+00  0.45593999997E+02  0.45594000000E+02  0.51100000000E-03 0.  1.
         11   -1    0    0    0    0 -0.00000000000E+00 -0.00000000000E+00 -0.45593999997E+02  0.45594000000E+02  0.51100000000E-03 0. -1.
    9900012    2    1    2    0    0  0.31185658153E+02  0.95574343654E+01  0.31068048868E+02  0.46142317781E+02  0.10000000183E+02 0.  0.
         12    1    1    2    0    0 -0.31185658153E+02 -0.95574343654E+01 -0.31068048868E+02  0.45045682219E+02  0.00000000000E+00 0. -1.
         11    1    3    3    0    0 -0.43246851466E+00 -0.20905861736E+00  0.94257038165E+00  0.10579100657E+01  0.51100000000E-03 0. -1.
        -11    1    3    3    0    0  0.61720094502E+01  0.26238323214E+01  0.34853528487E+01  0.75581665399E+01  0.51100000000E-03 0.  1.
        -12    1    3    3    0    0  0.25446117218E+02  0.71426606614E+01  0.26640125637E+02  0.37526241176E+02  0.00000000000E+00 0.  1.
</event>
<event>
 7    1  0.2097247E-008  0.4614232E+02  0.7816164E-02  0.1320468E+00
        -11   -1    0    0    0    0  0.00000000000E+00  0.00000000000E+00  0.45593999997E+02  0.45594000000E+02  0.51100000000E-03 0. -1.
         11   -1    0    0    0    0 -0.00000000000E+00 -0.00000000000E+00 -0.45593999997E+02  0.45594000000E+02  0.51100000000E-03 0.  1.
    9900012    2    1    2    0    0  0.43915762954E+02 -0.24510273392E+01  0.97217116165E+01  0.46142318213E+02  0.10000004125E+02 0.  0.
         12    1    1    2    0    0 -0.43915762954E+02  0.24510273392E+01 -0.97217116165E+01  0.45045681787E+02  0.00000000000E+00 0. -1.
         11    1    3    3    0    0  0.18752591425E+02  0.19295569231E+01  0.21194391857E+01  0.18970368942E+02  0.51100000000E-03 0.  1.
        -11    1    3    3    0    0  0.17702000024E+01 -0.17155136861E+00 -0.81577774511E+00  0.19566633617E+01  0.51100000000E-03 0. -1.
        -12    1    3    3    0    0  0.23392971527E+02 -0.42090328937E+01  0.84180501759E+01  0.25215285910E+02  0.00000000000E+00 0.  1.
</event>
<event>
 7    1  0.2097247E-008  0.4614232E+02  0.7816164E-02  0.1320468E+00
        -11   -1    0    0    0    0  0.00000000000E+00  0.00000000000E+00  0.45593999997E+02  0.45594000000E+02  0.51100000000E-03 0.  1.
         11   -1    0    0    0    0 -0.00000000000E+00 -0.00000000000E+00 -0.45593999997E+02  0.45594000000E+02  0.51100000000E-03 0. -1.
    9900012    2    1    2    0    0  0.15921665776E+02 -0.30127017525E+02  0.29461447451E+02  0.46142317500E+02  0.99999976157E+01 0.  0.
         12    1    1    2    0    0 -0.15921665776E+02  0.30127017525E+02 -0.29461447451E+02  0.45045682500E+02  0.00000000000E+00 0. -1.
         11    1    3    3    0    0  0.91360084283E+01 -0.11006043821E+02  0.79332646208E+01  0.16356538093E+02  0.51100000000E-03 0. -1.
        -11    1    3    3    0    0  0.63123825753E+01 -0.13095377769E+02  0.15443114564E+02  0.21209075425E+02  0.51100000000E-03 0.  1.
         12    1    3    3    0    0  0.47327477240E+00 -0.60255959347E+01  0.60850682660E+01  0.85767039811E+01  0.00000000000E+00 0. -1.
</event>
<event>
 7    1  0.2097247E-008  0.4614232E+02  0.7816164E-02  0.1320468E+00
        -11   -1    0    0    0    0  0.00000000000E+00  0.00000000000E+00  0.45593999997E+02  0.45594000000E+02  0.51100000000E-03 0.  1.
         11   -1    0    0    0    0 -0.00000000000E+00 -0.00000000000E+00 -0.45593999997E+02  0.45594000000E+02  0.51100000000E-03 0. -1.
    9900012    2    1    2    0    0 -0.23759586527E+02 -0.26880297629E+02  0.27240504468E+02  0.46142318340E+02  0.10000005278E+02 0.  0.
         12    1    1    2    0    0  0.23759586527E+02  0.26880297629E+02 -0.27240504468E+02  0.45045681660E+02  0.00000000000E+00 0. -1.
         11    1    3    3    0    0 -0.57197299095E+00 -0.23248248799E+01  0.16870799633E+01  0.29288569252E+01  0.51100000000E-03 0. -1.
        -11    1    3    3    0    0 -0.20975256861E+02 -0.22499641712E+02  0.25848681375E+02  0.40178969706E+02  0.51100000000E-03 0.  1.
         12    1    3    3    0    0 -0.22123566754E+01 -0.20558310369E+01 -0.29525687021E+00  0.30344917088E+01  0.00000000000E+00 0. -1.
</event>
<event>
 7    1  0.2097247E-008  0.4614232E+02  0.7816164E-02  0.1320468E+00
        -11   -1    0    0    0    0  0.00000000000E+00  0.00000000000E+00  0.45593999997E+02  0.45594000000E+02  0.51100000000E-03 0.  1.
         11   -1    0    0    0    0 -0.00000000000E+00 -0.00000000000E+00 -0.45593999997E+02  0.45594000000E+02  0.51100000000E-03 0. -1.
    9900012    2    1    2    0    0 -0.21168288323E+02 -0.35788761001E+02 -0.17325750218E+02  0.46142318019E+02  0.10000002355E+02 0.  0.
         12    1    1    2    0    0  0.21168288323E+02  0.35788761001E+02  0.17325750218E+02  0.45045681981E+02  0.00000000000E+00 0. -1.
         11    1    3    3    0    0 -0.86784235617E+01 -0.11143229342E+02 -0.10227135814E+02  0.17437915670E+02  0.51100000000E-03 0.  1.
        -11    1    3    3    0    0 -0.23083013591E+01 -0.29644900246E+01 -0.13344858043E+00  0.37595564971E+01  0.51100000000E-03 0. -1.
        -12    1    3    3    0    0 -0.10181563402E+02 -0.21681041634E+02 -0.69651658234E+01  0.24944845852E+02  0.00000000000E+00 0.  1.
</event>
<event>
 7    1  0.2097247E-008  0.4614232E+02  0.7816164E-02  0.1320468E+00
        -11   -1    0    0    0    0  0.00000000000E+00  0.00000000000E+00  0.45593999997E+02  0.45594000000E+02  0.51100000000E-03 0.  1.
         11   -1    0    0    0    0 -0.00000000000E+00 -0.00000000000E+00 -0.45593999997E+02  0.45594000000E+02  0.51100000000E-03 0. -1.
    9900012    2    1    2    0    0 -0.38315742043E+02  0.17391031561E+02  0.16080097587E+02  0.46142316461E+02  0.99999881462E+01 0.  0.
         12    1    1    2    0    0  0.38315742043E+02 -0.17391031561E+02 -0.16080097587E+02  0.45045683539E+02  0.00000000000E+00 0. -1.
         11    1    3    3    0    0 -0.15005898958E+00  0.40727919200E+00 -0.15935303562E+00  0.46237181107E+00  0.51100000000E-03 0. -1.
        -11    1    3    3    0    0 -0.14874605305E+02  0.26077903164E+01  0.35610519259E+01  0.15515654817E+02  0.51100000000E-03 0.  1.
        -12    1    3    3    0    0 -0.23291077748E+02  0.14375962053E+02  0.12678398697E+02  0.30164289833E+02  0.00000000000E+00 0.  1.
</event>
<event>
 7    1  0.2097247E-008  0.4614232E+02  0.7816164E-02  0.1320468E+00
        -11   -1    0    0    0    0  0.00000000000E+00  0.00000000000E+00  0.45593999997E+02  0.45594000000E+02  0.51100000000E-03 0.  1.
         11   -1    0    0    0    0 -0.00000000000E+00 -0.00000000000E+00 -0.45593999997E+02  0.45594000000E+02  0.51100000000E-03 0. -1.
    9900012    2    1    2    0    0  0.17603650398E+02 -0.18951784031E+02  0.36878917592E+02  0.46142321095E+02  0.10000030397E+02 0.  0.
         12    1    1    2    0    0 -0.17603650398E+02  0.18951784031E+02 -0.36878917592E+02  0.45045678905E+02  0.00000000000E+00 0. -1.
         11    1    3    3    0    0  0.71108961720E+01 -0.99893410386E+01  0.21693395697E+02  0.24918972609E+02  0.51100000000E-03 0. -1.
        -11    1    3    3    0    0  0.73018540442E+01 -0.64197270476E+01  0.13866254623E+02  0.16935258646E+02  0.51100000000E-03 0.  1.
         12    1    3    3    0    0  0.31909001813E+01 -0.25427159445E+01  0.13192672717E+01  0.42880898399E+01  0.00000000000E+00 0. -1.
</event>
<event>
 7    1  0.2097247E-008  0.4614232E+02  0.7816164E-02  0.1320468E+00
        -11   -1    0    0    0    0  0.00000000000E+00  0.00000000000E+00  0.45593999997E+02  0.45594000000E+02  0.51100000000E-03 0.  1.
         11   -1    0    0    0    0 -0.00000000000E+00 -0.00000000000E+00 -0.45593999997E+02  0.45594000000E+02  0.51100000000E-03 0. -1.
    9900012    2    1    2    0    0  0.16240306567E+01 -0.32662630829E+02  0.30977867917E+02  0.46142320641E+02  0.10000026260E+02 0.  0.
         12    1    1    2    0    0 -0.16240306567E+01  0.32662630829E+02 -0.30977867917E+02  0.45045679359E+02  0.00000000000E+00 0. -1.
         11    1    3    3    0    0 -0.23942314395E+01 -0.87504311795E+01  0.79588720243E+01  0.12068389875E+02  0.51100000000E-03 0. -1.
        -11    1    3    3    0    0 -0.10097771524E+01 -0.60468392425E+01  0.31769506486E+01  0.69048483261E+01  0.51100000000E-03 0.  1.
        -12    1    3    3    0    0  0.50280392486E+01 -0.17865360407E+02  0.19842045244E+02  0.27169082440E+02  0.00000000000E+00 0.  1.
</event>
<event>
 7    1  0.2097247E-008  0.4614232E+02  0.7816164E-02  0.1320468E+00
        -11   -1    0    0    0    0  0.00000000000E+00  0.00000000000E+00  0.45593999997E+02  0.45594000000E+02  0.51100000000E-03 0.  1.
         11   -1    0    0    0    0 -0.00000000000E+00 -0.00000000000E+00 -0.45593999997E+02  0.45594000000E+02  0.51100000000E-03 0. -1.
    9900012    2    1    2    0    0  0.25456007711E+02 -0.24517856867E+02  0.27928118503E+02  0.46142318330E+02  0.10000005192E+02 0.  0.
         12    1    1    2    0    0 -0.25456007711E+02  0.24517856867E+02 -0.27928118503E+02  0.45045681670E+02  0.00000000000E+00 0. -1.
         11    1    3    3    0    0  0.40834423257E+01 -0.15950739651E+01  0.11139721759E+01  0.45232395970E+01  0.51100000000E-03 0. -1.
        -11    1    3    3    0    0  0.19189571606E+02 -0.20545542282E+02  0.21462170580E+02  0.35369248400E+02  0.51100000000E-03 0.  1.
         12    1    3    3    0    0  0.21829937791E+01 -0.23772406201E+01  0.53519757466E+01  0.62498303335E+01  0.00000000000E+00 0. -1.
</event>
<event>
 7    1  0.2097247E-008  0.4614232E+02  0.7816164E-02  0.1320468E+00
        -11   -1    0    0    0    0  0.00000000000E+00  0.00000000000E+00  0.45593999997E+02  0.45594000000E+02  0.51100000000E-03 0.  1.
         11   -1    0    0    0    0 -0.00000000000E+00 -0.00000000000E+00 -0.45593999997E+02  0.45594000000E+02  0.51100000000E-03 0. -1.
    9900012    2    1    2    0    0  0.11237747595E+02 -0.14696040401E+02  0.41071314558E+02  0.46142318143E+02  0.10000003478E+02 0.  0.
         12    1    1    2    0    0 -0.11237747595E+02  0.14696040401E+02 -0.41071314558E+02  0.45045681857E+02  0.00000000000E+00 0. -1.
         11    1    3    3    0    0  0.12708856839E+01  0.93166808740E+00  0.43608545128E+01  0.46368316973E+01  0.51100000000E-03 0. -1.
        -11    1    3    3    0    0  0.39031376659E+01 -0.33493187211E+01  0.14793910514E+02  0.15662445789E+02  0.51100000000E-03 0.  1.
         12    1    3    3    0    0  0.60637242452E+01 -0.12278389767E+02  0.21916549531E+02  0.25843040656E+02  0.00000000000E+00 0. -1.
</event>
<event>
 7    1  0.2097247E-008  0.4614232E+02  0.7816164E-02  0.1320468E+00
        -11   -1    0    0    0    0  0.00000000000E+00  0.00000000000E+00  0.45593999997E+02  0.45594000000E+02  0.51100000000E-03 0.  1.
         11   -1    0    0    0    0 -0.00000000000E+00 -0.00000000000E+00 -0.45593999997E+02  0.45594000000E+02  0.51100000000E-03 0. -1.
    9900012    2    1    2    0    0  0.41006729483E+01  0.30966013266E+02  0.32456186105E+02  0.46142317491E+02  0.99999975360E+01 0.  0.
         12    1    1    2    0    0 -0.41006729483E+01 -0.30966013266E+02 -0.32456186105E+02  0.45045682509E+02  0.00000000000E+00 0. -1.
         11    1    3    3    0    0 -0.36073032191E+00  0.23507330062E+01  0.34193272988E+01  0.41650776066E+01  0.51100000000E-03 0. -1.
        -11    1    3    3    0    0 -0.17704463995E+01  0.12667250363E+02  0.91017201584E+01  0.15698249021E+02  0.51100000000E-03 0.  1.
         12    1    3    3    0    0  0.62318496697E+01  0.15948029897E+02  0.19935138648E+02  0.26278990863E+02  0.00000000000E+00 0. -1.
</event>
<event>
 7    1  0.2097247E-008  0.4614232E+02  0.7816164E-02  0.1320468E+00
        -11   -1    0    0    0    0  0.00000000000E+00  0.00000000000E+00  0.45593999997E+02  0.45594000000E+02  0.51100000000E-03 0.  1.
         11   -1    0    0    0    0 -0.00000000000E+00 -0.00000000000E+00 -0.45593999997E+02  0.45594000000E+02  0.51100000000E-03 0. -1.
    9900012    2    1    2    0    0 -0.18854593006E+02 -0.50501622591E+01  0.40596966437E+02  0.46142317630E+02  0.99999988068E+01 0.  0.
         12    1    1    2    0    0  0.18854593006E+02  0.50501622591E+01 -0.40596966437E+02  0.45045682370E+02  0.00000000000E+00 0. -1.
         11    1    3    3    0    0 -0.45670498691E+01 -0.42008528397E+00  0.42367219943E+01  0.62437352339E+01  0.51100000000E-03 0. -1.
        -11    1    3    3    0    0 -0.44053989339E+01  0.14591161050E+01  0.78993723267E+01  0.91616943297E+01  0.51100000000E-03 0.  1.
        -12    1    3    3    0    0 -0.98821442031E+01 -0.60891930801E+01  0.28460872116E+02  0.30736888067E+02  0.00000000000E+00 0.  1.
</event>
<event>
 7    1  0.2097247E-008  0.4614232E+02  0.7816164E-02  0.1320468E+00
        -11   -1    0    0    0    0  0.00000000000E+00  0.00000000000E+00  0.45593999997E+02  0.45594000000E+02  0.51100000000E-03 0.  1.
         11   -1    0    0    0    0 -0.00000000000E+00 -0.00000000000E+00 -0.45593999997E+02  0.45594000000E+02  0.51100000000E-03 0. -1.
    9900012    2    1    2    0    0 -0.37391405439E+01  0.38285190288E+02  0.23438782406E+02  0.46142317765E+02  0.10000000033E+02 0.  0.
         12    1    1    2    0    0  0.37391405439E+01 -0.38285190288E+02 -0.23438782406E+02  0.45045682235E+02  0.00000000000E+00 0. -1.
         11    1    3    3    0    0 -0.46598315373E+01  0.13730459574E+02  0.60574728503E+01  0.15714086918E+02  0.51100000000E-03 0. -1.
        -11    1    3    3    0    0  0.24501022282E-01  0.10783970389E+01 -0.18401259566E+00  0.10942583653E+01  0.51100000000E-03 0.  1.
        -12    1    3    3    0    0  0.89618997106E+00  0.23476333675E+02  0.17565322151E+02  0.29333972482E+02  0.00000000000E+00 0.  1.
</event>
<event>
 7    1  0.2097247E-008  0.4614232E+02  0.7816164E-02  0.1320468E+00
        -11   -1    0    0    0    0  0.00000000000E+00  0.00000000000E+00  0.45593999997E+02  0.45594000000E+02  0.51100000000E-03 0. -1.
         11   -1    0    0    0    0 -0.00000000000E+00 -0.00000000000E+00 -0.45593999997E+02  0.45594000000E+02  0.51100000000E-03 0.  1.
    9900012    2    1    2    0    0 -0.18066526594E+02 -0.39241686130E+02 -0.12759477151E+02  0.46142316848E+02  0.99999916708E+01 0.  0.
         12    1    1    2    0    0  0.18066526594E+02  0.39241686130E+02  0.12759477151E+02  0.45045683152E+02  0.00000000000E+00 0. -1.
         11    1    3    3    0    0 -0.67232029513E+01 -0.10465346266E+02 -0.34293909150E+01  0.12902931942E+02  0.51100000000E-03 0.  1.
        -11    1    3    3    0    0 -0.85787847277E+01 -0.27586686257E+02 -0.83024022915E+01  0.30059119916E+02  0.51100000000E-03 0. -1.
         12    1    3    3    0    0 -0.27645389147E+01 -0.11896536072E+01 -0.10276839448E+01  0.31802649900E+01  0.00000000000E+00 0. -1.
</event>
<event>
 7    1  0.2097247E-008  0.4614232E+02  0.7816164E-02  0.1320468E+00
        -11   -1    0    0    0    0  0.00000000000E+00  0.00000000000E+00  0.45593999997E+02  0.45594000000E+02  0.51100000000E-03 0.  1.
         11   -1    0    0    0    0 -0.00000000000E+00 -0.00000000000E+00 -0.45593999997E+02  0.45594000000E+02  0.51100000000E-03 0. -1.
    9900012    2    1    2    0    0 -0.30694481124E+02  0.36661630700E+01  0.32764637974E+02  0.46142318468E+02  0.10000006446E+02 0.  0.
         12    1    1    2    0    0  0.30694481124E+02 -0.36661630700E+01 -0.32764637974E+02  0.45045681532E+02  0.00000000000E+00 0. -1.
         11    1    3    3    0    0 -0.14355021304E+02  0.61400051644E+00  0.13683827671E+02  0.19841642403E+02  0.51100000000E-03 0. -1.
        -11    1    3    3    0    0 -0.31132096013E+01 -0.21093893694E+01  0.54296675758E+01  0.66047625073E+01  0.51100000000E-03 0.  1.
         12    1    3    3    0    0 -0.13226250219E+02  0.51615519230E+01  0.13651142727E+02  0.19695913557E+02  0.00000000000E+00 0. -1.
</event>
<event>
 7    1  0.2097247E-008  0.4614232E+02  0.7816164E-02  0.1320468E+00
        -11   -1    0    0    0    0  0.00000000000E+00  0.00000000000E+00  0.45593999997E+02  0.45594000000E+02  0.51100000000E-03 0.  1.
         11   -1    0    0    0    0 -0.00000000000E+00 -0.00000000000E+00 -0.45593999997E+02  0.45594000000E+02  0.51100000000E-03 0. -1.
    9900012    2    1    2    0    0  0.11180452028E+02 -0.33709101499E+02  0.27709340344E+02  0.46142316813E+02  0.99999913589E+01 0.  0.
         12    1    1    2    0    0 -0.11180452028E+02  0.33709101499E+02 -0.27709340344E+02  0.45045683187E+02  0.00000000000E+00 0. -1.
         11    1    3    3    0    0  0.53869597786E+01 -0.10493436738E+02  0.11691463167E+02  0.16607885521E+02  0.51100000000E-03 0. -1.
        -11    1    3    3    0    0  0.63507717201E+01 -0.22856791532E+02  0.16331897911E+02  0.28800974119E+02  0.51100000000E-03 0.  1.
         12    1    3    3    0    0 -0.55727947081E+00 -0.35887322952E+00 -0.31402073432E+00  0.73345717328E+00  0.00000000000E+00 0. -1.
</event>
<event>
 7    1  0.2097247E-008  0.4614232E+02  0.7816164E-02  0.1320468E+00
        -11   -1    0    0    0    0  0.00000000000E+00  0.00000000000E+00  0.45593999997E+02  0.45594000000E+02  0.51100000000E-03 0. -1.
         11   -1    0    0    0    0 -0.00000000000E+00 -0.00000000000E+00 -0.45593999997E+02  0.45594000000E+02  0.51100000000E-03 0.  1.
    9900012    2    1    2    0    0  0.33890154713E+02 -0.28063297207E+02 -0.96448072973E+01  0.46142317139E+02  0.99999943300E+01 0.  0.
         12    1    1    2    0    0 -0.33890154713E+02  0.28063297207E+02  0.96448072973E+01  0.45045682861E+02  0.00000000000E+00 0. -1.
         11    1    3    3    0    0  0.17490821130E+02 -0.19556652696E+02 -0.27820530754E+01  0.26384300408E+02  0.51100000000E-03 0. -1.
        -11    1    3    3    0    0  0.72800316726E+01 -0.33398546374E+01 -0.35929031060E+01  0.87785216946E+01  0.51100000000E-03 0.  1.
         12    1    3    3    0    0  0.91193019104E+01 -0.51667898734E+01 -0.32698511160E+01  0.10979495036E+02  0.00000000000E+00 0. -1.
</event>
<event>
 7    1  0.2097247E-008  0.4614232E+02  0.7816164E-02  0.1320468E+00
        -11   -1    0    0    0    0  0.00000000000E+00  0.00000000000E+00  0.45593999997E+02  0.45594000000E+02  0.51100000000E-03 0.  1.
         11   -1    0    0    0    0 -0.00000000000E+00 -0.00000000000E+00 -0.45593999997E+02  0.45594000000E+02  0.51100000000E-03 0. -1.
    9900012    2    1    2    0    0  0.19574154503E+00  0.44797499227E+02 -0.47179709951E+01  0.46142317609E+02  0.99999986142E+01 0.  0.
         12    1    1    2    0    0 -0.19574154503E+00 -0.44797499227E+02  0.47179709951E+01  0.45045682391E+02  0.00000000000E+00 0. -1.
         11    1    3    3    0    0 -0.28135278418E+01  0.20637334795E+02 -0.38032586727E+01  0.21172630993E+02  0.51100000000E-03 0. -1.
        -11    1    3    3    0    0  0.17786186828E+01  0.17180856377E+02 -0.31101304649E+01  0.17550447915E+02  0.51100000000E-03 0.  1.
        -12    1    3    3    0    0  0.12306507040E+01  0.69793080555E+01  0.21954181424E+01  0.74192387015E+01  0.00000000000E+00 0.  1.
</event>
<event>
 7    1  0.2097247E-008  0.4614232E+02  0.7816164E-02  0.1320468E+00
        -11   -1    0    0    0    0  0.00000000000E+00  0.00000000000E+00  0.45593999997E+02  0.45594000000E+02  0.51100000000E-03 0. -1.
         11   -1    0    0    0    0 -0.00000000000E+00 -0.00000000000E+00 -0.45593999997E+02  0.45594000000E+02  0.51100000000E-03 0.  1.
    9900012    2    1    2    0    0  0.42292830077E+02 -0.90834440914E+01 -0.12566663921E+02  0.46142317914E+02  0.10000001398E+02 0.  0.
         12    1    1    2    0    0 -0.42292830077E+02  0.90834440914E+01  0.12566663921E+02  0.45045682086E+02  0.00000000000E+00 0. -1.
         11    1    3    3    0    0  0.20842027340E+02 -0.54029857602E+01 -0.40975866422E+01  0.21917403480E+02  0.51100000000E-03 0. -1.
        -11    1    3    3    0    0  0.14043620299E+02 -0.18033757202E+01 -0.21747072393E+01  0.14324970748E+02  0.51100000000E-03 0.  1.
         12    1    3    3    0    0  0.74071824372E+01 -0.18770826111E+01 -0.62943700398E+01  0.98999436859E+01  0.00000000000E+00 0. -1.
</event>
<event>
 7    1  0.2097247E-008  0.4614232E+02  0.7816164E-02  0.1320468E+00
        -11   -1    0    0    0    0  0.00000000000E+00  0.00000000000E+00  0.45593999997E+02  0.45594000000E+02  0.51100000000E-03 0. -1.
         11   -1    0    0    0    0 -0.00000000000E+00 -0.00000000000E+00 -0.45593999997E+02  0.45594000000E+02  0.51100000000E-03 0.  1.
    9900012    2    1    2    0    0  0.92722333650E+01 -0.24784536969E+02 -0.36453612776E+02  0.46142317979E+02  0.10000001983E+02 0.  0.
         12    1    1    2    0    0 -0.92722333650E+01  0.24784536969E+02  0.36453612776E+02  0.45045682021E+02  0.00000000000E+00 0. -1.
         11    1    3    3    0    0  0.12025698312E+01 -0.73675624734E+01 -0.11369957132E+02  0.13601583600E+02  0.51100000000E-03 0. -1.
        -11    1    3    3    0    0  0.82958946201E+01 -0.91866849486E+01 -0.16733422256E+02  0.20814044983E+02  0.51100000000E-03 0.  1.
         12    1    3    3    0    0 -0.22623108626E+00 -0.82302895475E+01 -0.83502333878E+01  0.11726689395E+02  0.00000000000E+00 0. -1.
</event>
<event>
 7    1  0.2097247E-008  0.4614232E+02  0.7816164E-02  0.1320468E+00
        -11   -1    0    0    0    0  0.00000000000E+00  0.00000000000E+00  0.45593999997E+02  0.45594000000E+02  0.51100000000E-03 0.  1.
         11   -1    0    0    0    0 -0.00000000000E+00 -0.00000000000E+00 -0.45593999997E+02  0.45594000000E+02  0.51100000000E-03 0. -1.
    9900012    2    1    2    0    0  0.17108245281E+02  0.11909482569E+02  0.39932263924E+02  0.46142317257E+02  0.99999954049E+01 0.  0.
         12    1    1    2    0    0 -0.17108245281E+02 -0.11909482569E+02 -0.39932263924E+02  0.45045682743E+02  0.00000000000E+00 0. -1.
         11    1    3    3    0    0 -0.80938054078E+00 -0.17090701330E+00  0.81819313871E+00  0.11635060551E+01  0.51100000000E-03 0. -1.
        -11    1    3    3    0    0  0.56769219029E+01  0.67384132864E+01  0.16901694925E+02  0.19060455070E+02  0.51100000000E-03 0.  1.
         12    1    3    3    0    0  0.12240703919E+02  0.53419762957E+01  0.22212375861E+02  0.25918356132E+02  0.00000000000E+00 0. -1.
</event>
<event>
 7    1  0.2131594E-008  0.4614232E+02  0.7816164E-02  0.1320468E+00
        -11   -1    0    0    0    0  0.00000000000E+00  0.00000000000E+00  0.45593999997E+02  0.45594000000E+02  0.51100000000E-03 0. -1.
         11   -1    0    0    0    0 -0.00000000000E+00 -0.00000000000E+00 -0.45593999997E+02  0.45594000000E+02  0.51100000000E-03 0.  1.
    9900012    2    1    2    0    0  0.39013055515E+02 -0.22518275439E+02 -0.14921700010E+00  0.46142317687E+02  0.99999993250E+01 0.  0.
         12    1    1    2    0    0 -0.39013055515E+02  0.22518275439E+02  0.14921700010E+00  0.45045682313E+02  0.00000000000E+00 0. -1.
         11    1    3    3    0    0  0.31092636062E+01 -0.43669697424E+01  0.23679101135E+00  0.53660055114E+01  0.51100000000E-03 0. -1.
        -11    1    3    3    0    0  0.49345238066E+01 -0.41783613813E+01 -0.19831930359E+01  0.67632302866E+01  0.51100000000E-03 0.  1.
        -12    1    3    3    0    0  0.30969268102E+02 -0.13972944315E+02  0.15971850245E+01  0.34013081889E+02  0.00000000000E+00 0.  1.
</event>
<event>
 7    1  0.2097247E-008  0.4614232E+02  0.7816164E-02  0.1320468E+00
        -11   -1    0    0    0    0  0.00000000000E+00  0.00000000000E+00  0.45593999997E+02  0.45594000000E+02  0.51100000000E-03 0.  1.
         11   -1    0    0    0    0 -0.00000000000E+00 -0.00000000000E+00 -0.45593999997E+02  0.45594000000E+02  0.51100000000E-03 0. -1.
    9900012    2    1    2    0    0  0.11231763320E+01 -0.44655258325E+02 -0.58103227752E+01  0.46142317943E+02  0.10000001663E+02 0.  0.
         12    1    1    2    0    0 -0.11231763320E+01  0.44655258325E+02  0.58103227752E+01  0.45045682057E+02  0.00000000000E+00 0. -1.
         11    1    3    3    0    0  0.28856757350E+00 -0.14596623822E+02 -0.40392642309E+01  0.15147948839E+02  0.51100000000E-03 0. -1.
        -11    1    3    3    0    0 -0.25703272400E+01 -0.11680920544E+02  0.13814596558E+01  0.12039888617E+02  0.51100000000E-03 0.  1.
         12    1    3    3    0    0  0.34049359986E+01 -0.18377713960E+02 -0.31525182000E+01  0.18954480487E+02  0.00000000000E+00 0. -1.
</event>
<event>
 7    1  0.2097247E-008  0.4614232E+02  0.7816164E-02  0.1320468E+00
        -11   -1    0    0    0    0  0.00000000000E+00  0.00000000000E+00  0.45593999997E+02  0.45594000000E+02  0.51100000000E-03 0.  1.
         11   -1    0    0    0    0 -0.00000000000E+00 -0.00000000000E+00 -0.45593999997E+02  0.45594000000E+02  0.51100000000E-03 0. -1.
    9900012    2    1    2    0    0 -0.30459964465E+02 -0.63396068884E+01  0.32574736427E+02  0.46142317588E+02  0.99999984222E+01 0.  0.
         12    1    1    2    0    0  0.30459964465E+02  0.63396068884E+01 -0.32574736427E+02  0.45045682412E+02  0.00000000000E+00 0. -1.
         11    1    3    3    0    0 -0.10650714674E+02 -0.26154792911E+01  0.11060807764E+02  0.15576261542E+02  0.51100000000E-03 0. -1.
        -11    1    3    3    0    0 -0.16051725235E+02 -0.60852847918E+01  0.15796830606E+02  0.23328704024E+02  0.51100000000E-03 0.  1.
         12    1    3    3    0    0 -0.37575245560E+01  0.23611571945E+01  0.57170980572E+01  0.72373520214E+01  0.00000000000E+00 0. -1.
</event>
<event>
 7    1  0.2097247E-008  0.4614232E+02  0.7816164E-02  0.1320468E+00
        -11   -1    0    0    0    0  0.00000000000E+00  0.00000000000E+00  0.45593999997E+02  0.45594000000E+02  0.51100000000E-03 0.  1.
         11   -1    0    0    0    0 -0.00000000000E+00 -0.00000000000E+00 -0.45593999997E+02  0.45594000000E+02  0.51100000000E-03 0. -1.
    9900012    2    1    2    0    0  0.80248506745E+01  0.40091456419E+02  0.18904769727E+02  0.46142318469E+02  0.10000006455E+02 0.  0.
         12    1    1    2    0    0 -0.80248506745E+01 -0.40091456419E+02 -0.18904769727E+02  0.45045681531E+02  0.00000000000E+00 0. -1.
         11    1    3    3    0    0  0.71114175683E+01  0.21192142594E+02  0.82834804587E+01  0.23838943272E+02  0.51100000000E-03 0. -1.
        -11    1    3    3    0    0  0.17152954018E+01  0.14240999017E+02  0.55755398364E+01  0.15389442356E+02  0.51100000000E-03 0.  1.
         12    1    3    3    0    0 -0.80186229569E+00  0.46583148081E+01  0.50457494317E+01  0.69139328403E+01  0.00000000000E+00 0. -1.
</event>
<event>
 7    1  0.2097247E-008  0.4614232E+02  0.7816164E-02  0.1320468E+00
        -11   -1    0    0    0    0  0.00000000000E+00  0.00000000000E+00  0.45593999997E+02  0.45594000000E+02  0.51100000000E-03 0. -1.
         11   -1    0    0    0    0 -0.00000000000E+00 -0.00000000000E+00 -0.45593999997E+02  0.45594000000E+02  0.51100000000E-03 0.  1.
    9900012    2    1    2    0    0 -0.13966209045E+02 -0.42825776121E+02 -0.10683913022E+00  0.46142317520E+02  0.99999978016E+01 0.  0.
         12    1    1    2    0    0  0.13966209045E+02  0.42825776121E+02  0.10683913022E+00  0.45045682480E+02  0.00000000000E+00 0. -1.
         11    1    3    3    0    0  0.54718110172E+00 -0.32229449027E+01 -0.99442795973E+00  0.34169676955E+01  0.51100000000E-03 0. -1.
        -11    1    3    3    0    0 -0.21455116708E+01 -0.17579449900E+01 -0.76241339095E+00  0.28766065697E+01  0.51100000000E-03 0.  1.
        -12    1    3    3    0    0 -0.12367878476E+02 -0.37844886229E+02  0.16500022205E+01  0.39848743255E+02  0.00000000000E+00 0.  1.
</event>
<event>
 7    1  0.2097247E-008  0.4614232E+02  0.7816164E-02  0.1320468E+00
        -11   -1    0    0    0    0  0.00000000000E+00  0.00000000000E+00  0.45593999997E+02  0.45594000000E+02  0.51100000000E-03 0.  1.
         11   -1    0    0    0    0 -0.00000000000E+00 -0.00000000000E+00 -0.45593999997E+02  0.45594000000E+02  0.51100000000E-03 0. -1.
    9900012    2    1    2    0    0 -0.13163451126E+02  0.36825062915E+02  0.22355129700E+02  0.46142317320E+02  0.99999959736E+01 0.  0.
         12    1    1    2    0    0  0.13163451126E+02 -0.36825062915E+02 -0.22355129700E+02  0.45045682680E+02  0.00000000000E+00 0. -1.
         11    1    3    3    0    0 -0.76267876270E+01  0.25675464987E+02  0.18703606762E+02  0.32668368462E+02  0.51100000000E-03 0. -1.
        -11    1    3    3    0    0 -0.67292893324E+00  0.50985005088E+01  0.21108444484E+01  0.55590651493E+01  0.51100000000E-03 0.  1.
         12    1    3    3    0    0 -0.48637345661E+01  0.60510974188E+01  0.15406784896E+01  0.79148837079E+01  0.00000000000E+00 0. -1.
</event>
<event>
 7    1  0.2097247E-008  0.4614232E+02  0.7816164E-02  0.1320468E+00
        -11   -1    0    0    0    0  0.00000000000E+00  0.00000000000E+00  0.45593999997E+02  0.45594000000E+02  0.51100000000E-03 0.  1.
         11   -1    0    0    0    0 -0.00000000000E+00 -0.00000000000E+00 -0.45593999997E+02  0.45594000000E+02  0.51100000000E-03 0. -1.
    9900012    2    1    2    0    0  0.29639024316E+02 -0.55551331559E+01  0.33463144070E+02  0.46142320098E+02  0.10000021311E+02 0.  0.
         12    1    1    2    0    0 -0.29639024316E+02  0.55551331559E+01 -0.33463144070E+02  0.45045679902E+02  0.00000000000E+00 0. -1.
         11    1    3    3    0    0  0.21921973815E+02 -0.21766214776E+01  0.26274785013E+02  0.34288116670E+02  0.51100000000E-03 0. -1.
        -11    1    3    3    0    0  0.67286243314E+01 -0.28451061662E+01  0.77051621258E+01  0.10617840559E+02  0.51100000000E-03 0.  1.
         12    1    3    3    0    0  0.98842616925E+00 -0.53340551207E+00 -0.51680306912E+00  0.12363628693E+01  0.00000000000E+00 0. -1.
</event>
<event>
 7    1  0.2097247E-008  0.4614233E+02  0.7816164E-02  0.1320468E+00
        -11   -1    0    0    0    0  0.00000000000E+00  0.00000000000E+00  0.45593999997E+02  0.45594000000E+02  0.51100000000E-03 0.  1.
         11   -1    0    0    0    0 -0.00000000000E+00 -0.00000000000E+00 -0.45593999997E+02  0.45594000000E+02  0.51100000000E-03 0. -1.
    9900012    2    1    2    0    0 -0.19818619138E+02  0.99758143370E+01  0.39202270227E+02  0.46142328430E+02  0.10000097289E+02 0.  0.
         12    1    1    2    0    0  0.19818619138E+02 -0.99758143370E+01 -0.39202270227E+02  0.45045671570E+02  0.00000000000E+00 0. -1.
         11    1    3    3    0    0 -0.27044281678E+01  0.36947284944E+00  0.63436843580E+01  0.69059954674E+01  0.51100000000E-03 0.  1.
        -11    1    3    3    0    0 -0.15125141717E+01  0.53746757470E+00 -0.15484857363E+00  0.16126217335E+01  0.51100000000E-03 0. -1.
        -12    1    3    3    0    0 -0.15601676799E+02  0.90688739129E+01  0.33013434442E+02  0.37623711229E+02  0.00000000000E+00 0.  1.
</event>
<event>
 7    1  0.2097247E-008  0.4614232E+02  0.7816164E-02  0.1320468E+00
        -11   -1    0    0    0    0  0.00000000000E+00  0.00000000000E+00  0.45593999997E+02  0.45594000000E+02  0.51100000000E-03 0.  1.
         11   -1    0    0    0    0 -0.00000000000E+00 -0.00000000000E+00 -0.45593999997E+02  0.45594000000E+02  0.51100000000E-03 0. -1.
    9900012    2    1    2    0    0  0.54760809724E+01  0.43995388550E+02  0.79706831185E+01  0.46142318011E+02  0.10000002277E+02 0.  0.
         12    1    1    2    0    0 -0.54760809724E+01 -0.43995388550E+02 -0.79706831185E+01  0.45045681989E+02  0.00000000000E+00 0. -1.
         11    1    3    3    0    0 -0.12011126452E+01  0.88196099342E+01 -0.33288129424E+00  0.89072443098E+01  0.51100000000E-03 0. -1.
        -11    1    3    3    0    0  0.46054486709E+01  0.32283089588E+02  0.65213432646E+01  0.33255615301E+02  0.51100000000E-03 0.  1.
        -12    1    3    3    0    0  0.20717449468E+01  0.28926890277E+01  0.17822211481E+01  0.39794583998E+01  0.00000000000E+00 0.  1.
</event>
<event>
 7    1  0.2097247E-008  0.4614232E+02  0.7816164E-02  0.1320468E+00
        -11   -1    0    0    0    0  0.00000000000E+00  0.00000000000E+00  0.45593999997E+02  0.45594000000E+02  0.51100000000E-03 0. -1.
         11   -1    0    0    0    0 -0.00000000000E+00 -0.00000000000E+00 -0.45593999997E+02  0.45594000000E+02  0.51100000000E-03 0.  1.
    9900012    2    1    2    0    0 -0.38126534606E+02 -0.15929488104E+02 -0.17936896360E+02  0.46142317817E+02  0.10000000512E+02 0.  0.
         12    1    1    2    0    0  0.38126534606E+02  0.15929488104E+02  0.17936896360E+02  0.45045682183E+02  0.00000000000E+00 0. -1.
         11    1    3    3    0    0  0.29598036268E+00 -0.50103125241E+00 -0.14057020623E+01  0.15213925332E+01  0.51100000000E-03 0. -1.
        -11    1    3    3    0    0 -0.14248300577E+02 -0.49519701369E+01 -0.54486603509E+01  0.16038203685E+02  0.51100000000E-03 0.  1.
         12    1    3    3    0    0 -0.24174214391E+02 -0.10476486715E+02 -0.11082533947E+02  0.28582721599E+02  0.00000000000E+00 0. -1.
</event>
<event>
 7    1  0.2097247E-008  0.4614232E+02  0.7816164E-02  0.1320468E+00
        -11   -1    0    0    0    0  0.00000000000E+00  0.00000000000E+00  0.45593999997E+02  0.45594000000E+02  0.51100000000E-03 0. -1.
         11   -1    0    0    0    0 -0.00000000000E+00 -0.00000000000E+00 -0.45593999997E+02  0.45594000000E+02  0.51100000000E-03 0.  1.
    9900012    2    1    2    0    0  0.19665895886E+02  0.39420116722E+02  0.94032130419E+01  0.46142317867E+02  0.10000000964E+02 0.  0.
         12    1    1    2    0    0 -0.19665895886E+02 -0.39420116722E+02 -0.94032130419E+01  0.45045682133E+02  0.00000000000E+00 0. -1.
         11    1    3    3    0    0  0.40642294712E+01  0.95264891293E+01  0.58324989569E+01  0.11886547046E+02  0.51100000000E-03 0. -1.
        -11    1    3    3    0    0  0.53347615255E+01  0.88881581837E+01 -0.10633360607E+01  0.10420639149E+02  0.51100000000E-03 0.  1.
        -12    1    3    3    0    0  0.10266904889E+02  0.21005469409E+02  0.46340501457E+01  0.23835131672E+02  0.00000000000E+00 0.  1.
</event>
<event>
 7    1  0.2097247E-008  0.4614232E+02  0.7816164E-02  0.1320468E+00
        -11   -1    0    0    0    0  0.00000000000E+00  0.00000000000E+00  0.45593999997E+02  0.45594000000E+02  0.51100000000E-03 0. -1.
         11   -1    0    0    0    0 -0.00000000000E+00 -0.00000000000E+00 -0.45593999997E+02  0.45594000000E+02  0.51100000000E-03 0.  1.
    9900012    2    1    2    0    0  0.37475687849E+02 -0.20966412586E+02 -0.13604993058E+02  0.46142317936E+02  0.10000001599E+02 0.  0.
         12    1    1    2    0    0 -0.37475687849E+02  0.20966412586E+02  0.13604993058E+02  0.45045682064E+02  0.00000000000E+00 0. -1.
         11    1    3    3    0    0  0.21861203900E+02 -0.10904522414E+02 -0.53455454372E+01  0.25007912774E+02  0.51100000000E-03 0.  1.
        -11    1    3    3    0    0  0.11339389186E+02 -0.51118436084E+01 -0.31402101094E+01  0.12828624711E+02  0.51100000000E-03 0. -1.
        -12    1    3    3    0    0  0.42750947637E+01 -0.49500465631E+01 -0.51192375111E+01  0.83057804516E+01  0.00000000000E+00 0.  1.
</event>
<event>
 7    1  0.2097247E-008  0.4614232E+02  0.7816164E-02  0.1320468E+00
        -11   -1    0    0    0    0  0.00000000000E+00  0.00000000000E+00  0.45593999997E+02  0.45594000000E+02  0.51100000000E-03 0.  1.
         11   -1    0    0    0    0 -0.00000000000E+00 -0.00000000000E+00 -0.45593999997E+02  0.45594000000E+02  0.51100000000E-03 0. -1.
    9900012    2    1    2    0    0  0.20152378301E+02 -0.60374273616E+00  0.40281890673E+02  0.46142316825E+02  0.99999914631E+01 0.  0.
         12    1    1    2    0    0 -0.20152378301E+02  0.60374273616E+00 -0.40281890673E+02  0.45045683175E+02  0.00000000000E+00 0. -1.
         11    1    3    3    0    0  0.33274165474E+01 -0.12949075559E+01  0.21749928383E+01  0.41807990343E+01  0.51100000000E-03 0. -1.
        -11    1    3    3    0    0  0.13027272356E+02 -0.33162806264E+00  0.23918636025E+02  0.27238225929E+02  0.51100000000E-03 0.  1.
         12    1    3    3    0    0  0.37976893977E+01  0.10227928823E+01  0.14188261810E+02  0.14723291861E+02  0.00000000000E+00 0. -1.
</event>
<event>
 7    1  0.2097247E-008  0.4614232E+02  0.7816164E-02  0.1320468E+00
        -11   -1    0    0    0    0  0.00000000000E+00  0.00000000000E+00  0.45593999997E+02  0.45594000000E+02  0.51100000000E-03 0. -1.
         11   -1    0    0    0    0 -0.00000000000E+00 -0.00000000000E+00 -0.45593999997E+02  0.45594000000E+02  0.51100000000E-03 0.  1.
    9900012    2    1    2    0    0  0.72967402145E+01  0.44426484591E+02 -0.14692359757E+01  0.46142316464E+02  0.99999881735E+01 0.  0.
         12    1    1    2    0    0 -0.72967402145E+01 -0.44426484591E+02  0.14692359757E+01  0.45045683536E+02  0.00000000000E+00 0. -1.
         11    1    3    3    0    0  0.12449211291E+01  0.84285244000E+01  0.14319354044E+01  0.86394612935E+01  0.51100000000E-03 0. -1.
        -11    1    3    3    0    0  0.71623660272E+01  0.34943337735E+02 -0.19999404905E+01  0.35725846406E+02  0.51100000000E-03 0.  1.
        -12    1    3    3    0    0 -0.11105469418E+01  0.10546224556E+01 -0.90123088960E+00  0.17770087648E+01  0.00000000000E+00 0.  1.
</event>
<event>
 7    1  0.2097247E-008  0.4614232E+02  0.7816164E-02  0.1320468E+00
        -11   -1    0    0    0    0  0.00000000000E+00  0.00000000000E+00  0.45593999997E+02  0.45594000000E+02  0.51100000000E-03 0. -1.
         11   -1    0    0    0    0 -0.00000000000E+00 -0.00000000000E+00 -0.45593999997E+02  0.45594000000E+02  0.51100000000E-03 0.  1.
    9900012    2    1    2    0    0 -0.44512287544E+02  0.57468439845E+00 -0.68876416768E+01  0.46142316384E+02  0.99999874393E+01 0.  0.
         12    1    1    2    0    0  0.44512287544E+02 -0.57468439845E+00  0.68876416768E+01  0.45045683616E+02  0.00000000000E+00 0. -1.
         11    1    3    3    0    0 -0.11310396066E+02  0.33009727470E+01 -0.56252849700E+00  0.11795673733E+02  0.51100000000E-03 0. -1.
        -11    1    3    3    0    0  0.20782619545E+00 -0.12063343642E+00  0.15876711834E-01  0.24082459300E+00  0.51100000000E-03 0.  1.
        -12    1    3    3    0    0 -0.33409717674E+02 -0.26056549122E+01 -0.63409898916E+01  0.34105818057E+02  0.00000000000E+00 0.  1.
</event>
<event>
 7    1  0.2097247E-008  0.4614232E+02  0.7816164E-02  0.1320468E+00
        -11   -1    0    0    0    0  0.00000000000E+00  0.00000000000E+00  0.45593999997E+02  0.45594000000E+02  0.51100000000E-03 0.  1.
         11   -1    0    0    0    0 -0.00000000000E+00 -0.00000000000E+00 -0.45593999997E+02  0.45594000000E+02  0.51100000000E-03 0. -1.
    9900012    2    1    2    0    0  0.10045417102E+02  0.10594857758E+02  0.42613987896E+02  0.46142318964E+02  0.10000010965E+02 0.  0.
         12    1    1    2    0    0 -0.10045417102E+02 -0.10594857758E+02 -0.42613987896E+02  0.45045681036E+02  0.00000000000E+00 0. -1.
         11    1    3    3    0    0 -0.42924402467E+00  0.30960281748E+01  0.11818113233E+02  0.12224460787E+02  0.51100000000E-03 0. -1.
        -11    1    3    3    0    0  0.59682306488E+01  0.75674618167E+00  0.15012238461E+02  0.16172808838E+02  0.51100000000E-03 0.  1.
         12    1    3    3    0    0  0.45064304783E+01  0.67420834013E+01  0.15783636202E+02  0.17745049338E+02  0.00000000000E+00 0. -1.
</event>
<event>
 7    1  0.2097247E-008  0.4614232E+02  0.7816164E-02  0.1320468E+00
        -11   -1    0    0    0    0  0.00000000000E+00  0.00000000000E+00  0.45593999997E+02  0.45594000000E+02  0.51100000000E-03 0.  1.
         11   -1    0    0    0    0 -0.00000000000E+00 -0.00000000000E+00 -0.45593999997E+02  0.45594000000E+02  0.51100000000E-03 0. -1.
    9900012    2    1    2    0    0  0.44306289425E+02 -0.73557259073E+01 -0.34582503414E+01  0.46142317835E+02  0.10000000675E+02 0.  0.
         12    1    1    2    0    0 -0.44306289425E+02  0.73557259073E+01  0.34582503414E+01  0.45045682165E+02  0.00000000000E+00 0. -1.
         11    1    3    3    0    0  0.79111655522E+01 -0.40846812759E+01  0.40093978967E-01  0.89035256673E+01  0.51100000000E-03 0. -1.
        -11    1    3    3    0    0  0.31227739637E+02 -0.67622899507E+00 -0.36969813229E+01  0.31453086965E+02  0.51100000000E-03 0.  1.
        -12    1    3    3    0    0  0.51673842365E+01 -0.25948156363E+01  0.19863700252E+00  0.57857052027E+01  0.00000000000E+00 0.  1.
</event>
<event>
 7    1  0.2097247E-008  0.4614232E+02  0.7816164E-02  0.1320468E+00
        -11   -1    0    0    0    0  0.00000000000E+00  0.00000000000E+00  0.45593999997E+02  0.45594000000E+02  0.51100000000E-03 0. -1.
         11   -1    0    0    0    0 -0.00000000000E+00 -0.00000000000E+00 -0.45593999997E+02  0.45594000000E+02  0.51100000000E-03 0.  1.
    9900012    2    1    2    0    0  0.16174368625E+02 -0.15567356396E+02 -0.39053305465E+02  0.46142318151E+02  0.10000003552E+02 0.  0.
         12    1    1    2    0    0 -0.16174368625E+02  0.15567356396E+02  0.39053305465E+02  0.45045681849E+02  0.00000000000E+00 0. -1.
         11    1    3    3    0    0  0.89581540733E+00  0.17245406492E+00  0.25942102259E-01  0.91263295049E+00  0.51100000000E-03 0. -1.
        -11    1    3    3    0    0  0.13850828184E+02 -0.10678836291E+02 -0.29159618784E+02  0.34002446291E+02  0.51100000000E-03 0.  1.
        -12    1    3    3    0    0  0.14277250329E+01 -0.50609741699E+01 -0.99196287831E+01  0.11227238909E+02  0.00000000000E+00 0.  1.
</event>
<event>
 7    1  0.2097247E-008  0.4614232E+02  0.7816164E-02  0.1320468E+00
        -11   -1    0    0    0    0  0.00000000000E+00  0.00000000000E+00  0.45593999997E+02  0.45594000000E+02  0.51100000000E-03 0. -1.
         11   -1    0    0    0    0 -0.00000000000E+00 -0.00000000000E+00 -0.45593999997E+02  0.45594000000E+02  0.51100000000E-03 0.  1.
    9900012    2    1    2    0    0  0.35799036441E+02 -0.24835950478E+02 -0.11433197145E+02  0.46142318262E+02  0.10000004571E+02 0.  0.
         12    1    1    2    0    0 -0.35799036441E+02  0.24835950478E+02  0.11433197145E+02  0.45045681738E+02  0.00000000000E+00 0. -1.
         11    1    3    3    0    0  0.13310650204E+02 -0.63859428031E+01 -0.75178852600E+01  0.16567204755E+02  0.51100000000E-03 0.  1.
        -11    1    3    3    0    0  0.12073271372E+01 -0.10335232591E+01 -0.10981703978E+01  0.19317835353E+01  0.51100000000E-03 0. -1.
         12    1    3    3    0    0  0.21281059100E+02 -0.17416484416E+02 -0.28171414874E+01  0.27643329972E+02  0.00000000000E+00 0. -1.
</event>
<event>
 7    1  0.2097247E-008  0.4614232E+02  0.7816164E-02  0.1320468E+00
        -11   -1    0    0    0    0  0.00000000000E+00  0.00000000000E+00  0.45593999997E+02  0.45594000000E+02  0.51100000000E-03 0.  1.
         11   -1    0    0    0    0 -0.00000000000E+00 -0.00000000000E+00 -0.45593999997E+02  0.45594000000E+02  0.51100000000E-03 0. -1.
    9900012    2    1    2    0    0  0.23252993655E+02  0.18963941567E+02  0.33597328061E+02  0.46142320445E+02  0.10000024476E+02 0.  0.
         12    1    1    2    0    0 -0.23252993655E+02 -0.18963941567E+02 -0.33597328061E+02  0.45045679555E+02  0.00000000000E+00 0. -1.
         11    1    3    3    0    0  0.94002440342E+01  0.22441418257E+01  0.12222373383E+02  0.15581629305E+02  0.51100000000E-03 0. -1.
        -11    1    3    3    0    0  0.10348446721E+02  0.10831475148E+02  0.14248781816E+02  0.20674597624E+02  0.51100000000E-03 0.  1.
         12    1    3    3    0    0  0.35043028995E+01  0.58883245940E+01  0.71261728626E+01  0.98860935158E+01  0.00000000000E+00 0. -1.
</event>
<event>
 7    1  0.2097247E-008  0.4614232E+02  0.7816164E-02  0.1320468E+00
        -11   -1    0    0    0    0  0.00000000000E+00  0.00000000000E+00  0.45593999997E+02  0.45594000000E+02  0.51100000000E-03 0. -1.
         11   -1    0    0    0    0 -0.00000000000E+00 -0.00000000000E+00 -0.45593999997E+02  0.45594000000E+02  0.51100000000E-03 0.  1.
    9900012    2    1    2    0    0  0.27583150973E+02  0.85896886200E+01 -0.34561547296E+02  0.46142317413E+02  0.99999968290E+01 0.  0.
         12    1    1    2    0    0 -0.27583150973E+02 -0.85896886200E+01  0.34561547296E+02  0.45045682587E+02  0.00000000000E+00 0. -1.
         11    1    3    3    0    0  0.22962757364E+00  0.74954309127E+00  0.41341440530E+00  0.88625921710E+00  0.51100000000E-03 0. -1.
        -11    1    3    3    0    0  0.17054183780E+02  0.33182688124E+01 -0.19378567834E+02  0.26026620677E+02  0.51100000000E-03 0.  1.
        -12    1    3    3    0    0  0.10299339620E+02  0.45218767163E+01 -0.15596393868E+02  0.19229437520E+02  0.00000000000E+00 0.  1.
</event>
<event>
 7    1  0.2097247E-008  0.4614232E+02  0.7816164E-02  0.1320468E+00
        -11   -1    0    0    0    0  0.00000000000E+00  0.00000000000E+00  0.45593999997E+02  0.45594000000E+02  0.51100000000E-03 0. -1.
         11   -1    0    0    0    0 -0.00000000000E+00 -0.00000000000E+00 -0.45593999997E+02  0.45594000000E+02  0.51100000000E-03 0.  1.
    9900012    2    1    2    0    0 -0.32146432230E+02  0.21748787239E+02 -0.22862864859E+02  0.46142318286E+02  0.10000004785E+02 0.  0.
         12    1    1    2    0    0  0.32146432230E+02 -0.21748787239E+02  0.22862864859E+02  0.45045681714E+02  0.00000000000E+00 0. -1.
         11    1    3    3    0    0  0.58586157019E+00 -0.79613665568E-01 -0.78068966075E+00  0.97931033013E+00  0.51100000000E-03 0. -1.
        -11    1    3    3    0    0 -0.10526626400E+02  0.64424358424E+01 -0.59932524609E+01  0.13719836670E+02  0.51100000000E-03 0.  1.
         12    1    3    3    0    0 -0.22205667401E+02  0.15385965062E+02 -0.16088922738E+02  0.31443171285E+02  0.00000000000E+00 0. -1.
</event>
<event>
 7    1  0.2097247E-008  0.4614232E+02  0.7816164E-02  0.1320468E+00
        -11   -1    0    0    0    0  0.00000000000E+00  0.00000000000E+00  0.45593999997E+02  0.45594000000E+02  0.51100000000E-03 0.  1.
         11   -1    0    0    0    0 -0.00000000000E+00 -0.00000000000E+00 -0.45593999997E+02  0.45594000000E+02  0.51100000000E-03 0. -1.
    9900012    2    1    2    0    0  0.61377288797E+01  0.42119942771E+02  0.14742869083E+02  0.46142317814E+02  0.10000000482E+02 0.  0.
         12    1    1    2    0    0 -0.61377288797E+01 -0.42119942771E+02 -0.14742869083E+02  0.45045682186E+02  0.00000000000E+00 0. -1.
         11    1    3    3    0    0  0.13865000269E+01  0.36485539142E+00  0.37518090471E+00  0.14819793365E+01  0.51100000000E-03 0. -1.
        -11    1    3    3    0    0 -0.10032375792E+00  0.28634019479E+00  0.64268737937E+00  0.71070591124E+00  0.51100000000E-03 0.  1.
        -12    1    3    3    0    0  0.48515526107E+01  0.41468747184E+02  0.13725000799E+02  0.43949632566E+02  0.00000000000E+00 0.  1.
</event>
<event>
 7    1  0.2097247E-008  0.4614232E+02  0.7816164E-02  0.1320468E+00
        -11   -1    0    0    0    0  0.00000000000E+00  0.00000000000E+00  0.45593999997E+02  0.45594000000E+02  0.51100000000E-03 0.  1.
         11   -1    0    0    0    0 -0.00000000000E+00 -0.00000000000E+00 -0.45593999997E+02  0.45594000000E+02  0.51100000000E-03 0. -1.
    9900012    2    1    2    0    0  0.32751890855E+02  0.30743345005E+02  0.33576458720E+01  0.46142318715E+02  0.10000008694E+02 0.  0.
         12    1    1    2    0    0 -0.32751890855E+02 -0.30743345005E+02 -0.33576458720E+01  0.45045681285E+02  0.00000000000E+00 0. -1.
         11    1    3    3    0    0  0.15079420159E+02  0.10420742916E+02 -0.94751856522E+00  0.18354252558E+02  0.51100000000E-03 0. -1.
        -11    1    3    3    0    0  0.16715066734E+02  0.16488452989E+02  0.32944015298E+01  0.23708977616E+02  0.51100000000E-03 0.  1.
         12    1    3    3    0    0  0.95740396148E+00  0.38341491007E+01  0.10107629074E+01  0.40790885411E+01  0.00000000000E+00 0. -1.
</event>
<event>
 7    1  0.2097247E-008  0.4614232E+02  0.7816164E-02  0.1320468E+00
        -11   -1    0    0    0    0  0.00000000000E+00  0.00000000000E+00  0.45593999997E+02  0.45594000000E+02  0.51100000000E-03 0. -1.
         11   -1    0    0    0    0 -0.00000000000E+00 -0.00000000000E+00 -0.45593999997E+02  0.45594000000E+02  0.51100000000E-03 0.  1.
    9900012    2    1    2    0    0  0.18302153898E+02  0.41078757292E+02 -0.25846543233E+01  0.46142316789E+02  0.99999911316E+01 0.  0.
         12    1    1    2    0    0 -0.18302153898E+02 -0.41078757292E+02  0.25846543233E+01  0.45045683211E+02  0.00000000000E+00 0. -1.
         11    1    3    3    0    0  0.71752356265E+01  0.15203078044E+02  0.25099676329E+00  0.16813107623E+02  0.51100000000E-03 0.  1.
        -11    1    3    3    0    0  0.42408968636E+01  0.18963758094E+02 -0.16894090795E+01  0.19505471811E+02  0.51100000000E-03 0. -1.
         12    1    3    3    0    0  0.68860214083E+01  0.69119211548E+01 -0.11462420070E+01  0.98237373553E+01  0.00000000000E+00 0. -1.
</event>
<event>
 7    1  0.2097247E-008  0.4614232E+02  0.7816164E-02  0.1320468E+00
        -11   -1    0    0    0    0  0.00000000000E+00  0.00000000000E+00  0.45593999997E+02  0.45594000000E+02  0.51100000000E-03 0.  1.
         11   -1    0    0    0    0 -0.00000000000E+00 -0.00000000000E+00 -0.45593999997E+02  0.45594000000E+02  0.51100000000E-03 0. -1.
    9900012    2    1    2    0    0 -0.14101224180E+02  0.21468803413E+00  0.42781104300E+02  0.46142317638E+02  0.99999988798E+01 0.  0.
         12    1    1    2    0    0  0.14101224180E+02 -0.21468803413E+00 -0.42781104300E+02  0.45045682362E+02  0.00000000000E+00 0. -1.
         11    1    3    3    0    0 -0.66506815083E+01  0.31861185707E+01  0.22078492769E+02  0.23277516175E+02  0.51100000000E-03 0. -1.
        -11    1    3    3    0    0 -0.35255951580E+01 -0.84415168512E+00  0.15898558712E+02  0.16306642287E+02  0.51100000000E-03 0.  1.
        -12    1    3    3    0    0 -0.39249475141E+01 -0.21272788515E+01  0.48040528189E+01  0.65581591767E+01  0.00000000000E+00 0.  1.
</event>
<event>
 7    1  0.2097247E-008  0.4614232E+02  0.7816164E-02  0.1320468E+00
        -11   -1    0    0    0    0  0.00000000000E+00  0.00000000000E+00  0.45593999997E+02  0.45594000000E+02  0.51100000000E-03 0.  1.
         11   -1    0    0    0    0 -0.00000000000E+00 -0.00000000000E+00 -0.45593999997E+02  0.45594000000E+02  0.51100000000E-03 0. -1.
    9900012    2    1    2    0    0  0.65586118299E+01  0.11562972082E+02  0.43039466693E+02  0.46142318679E+02  0.10000008367E+02 0.  0.
         12    1    1    2    0    0 -0.65586118299E+01 -0.11562972082E+02 -0.43039466693E+02  0.45045681321E+02  0.00000000000E+00 0. -1.
         11    1    3    3    0    0  0.33614063651E+01  0.25784299899E+01  0.99158425546E+01  0.10782916479E+02  0.51100000000E-03 0. -1.
        -11    1    3    3    0    0  0.42641364953E+01  0.13343738594E+01  0.15179234412E+02  0.15823165652E+02  0.51100000000E-03 0.  1.
        -12    1    3    3    0    0 -0.10669310305E+01  0.76501682330E+01  0.17944389726E+02  0.19536236548E+02  0.00000000000E+00 0.  1.
</event>
<event>
 7    1  0.2097247E-008  0.4614232E+02  0.7816164E-02  0.1320468E+00
        -11   -1    0    0    0    0  0.00000000000E+00  0.00000000000E+00  0.45593999997E+02  0.45594000000E+02  0.51100000000E-03 0.  1.
         11   -1    0    0    0    0 -0.00000000000E+00 -0.00000000000E+00 -0.45593999997E+02  0.45594000000E+02  0.51100000000E-03 0. -1.
    9900012    2    1    2    0    0  0.54645189667E+01  0.33300841253E+02  0.29838003717E+02  0.46142318059E+02  0.10000002717E+02 0.  0.
         12    1    1    2    0    0 -0.54645189667E+01 -0.33300841253E+02 -0.29838003717E+02  0.45045681941E+02  0.00000000000E+00 0. -1.
         11    1    3    3    0    0 -0.63925897098E+00  0.22238632923E+01  0.35449692916E+00  0.23409161259E+01  0.51100000000E-03 0. -1.
        -11    1    3    3    0    0 -0.86699143264E+00  0.10890333093E+02  0.11730176566E+02  0.16029599856E+02  0.51100000000E-03 0.  1.
         12    1    3    3    0    0  0.69707693703E+01  0.20186644868E+02  0.17753330222E+02  0.27771802077E+02  0.00000000000E+00 0. -1.
</event>
<event>
 7    1  0.2097247E-008  0.4614232E+02  0.7816164E-02  0.1320468E+00
        -11   -1    0    0    0    0  0.00000000000E+00  0.00000000000E+00  0.45593999997E+02  0.45594000000E+02  0.51100000000E-03 0.  1.
         11   -1    0    0    0    0 -0.00000000000E+00 -0.00000000000E+00 -0.45593999997E+02  0.45594000000E+02  0.51100000000E-03 0. -1.
    9900012    2    1    2    0    0 -0.21235838787E+02  0.11642728961E+02  0.37981567928E+02  0.46142317755E+02  0.99999999488E+01 0.  0.
         12    1    1    2    0    0  0.21235838787E+02 -0.11642728961E+02 -0.37981567928E+02  0.45045682245E+02  0.00000000000E+00 0. -1.
         11    1    3    3    0    0 -0.88350581890E+01  0.66841890923E+01  0.98515732823E+01  0.14825320685E+02  0.51100000000E-03 0. -1.
        -11    1    3    3    0    0 -0.38842295667E+01  0.74582762800E+00  0.55110921289E+01  0.67834825047E+01  0.51100000000E-03 0.  1.
        -12    1    3    3    0    0 -0.85165510311E+01  0.42127122405E+01  0.22618902516E+02  0.24533514565E+02  0.00000000000E+00 0.  1.
</event>
<event>
 7    1  0.2097247E-008  0.4614231E+02  0.7816164E-02  0.1320468E+00
        -11   -1    0    0    0    0  0.00000000000E+00  0.00000000000E+00  0.45593999997E+02  0.45594000000E+02  0.51100000000E-03 0.  1.
         11   -1    0    0    0    0 -0.00000000000E+00 -0.00000000000E+00 -0.45593999997E+02  0.45594000000E+02  0.51100000000E-03 0. -1.
    9900012    2    1    2    0    0 -0.15213283663E+02  0.36101105051E+02  0.22234659470E+02  0.46142313553E+02  0.99999616263E+01 0.  0.
         12    1    1    2    0    0  0.15213283663E+02 -0.36101105051E+02 -0.22234659470E+02  0.45045686447E+02  0.00000000000E+00 0. -1.
         11    1    3    3    0    0 -0.70943836105E+00  0.85297020899E+01  0.62173651913E+01  0.10578976827E+02  0.51100000000E-03 0. -1.
        -11    1    3    3    0    0 -0.75873308362E+01  0.14147499198E+02  0.11676237564E+02  0.19850789574E+02  0.51100000000E-03 0.  1.
        -12    1    3    3    0    0 -0.69165144654E+01  0.13423903764E+02  0.43410567144E+01  0.15712547152E+02  0.00000000000E+00 0.  1.
</event>
<event>
 7    1  0.2097247E-008  0.4614232E+02  0.7816164E-02  0.1320468E+00
        -11   -1    0    0    0    0  0.00000000000E+00  0.00000000000E+00  0.45593999997E+02  0.45594000000E+02  0.51100000000E-03 0. -1.
         11   -1    0    0    0    0 -0.00000000000E+00 -0.00000000000E+00 -0.45593999997E+02  0.45594000000E+02  0.51100000000E-03 0.  1.
    9900012    2    1    2    0    0  0.11665241614E+02  0.73423983699E+01 -0.42885020296E+02  0.46142316061E+02  0.99999844942E+01 0.  0.
         12    1    1    2    0    0 -0.11665241614E+02 -0.73423983699E+01  0.42885020296E+02  0.45045683939E+02  0.00000000000E+00 0. -1.
         11    1    3    3    0    0 -0.86738806446E+00 -0.26383051293E+00 -0.10881161233E+01  0.14163211334E+01  0.51100000000E-03 0. -1.
        -11    1    3    3    0    0  0.20797982324E+01 -0.44480286537E+00 -0.11283884567E+02  0.11482572075E+02  0.51100000000E-03 0.  1.
         12    1    3    3    0    0  0.10452831446E+02  0.80510317482E+01 -0.30513019606E+02  0.33243422852E+02  0.00000000000E+00 0. -1.
</event>
<event>
 7    1  0.2097247E-008  0.4614232E+02  0.7816164E-02  0.1320468E+00
        -11   -1    0    0    0    0  0.00000000000E+00  0.00000000000E+00  0.45593999997E+02  0.45594000000E+02  0.51100000000E-03 0.  1.
         11   -1    0    0    0    0 -0.00000000000E+00 -0.00000000000E+00 -0.45593999997E+02  0.45594000000E+02  0.51100000000E-03 0. -1.
    9900012    2    1    2    0    0  0.27749490198E+02 -0.11066165898E+02  0.33713783014E+02  0.46142318752E+02  0.10000009040E+02 0.  0.
         12    1    1    2    0    0 -0.27749490198E+02  0.11066165898E+02 -0.33713783014E+02  0.45045681248E+02  0.00000000000E+00 0. -1.
         11    1    3    3    0    0  0.12315093736E+02 -0.18719039967E+01  0.10931966696E+02  0.16573275307E+02  0.51100000000E-03 0. -1.
        -11    1    3    3    0    0  0.11367122118E+02 -0.36313990495E+01  0.15175898860E+02  0.19305606201E+02  0.51100000000E-03 0.  1.
         12    1    3    3    0    0  0.40672743442E+01 -0.55628628522E+01  0.76059174586E+01  0.10263437245E+02  0.00000000000E+00 0. -1.
</event>
<event>
 7    1  0.2097247E-008  0.4614232E+02  0.7816164E-02  0.1320468E+00
        -11   -1    0    0    0    0  0.00000000000E+00  0.00000000000E+00  0.45593999997E+02  0.45594000000E+02  0.51100000000E-03 0.  1.
         11   -1    0    0    0    0 -0.00000000000E+00 -0.00000000000E+00 -0.45593999997E+02  0.45594000000E+02  0.51100000000E-03 0. -1.
    9900012    2    1    2    0    0  0.81490009378E+01  0.30627254759E+01  0.44196459788E+02  0.46142316950E+02  0.99999926053E+01 0.  0.
         12    1    1    2    0    0 -0.81490009378E+01 -0.30627254759E+01 -0.44196459788E+02  0.45045683050E+02  0.00000000000E+00 0. -1.
         11    1    3    3    0    0 -0.48583372051E+00  0.14011378339E+01  0.52259114335E+01  0.54322529585E+01  0.51100000000E-03 0.  1.
        -11    1    3    3    0    0  0.18957969698E-01  0.17754477345E+01  0.17061296847E+01  0.24624079323E+01  0.51100000000E-03 0. -1.
         12    1    3    3    0    0  0.86158766887E+01 -0.11386009249E+00  0.37264418670E+02  0.38247656059E+02  0.00000000000E+00 0. -1.
</event>
<event>
 7    1  0.2097247E-008  0.4614232E+02  0.7816164E-02  0.1320468E+00
        -11   -1    0    0    0    0  0.00000000000E+00  0.00000000000E+00  0.45593999997E+02  0.45594000000E+02  0.51100000000E-03 0. -1.
         11   -1    0    0    0    0 -0.00000000000E+00 -0.00000000000E+00 -0.45593999997E+02  0.45594000000E+02  0.51100000000E-03 0.  1.
    9900012    2    1    2    0    0  0.93751078375E+01  0.39409016788E+02 -0.19701526778E+02  0.46142318647E+02  0.10000008077E+02 0.  0.
         12    1    1    2    0    0 -0.93751078375E+01 -0.39409016788E+02  0.19701526778E+02  0.45045681353E+02  0.00000000000E+00 0. -1.
         11    1    3    3    0    0  0.88252076925E+00  0.41875092073E+00 -0.53170557981E+00  0.11121629047E+01  0.51100000000E-03 0. -1.
        -11    1    3    3    0    0  0.20983238836E+01  0.17118139281E+02 -0.41523057877E+01  0.17739089581E+02  0.51100000000E-03 0.  1.
         12    1    3    3    0    0  0.63942631846E+01  0.21872126587E+02 -0.15017515410E+02  0.27291066161E+02  0.00000000000E+00 0. -1.
</event>
<event>
 7    1  0.2097247E-008  0.4614232E+02  0.7816164E-02  0.1320468E+00
        -11   -1    0    0    0    0  0.00000000000E+00  0.00000000000E+00  0.45593999997E+02  0.45594000000E+02  0.51100000000E-03 0.  1.
         11   -1    0    0    0    0 -0.00000000000E+00 -0.00000000000E+00 -0.45593999997E+02  0.45594000000E+02  0.51100000000E-03 0. -1.
    9900012    2    1    2    0    0 -0.29925540386E+02  0.12570591882E+02  0.31233887986E+02  0.46142317561E+02  0.99999981784E+01 0.  0.
         12    1    1    2    0    0  0.29925540386E+02 -0.12570591882E+02 -0.31233887986E+02  0.45045682439E+02  0.00000000000E+00 0. -1.
         11    1    3    3    0    0 -0.13006537712E+02  0.67493737887E+01  0.87525846131E+01  0.17068444788E+02  0.51100000000E-03 0.  1.
        -11    1    3    3    0    0 -0.59116358051E+01  0.31792197010E+00  0.94398114324E+01  0.11142645665E+02  0.51100000000E-03 0. -1.
         12    1    3    3    0    0 -0.11007366868E+02  0.55032961228E+01  0.13041491941E+02  0.17931227109E+02  0.00000000000E+00 0. -1.
</event>
<event>
 7    1  0.2097247E-008  0.4614232E+02  0.7816164E-02  0.1320468E+00
        -11   -1    0    0    0    0  0.00000000000E+00  0.00000000000E+00  0.45593999997E+02  0.45594000000E+02  0.51100000000E-03 0. -1.
         11   -1    0    0    0    0 -0.00000000000E+00 -0.00000000000E+00 -0.45593999997E+02  0.45594000000E+02  0.51100000000E-03 0.  1.
    9900012    2    1    2    0    0  0.30790744470E+02  0.19692718774E+02 -0.26329458088E+02  0.46142317844E+02  0.10000000756E+02 0.  0.
         12    1    1    2    0    0 -0.30790744470E+02 -0.19692718774E+02  0.26329458088E+02  0.45045682156E+02  0.00000000000E+00 0. -1.
         11    1    3    3    0    0  0.27034923427E+01  0.61596054707E+00 -0.13688554254E+00  0.27761513207E+01  0.51100000000E-03 0. -1.
        -11    1    3    3    0    0  0.18657067944E+02  0.15176545060E+02 -0.15651689352E+02  0.28694757083E+02  0.51100000000E-03 0.  1.
         12    1    3    3    0    0  0.94301841830E+01  0.39002131674E+01 -0.10540883193E+02  0.14671409441E+02  0.00000000000E+00 0. -1.
</event>
<event>
 7    1  0.2097247E-008  0.4614232E+02  0.7816164E-02  0.1320468E+00
        -11   -1    0    0    0    0  0.00000000000E+00  0.00000000000E+00  0.45593999997E+02  0.45594000000E+02  0.51100000000E-03 0.  1.
         11   -1    0    0    0    0 -0.00000000000E+00 -0.00000000000E+00 -0.45593999997E+02  0.45594000000E+02  0.51100000000E-03 0. -1.
    9900012    2    1    2    0    0  0.98597685529E+01 -0.75129782040E+01  0.43306509092E+02  0.46142316442E+02  0.99999879757E+01 0.  0.
         12    1    1    2    0    0 -0.98597685529E+01  0.75129782040E+01 -0.43306509092E+02  0.45045683558E+02  0.00000000000E+00 0. -1.
         11    1    3    3    0    0  0.60092776337E+00 -0.34846799944E+01  0.74506444969E+01  0.82471942211E+01  0.51100000000E-03 0. -1.
        -11    1    3    3    0    0 -0.36877032374E+00 -0.24795354524E+01  0.68858217183E+01  0.73279348120E+01  0.51100000000E-03 0.  1.
        -12    1    3    3    0    0  0.96276111133E+01 -0.15487627572E+01  0.28970042877E+02  0.30567187409E+02  0.00000000000E+00 0.  1.
</event>
<event>
 7    1  0.2097247E-008  0.4614232E+02  0.7816164E-02  0.1320468E+00
        -11   -1    0    0    0    0  0.00000000000E+00  0.00000000000E+00  0.45593999997E+02  0.45594000000E+02  0.51100000000E-03 0.  1.
         11   -1    0    0    0    0 -0.00000000000E+00 -0.00000000000E+00 -0.45593999997E+02  0.45594000000E+02  0.51100000000E-03 0. -1.
    9900012    2    1    2    0    0 -0.23211169351E+02 -0.31138847832E+02  0.22819448174E+02  0.46142318277E+02  0.10000004705E+02 0.  0.
         12    1    1    2    0    0  0.23211169351E+02  0.31138847832E+02 -0.22819448174E+02  0.45045681723E+02  0.00000000000E+00 0. -1.
         11    1    3    3    0    0 -0.17964089468E+01 -0.13203865883E+01  0.25121910547E+01  0.33588108019E+01  0.51100000000E-03 0. -1.
        -11    1    3    3    0    0 -0.12030238526E+02 -0.12712213368E+02  0.13552902081E+02  0.22136127999E+02  0.51100000000E-03 0.  1.
         12    1    3    3    0    0 -0.93845218784E+01 -0.17106247876E+02  0.67543550379E+01  0.20647379476E+02  0.00000000000E+00 0. -1.
</event>
<event>
 7    1  0.2097247E-008  0.4614232E+02  0.7816164E-02  0.1320468E+00
        -11   -1    0    0    0    0  0.00000000000E+00  0.00000000000E+00  0.45593999997E+02  0.45594000000E+02  0.51100000000E-03 0. -1.
         11   -1    0    0    0    0 -0.00000000000E+00 -0.00000000000E+00 -0.45593999997E+02  0.45594000000E+02  0.51100000000E-03 0.  1.
    9900012    2    1    2    0    0 -0.99215922702E+01 -0.35041187297E+02 -0.26510199892E+02  0.46142317647E+02  0.99999989559E+01 0.  0.
         12    1    1    2    0    0  0.99215922702E+01  0.35041187297E+02  0.26510199892E+02  0.45045682353E+02  0.00000000000E+00 0. -1.
         11    1    3    3    0    0  0.13016126203E+01 -0.66511509069E+01 -0.66697044115E+01  0.95087833605E+01  0.51100000000E-03 0. -1.
        -11    1    3    3    0    0 -0.28440331080E+01 -0.86614004162E+01 -0.80969272288E+01  0.12192973891E+02  0.51100000000E-03 0.  1.
        -12    1    3    3    0    0 -0.83791717825E+01 -0.19728635974E+02 -0.11743568251E+02  0.24440560395E+02  0.00000000000E+00 0.  1.
</event>
<event>
 7    1  0.2097247E-008  0.4614232E+02  0.7816164E-02  0.1320468E+00
        -11   -1    0    0    0    0  0.00000000000E+00  0.00000000000E+00  0.45593999997E+02  0.45594000000E+02  0.51100000000E-03 0.  1.
         11   -1    0    0    0    0 -0.00000000000E+00 -0.00000000000E+00 -0.45593999997E+02  0.45594000000E+02  0.51100000000E-03 0. -1.
    9900012    2    1    2    0    0  0.12969266782E+02 -0.13856449145E+02  0.40852301094E+02  0.46142316873E+02  0.99999918984E+01 0.  0.
         12    1    1    2    0    0 -0.12969266782E+02  0.13856449145E+02 -0.40852301094E+02  0.45045683127E+02  0.00000000000E+00 0. -1.
         11    1    3    3    0    0  0.63048505017E+01 -0.76346562431E+01  0.24211938617E+02  0.26158308196E+02  0.51100000000E-03 0.  1.
        -11    1    3    3    0    0  0.46283931286E+01 -0.59169507465E+00  0.46787932858E+01  0.66078160452E+01  0.51100000000E-03 0. -1.
         12    1    3    3    0    0  0.20360231514E+01 -0.56300978277E+01  0.11961569190E+02  0.13376192632E+02  0.00000000000E+00 0. -1.
</event>
<event>
 7    1  0.2097247E-008  0.4614232E+02  0.7816164E-02  0.1320468E+00
        -11   -1    0    0    0    0  0.00000000000E+00  0.00000000000E+00  0.45593999997E+02  0.45594000000E+02  0.51100000000E-03 0.  1.
         11   -1    0    0    0    0 -0.00000000000E+00 -0.00000000000E+00 -0.45593999997E+02  0.45594000000E+02  0.51100000000E-03 0. -1.
    9900012    2    1    2    0    0  0.31811464916E+02  0.98749494384E+01  0.30325394812E+02  0.46142317665E+02  0.99999991234E+01 0.  0.
         12    1    1    2    0    0 -0.31811464916E+02 -0.98749494384E+01 -0.30325394812E+02  0.45045682335E+02  0.00000000000E+00 0. -1.
         11    1    3    3    0    0  0.22394073655E+02  0.33441898057E+01  0.19159213489E+02  0.29660640621E+02  0.51100000000E-03 0.  1.
        -11    1    3    3    0    0  0.14718016304E+00 -0.10347922862E+00 -0.27641137155E+00  0.32980821486E+00  0.51100000000E-03 0. -1.
        -12    1    3    3    0    0  0.92702110986E+01  0.66342388613E+01  0.11442592695E+02  0.16151868829E+02  0.00000000000E+00 0.  1.
</event>
<event>
 7    1  0.2097247E-008  0.4614232E+02  0.7816164E-02  0.1320468E+00
        -11   -1    0    0    0    0  0.00000000000E+00  0.00000000000E+00  0.45593999997E+02  0.45594000000E+02  0.51100000000E-03 0. -1.
         11   -1    0    0    0    0 -0.00000000000E+00 -0.00000000000E+00 -0.45593999997E+02  0.45594000000E+02  0.51100000000E-03 0.  1.
    9900012    2    1    2    0    0 -0.15997936044E+02 -0.29985686503E+02 -0.29564134291E+02  0.46142318863E+02  0.10000010048E+02 0.  0.
         12    1    1    2    0    0  0.15997936044E+02  0.29985686503E+02  0.29564134291E+02  0.45045681137E+02  0.00000000000E+00 0. -1.
         11    1    3    3    0    0 -0.77023772619E+01 -0.20961538244E+02 -0.17827721048E+02  0.28575169974E+02  0.51100000000E-03 0. -1.
        -11    1    3    3    0    0 -0.24766872787E+01 -0.60365437543E+01 -0.61157803075E+01  0.89429642404E+01  0.51100000000E-03 0.  1.
        -12    1    3    3    0    0 -0.58188715033E+01 -0.29876045041E+01 -0.56206329361E+01  0.86241846482E+01  0.00000000000E+00 0.  1.
</event>
<event>
 7    1  0.2097247E-008  0.4614232E+02  0.7816164E-02  0.1320468E+00
        -11   -1    0    0    0    0  0.00000000000E+00  0.00000000000E+00  0.45593999997E+02  0.45594000000E+02  0.51100000000E-03 0.  1.
         11   -1    0    0    0    0 -0.00000000000E+00 -0.00000000000E+00 -0.45593999997E+02  0.45594000000E+02  0.51100000000E-03 0. -1.
    9900012    2    1    2    0    0  0.31010428100E+01 -0.31877712818E+02  0.31675044211E+02  0.46142318000E+02  0.10000002181E+02 0.  0.
         12    1    1    2    0    0 -0.31010428100E+01  0.31877712818E+02 -0.31675044211E+02  0.45045682000E+02  0.00000000000E+00 0. -1.
         11    1    3    3    0    0 -0.57570954998E+00 -0.54445945436E+01  0.46215280021E+01  0.71647451152E+01  0.51100000000E-03 0.  1.
        -11    1    3    3    0    0  0.28328585088E+01 -0.39274491494E+01  0.18660325898E+01  0.51896071180E+01  0.51100000000E-03 0. -1.
         12    1    3    3    0    0  0.84389385115E+00 -0.22505669125E+02  0.25187483619E+02  0.33787965767E+02  0.00000000000E+00 0. -1.
</event>
<event>
 7    1  0.2097247E-008  0.4614232E+02  0.7816164E-02  0.1320468E+00
        -11   -1    0    0    0    0  0.00000000000E+00  0.00000000000E+00  0.45593999997E+02  0.45594000000E+02  0.51100000000E-03 0.  1.
         11   -1    0    0    0    0 -0.00000000000E+00 -0.00000000000E+00 -0.45593999997E+02  0.45594000000E+02  0.51100000000E-03 0. -1.
    9900012    2    1    2    0    0 -0.11675149418E+02 -0.35634169519E+02  0.24960174518E+02  0.46142318040E+02  0.10000002544E+02 0.  0.
         12    1    1    2    0    0  0.11675149418E+02  0.35634169519E+02 -0.24960174518E+02  0.45045681960E+02  0.00000000000E+00 0. -1.
         11    1    3    3    0    0 -0.28104205557E+01 -0.67004369655E+01  0.70908148777E+01  0.10152535404E+02  0.51100000000E-03 0. -1.
        -11    1    3    3    0    0 -0.11432437514E+01 -0.10420802491E+02  0.98584799855E+01  0.14390613563E+02  0.51100000000E-03 0.  1.
        -12    1    3    3    0    0 -0.77214851105E+01 -0.18512930063E+02  0.80108796551E+01  0.21599169074E+02  0.00000000000E+00 0.  1.
</event>
<event>
 7    1  0.2097247E-008  0.4614231E+02  0.7816164E-02  0.1320468E+00
        -11   -1    0    0    0    0  0.00000000000E+00  0.00000000000E+00  0.45593999997E+02  0.45594000000E+02  0.51100000000E-03 0.  1.
         11   -1    0    0    0    0 -0.00000000000E+00 -0.00000000000E+00 -0.45593999997E+02  0.45594000000E+02  0.51100000000E-03 0. -1.
    9900012    2    1    2    0    0 -0.34723853108E+02 -0.30982855579E+01  0.28526630464E+02  0.46142312152E+02  0.99999488550E+01 0.  0.
         12    1    1    2    0    0  0.34723853108E+02  0.30982855579E+01 -0.28526630464E+02  0.45045687848E+02  0.00000000000E+00 0. -1.
         11    1    3    3    0    0 -0.17062066579E+01 -0.13809618209E+01  0.99976407490E+00  0.24119960981E+01  0.51100000000E-03 0. -1.
        -11    1    3    3    0    0 -0.32470750282E+02 -0.22050991841E+01  0.27936079685E+02  0.42890985471E+02  0.51100000000E-03 0.  1.
         12    1    3    3    0    0 -0.54689616847E+00  0.48777544713E+00 -0.40921329636E+00  0.83933058316E+00  0.00000000000E+00 0. -1.
</event>
<event>
 7    1  0.2097247E-008  0.4614232E+02  0.7816164E-02  0.1320468E+00
        -11   -1    0    0    0    0  0.00000000000E+00  0.00000000000E+00  0.45593999997E+02  0.45594000000E+02  0.51100000000E-03 0.  1.
         11   -1    0    0    0    0 -0.00000000000E+00 -0.00000000000E+00 -0.45593999997E+02  0.45594000000E+02  0.51100000000E-03 0. -1.
    9900012    2    1    2    0    0 -0.40257410453E+00 -0.18368330783E+02  0.41128527644E+02  0.46142318433E+02  0.10000006127E+02 0.  0.
         12    1    1    2    0    0  0.40257410453E+00  0.18368330783E+02 -0.41128527644E+02  0.45045681567E+02  0.00000000000E+00 0. -1.
         11    1    3    3    0    0  0.10125035411E+00 -0.65650963089E+01  0.14799549835E+02  0.16190658317E+02  0.51100000000E-03 0. -1.
        -11    1    3    3    0    0  0.25676485465E+00 -0.77068307458E+01  0.23934912507E+02  0.25146395473E+02  0.51100000000E-03 0.  1.
         12    1    3    3    0    0 -0.76058931328E+00 -0.40964037285E+01  0.23940653025E+01  0.48052646424E+01  0.00000000000E+00 0. -1.
</event>
<event>
 7    1  0.2097247E-008  0.4614232E+02  0.7816164E-02  0.1320468E+00
        -11   -1    0    0    0    0  0.00000000000E+00  0.00000000000E+00  0.45593999997E+02  0.45594000000E+02  0.51100000000E-03 0.  1.
         11   -1    0    0    0    0 -0.00000000000E+00 -0.00000000000E+00 -0.45593999997E+02  0.45594000000E+02  0.51100000000E-03 0. -1.
    9900012    2    1    2    0    0 -0.19349281383E+02  0.37114492569E+02  0.16650322885E+02  0.46142317622E+02  0.99999987322E+01 0.  0.
         12    1    1    2    0    0  0.19349281383E+02 -0.37114492569E+02 -0.16650322885E+02  0.45045682378E+02  0.00000000000E+00 0. -1.
         11    1    3    3    0    0 -0.12626908370E+00 -0.50055295535E+00  0.20751303613E+00  0.55638032306E+00  0.51100000000E-03 0. -1.
        -11    1    3    3    0    0 -0.13639134995E+01  0.60806817916E+01  0.31681356874E+01  0.69908536731E+01  0.51100000000E-03 0.  1.
        -12    1    3    3    0    0 -0.17859098800E+02  0.31534363733E+02  0.13274674161E+02  0.38595083626E+02  0.00000000000E+00 0.  1.
</event>
<event>
 7    1  0.2097247E-008  0.4614232E+02  0.7816164E-02  0.1320468E+00
        -11   -1    0    0    0    0  0.00000000000E+00  0.00000000000E+00  0.45593999997E+02  0.45594000000E+02  0.51100000000E-03 0.  1.
         11   -1    0    0    0    0 -0.00000000000E+00 -0.00000000000E+00 -0.45593999997E+02  0.45594000000E+02  0.51100000000E-03 0. -1.
    9900012    2    1    2    0    0  0.16620968564E+02  0.28100408934E+02  0.31035848098E+02  0.46142318238E+02  0.10000004347E+02 0.  0.
         12    1    1    2    0    0 -0.16620968564E+02 -0.28100408934E+02 -0.31035848098E+02  0.45045681762E+02  0.00000000000E+00 0. -1.
         11    1    3    3    0    0  0.50768884054E+01  0.59486223827E+01  0.32032629013E+01  0.84511417932E+01  0.51100000000E-03 0. -1.
        -11    1    3    3    0    0  0.34325964978E+01  0.27894944933E+01  0.48899544770E+01  0.65936070017E+01  0.51100000000E-03 0.  1.
         12    1    3    3    0    0  0.81114836607E+01  0.19362292058E+02  0.22942630720E+02  0.31097569443E+02  0.00000000000E+00 0. -1.
</event>
<event>
 7    1  0.2097247E-008  0.4614232E+02  0.7816164E-02  0.1320468E+00
        -11   -1    0    0    0    0  0.00000000000E+00  0.00000000000E+00  0.45593999997E+02  0.45594000000E+02  0.51100000000E-03 0.  1.
         11   -1    0    0    0    0 -0.00000000000E+00 -0.00000000000E+00 -0.45593999997E+02  0.45594000000E+02  0.51100000000E-03 0. -1.
    9900012    2    1    2    0    0  0.39314762186E+02 -0.20962858242E+02 -0.66348711996E+01  0.46142317996E+02  0.10000002142E+02 0.  0.
         12    1    1    2    0    0 -0.39314762186E+02  0.20962858242E+02  0.66348711996E+01  0.45045682004E+02  0.00000000000E+00 0. -1.
         11    1    3    3    0    0  0.25709385226E+01 -0.35627349274E+01  0.21329557563E+00  0.43986702893E+01  0.51100000000E-03 0. -1.
        -11    1    3    3    0    0  0.22510172661E+02 -0.13476078756E+02 -0.62342051945E+01  0.26966236047E+02  0.51100000000E-03 0.  1.
         12    1    3    3    0    0  0.14233651002E+02 -0.39240445581E+01 -0.61396158070E+00  0.14777411660E+02  0.00000000000E+00 0. -1.
</event>
<event>
 7    1  0.2097247E-008  0.4614232E+02  0.7816164E-02  0.1320468E+00
        -11   -1    0    0    0    0  0.00000000000E+00  0.00000000000E+00  0.45593999997E+02  0.45594000000E+02  0.51100000000E-03 0.  1.
         11   -1    0    0    0    0 -0.00000000000E+00 -0.00000000000E+00 -0.45593999997E+02  0.45594000000E+02  0.51100000000E-03 0. -1.
    9900012    2    1    2    0    0 -0.80600620506E+01  0.12151025845E+02  0.42620433433E+02  0.46142319016E+02  0.10000011439E+02 0.  0.
         12    1    1    2    0    0  0.80600620506E+01 -0.12151025845E+02 -0.42620433433E+02  0.45045680984E+02  0.00000000000E+00 0. -1.
         11    1    3    3    0    0 -0.36225487870E+00 -0.48025934075E+00  0.65588190572E+01  0.65863484054E+01  0.51100000000E-03 0. -1.
        -11    1    3    3    0    0 -0.51619111108E+00 -0.43543427775E+00  0.56045982576E+01  0.56451375682E+01  0.51100000000E-03 0.  1.
         12    1    3    3    0    0 -0.71816160608E+01  0.13066719463E+02  0.30457016118E+02  0.33910833042E+02  0.00000000000E+00 0. -1.
</event>
<event>
 7    1  0.2097247E-008  0.4614232E+02  0.7816164E-02  0.1320468E+00
        -11   -1    0    0    0    0  0.00000000000E+00  0.00000000000E+00  0.45593999997E+02  0.45594000000E+02  0.51100000000E-03 0. -1.
         11   -1    0    0    0    0 -0.00000000000E+00 -0.00000000000E+00 -0.45593999997E+02  0.45594000000E+02  0.51100000000E-03 0.  1.
    9900012    2    1    2    0    0  0.32949730275E+02 -0.16498872853E+02 -0.25907836691E+02  0.46142317270E+02  0.99999955178E+01 0.  0.
         12    1    1    2    0    0 -0.32949730275E+02  0.16498872853E+02  0.25907836691E+02  0.45045682730E+02  0.00000000000E+00 0. -1.
         11    1    3    3    0    0  0.19346724773E+02 -0.87859861076E+01 -0.12557269825E+02  0.24681457352E+02  0.51100000000E-03 0.  1.
        -11    1    3    3    0    0  0.11591604993E+02 -0.34640249809E+01 -0.98145320338E+01  0.15578504892E+02  0.51100000000E-03 0. -1.
         12    1    3    3    0    0  0.20114005101E+01 -0.42488617647E+01 -0.35360348318E+01  0.58823550250E+01  0.00000000000E+00 0. -1.
</event>
<event>
 7    1  0.2097247E-008  0.4614232E+02  0.7816164E-02  0.1320468E+00
        -11   -1    0    0    0    0  0.00000000000E+00  0.00000000000E+00  0.45593999997E+02  0.45594000000E+02  0.51100000000E-03 0.  1.
         11   -1    0    0    0    0 -0.00000000000E+00 -0.00000000000E+00 -0.45593999997E+02  0.45594000000E+02  0.51100000000E-03 0. -1.
    9900012    2    1    2    0    0  0.29792112892E+02  0.18431907949E+02 -0.28316219805E+02  0.46142317351E+02  0.99999962613E+01 0.  0.
         12    1    1    2    0    0 -0.29792112892E+02 -0.18431907949E+02  0.28316219805E+02  0.45045682649E+02  0.00000000000E+00 0. -1.
         11    1    3    3    0    0 -0.20068287498E+00  0.54343936202E+00  0.34469868003E+00  0.67410488623E+00  0.51100000000E-03 0. -1.
        -11    1    3    3    0    0  0.89574132381E+01  0.79785993163E+01 -0.86304142800E+01  0.14777596214E+02  0.51100000000E-03 0.  1.
         12    1    3    3    0    0  0.21035382529E+02  0.99098692711E+01 -0.20030504205E+02  0.30690616251E+02  0.00000000000E+00 0. -1.
</event>
<event>
 7    1  0.2097247E-008  0.4614232E+02  0.7816164E-02  0.1320468E+00
        -11   -1    0    0    0    0  0.00000000000E+00  0.00000000000E+00  0.45593999997E+02  0.45594000000E+02  0.51100000000E-03 0.  1.
         11   -1    0    0    0    0 -0.00000000000E+00 -0.00000000000E+00 -0.45593999997E+02  0.45594000000E+02  0.51100000000E-03 0. -1.
    9900012    2    1    2    0    0  0.33761524394E+00 -0.41625312711E+02  0.17214321431E+02  0.46142317580E+02  0.99999983494E+01 0.  0.
         12    1    1    2    0    0 -0.33761524394E+00  0.41625312711E+02 -0.17214321431E+02  0.45045682420E+02  0.00000000000E+00 0. -1.
         11    1    3    3    0    0  0.15592447683E+01 -0.47869528066E+01  0.54107544341E+01  0.73906985616E+01  0.51100000000E-03 0. -1.
        -11    1    3    3    0    0 -0.60649614701E+00 -0.14508736178E+02  0.56459326220E+01  0.15580366442E+02  0.51100000000E-03 0.  1.
         12    1    3    3    0    0 -0.61513337739E+00 -0.22329623727E+02  0.61576343753E+01  0.23171252576E+02  0.00000000000E+00 0. -1.
</event>
<event>
 7    1  0.2097247E-008  0.4614232E+02  0.7816164E-02  0.1320468E+00
        -11   -1    0    0    0    0  0.00000000000E+00  0.00000000000E+00  0.45593999997E+02  0.45594000000E+02  0.51100000000E-03 0.  1.
         11   -1    0    0    0    0 -0.00000000000E+00 -0.00000000000E+00 -0.45593999997E+02  0.45594000000E+02  0.51100000000E-03 0. -1.
    9900012    2    1    2    0    0 -0.57831837076E+01 -0.23176567481E+02  0.38190509902E+02  0.46142317182E+02  0.99999947182E+01 0.  0.
         12    1    1    2    0    0  0.57831837076E+01  0.23176567481E+02 -0.38190509902E+02  0.45045682818E+02  0.00000000000E+00 0. -1.
         11    1    3    3    0    0  0.96305159205E+00 -0.32991917160E+01  0.34623515581E+01  0.48785256913E+01  0.51100000000E-03 0. -1.
        -11    1    3    3    0    0  0.74599579531E+00 -0.55218187367E+01  0.53839694012E+01  0.77481687296E+01  0.51100000000E-03 0.  1.
        -12    1    3    3    0    0 -0.74922310950E+01 -0.14355557029E+02  0.29344188942E+02  0.33515622761E+02  0.00000000000E+00 0.  1.
</event>
<event>
 7    1  0.2097247E-008  0.4614232E+02  0.7816164E-02  0.1320468E+00
        -11   -1    0    0    0    0  0.00000000000E+00  0.00000000000E+00  0.45593999997E+02  0.45594000000E+02  0.51100000000E-03 0.  1.
         11   -1    0    0    0    0 -0.00000000000E+00 -0.00000000000E+00 -0.45593999997E+02  0.45594000000E+02  0.51100000000E-03 0. -1.
    9900012    2    1    2    0    0  0.97831750094E+00 -0.44668944362E+02 -0.57307757741E+01  0.46142317781E+02  0.10000000184E+02 0.  0.
         12    1    1    2    0    0 -0.97831750094E+00  0.44668944362E+02  0.57307757741E+01  0.45045682219E+02  0.00000000000E+00 0. -1.
         11    1    3    3    0    0 -0.18624714652E+01 -0.25261347777E+02 -0.24176635537E+01  0.25445030729E+02  0.51100000000E-03 0. -1.
        -11    1    3    3    0    0  0.35251890275E+01 -0.19408168284E+02 -0.30318932840E+01  0.19957362826E+02  0.51100000000E-03 0.  1.
        -12    1    3    3    0    0 -0.68440006132E+00  0.57169868331E-03 -0.28121893640E+00  0.73992422651E+00  0.00000000000E+00 0.  1.
</event>
<event>
 7    1  0.2097247E-008  0.4614232E+02  0.7816164E-02  0.1320468E+00
        -11   -1    0    0    0    0  0.00000000000E+00  0.00000000000E+00  0.45593999997E+02  0.45594000000E+02  0.51100000000E-03 0. -1.
         11   -1    0    0    0    0 -0.00000000000E+00 -0.00000000000E+00 -0.45593999997E+02  0.45594000000E+02  0.51100000000E-03 0.  1.
    9900012    2    1    2    0    0  0.38543669802E+02  0.69679592124E+01 -0.22247393077E+02  0.46142318341E+02  0.10000005290E+02 0.  0.
         12    1    1    2    0    0 -0.38543669802E+02 -0.69679592124E+01  0.22247393077E+02  0.45045681659E+02  0.00000000000E+00 0. -1.
         11    1    3    3    0    0  0.11774057173E+02  0.40090950047E+01 -0.45559060341E+01  0.13246038846E+02  0.51100000000E-03 0. -1.
        -11    1    3    3    0    0  0.26589253099E+02  0.36641727476E+01 -0.16520133276E+02  0.31517127820E+02  0.51100000000E-03 0.  1.
         12    1    3    3    0    0  0.18035953032E+00 -0.70530853987E+00 -0.11713537668E+01  0.13791516754E+01  0.00000000000E+00 0. -1.
</event>
<event>
 7    1  0.2097247E-008  0.4614232E+02  0.7816164E-02  0.1320468E+00
        -11   -1    0    0    0    0  0.00000000000E+00  0.00000000000E+00  0.45593999997E+02  0.45594000000E+02  0.51100000000E-03 0.  1.
         11   -1    0    0    0    0 -0.00000000000E+00 -0.00000000000E+00 -0.45593999997E+02  0.45594000000E+02  0.51100000000E-03 0. -1.
    9900012    2    1    2    0    0 -0.36391568696E+02  0.22229410207E+02  0.14512771123E+02  0.46142317899E+02  0.10000001254E+02 0.  0.
         12    1    1    2    0    0  0.36391568696E+02 -0.22229410207E+02 -0.14512771123E+02  0.45045682101E+02  0.00000000000E+00 0. -1.
         11    1    3    3    0    0 -0.36464598015E+01  0.27642034071E+01 -0.32028026986E+00  0.45869455275E+01  0.51100000000E-03 0. -1.
        -11    1    3    3    0    0 -0.19402871122E+02  0.72234269616E+01  0.82975418700E+01  0.22304674537E+02  0.51100000000E-03 0.  1.
        -12    1    3    3    0    0 -0.13342237772E+02  0.12241779838E+02  0.65355095229E+01  0.19250697834E+02  0.00000000000E+00 0.  1.
</event>
<event>
 7    1  0.2097247E-008  0.4614233E+02  0.7816164E-02  0.1320468E+00
        -11   -1    0    0    0    0  0.00000000000E+00  0.00000000000E+00  0.45593999997E+02  0.45594000000E+02  0.51100000000E-03 0.  1.
         11   -1    0    0    0    0 -0.00000000000E+00 -0.00000000000E+00 -0.45593999997E+02  0.45594000000E+02  0.51100000000E-03 0. -1.
    9900012    2    1    2    0    0  0.28964303356E+02  0.58168584765E+01  0.34005081580E+02  0.46142331122E+02  0.10000121830E+02 0.  0.
         12    1    1    2    0    0 -0.28964303356E+02 -0.58168584765E+01 -0.34005081580E+02  0.45045668878E+02  0.00000000000E+00 0. -1.
         11    1    3    3    0    0  0.21394047569E+01  0.78398945150E+00  0.63987634572E+01  0.67923387884E+01  0.51100000000E-03 0. -1.
        -11    1    3    3    0    0  0.28146682166E+01  0.25088920630E+01  0.51124362481E+01  0.63524720547E+01  0.51100000000E-03 0.  1.
         12    1    3    3    0    0  0.24010230383E+02  0.25239769620E+01  0.22493881875E+02  0.32997520278E+02  0.00000000000E+00 0. -1.
</event>
<event>
 7    1  0.2097247E-008  0.4614232E+02  0.7816164E-02  0.1320468E+00
        -11   -1    0    0    0    0  0.00000000000E+00  0.00000000000E+00  0.45593999997E+02  0.45594000000E+02  0.51100000000E-03 0.  1.
         11   -1    0    0    0    0 -0.00000000000E+00 -0.00000000000E+00 -0.45593999997E+02  0.45594000000E+02  0.51100000000E-03 0. -1.
    9900012    2    1    2    0    0  0.10289986673E+02 -0.13763565573E+02  0.41638851543E+02  0.46142317401E+02  0.99999967164E+01 0.  0.
         12    1    1    2    0    0 -0.10289986673E+02  0.13763565573E+02 -0.41638851543E+02  0.45045682599E+02  0.00000000000E+00 0. -1.
         11    1    3    3    0    0  0.53380635841E+01 -0.95649369409E+00  0.92894458209E+01  0.10756561111E+02  0.51100000000E-03 0. -1.
        -11    1    3    3    0    0  0.21353238964E+01 -0.29441309782E+01  0.50530449347E+01  0.62258155074E+01  0.51100000000E-03 0.  1.
        -12    1    3    3    0    0  0.28165991924E+01 -0.98629409004E+01  0.27296360787E+02  0.29159940783E+02  0.00000000000E+00 0.  1.
</event>
<event>
 7    1  0.2097247E-008  0.4614232E+02  0.7816164E-02  0.1320468E+00
        -11   -1    0    0    0    0  0.00000000000E+00  0.00000000000E+00  0.45593999997E+02  0.45594000000E+02  0.51100000000E-03 0. -1.
         11   -1    0    0    0    0 -0.00000000000E+00 -0.00000000000E+00 -0.45593999997E+02  0.45594000000E+02  0.51100000000E-03 0.  1.
    9900012    2    1    2    0    0  0.83518196337E+01  0.39752687924E+02 -0.19470088256E+02  0.46142318464E+02  0.10000006410E+02 0.  0.
         12    1    1    2    0    0 -0.83518196337E+01 -0.39752687924E+02  0.19470088256E+02  0.45045681536E+02  0.00000000000E+00 0. -1.
         11    1    3    3    0    0  0.49349438599E+00 -0.21916922804E+00  0.74891127371E-01  0.54514291851E+00  0.51100000000E-03 0. -1.
        -11    1    3    3    0    0  0.52461388329E+01  0.14538512079E+02 -0.94050789017E+01  0.18092700615E+02  0.51100000000E-03 0.  1.
        -12    1    3    3    0    0  0.26121864148E+01  0.25433345072E+02 -0.10139900481E+02  0.27504474931E+02  0.00000000000E+00 0.  1.
</event>
<event>
 7    1  0.2097247E-008  0.4614232E+02  0.7816164E-02  0.1320468E+00
        -11   -1    0    0    0    0  0.00000000000E+00  0.00000000000E+00  0.45593999997E+02  0.45594000000E+02  0.51100000000E-03 0.  1.
         11   -1    0    0    0    0 -0.00000000000E+00 -0.00000000000E+00 -0.45593999997E+02  0.45594000000E+02  0.51100000000E-03 0. -1.
    9900012    2    1    2    0    0 -0.38778333408E+01  0.29808407474E+02  0.33548991037E+02  0.46142317108E+02  0.99999940469E+01 0.  0.
         12    1    1    2    0    0  0.38778333408E+01 -0.29808407474E+02 -0.33548991037E+02  0.45045682892E+02  0.00000000000E+00 0. -1.
         11    1    3    3    0    0  0.93745831075E+00  0.93638365292E+01  0.14491843068E+02  0.17279287554E+02  0.51100000000E-03 0. -1.
        -11    1    3    3    0    0 -0.46802368721E+01  0.13245556288E+02  0.15189020510E+02  0.20689507555E+02  0.51100000000E-03 0.  1.
         12    1    3    3    0    0 -0.13505477943E+00  0.71990146565E+01  0.38681274601E+01  0.81735219988E+01  0.00000000000E+00 0. -1.
</event>
<event>
 7    1  0.2097247E-008  0.4614232E+02  0.7816164E-02  0.1320468E+00
        -11   -1    0    0    0    0  0.00000000000E+00  0.00000000000E+00  0.45593999997E+02  0.45594000000E+02  0.51100000000E-03 0.  1.
         11   -1    0    0    0    0 -0.00000000000E+00 -0.00000000000E+00 -0.45593999997E+02  0.45594000000E+02  0.51100000000E-03 0. -1.
    9900012    2    1    2    0    0  0.10760203161E+02 -0.30257542981E+02  0.31588174132E+02  0.46142316253E+02  0.99999862433E+01 0.  0.
         12    1    1    2    0    0 -0.10760203161E+02  0.30257542981E+02 -0.31588174132E+02  0.45045683747E+02  0.00000000000E+00 0. -1.
         11    1    3    3    0    0  0.54688268314E+01 -0.14059256902E+02  0.14192938367E+02  0.20712563127E+02  0.51100000000E-03 0. -1.
        -11    1    3    3    0    0  0.18586755218E+01 -0.98572384116E+01  0.14562001149E+02  0.17682525315E+02  0.51100000000E-03 0.  1.
         12    1    3    3    0    0  0.34327008081E+01 -0.63410476669E+01  0.28332346160E+01  0.77472278101E+01  0.00000000000E+00 0. -1.
</event>
<event>
 7    1  0.2097247E-008  0.4614232E+02  0.7816164E-02  0.1320468E+00
        -11   -1    0    0    0    0  0.00000000000E+00  0.00000000000E+00  0.45593999997E+02  0.45594000000E+02  0.51100000000E-03 0.  1.
         11   -1    0    0    0    0 -0.00000000000E+00 -0.00000000000E+00 -0.45593999997E+02  0.45594000000E+02  0.51100000000E-03 0. -1.
    9900012    2    1    2    0    0 -0.11940390079E+02  0.22879601094E+02  0.36919701961E+02  0.46142318139E+02  0.10000003442E+02 0.  0.
         12    1    1    2    0    0  0.11940390079E+02 -0.22879601094E+02 -0.36919701961E+02  0.45045681861E+02  0.00000000000E+00 0. -1.
         11    1    3    3    0    0 -0.25664135586E+01  0.42058856547E+01  0.12625339705E+02  0.13552680754E+02  0.51100000000E-03 0. -1.
        -11    1    3    3    0    0 -0.48988801644E+01  0.15338979332E+02  0.17162773237E+02  0.23533892565E+02  0.51100000000E-03 0.  1.
        -12    1    3    3    0    0 -0.44750963557E+01  0.33347361074E+01  0.71315890186E+01  0.90557448191E+01  0.00000000000E+00 0.  1.
</event>
<event>
 7    1  0.2097247E-008  0.4614232E+02  0.7816164E-02  0.1320468E+00
        -11   -1    0    0    0    0  0.00000000000E+00  0.00000000000E+00  0.45593999997E+02  0.45594000000E+02  0.51100000000E-03 0.  1.
         11   -1    0    0    0    0 -0.00000000000E+00 -0.00000000000E+00 -0.45593999997E+02  0.45594000000E+02  0.51100000000E-03 0. -1.
    9900012    2    1    2    0    0  0.16911305365E+02  0.40124234604E+02 -0.11539798873E+02  0.46142318634E+02  0.10000007959E+02 0.  0.
         12    1    1    2    0    0 -0.16911305365E+02 -0.40124234604E+02  0.11539798873E+02  0.45045681366E+02  0.00000000000E+00 0. -1.
         11    1    3    3    0    0 -0.69429048990E+00  0.59062522478E+01 -0.26146471506E+00  0.59526648619E+01  0.51100000000E-03 0. -1.
        -11    1    3    3    0    0  0.82244278950E+00  0.11676658211E+01 -0.93160029429E+00  0.17052081929E+01  0.51100000000E-03 0.  1.
         12    1    3    3    0    0  0.16783153065E+02  0.33050316535E+02 -0.10346733864E+02  0.38484445579E+02  0.00000000000E+00 0. -1.
</event>
<event>
 7    1  0.2097247E-008  0.4614232E+02  0.7816164E-02  0.1320468E+00
        -11   -1    0    0    0    0  0.00000000000E+00  0.00000000000E+00  0.45593999997E+02  0.45594000000E+02  0.51100000000E-03 0.  1.
         11   -1    0    0    0    0 -0.00000000000E+00 -0.00000000000E+00 -0.45593999997E+02  0.45594000000E+02  0.51100000000E-03 0. -1.
    9900012    2    1    2    0    0  0.17624871990E+02  0.40427374308E+02 -0.91708648907E+01  0.46142317976E+02  0.10000001964E+02 0.  0.
         12    1    1    2    0    0 -0.17624871990E+02 -0.40427374308E+02  0.91708648907E+01  0.45045682024E+02  0.00000000000E+00 0. -1.
         11    1    3    3    0    0  0.71204895582E+01  0.22555880806E+02 -0.31988154826E+01  0.23868421632E+02  0.51100000000E-03 0. -1.
        -11    1    3    3    0    0  0.76882558759E+01  0.14873497840E+02 -0.25763871838E+01  0.16940129503E+02  0.51100000000E-03 0.  1.
         12    1    3    3    0    0  0.28161265555E+01  0.29979956630E+01 -0.33956622242E+01  0.53337668408E+01  0.00000000000E+00 0. -1.
</event>
<event>
 7    1  0.2097247E-008  0.4614232E+02  0.7816164E-02  0.1320468E+00
        -11   -1    0    0    0    0  0.00000000000E+00  0.00000000000E+00  0.45593999997E+02  0.45594000000E+02  0.51100000000E-03 0. -1.
         11   -1    0    0    0    0 -0.00000000000E+00 -0.00000000000E+00 -0.45593999997E+02  0.45594000000E+02  0.51100000000E-03 0.  1.
    9900012    2    1    2    0    0 -0.32466577552E+02  0.38660225216E+01 -0.30985299309E+02  0.46142316951E+02  0.99999926128E+01 0.  0.
         12    1    1    2    0    0  0.32466577552E+02 -0.38660225216E+01  0.30985299309E+02  0.45045683049E+02  0.00000000000E+00 0. -1.
         11    1    3    3    0    0 -0.68326992756E+00  0.72998193987E+00 -0.26936186333E+01  0.28732060541E+01  0.51100000000E-03 0. -1.
        -11    1    3    3    0    0 -0.16251293928E+02 -0.21824790952E+00 -0.10192432284E+02  0.19184312930E+02  0.51100000000E-03 0.  1.
        -12    1    3    3    0    0 -0.15532013696E+02  0.33542884913E+01 -0.18099248392E+02  0.24084797967E+02  0.00000000000E+00 0.  1.
</event>
<event>
 7    1  0.2097247E-008  0.4614232E+02  0.7816164E-02  0.1320468E+00
        -11   -1    0    0    0    0  0.00000000000E+00  0.00000000000E+00  0.45593999997E+02  0.45594000000E+02  0.51100000000E-03 0.  1.
         11   -1    0    0    0    0 -0.00000000000E+00 -0.00000000000E+00 -0.45593999997E+02  0.45594000000E+02  0.51100000000E-03 0. -1.
    9900012    2    1    2    0    0 -0.27593642786E+01 -0.41613186823E+02  0.17024749473E+02  0.46142317595E+02  0.99999984814E+01 0.  0.
         12    1    1    2    0    0  0.27593642786E+01  0.41613186823E+02 -0.17024749473E+02  0.45045682405E+02  0.00000000000E+00 0. -1.
         11    1    3    3    0    0  0.11683643331E+01 -0.74706605966E+01  0.34947932186E+01  0.83300315045E+01  0.51100000000E-03 0. -1.
        -11    1    3    3    0    0  0.12649069712E+01 -0.20291615252E+02  0.59091256292E+01  0.21172326399E+02  0.51100000000E-03 0.  1.
         12    1    3    3    0    0 -0.51926355829E+01 -0.13850910974E+02  0.76208306247E+01  0.16639959691E+02  0.00000000000E+00 0. -1.
</event>
<event>
 7    1  0.2097247E-008  0.4614232E+02  0.7816164E-02  0.1320468E+00
        -11   -1    0    0    0    0  0.00000000000E+00  0.00000000000E+00  0.45593999997E+02  0.45594000000E+02  0.51100000000E-03 0.  1.
         11   -1    0    0    0    0 -0.00000000000E+00 -0.00000000000E+00 -0.45593999997E+02  0.45594000000E+02  0.51100000000E-03 0. -1.
    9900012    2    1    2    0    0  0.24663018655E+02 -0.15055273014E+02  0.34557020587E+02  0.46142318669E+02  0.10000008277E+02 0.  0.
         12    1    1    2    0    0 -0.24663018655E+02  0.15055273014E+02 -0.34557020587E+02  0.45045681331E+02  0.00000000000E+00 0. -1.
         11    1    3    3    0    0 -0.32997030666E-01 -0.51616718148E+00  0.18844642183E+00  0.55048131511E+00  0.51100000000E-03 0. -1.
        -11    1    3    3    0    0  0.91586076230E+01 -0.96464220717E+01  0.11957767654E+02  0.17886356809E+02  0.51100000000E-03 0.  1.
        -12    1    3    3    0    0  0.15537408063E+02 -0.48926837609E+01  0.22410806512E+02  0.27705480545E+02  0.00000000000E+00 0.  1.
</event>
<event>
 7    1  0.2097247E-008  0.4614232E+02  0.7816164E-02  0.1320468E+00
        -11   -1    0    0    0    0  0.00000000000E+00  0.00000000000E+00  0.45593999997E+02  0.45594000000E+02  0.51100000000E-03 0.  1.
         11   -1    0    0    0    0 -0.00000000000E+00 -0.00000000000E+00 -0.45593999997E+02  0.45594000000E+02  0.51100000000E-03 0. -1.
    9900012    2    1    2    0    0  0.12454549653E+02 -0.42830481014E+02 -0.62886899497E+01  0.46142317274E+02  0.99999955598E+01 0.  0.
         12    1    1    2    0    0 -0.12454549653E+02  0.42830481014E+02  0.62886899497E+01  0.45045682726E+02  0.00000000000E+00 0. -1.
         11    1    3    3    0    0  0.67205414415E+01 -0.17660670907E+02 -0.16298650305E+01  0.18966323693E+02  0.51100000000E-03 0.  1.
        -11    1    3    3    0    0  0.55699213090E+01 -0.25619923004E+02 -0.42804730512E+01  0.26565521413E+02  0.51100000000E-03 0. -1.
        -12    1    3    3    0    0  0.16408690289E+00  0.45011289742E+00 -0.37835186801E+00  0.61047216820E+00  0.00000000000E+00 0.  1.
</event>
<event>
 7    1  0.2097247E-008  0.4614232E+02  0.7816164E-02  0.1320468E+00
        -11   -1    0    0    0    0  0.00000000000E+00  0.00000000000E+00  0.45593999997E+02  0.45594000000E+02  0.51100000000E-03 0.  1.
         11   -1    0    0    0    0 -0.00000000000E+00 -0.00000000000E+00 -0.45593999997E+02  0.45594000000E+02  0.51100000000E-03 0. -1.
    9900012    2    1    2    0    0  0.18116672551E+02  0.93643533775E+00  0.41231331470E+02  0.46142318406E+02  0.10000005885E+02 0.  0.
         12    1    1    2    0    0 -0.18116672551E+02 -0.93643533775E+00 -0.41231331470E+02  0.45045681594E+02  0.00000000000E+00 0. -1.
         11    1    3    3    0    0  0.55649926444E+01  0.61118538292E+00  0.73463062849E+01  0.92363903662E+01  0.51100000000E-03 0. -1.
        -11    1    3    3    0    0  0.85132304537E+01  0.33709469094E+01  0.25718516416E+02  0.27299825324E+02  0.51100000000E-03 0.  1.
         12    1    3    3    0    0  0.40384494530E+01 -0.30456969546E+01  0.81665087686E+01  0.96061027161E+01  0.00000000000E+00 0. -1.
</event>
<event>
 7    1  0.2978225E-008  0.4614231E+02  0.7816164E-02  0.1320468E+00
        -11   -1    0    0    0    0  0.00000000000E+00  0.00000000000E+00  0.45593999997E+02  0.45594000000E+02  0.51100000000E-03 0. -1.
         11   -1    0    0    0    0 -0.00000000000E+00 -0.00000000000E+00 -0.45593999997E+02  0.45594000000E+02  0.51100000000E-03 0.  1.
    9900012    2    1    2    0    0  0.37524233384E+02  0.41975470239E+01 -0.24564745277E+02  0.46142309833E+02  0.99999277064E+01 0.  0.
         12    1    1    2    0    0 -0.37524233384E+02 -0.41975470239E+01  0.24564745277E+02  0.45045690167E+02  0.00000000000E+00 0. -1.
         11    1    3    3    0    0  0.30812844626E+01 -0.72837976599E-02  0.27822352043E+00  0.30938286284E+01  0.51100000000E-03 0. -1.
        -11    1    3    3    0    0  0.87608178570E+01  0.70909117692E+00 -0.34542006752E+01  0.94438468003E+01  0.51100000000E-03 0.  1.
        -12    1    3    3    0    0  0.25682131064E+02  0.34957396446E+01 -0.21388768122E+02  0.33604634405E+02  0.00000000000E+00 0.  1.
</event>
<event>
 7    1  0.2097247E-008  0.4614232E+02  0.7816164E-02  0.1320468E+00
        -11   -1    0    0    0    0  0.00000000000E+00  0.00000000000E+00  0.45593999997E+02  0.45594000000E+02  0.51100000000E-03 0.  1.
         11   -1    0    0    0    0 -0.00000000000E+00 -0.00000000000E+00 -0.45593999997E+02  0.45594000000E+02  0.51100000000E-03 0. -1.
    9900012    2    1    2    0    0  0.39040665673E+02  0.37864616894E+01  0.22149550315E+02  0.46142318215E+02  0.10000004139E+02 0.  0.
         12    1    1    2    0    0 -0.39040665673E+02 -0.37864616894E+01 -0.22149550315E+02  0.45045681785E+02  0.00000000000E+00 0. -1.
         11    1    3    3    0    0  0.94612895915E+01  0.40136738408E+01  0.81531547500E+01  0.13118670324E+02  0.51100000000E-03 0. -1.
        -11    1    3    3    0    0  0.11541105806E+02 -0.18405190735E+01  0.69057792125E+01  0.13574771470E+02  0.51100000000E-03 0.  1.
        -12    1    3    3    0    0  0.18038270276E+02  0.16133069220E+01  0.70906163527E+01  0.19448876421E+02  0.00000000000E+00 0.  1.
</event>
<event>
 7    1  0.2097247E-008  0.4614232E+02  0.7816164E-02  0.1320468E+00
        -11   -1    0    0    0    0  0.00000000000E+00  0.00000000000E+00  0.45593999997E+02  0.45594000000E+02  0.51100000000E-03 0.  1.
         11   -1    0    0    0    0 -0.00000000000E+00 -0.00000000000E+00 -0.45593999997E+02  0.45594000000E+02  0.51100000000E-03 0. -1.
    9900012    2    1    2    0    0 -0.42385631985E+02  0.10145879866E+01  0.15216518209E+02  0.46142316367E+02  0.99999872847E+01 0.  0.
         12    1    1    2    0    0  0.42385631985E+02 -0.10145879866E+01 -0.15216518209E+02  0.45045683633E+02  0.00000000000E+00 0. -1.
         11    1    3    3    0    0 -0.26430682022E+02  0.15056890345E+01  0.66229155739E+01  0.27289394690E+02  0.51100000000E-03 0. -1.
        -11    1    3    3    0    0 -0.66339011686E+01  0.23385441844E+01  0.33697324449E+01  0.77995211794E+01  0.51100000000E-03 0.  1.
        -12    1    3    3    0    0 -0.93210487952E+01 -0.28296452324E+01  0.52238701906E+01  0.11053400497E+02  0.00000000000E+00 0.  1.
</event>
<event>
 7    1  0.2097247E-008  0.4614232E+02  0.7816164E-02  0.1320468E+00
        -11   -1    0    0    0    0  0.00000000000E+00  0.00000000000E+00  0.45593999997E+02  0.45594000000E+02  0.51100000000E-03 0. -1.
         11   -1    0    0    0    0 -0.00000000000E+00 -0.00000000000E+00 -0.45593999997E+02  0.45594000000E+02  0.51100000000E-03 0.  1.
    9900012    2    1    2    0    0  0.12380500056E+02 -0.21779714778E+01 -0.43256130783E+02  0.46142321054E+02  0.10000030024E+02 0.  0.
         12    1    1    2    0    0 -0.12380500056E+02  0.21779714778E+01  0.43256130783E+02  0.45045678946E+02  0.00000000000E+00 0. -1.
         11    1    3    3    0    0 -0.79833396184E+00 -0.16146333411E+01 -0.10310019894E+02  0.10466178310E+02  0.51100000000E-03 0. -1.
        -11    1    3    3    0    0  0.76096631679E+01 -0.19479870699E+01 -0.21059089900E+02  0.22476363025E+02  0.51100000000E-03 0.  1.
         12    1    3    3    0    0  0.55691708500E+01  0.13846489332E+01 -0.11887020990E+02  0.13199779719E+02  0.00000000000E+00 0. -1.
</event>
<event>
 7    1  0.2097247E-008  0.4614232E+02  0.7816164E-02  0.1320468E+00
        -11   -1    0    0    0    0  0.00000000000E+00  0.00000000000E+00  0.45593999997E+02  0.45594000000E+02  0.51100000000E-03 0.  1.
         11   -1    0    0    0    0 -0.00000000000E+00 -0.00000000000E+00 -0.45593999997E+02  0.45594000000E+02  0.51100000000E-03 0. -1.
    9900012    2    1    2    0    0 -0.42537124871E+02  0.14131897999E+02  0.44716751546E+01  0.46142318609E+02  0.10000007728E+02 0.  0.
         12    1    1    2    0    0  0.42537124871E+02 -0.14131897999E+02 -0.44716751546E+01  0.45045681391E+02  0.00000000000E+00 0. -1.
         11    1    3    3    0    0 -0.18563971266E+02  0.72430270492E+01 -0.17333425419E+01  0.20002173548E+02  0.51100000000E-03 0. -1.
        -11    1    3    3    0    0 -0.88789303145E+01  0.80668458401E+00  0.62843709186E+00  0.89376214390E+01  0.51100000000E-03 0.  1.
         12    1    3    3    0    0 -0.15094223290E+02  0.60821863659E+01  0.55765806047E+01  0.17202523622E+02  0.00000000000E+00 0. -1.
</event>
<event>
 7    1  0.2097247E-008  0.4614232E+02  0.7816164E-02  0.1320468E+00
        -11   -1    0    0    0    0  0.00000000000E+00  0.00000000000E+00  0.45593999997E+02  0.45594000000E+02  0.51100000000E-03 0. -1.
         11   -1    0    0    0    0 -0.00000000000E+00 -0.00000000000E+00 -0.45593999997E+02  0.45594000000E+02  0.51100000000E-03 0.  1.
    9900012    2    1    2    0    0  0.80039624067E+01 -0.24234267754E+02 -0.37118059360E+02  0.46142317872E+02  0.10000001007E+02 0.  0.
         12    1    1    2    0    0 -0.80039624067E+01  0.24234267754E+02  0.37118059360E+02  0.45045682128E+02  0.00000000000E+00 0. -1.
         11    1    3    3    0    0  0.13747410344E+01 -0.91950610073E+01 -0.82244653048E+01  0.12412932355E+02  0.51100000000E-03 0. -1.
        -11    1    3    3    0    0  0.16836380897E+01 -0.10311758307E+02 -0.15551602598E+02  0.18735510141E+02  0.51100000000E-03 0.  1.
        -12    1    3    3    0    0  0.49455832826E+01 -0.47274484401E+01 -0.13341991457E+02  0.14993875376E+02  0.00000000000E+00 0.  1.
</event>
<event>
 7    1  0.2097247E-008  0.4614232E+02  0.7816164E-02  0.1320468E+00
        -11   -1    0    0    0    0  0.00000000000E+00  0.00000000000E+00  0.45593999997E+02  0.45594000000E+02  0.51100000000E-03 0.  1.
         11   -1    0    0    0    0 -0.00000000000E+00 -0.00000000000E+00 -0.45593999997E+02  0.45594000000E+02  0.51100000000E-03 0. -1.
    9900012    2    1    2    0    0  0.85889454903E+01  0.33407990523E+02  0.28969805589E+02  0.46142318173E+02  0.10000003752E+02 0.  0.
         12    1    1    2    0    0 -0.85889454903E+01 -0.33407990523E+02 -0.28969805589E+02  0.45045681827E+02  0.00000000000E+00 0. -1.
         11    1    3    3    0    0  0.49463369411E+01  0.85590874725E+01  0.11590118335E+02  0.15233353891E+02  0.51100000000E-03 0. -1.
        -11    1    3    3    0    0  0.37294178359E+01  0.24373193167E+02  0.17679345724E+02  0.30340078577E+02  0.51100000000E-03 0.  1.
        -12    1    3    3    0    0 -0.86809286736E-01  0.47570988407E+00 -0.29965847037E+00  0.56888570463E+00  0.00000000000E+00 0.  1.
</event>
<event>
 7    1  0.2097247E-008  0.4614232E+02  0.7816164E-02  0.1320468E+00
        -11   -1    0    0    0    0  0.00000000000E+00  0.00000000000E+00  0.45593999997E+02  0.45594000000E+02  0.51100000000E-03 0.  1.
         11   -1    0    0    0    0 -0.00000000000E+00 -0.00000000000E+00 -0.45593999997E+02  0.45594000000E+02  0.51100000000E-03 0. -1.
    9900012    2    1    2    0    0 -0.55621595282E+01  0.35215421990E+02  0.27532706171E+02  0.46142317925E+02  0.10000001491E+02 0.  0.
         12    1    1    2    0    0  0.55621595282E+01 -0.35215421990E+02 -0.27532706171E+02  0.45045682075E+02  0.00000000000E+00 0. -1.
         11    1    3    3    0    0 -0.10723471954E+01  0.94370753952E+00  0.96015773317E+00  0.17211669185E+01  0.51100000000E-03 0. -1.
        -11    1    3    3    0    0 -0.19955509052E+01  0.92215479763E+01  0.29141800967E+01  0.98747970304E+01  0.51100000000E-03 0.  1.
        -12    1    3    3    0    0 -0.24942614276E+01  0.25050166474E+02  0.23658368341E+02  0.34546353976E+02  0.00000000000E+00 0.  1.
</event>
<event>
 7    1  0.2097247E-008  0.4614232E+02  0.7816164E-02  0.1320468E+00
        -11   -1    0    0    0    0  0.00000000000E+00  0.00000000000E+00  0.45593999997E+02  0.45594000000E+02  0.51100000000E-03 0.  1.
         11   -1    0    0    0    0 -0.00000000000E+00 -0.00000000000E+00 -0.45593999997E+02  0.45594000000E+02  0.51100000000E-03 0. -1.
    9900012    2    1    2    0    0  0.44930952611E+02 -0.13063961089E+00 -0.32102812315E+01  0.46142317911E+02  0.10000001369E+02 0.  0.
         12    1    1    2    0    0 -0.44930952611E+02  0.13063961089E+00  0.32102812315E+01  0.45045682089E+02  0.00000000000E+00 0. -1.
         11    1    3    3    0    0  0.10974802404E+02  0.56337089608E+00 -0.31377432572E+01  0.11428434170E+02  0.51100000000E-03 0. -1.
        -11    1    3    3    0    0  0.30530005074E+02  0.14621206650E+01 -0.91640625914E+00  0.30578731291E+02  0.51100000000E-03 0.  1.
         12    1    3    3    0    0  0.34261451324E+01 -0.21561311720E+01  0.84386828489E+00  0.41351524496E+01  0.00000000000E+00 0. -1.
</event>
<event>
 7    1  0.2097247E-008  0.4614232E+02  0.7816164E-02  0.1320468E+00
        -11   -1    0    0    0    0  0.00000000000E+00  0.00000000000E+00  0.45593999997E+02  0.45594000000E+02  0.51100000000E-03 0. -1.
         11   -1    0    0    0    0 -0.00000000000E+00 -0.00000000000E+00 -0.45593999997E+02  0.45594000000E+02  0.51100000000E-03 0.  1.
    9900012    2    1    2    0    0  0.26015653966E+02 -0.34082013365E+02 -0.13809979535E+02  0.46142318508E+02  0.10000006814E+02 0.  0.
         12    1    1    2    0    0 -0.26015653966E+02  0.34082013365E+02  0.13809979535E+02  0.45045681492E+02  0.00000000000E+00 0. -1.
         11    1    3    3    0    0  0.56880919222E+01 -0.11973348701E+02 -0.33316763191E+01  0.13668048002E+02  0.51100000000E-03 0. -1.
        -11    1    3    3    0    0  0.84448042447E+01 -0.13747839128E+02 -0.66332515726E+01  0.17444707682E+02  0.51100000000E-03 0.  1.
        -12    1    3    3    0    0  0.11882757799E+02 -0.83608255366E+01 -0.38450516436E+01  0.15029562825E+02  0.00000000000E+00 0.  1.
</event>
<event>
 7    1  0.2097247E-008  0.4614233E+02  0.7816164E-02  0.1320468E+00
        -11   -1    0    0    0    0  0.00000000000E+00  0.00000000000E+00  0.45593999997E+02  0.45594000000E+02  0.51100000000E-03 0.  1.
         11   -1    0    0    0    0 -0.00000000000E+00 -0.00000000000E+00 -0.45593999997E+02  0.45594000000E+02  0.51100000000E-03 0. -1.
    9900012    2    1    2    0    0  0.23831828459E+02  0.10099726690E+02  0.36866682389E+02  0.46142325432E+02  0.10000069949E+02 0.  0.
         12    1    1    2    0    0 -0.23831828459E+02 -0.10099726690E+02 -0.36866682389E+02  0.45045674568E+02  0.00000000000E+00 0. -1.
         11    1    3    3    0    0  0.19442689364E+01  0.70370967378E+00  0.72449902181E+00  0.21909559776E+01  0.51100000000E-03 0. -1.
        -11    1    3    3    0    0  0.88694405873E+01  0.80207150862E+00  0.90998265439E+01  0.12732522862E+02  0.51100000000E-03 0.  1.
        -12    1    3    3    0    0  0.13018118935E+02  0.85939455080E+01  0.27042356823E+02  0.31218846592E+02  0.00000000000E+00 0.  1.
</event>
<event>
 7    1  0.2097247E-008  0.4614231E+02  0.7816164E-02  0.1320468E+00
        -11   -1    0    0    0    0  0.00000000000E+00  0.00000000000E+00  0.45593999997E+02  0.45594000000E+02  0.51100000000E-03 0. -1.
         11   -1    0    0    0    0 -0.00000000000E+00 -0.00000000000E+00 -0.45593999997E+02  0.45594000000E+02  0.51100000000E-03 0.  1.
    9900012    2    1    2    0    0  0.13425997644E+02  0.40146425757E+02 -0.15398734379E+02  0.46142312811E+02  0.99999548640E+01 0.  0.
         12    1    1    2    0    0 -0.13425997644E+02 -0.40146425757E+02  0.15398734379E+02  0.45045687189E+02  0.00000000000E+00 0. -1.
         11    1    3    3    0    0  0.33316380444E+01  0.33676495632E+01 -0.37042504656E+01  0.60135137327E+01  0.51100000000E-03 0. -1.
        -11    1    3    3    0    0  0.24530197480E+01  0.88365475464E+01 -0.90009936248E+00  0.92147738739E+01  0.51100000000E-03 0.  1.
        -12    1    3    3    0    0  0.76413398514E+01  0.27942228648E+02 -0.10794384551E+02  0.30914025205E+02  0.00000000000E+00 0.  1.
</event>
<event>
 7    1  0.2097247E-008  0.4614232E+02  0.7816164E-02  0.1320468E+00
        -11   -1    0    0    0    0  0.00000000000E+00  0.00000000000E+00  0.45593999997E+02  0.45594000000E+02  0.51100000000E-03 0.  1.
         11   -1    0    0    0    0 -0.00000000000E+00 -0.00000000000E+00 -0.45593999997E+02  0.45594000000E+02  0.51100000000E-03 0. -1.
    9900012    2    1    2    0    0  0.11136210685E+01 -0.69384037118E+01  0.44494179754E+02  0.46142316190E+02  0.99999856746E+01 0.  0.
         12    1    1    2    0    0 -0.11136210685E+01  0.69384037118E+01 -0.44494179754E+02  0.45045683810E+02  0.00000000000E+00 0. -1.
         11    1    3    3    0    0  0.16140602755E+01 -0.40956051089E+00  0.18392702933E+01  0.24810977122E+01  0.51100000000E-03 0. -1.
        -11    1    3    3    0    0 -0.26948319678E+01 -0.27845179418E+01  0.30687112307E+02  0.30930802148E+02  0.51100000000E-03 0.  1.
        -12    1    3    3    0    0  0.21943927608E+01 -0.37443252590E+01  0.11967797154E+02  0.12730416330E+02  0.00000000000E+00 0.  1.
</event>
<event>
 7    1  0.2097247E-008  0.4614232E+02  0.7816164E-02  0.1320468E+00
        -11   -1    0    0    0    0  0.00000000000E+00  0.00000000000E+00  0.45593999997E+02  0.45594000000E+02  0.51100000000E-03 0.  1.
         11   -1    0    0    0    0 -0.00000000000E+00 -0.00000000000E+00 -0.45593999997E+02  0.45594000000E+02  0.51100000000E-03 0. -1.
    9900012    2    1    2    0    0  0.12268584610E+02 -0.22993532478E+02  0.36740887339E+02  0.46142317558E+02  0.99999981509E+01 0.  0.
         12    1    1    2    0    0 -0.12268584610E+02  0.22993532478E+02 -0.36740887339E+02  0.45045682442E+02  0.00000000000E+00 0. -1.
         11    1    3    3    0    0  0.61936351045E+01 -0.86398938129E+01  0.20125031089E+02  0.22760179206E+02  0.51100000000E-03 0. -1.
        -11    1    3    3    0    0 -0.82452887963E+00 -0.32426206561E+01  0.39339233673E+01  0.51643189206E+01  0.51100000000E-03 0.  1.
        -12    1    3    3    0    0  0.68994783851E+01 -0.11111018010E+02  0.12681932883E+02  0.18217819431E+02  0.00000000000E+00 0.  1.
</event>
<event>
 7    1  0.2097247E-008  0.4614232E+02  0.7816164E-02  0.1320468E+00
        -11   -1    0    0    0    0  0.00000000000E+00  0.00000000000E+00  0.45593999997E+02  0.45594000000E+02  0.51100000000E-03 0.  1.
         11   -1    0    0    0    0 -0.00000000000E+00 -0.00000000000E+00 -0.45593999997E+02  0.45594000000E+02  0.51100000000E-03 0. -1.
    9900012    2    1    2    0    0  0.21819240421E+02 -0.15173876163E+02  0.36370148863E+02  0.46142317647E+02  0.99999989568E+01 0.  0.
         12    1    1    2    0    0 -0.21819240421E+02  0.15173876163E+02 -0.36370148863E+02  0.45045682353E+02  0.00000000000E+00 0. -1.
         11    1    3    3    0    0  0.42951274209E+01  0.36650203242E+00  0.49199082518E+01  0.65412491750E+01  0.51100000000E-03 0. -1.
        -11    1    3    3    0    0  0.21904840356E+00  0.19773932441E+00 -0.11218035304E+00  0.31570197378E+00  0.51100000000E-03 0.  1.
        -12    1    3    3    0    0  0.17305064596E+02 -0.15738117520E+02  0.31562420964E+02  0.39285366498E+02  0.00000000000E+00 0.  1.
</event>
<event>
 7    1  0.2097247E-008  0.4614232E+02  0.7816164E-02  0.1320468E+00
        -11   -1    0    0    0    0  0.00000000000E+00  0.00000000000E+00  0.45593999997E+02  0.45594000000E+02  0.51100000000E-03 0.  1.
         11   -1    0    0    0    0 -0.00000000000E+00 -0.00000000000E+00 -0.45593999997E+02  0.45594000000E+02  0.51100000000E-03 0. -1.
    9900012    2    1    2    0    0 -0.18184801512E+02  0.39395166261E+02  0.12101551899E+02  0.46142315533E+02  0.99999796794E+01 0.  0.
         12    1    1    2    0    0  0.18184801512E+02 -0.39395166261E+02 -0.12101551899E+02  0.45045684467E+02  0.00000000000E+00 0. -1.
         11    1    3    3    0    0 -0.13780035770E+01  0.13011201270E+01  0.15627044545E+01  0.24563902207E+01  0.51100000000E-03 0. -1.
        -11    1    3    3    0    0 -0.54942826073E+01  0.15624170244E+02  0.41174755690E+00  0.16567177596E+02  0.51100000000E-03 0.  1.
         12    1    3    3    0    0 -0.11312515328E+02  0.22469875890E+02  0.10127099888E+02  0.27118747716E+02  0.00000000000E+00 0. -1.
</event>
<event>
 7    1  0.2097247E-008  0.4614232E+02  0.7816164E-02  0.1320468E+00
        -11   -1    0    0    0    0  0.00000000000E+00  0.00000000000E+00  0.45593999997E+02  0.45594000000E+02  0.51100000000E-03 0.  1.
         11   -1    0    0    0    0 -0.00000000000E+00 -0.00000000000E+00 -0.45593999997E+02  0.45594000000E+02  0.51100000000E-03 0. -1.
    9900012    2    1    2    0    0  0.23995750173E+02  0.67367789662E+01  0.37522437113E+02  0.46142317586E+02  0.99999984076E+01 0.  0.
         12    1    1    2    0    0 -0.23995750173E+02 -0.67367789662E+01 -0.37522437113E+02  0.45045682414E+02  0.00000000000E+00 0. -1.
         11    1    3    3    0    0  0.61056597630E+01 -0.15370491358E+01  0.11417480597E+02  0.13038422628E+02  0.51100000000E-03 0.  1.
        -11    1    3    3    0    0  0.41706939783E+01  0.34177157960E+01  0.10252738009E+02  0.11584217991E+02  0.51100000000E-03 0. -1.
         12    1    3    3    0    0  0.13719396432E+02  0.48561123059E+01  0.15852218507E+02  0.21519676967E+02  0.00000000000E+00 0. -1.
</event>
<event>
 7    1  0.2097247E-008  0.4614232E+02  0.7816164E-02  0.1320468E+00
        -11   -1    0    0    0    0  0.00000000000E+00  0.00000000000E+00  0.45593999997E+02  0.45594000000E+02  0.51100000000E-03 0.  1.
         11   -1    0    0    0    0 -0.00000000000E+00 -0.00000000000E+00 -0.45593999997E+02  0.45594000000E+02  0.51100000000E-03 0. -1.
    9900012    2    1    2    0    0 -0.35752830161E+02 -0.27351992081E+02  0.16484070244E+01  0.46142316732E+02  0.99999906173E+01 0.  0.
         12    1    1    2    0    0  0.35752830161E+02  0.27351992081E+02 -0.16484070244E+01  0.45045683268E+02  0.00000000000E+00 0. -1.
         11    1    3    3    0    0 -0.17171631624E+02 -0.13107131113E+02  0.19634177841E+01  0.21691399869E+02  0.51100000000E-03 0. -1.
        -11    1    3    3    0    0 -0.64056117967E+01 -0.91017577047E+01  0.96600665628E+00  0.11171706446E+02  0.51100000000E-03 0.  1.
         12    1    3    3    0    0 -0.12175586741E+02 -0.51431032636E+01 -0.12810174159E+01  0.13279210417E+02  0.00000000000E+00 0. -1.
</event>
<event>
 7    1  0.2097247E-008  0.4614232E+02  0.7816164E-02  0.1320468E+00
        -11   -1    0    0    0    0  0.00000000000E+00  0.00000000000E+00  0.45593999997E+02  0.45594000000E+02  0.51100000000E-03 0.  1.
         11   -1    0    0    0    0 -0.00000000000E+00 -0.00000000000E+00 -0.45593999997E+02  0.45594000000E+02  0.51100000000E-03 0. -1.
    9900012    2    1    2    0    0  0.53939273407E+00  0.10252941649E+02  0.43860003659E+02  0.46142315657E+02  0.99999808124E+01 0.  0.
         12    1    1    2    0    0 -0.53939273407E+00 -0.10252941649E+02 -0.43860003659E+02  0.45045684343E+02  0.00000000000E+00 0. -1.
         11    1    3    3    0    0  0.59700776599E+00  0.48551772595E+00  0.21524304436E+01  0.22858483787E+01  0.51100000000E-03 0. -1.
        -11    1    3    3    0    0 -0.79149176639E+00  0.11399733656E+02  0.31853387419E+02  0.33841079725E+02  0.51100000000E-03 0.  1.
         12    1    3    3    0    0  0.73387673446E+00 -0.16323097334E+01  0.98541857964E+01  0.10015387553E+02  0.00000000000E+00 0. -1.
</event>
<event>
 7    1  0.2097247E-008  0.4614232E+02  0.7816164E-02  0.1320468E+00
        -11   -1    0    0    0    0  0.00000000000E+00  0.00000000000E+00  0.45593999997E+02  0.45594000000E+02  0.51100000000E-03 0. -1.
         11   -1    0    0    0    0 -0.00000000000E+00 -0.00000000000E+00 -0.45593999997E+02  0.45594000000E+02  0.51100000000E-03 0.  1.
    9900012    2    1    2    0    0  0.14628871508E+02  0.95558855432E+01 -0.41518606155E+02  0.46142317775E+02  0.10000000125E+02 0.  0.
         12    1    1    2    0    0 -0.14628871508E+02 -0.95558855432E+01  0.41518606155E+02  0.45045682225E+02  0.00000000000E+00 0. -1.
         11    1    3    3    0    0  0.40195741686E+01  0.51637173097E+01 -0.89325670823E+01  0.11073017109E+02  0.51100000000E-03 0. -1.
        -11    1    3    3    0    0  0.88999200968E+01  0.41959371430E+01 -0.19212373066E+02  0.21585405841E+02  0.51100000000E-03 0.  1.
         12    1    3    3    0    0  0.17093772421E+01  0.19623109047E+00 -0.13373666007E+02  0.13483894825E+02  0.00000000000E+00 0. -1.
</event>
<event>
 7    1  0.2097247E-008  0.4614232E+02  0.7816164E-02  0.1320468E+00
        -11   -1    0    0    0    0  0.00000000000E+00  0.00000000000E+00  0.45593999997E+02  0.45594000000E+02  0.51100000000E-03 0.  1.
         11   -1    0    0    0    0 -0.00000000000E+00 -0.00000000000E+00 -0.45593999997E+02  0.45594000000E+02  0.51100000000E-03 0. -1.
    9900012    2    1    2    0    0 -0.58298840610E+01 -0.36142105628E+02  0.26246411836E+02  0.46142317835E+02  0.10000000675E+02 0.  0.
         12    1    1    2    0    0  0.58298840610E+01  0.36142105628E+02 -0.26246411836E+02  0.45045682165E+02  0.00000000000E+00 0. -1.
         11    1    3    3    0    0 -0.22101692216E+01 -0.13719346531E+02  0.10703979390E+02  0.17540823592E+02  0.51100000000E-03 0. -1.
        -11    1    3    3    0    0 -0.28190779800E+01 -0.13345868294E+02  0.13645481187E+02  0.19294003168E+02  0.51100000000E-03 0.  1.
         12    1    3    3    0    0 -0.80063685935E+00 -0.90768908033E+01  0.18969512598E+01  0.93074910753E+01  0.00000000000E+00 0. -1.
</event>
<event>
 7    1  0.2131715E-008  0.4614232E+02  0.7816164E-02  0.1320468E+00
        -11   -1    0    0    0    0  0.00000000000E+00  0.00000000000E+00  0.45593999997E+02  0.45594000000E+02  0.51100000000E-03 0. -1.
         11   -1    0    0    0    0 -0.00000000000E+00 -0.00000000000E+00 -0.45593999997E+02  0.45594000000E+02  0.51100000000E-03 0.  1.
    9900012    2    1    2    0    0  0.27118328826E+02 -0.31624253255E+02 -0.17135233406E+02  0.46142319007E+02  0.10000011361E+02 0.  0.
         12    1    1    2    0    0 -0.27118328826E+02  0.31624253255E+02  0.17135233406E+02  0.45045680993E+02  0.00000000000E+00 0. -1.
         11    1    3    3    0    0  0.25608780348E+01 -0.40643316586E+01 -0.42696045539E+01  0.64270064142E+01  0.51100000000E-03 0. -1.
        -11    1    3    3    0    0  0.18772949500E+02 -0.23814975631E+02 -0.12544829390E+02  0.32816907866E+02  0.51100000000E-03 0.  1.
        -12    1    3    3    0    0  0.57845012915E+01 -0.37449459651E+01 -0.32079946209E+00  0.68984047263E+01  0.00000000000E+00 0.  1.
</event>
<event>
 7    1  0.2097247E-008  0.4614232E+02  0.7816164E-02  0.1320468E+00
        -11   -1    0    0    0    0  0.00000000000E+00  0.00000000000E+00  0.45593999997E+02  0.45594000000E+02  0.51100000000E-03 0.  1.
         11   -1    0    0    0    0 -0.00000000000E+00 -0.00000000000E+00 -0.45593999997E+02  0.45594000000E+02  0.51100000000E-03 0. -1.
    9900012    2    1    2    0    0  0.40692163168E+01 -0.22519747354E+01  0.44804949445E+02  0.46142318671E+02  0.10000008297E+02 0.  0.
         12    1    1    2    0    0 -0.40692163168E+01  0.22519747354E+01 -0.44804949445E+02  0.45045681329E+02  0.00000000000E+00 0. -1.
         11    1    3    3    0    0  0.26943051726E+00 -0.36117209453E+01  0.74034675954E+01  0.82418719772E+01  0.51100000000E-03 0. -1.
        -11    1    3    3    0    0  0.41345208605E+01  0.86386086954E-01  0.34040556222E+02  0.34290832499E+02  0.51100000000E-03 0.  1.
         12    1    3    3    0    0 -0.33473506096E+00  0.12733601230E+01  0.33609256275E+01  0.36096141951E+01  0.00000000000E+00 0. -1.
</event>
<event>
 7    1  0.2097247E-008  0.4614232E+02  0.7816164E-02  0.1320468E+00
        -11   -1    0    0    0    0  0.00000000000E+00  0.00000000000E+00  0.45593999997E+02  0.45594000000E+02  0.51100000000E-03 0. -1.
         11   -1    0    0    0    0 -0.00000000000E+00 -0.00000000000E+00 -0.45593999997E+02  0.45594000000E+02  0.51100000000E-03 0.  1.
    9900012    2    1    2    0    0 -0.47072442098E+01  0.27792786423E+02 -0.35135684844E+02  0.46142317913E+02  0.10000001388E+02 0.  0.
         12    1    1    2    0    0  0.47072442098E+01 -0.27792786423E+02  0.35135684844E+02  0.45045682087E+02  0.00000000000E+00 0. -1.
         11    1    3    3    0    0 -0.23445402772E+01  0.11821146913E+02 -0.13971486719E+02  0.18450984387E+02  0.51100000000E-03 0. -1.
        -11    1    3    3    0    0 -0.22869199230E+01  0.16168883621E+02 -0.17184036922E+02  0.23705567394E+02  0.51100000000E-03 0.  1.
         12    1    3    3    0    0 -0.75784009551E-01 -0.19724411133E+00 -0.39801612034E+01  0.39857661322E+01  0.00000000000E+00 0. -1.
</event>
<event>
 7    1  0.2097247E-008  0.4614232E+02  0.7816164E-02  0.1320468E+00
        -11   -1    0    0    0    0  0.00000000000E+00  0.00000000000E+00  0.45593999997E+02  0.45594000000E+02  0.51100000000E-03 0. -1.
         11   -1    0    0    0    0 -0.00000000000E+00 -0.00000000000E+00 -0.45593999997E+02  0.45594000000E+02  0.51100000000E-03 0.  1.
    9900012    2    1    2    0    0 -0.10861859782E+02  0.36862115298E+02 -0.23501441013E+02  0.46142320164E+02  0.10000021912E+02 0.  0.
         12    1    1    2    0    0  0.10861859782E+02 -0.36862115298E+02  0.23501441013E+02  0.45045679836E+02  0.00000000000E+00 0. -1.
         11    1    3    3    0    0 -0.41691307397E+00  0.37293003555E+00 -0.30865843408E+00  0.63887683689E+00  0.51100000000E-03 0. -1.
        -11    1    3    3    0    0 -0.67040661546E+00  0.18991963315E+02 -0.12938871197E+02  0.22990400251E+02  0.51100000000E-03 0.  1.
        -12    1    3    3    0    0 -0.97745400928E+01  0.17497221948E+02 -0.10253911382E+02  0.22513043076E+02  0.00000000000E+00 0.  1.
</event>
<event>
 7    1  0.2097247E-008  0.4614232E+02  0.7816164E-02  0.1320468E+00
        -11   -1    0    0    0    0  0.00000000000E+00  0.00000000000E+00  0.45593999997E+02  0.45594000000E+02  0.51100000000E-03 0.  1.
         11   -1    0    0    0    0 -0.00000000000E+00 -0.00000000000E+00 -0.45593999997E+02  0.45594000000E+02  0.51100000000E-03 0. -1.
    9900012    2    1    2    0    0 -0.29479260975E+02 -0.13901121465E+02  0.31094139600E+02  0.46142317376E+02  0.99999964837E+01 0.  0.
         12    1    1    2    0    0  0.29479260975E+02  0.13901121465E+02 -0.31094139600E+02  0.45045682624E+02  0.00000000000E+00 0. -1.
         11    1    3    3    0    0 -0.72593570140E+01 -0.21302816023E+01  0.11463307196E+02  0.13734765236E+02  0.51100000000E-03 0.  1.
        -11    1    3    3    0    0 -0.74133008063E+01 -0.11502849677E+01  0.47272184949E+01  0.88671742574E+01  0.51100000000E-03 0. -1.
        -12    1    3    3    0    0 -0.14806603155E+02 -0.10620554895E+02  0.14903613909E+02  0.23540377882E+02  0.00000000000E+00 0.  1.
</event>
<event>
 7    1  0.2097247E-008  0.4614232E+02  0.7816164E-02  0.1320468E+00
        -11   -1    0    0    0    0  0.00000000000E+00  0.00000000000E+00  0.45593999997E+02  0.45594000000E+02  0.51100000000E-03 0. -1.
         11   -1    0    0    0    0 -0.00000000000E+00 -0.00000000000E+00 -0.45593999997E+02  0.45594000000E+02  0.51100000000E-03 0.  1.
    9900012    2    1    2    0    0  0.42697576067E+02  0.97001879670E+01  0.10580020426E+02  0.46142317845E+02  0.10000000764E+02 0.  0.
         12    1    1    2    0    0 -0.42697576067E+02 -0.97001879670E+01 -0.10580020426E+02  0.45045682155E+02  0.00000000000E+00 0. -1.
         11    1    3    3    0    0  0.85861800073E+01  0.27311263691E+01  0.51612333265E+01  0.10383634627E+02  0.51100000000E-03 0. -1.
        -11    1    3    3    0    0  0.13811746520E+02  0.40495648042E+01 -0.53601848729E+00  0.14403146640E+02  0.51100000000E-03 0.  1.
        -12    1    3    3    0    0  0.20299649540E+02  0.29194967936E+01  0.59548055866E+01  0.21355536578E+02  0.00000000000E+00 0.  1.
</event>
<event>
 7    1  0.2097247E-008  0.4614232E+02  0.7816164E-02  0.1320468E+00
        -11   -1    0    0    0    0  0.00000000000E+00  0.00000000000E+00  0.45593999997E+02  0.45594000000E+02  0.51100000000E-03 0. -1.
         11   -1    0    0    0    0 -0.00000000000E+00 -0.00000000000E+00 -0.45593999997E+02  0.45594000000E+02  0.51100000000E-03 0.  1.
    9900012    2    1    2    0    0  0.25844310231E+02 -0.34808871270E+02 -0.12228149963E+02  0.46142317167E+02  0.99999945829E+01 0.  0.
         12    1    1    2    0    0 -0.25844310231E+02  0.34808871270E+02  0.12228149963E+02  0.45045682833E+02  0.00000000000E+00 0. -1.
         11    1    3    3    0    0  0.81754530804E+01 -0.15474930077E+02 -0.74390998011E+01  0.19017142268E+02  0.51100000000E-03 0. -1.
        -11    1    3    3    0    0  0.11669209989E+02 -0.14705870252E+02 -0.53687050052E+01  0.19525779762E+02  0.51100000000E-03 0.  1.
        -12    1    3    3    0    0  0.59996471617E+01 -0.46280709412E+01  0.57965484368E+00  0.75993951364E+01  0.00000000000E+00 0.  1.
</event>
<event>
 7    1  0.2097247E-008  0.4614232E+02  0.7816164E-02  0.1320468E+00
        -11   -1    0    0    0    0  0.00000000000E+00  0.00000000000E+00  0.45593999997E+02  0.45594000000E+02  0.51100000000E-03 0. -1.
         11   -1    0    0    0    0 -0.00000000000E+00 -0.00000000000E+00 -0.45593999997E+02  0.45594000000E+02  0.51100000000E-03 0.  1.
    9900012    2    1    2    0    0  0.19698148684E+02 -0.36178772174E+02 -0.18226155738E+02  0.46142319069E+02  0.10000011922E+02 0.  0.
         12    1    1    2    0    0 -0.19698148684E+02  0.36178772174E+02  0.18226155738E+02  0.45045680931E+02  0.00000000000E+00 0. -1.
         11    1    3    3    0    0  0.95647661538E+01 -0.20347310619E+02 -0.82414884860E+01  0.23946188292E+02  0.51100000000E-03 0.  1.
        -11    1    3    3    0    0  0.82653046113E+01 -0.75841650935E+01 -0.70308152159E+01  0.13238851285E+02  0.51100000000E-03 0. -1.
         12    1    3    3    0    0  0.18680779188E+01 -0.82472964614E+01 -0.29538520363E+01  0.89572794913E+01  0.00000000000E+00 0. -1.
</event>
<event>
 7    1  0.2097247E-008  0.4614232E+02  0.7816164E-02  0.1320468E+00
        -11   -1    0    0    0    0  0.00000000000E+00  0.00000000000E+00  0.45593999997E+02  0.45594000000E+02  0.51100000000E-03 0.  1.
         11   -1    0    0    0    0 -0.00000000000E+00 -0.00000000000E+00 -0.45593999997E+02  0.45594000000E+02  0.51100000000E-03 0. -1.
    9900012    2    1    2    0    0  0.28163198417E+02 -0.23204520868E+02  0.26410184419E+02  0.46142319021E+02  0.10000011490E+02 0.  0.
         12    1    1    2    0    0 -0.28163198417E+02  0.23204520868E+02 -0.26410184419E+02  0.45045680979E+02  0.00000000000E+00 0. -1.
         11    1    3    3    0    0  0.75146023902E+01 -0.77320816640E+01  0.62593937832E+01  0.12467331179E+02  0.51100000000E-03 0. -1.
        -11    1    3    3    0    0  0.15747510300E+02 -0.13240779726E+02  0.19324788591E+02  0.28226756505E+02  0.51100000000E-03 0.  1.
         12    1    3    3    0    0  0.49010857267E+01 -0.22316594777E+01  0.82600204478E+00  0.54482313372E+01  0.00000000000E+00 0. -1.
</event>
<event>
 7    1  0.2097247E-008  0.4614232E+02  0.7816164E-02  0.1320468E+00
        -11   -1    0    0    0    0  0.00000000000E+00  0.00000000000E+00  0.45593999997E+02  0.45594000000E+02  0.51100000000E-03 0.  1.
         11   -1    0    0    0    0 -0.00000000000E+00 -0.00000000000E+00 -0.45593999997E+02  0.45594000000E+02  0.51100000000E-03 0. -1.
    9900012    2    1    2    0    0 -0.29970238301E+02 -0.23973947780E+02  0.23582792181E+02  0.46142318265E+02  0.10000004591E+02 0.  0.
         12    1    1    2    0    0  0.29970238301E+02  0.23973947780E+02 -0.23582792181E+02  0.45045681735E+02  0.00000000000E+00 0. -1.
         11    1    3    3    0    0 -0.26166263206E-02 -0.10630264281E+01 -0.51001647783E+00  0.11790458441E+01  0.51100000000E-03 0. -1.
        -11    1    3    3    0    0 -0.79365978889E+01 -0.73886174036E+01  0.50341094744E+01  0.11955062177E+02  0.51100000000E-03 0.  1.
        -12    1    3    3    0    0 -0.22031023785E+02 -0.15522303949E+02  0.19058699184E+02  0.33008210244E+02  0.00000000000E+00 0.  1.
</event>
<event>
 7    1  0.2097247E-008  0.4614232E+02  0.7816164E-02  0.1320468E+00
        -11   -1    0    0    0    0  0.00000000000E+00  0.00000000000E+00  0.45593999997E+02  0.45594000000E+02  0.51100000000E-03 0.  1.
         11   -1    0    0    0    0 -0.00000000000E+00 -0.00000000000E+00 -0.45593999997E+02  0.45594000000E+02  0.51100000000E-03 0. -1.
    9900012    2    1    2    0    0  0.24155828981E+02  0.28408290768E+02  0.25270110495E+02  0.46142317160E+02  0.99999945160E+01 0.  0.
         12    1    1    2    0    0 -0.24155828981E+02 -0.28408290768E+02 -0.25270110495E+02  0.45045682840E+02  0.00000000000E+00 0. -1.
         11    1    3    3    0    0  0.52480088685E+01  0.62112581035E+01  0.92509334033E+01  0.12316699777E+02  0.51100000000E-03 0. -1.
        -11    1    3    3    0    0  0.45424280456E+01  0.95337201259E+01  0.69023249697E+01  0.12616162738E+02  0.51100000000E-03 0.  1.
         12    1    3    3    0    0  0.14365392067E+02  0.12663312538E+02  0.91168521221E+01  0.21209454644E+02  0.00000000000E+00 0. -1.
</event>
<event>
 7    1  0.2097247E-008  0.4614232E+02  0.7816164E-02  0.1320468E+00
        -11   -1    0    0    0    0  0.00000000000E+00  0.00000000000E+00  0.45593999997E+02  0.45594000000E+02  0.51100000000E-03 0. -1.
         11   -1    0    0    0    0 -0.00000000000E+00 -0.00000000000E+00 -0.45593999997E+02  0.45594000000E+02  0.51100000000E-03 0.  1.
    9900012    2    1    2    0    0 -0.65825835194E+01 -0.39054328206E+02 -0.21460256368E+02  0.46142316957E+02  0.99999926660E+01 0.  0.
         12    1    1    2    0    0  0.65825835194E+01  0.39054328206E+02  0.21460256368E+02  0.45045683043E+02  0.00000000000E+00 0. -1.
         11    1    3    3    0    0 -0.35521078880E+00 -0.14576008199E+02 -0.71928129996E+01  0.16258005684E+02  0.51100000000E-03 0. -1.
        -11    1    3    3    0    0 -0.11032396498E+01 -0.11427435495E+02 -0.10009254165E+02  0.15231171620E+02  0.51100000000E-03 0.  1.
         12    1    3    3    0    0 -0.51241330808E+01 -0.13050884512E+02 -0.42581892036E+01  0.14653139652E+02  0.00000000000E+00 0. -1.
</event>
<event>
 7    1  0.2097247E-008  0.4614232E+02  0.7816164E-02  0.1320468E+00
        -11   -1    0    0    0    0  0.00000000000E+00  0.00000000000E+00  0.45593999997E+02  0.45594000000E+02  0.51100000000E-03 0.  1.
         11   -1    0    0    0    0 -0.00000000000E+00 -0.00000000000E+00 -0.45593999997E+02  0.45594000000E+02  0.51100000000E-03 0. -1.
    9900012    2    1    2    0    0 -0.11408864370E+02 -0.26328429946E+02  0.34724127493E+02  0.46142318300E+02  0.10000004918E+02 0.  0.
         12    1    1    2    0    0  0.11408864370E+02  0.26328429946E+02 -0.34724127493E+02  0.45045681700E+02  0.00000000000E+00 0. -1.
         11    1    3    3    0    0 -0.18728660826E+01 -0.72538655972E+00  0.15619474828E+01  0.25443060399E+01  0.51100000000E-03 0. -1.
        -11    1    3    3    0    0 -0.18538508864E+00 -0.10244893557E+02  0.10530172637E+02  0.14692744728E+02  0.51100000000E-03 0.  1.
        -12    1    3    3    0    0 -0.93506131985E+01 -0.15358149829E+02  0.22632007373E+02  0.28905267532E+02  0.00000000000E+00 0.  1.
</event>
<event>
 7    1  0.2097247E-008  0.4614232E+02  0.7816164E-02  0.1320468E+00
        -11   -1    0    0    0    0  0.00000000000E+00  0.00000000000E+00  0.45593999997E+02  0.45594000000E+02  0.51100000000E-03 0.  1.
         11   -1    0    0    0    0 -0.00000000000E+00 -0.00000000000E+00 -0.45593999997E+02  0.45594000000E+02  0.51100000000E-03 0. -1.
    9900012    2    1    2    0    0 -0.30015767423E+02  0.21799509337E+02  0.25552858284E+02  0.46142317989E+02  0.10000002082E+02 0.  0.
         12    1    1    2    0    0  0.30015767423E+02 -0.21799509337E+02 -0.25552858284E+02  0.45045682011E+02  0.00000000000E+00 0. -1.
         11    1    3    3    0    0 -0.58499067272E+01  0.14220605111E+01  0.71936598366E+01  0.93804267983E+01  0.51100000000E-03 0. -1.
        -11    1    3    3    0    0 -0.16122591505E+02  0.11556376919E+02  0.12673661716E+02  0.23539530706E+02  0.51100000000E-03 0.  1.
        -12    1    3    3    0    0 -0.80432691909E+01  0.88210719067E+01  0.56855367314E+01  0.13222360485E+02  0.00000000000E+00 0.  1.
</event>
<event>
 7    1  0.2097247E-008  0.4614232E+02  0.7816164E-02  0.1320468E+00
        -11   -1    0    0    0    0  0.00000000000E+00  0.00000000000E+00  0.45593999997E+02  0.45594000000E+02  0.51100000000E-03 0.  1.
         11   -1    0    0    0    0 -0.00000000000E+00 -0.00000000000E+00 -0.45593999997E+02  0.45594000000E+02  0.51100000000E-03 0. -1.
    9900012    2    1    2    0    0  0.37647233225E+02 -0.77357321506E+01  0.23493781170E+02  0.46142317908E+02  0.10000001343E+02 0.  0.
         12    1    1    2    0    0 -0.37647233225E+02  0.77357321506E+01 -0.23493781170E+02  0.45045682092E+02  0.00000000000E+00 0. -1.
         11    1    3    3    0    0  0.11037518178E+01  0.71298967615E+00 -0.52032982733E+00  0.14132819053E+01  0.51100000000E-03 0. -1.
        -11    1    3    3    0    0  0.41121295538E+01  0.31340242551E+00  0.30639242657E+01  0.51376514785E+01  0.51100000000E-03 0.  1.
        -12    1    3    3    0    0  0.32431351854E+02 -0.87621242522E+01  0.20950186732E+02  0.39591384525E+02  0.00000000000E+00 0.  1.
</event>
<event>
 7    1  0.2097247E-008  0.4614232E+02  0.7816164E-02  0.1320468E+00
        -11   -1    0    0    0    0  0.00000000000E+00  0.00000000000E+00  0.45593999997E+02  0.45594000000E+02  0.51100000000E-03 0.  1.
         11   -1    0    0    0    0 -0.00000000000E+00 -0.00000000000E+00 -0.45593999997E+02  0.45594000000E+02  0.51100000000E-03 0. -1.
    9900012    2    1    2    0    0 -0.20781346895E+02  0.34008119214E+02  0.20992781476E+02  0.46142318461E+02  0.10000006378E+02 0.  0.
         12    1    1    2    0    0  0.20781346895E+02 -0.34008119214E+02 -0.20992781476E+02  0.45045681539E+02  0.00000000000E+00 0. -1.
         11    1    3    3    0    0 -0.83006212975E+01  0.13456756134E+02  0.10186003434E+02  0.18807957513E+02  0.51100000000E-03 0. -1.
        -11    1    3    3    0    0 -0.16999424923E+01  0.18287518151E+01 -0.10284689916E+01  0.27003493119E+01  0.51100000000E-03 0.  1.
        -12    1    3    3    0    0 -0.10780783105E+02  0.18722611265E+02  0.11835247033E+02  0.24634011636E+02  0.00000000000E+00 0.  1.
</event>
<event>
 7    1  0.2097247E-008  0.4614231E+02  0.7816164E-02  0.1320468E+00
        -11   -1    0    0    0    0  0.00000000000E+00  0.00000000000E+00  0.45593999997E+02  0.45594000000E+02  0.51100000000E-03 0.  1.
         11   -1    0    0    0    0 -0.00000000000E+00 -0.00000000000E+00 -0.45593999997E+02  0.45594000000E+02  0.51100000000E-03 0. -1.
    9900012    2    1    2    0    0  0.17046834272E+02  0.18088792718E+02  0.37567479882E+02  0.46142306250E+02  0.99998950349E+01 0.  0.
         12    1    1    2    0    0 -0.17046834272E+02 -0.18088792718E+02 -0.37567479882E+02  0.45045693750E+02  0.00000000000E+00 0. -1.
         11    1    3    3    0    0  0.26347829775E+01  0.63146225716E+01  0.10052078849E+02  0.12159803823E+02  0.51100000000E-03 0. -1.
        -11    1    3    3    0    0  0.38252941058E+01  0.72961536618E+01  0.91097884963E+01  0.12282303528E+02  0.51100000000E-03 0.  1.
         12    1    3    3    0    0  0.10586757189E+02  0.44780164847E+01  0.18405612537E+02  0.21700198899E+02  0.00000000000E+00 0. -1.
</event>
<event>
 7    1  0.2097247E-008  0.4614232E+02  0.7816164E-02  0.1320468E+00
        -11   -1    0    0    0    0  0.00000000000E+00  0.00000000000E+00  0.45593999997E+02  0.45594000000E+02  0.51100000000E-03 0.  1.
         11   -1    0    0    0    0 -0.00000000000E+00 -0.00000000000E+00 -0.45593999997E+02  0.45594000000E+02  0.51100000000E-03 0. -1.
    9900012    2    1    2    0    0 -0.24596709408E+02 -0.36198285077E+02  0.10667686482E+02  0.46142317731E+02  0.99999997236E+01 0.  0.
         12    1    1    2    0    0  0.24596709408E+02  0.36198285077E+02 -0.10667686482E+02  0.45045682269E+02  0.00000000000E+00 0. -1.
         11    1    3    3    0    0 -0.47000011223E+01 -0.93469881211E+01  0.44758201758E+01  0.11379330560E+02  0.51100000000E-03 0. -1.
        -11    1    3    3    0    0 -0.10733957096E+02 -0.14892315791E+02  0.70697170779E+01  0.19671802266E+02  0.51100000000E-03 0.  1.
         12    1    3    3    0    0 -0.91627511891E+01 -0.11958981165E+02 -0.87785077147E+00  0.15091184905E+02  0.00000000000E+00 0. -1.
</event>
<event>
 7    1  0.2097247E-008  0.4614232E+02  0.7816164E-02  0.1320468E+00
        -11   -1    0    0    0    0  0.00000000000E+00  0.00000000000E+00  0.45593999997E+02  0.45594000000E+02  0.51100000000E-03 0.  1.
         11   -1    0    0    0    0 -0.00000000000E+00 -0.00000000000E+00 -0.45593999997E+02  0.45594000000E+02  0.51100000000E-03 0. -1.
    9900012    2    1    2    0    0  0.24866384158E+02  0.35346280466E+02  0.12704992280E+02  0.46142318379E+02  0.10000005636E+02 0.  0.
         12    1    1    2    0    0 -0.24866384158E+02 -0.35346280466E+02 -0.12704992280E+02  0.45045681621E+02  0.00000000000E+00 0. -1.
         11    1    3    3    0    0  0.71047817152E+01  0.65283350908E+01  0.95834745580E+00  0.96961596721E+01  0.51100000000E-03 0. -1.
        -11    1    3    3    0    0  0.56626991404E+01  0.44939278854E+01  0.36498497240E+01  0.80983302392E+01  0.51100000000E-03 0.  1.
         12    1    3    3    0    0  0.12098903302E+02  0.24324017489E+02  0.80967951006E+01  0.28347828468E+02  0.00000000000E+00 0. -1.
</event>
<event>
 7    1  0.2097247E-008  0.4614232E+02  0.7816164E-02  0.1320468E+00
        -11   -1    0    0    0    0  0.00000000000E+00  0.00000000000E+00  0.45593999997E+02  0.45594000000E+02  0.51100000000E-03 0.  1.
         11   -1    0    0    0    0 -0.00000000000E+00 -0.00000000000E+00 -0.45593999997E+02  0.45594000000E+02  0.51100000000E-03 0. -1.
    9900012    2    1    2    0    0 -0.68871330228E+01  0.30660320923E+01  0.44410363936E+02  0.46142316756E+02  0.99999908308E+01 0.  0.
         12    1    1    2    0    0  0.68871330228E+01 -0.30660320923E+01 -0.44410363936E+02  0.45045683244E+02  0.00000000000E+00 0. -1.
         11    1    3    3    0    0 -0.26419759596E+01  0.12198752232E+01  0.32421764515E+02  0.32552095894E+02  0.51100000000E-03 0. -1.
        -11    1    3    3    0    0 -0.49185958901E+01  0.96941460040E+00  0.11072209505E+02  0.12154265662E+02  0.51100000000E-03 0.  1.
         12    1    3    3    0    0  0.67343882688E+00  0.87674226871E+00  0.91638991543E+00  0.14359552000E+01  0.00000000000E+00 0. -1.
</event>
<event>
 7    1  0.2097247E-008  0.4614232E+02  0.7816164E-02  0.1320468E+00
        -11   -1    0    0    0    0  0.00000000000E+00  0.00000000000E+00  0.45593999997E+02  0.45594000000E+02  0.51100000000E-03 0. -1.
         11   -1    0    0    0    0 -0.00000000000E+00 -0.00000000000E+00 -0.45593999997E+02  0.45594000000E+02  0.51100000000E-03 0.  1.
    9900012    2    1    2    0    0  0.11959236809E+02 -0.32949237351E+02 -0.28292010407E+02  0.46142318298E+02  0.10000004899E+02 0.  0.
         12    1    1    2    0    0 -0.11959236809E+02  0.32949237351E+02  0.28292010407E+02  0.45045681702E+02  0.00000000000E+00 0. -1.
         11    1    3    3    0    0  0.52070900703E+00 -0.52422438346E+01 -0.28719974187E+01  0.60000523102E+01  0.51100000000E-03 0. -1.
        -11    1    3    3    0    0 -0.13017617330E+01 -0.22116571426E+01 -0.21551265696E+01  0.33512060094E+01  0.51100000000E-03 0.  1.
        -12    1    3    3    0    0  0.12740289535E+02 -0.25495336374E+02 -0.23264886419E+02  0.36791059979E+02  0.00000000000E+00 0.  1.
</event>
<event>
 7    1  0.2097247E-008  0.4614232E+02  0.7816164E-02  0.1320468E+00
        -11   -1    0    0    0    0  0.00000000000E+00  0.00000000000E+00  0.45593999997E+02  0.45594000000E+02  0.51100000000E-03 0. -1.
         11   -1    0    0    0    0 -0.00000000000E+00 -0.00000000000E+00 -0.45593999997E+02  0.45594000000E+02  0.51100000000E-03 0.  1.
    9900012    2    1    2    0    0  0.19203805260E+02 -0.40746460503E+02 -0.23096096702E+00  0.46142317377E+02  0.99999965010E+01 0.  0.
         12    1    1    2    0    0 -0.19203805260E+02  0.40746460503E+02  0.23096096702E+00  0.45045682623E+02  0.00000000000E+00 0. -1.
         11    1    3    3    0    0  0.99822801051E+01 -0.23950224577E+02 -0.28268762111E+00  0.25948778120E+02  0.51100000000E-03 0. -1.
        -11    1    3    3    0    0  0.95273156804E+01 -0.14347012263E+02  0.15733135453E+01  0.17293982211E+02  0.51100000000E-03 0.  1.
         12    1    3    3    0    0 -0.30579052526E+00 -0.24492236632E+01 -0.15215868912E+01  0.28995570464E+01  0.00000000000E+00 0. -1.
</event>
<event>
 7    1  0.2097247E-008  0.4614232E+02  0.7816164E-02  0.1320468E+00
        -11   -1    0    0    0    0  0.00000000000E+00  0.00000000000E+00  0.45593999997E+02  0.45594000000E+02  0.51100000000E-03 0. -1.
         11   -1    0    0    0    0 -0.00000000000E+00 -0.00000000000E+00 -0.45593999997E+02  0.45594000000E+02  0.51100000000E-03 0.  1.
    9900012    2    1    2    0    0  0.37928694919E+02 -0.24296414433E+02  0.46032092536E+00  0.46142317100E+02  0.99999939756E+01 0.  0.
         12    1    1    2    0    0 -0.37928694919E+02  0.24296414433E+02 -0.46032092536E+00  0.45045682900E+02  0.00000000000E+00 0. -1.
         11    1    3    3    0    0  0.12980281890E+02 -0.35039782016E+01 -0.90477478536E-01  0.13445213558E+02  0.51100000000E-03 0. -1.
        -11    1    3    3    0    0  0.10542824637E+02 -0.64492114389E+01  0.48534542690E+00  0.12368469588E+02  0.51100000000E-03 0.  1.
         12    1    3    3    0    0  0.14405588391E+02 -0.14343224792E+02  0.65452976991E-01  0.20328633954E+02  0.00000000000E+00 0. -1.
</event>
<event>
 7    1  0.2097247E-008  0.4614232E+02  0.7816164E-02  0.1320468E+00
        -11   -1    0    0    0    0  0.00000000000E+00  0.00000000000E+00  0.45593999997E+02  0.45594000000E+02  0.51100000000E-03 0.  1.
         11   -1    0    0    0    0 -0.00000000000E+00 -0.00000000000E+00 -0.45593999997E+02  0.45594000000E+02  0.51100000000E-03 0. -1.
    9900012    2    1    2    0    0 -0.30669871206E+02 -0.25534833643E+02  0.20891261539E+02  0.46142317214E+02  0.99999950115E+01 0.  0.
         12    1    1    2    0    0  0.30669871206E+02  0.25534833643E+02 -0.20891261539E+02  0.45045682786E+02  0.00000000000E+00 0. -1.
         11    1    3    3    0    0 -0.10762562474E+02 -0.11763182576E+02  0.40783276917E+01  0.16457155658E+02  0.51100000000E-03 0. -1.
        -11    1    3    3    0    0 -0.30101684545E+01 -0.26819170337E+01  0.43940908281E+01  0.59633738409E+01  0.51100000000E-03 0.  1.
        -12    1    3    3    0    0 -0.16897140277E+02 -0.11089734034E+02  0.12418843019E+02  0.23721787715E+02  0.00000000000E+00 0.  1.
</event>
<event>
 7    1  0.2097247E-008  0.4614232E+02  0.7816164E-02  0.1320468E+00
        -11   -1    0    0    0    0  0.00000000000E+00  0.00000000000E+00  0.45593999997E+02  0.45594000000E+02  0.51100000000E-03 0.  1.
         11   -1    0    0    0    0 -0.00000000000E+00 -0.00000000000E+00 -0.45593999997E+02  0.45594000000E+02  0.51100000000E-03 0. -1.
    9900012    2    1    2    0    0 -0.26370845555E+02 -0.24969145889E+02  0.26650211601E+02  0.46142317409E+02  0.99999967927E+01 0.  0.
         12    1    1    2    0    0  0.26370845555E+02  0.24969145889E+02 -0.26650211601E+02  0.45045682591E+02  0.00000000000E+00 0. -1.
         11    1    3    3    0    0 -0.15336442093E+01 -0.98889888017E+00  0.29951552496E+01  0.35072697054E+01  0.51100000000E-03 0. -1.
        -11    1    3    3    0    0 -0.71737646263E+01 -0.10939320933E+02  0.56885888884E+01  0.14265051181E+02  0.51100000000E-03 0.  1.
        -12    1    3    3    0    0 -0.17663436719E+02 -0.13040926076E+02  0.17966467463E+02  0.28369996523E+02  0.00000000000E+00 0.  1.
</event>
<event>
 7    1  0.2097247E-008  0.4614232E+02  0.7816164E-02  0.1320468E+00
        -11   -1    0    0    0    0  0.00000000000E+00  0.00000000000E+00  0.45593999997E+02  0.45594000000E+02  0.51100000000E-03 0.  1.
         11   -1    0    0    0    0 -0.00000000000E+00 -0.00000000000E+00 -0.45593999997E+02  0.45594000000E+02  0.51100000000E-03 0. -1.
    9900012    2    1    2    0    0 -0.11927715079E+02  0.38330950485E+02  0.20434809866E+02  0.46142316452E+02  0.99999880607E+01 0.  0.
         12    1    1    2    0    0  0.11927715079E+02 -0.38330950485E+02 -0.20434809866E+02  0.45045683548E+02  0.00000000000E+00 0. -1.
         11    1    3    3    0    0 -0.99269715717E+01  0.28536791525E+02  0.13784670208E+02  0.33210094371E+02  0.51100000000E-03 0. -1.
        -11    1    3    3    0    0  0.12614765846E+00  0.84529238310E+01  0.42748411327E+01  0.94732307845E+01  0.51100000000E-03 0.  1.
         12    1    3    3    0    0 -0.21268911660E+01  0.13412351283E+01  0.23752985258E+01  0.34589912963E+01  0.00000000000E+00 0. -1.
</event>
<event>
 7    1  0.2097247E-008  0.4614232E+02  0.7816164E-02  0.1320468E+00
        -11   -1    0    0    0    0  0.00000000000E+00  0.00000000000E+00  0.45593999997E+02  0.45594000000E+02  0.51100000000E-03 0.  1.
         11   -1    0    0    0    0 -0.00000000000E+00 -0.00000000000E+00 -0.45593999997E+02  0.45594000000E+02  0.51100000000E-03 0. -1.
    9900012    2    1    2    0    0  0.10811918115E+02 -0.31937206383E+01  0.43612108976E+02  0.46142317919E+02  0.10000001438E+02 0.  0.
         12    1    1    2    0    0 -0.10811918115E+02  0.31937206383E+01 -0.43612108976E+02  0.45045682081E+02  0.00000000000E+00 0. -1.
         11    1    3    3    0    0 -0.26620092767E+00 -0.23331092338E+01  0.13703353870E+02  0.13903099265E+02  0.51100000000E-03 0. -1.
        -11    1    3    3    0    0  0.28886692536E+01  0.71380313307E+00  0.13603112896E+02  0.13924747958E+02  0.51100000000E-03 0.  1.
        -12    1    3    3    0    0  0.81894497892E+01 -0.15744145375E+01  0.16305642210E+02  0.18314470696E+02  0.00000000000E+00 0.  1.
</event>
<event>
 7    1  0.2097247E-008  0.4614232E+02  0.7816164E-02  0.1320468E+00
        -11   -1    0    0    0    0  0.00000000000E+00  0.00000000000E+00  0.45593999997E+02  0.45594000000E+02  0.51100000000E-03 0.  1.
         11   -1    0    0    0    0 -0.00000000000E+00 -0.00000000000E+00 -0.45593999997E+02  0.45594000000E+02  0.51100000000E-03 0. -1.
    9900012    2    1    2    0    0  0.28113915257E+02 -0.29983315682E+02  0.18431551349E+02  0.46142317238E+02  0.99999952318E+01 0.  0.
         12    1    1    2    0    0 -0.28113915257E+02  0.29983315682E+02 -0.18431551349E+02  0.45045682762E+02  0.00000000000E+00 0. -1.
         11    1    3    3    0    0  0.10317109566E+02 -0.63553024106E+01  0.60970318830E+01  0.13564896482E+02  0.51100000000E-03 0. -1.
        -11    1    3    3    0    0  0.99926514942E+01 -0.86158769556E+01  0.62218996638E+01  0.14587613077E+02  0.51100000000E-03 0.  1.
         12    1    3    3    0    0  0.78041541967E+01 -0.15012136316E+02  0.61126198025E+01  0.17989807679E+02  0.00000000000E+00 0. -1.
</event>
<event>
 7    1  0.2097247E-008  0.4614232E+02  0.7816164E-02  0.1320468E+00
        -11   -1    0    0    0    0  0.00000000000E+00  0.00000000000E+00  0.45593999997E+02  0.45594000000E+02  0.51100000000E-03 0. -1.
         11   -1    0    0    0    0 -0.00000000000E+00 -0.00000000000E+00 -0.45593999997E+02  0.45594000000E+02  0.51100000000E-03 0.  1.
    9900012    2    1    2    0    0  0.16158118243E+01  0.13304928325E+02 -0.43005599032E+02  0.46142317480E+02  0.99999974405E+01 0.  0.
         12    1    1    2    0    0 -0.16158118243E+01 -0.13304928325E+02  0.43005599032E+02  0.45045682520E+02  0.00000000000E+00 0. -1.
         11    1    3    3    0    0  0.26574735567E+01  0.92945340708E+01 -0.25909246098E+02  0.27653924910E+02  0.51100000000E-03 0.  1.
        -11    1    3    3    0    0 -0.18396481337E+01  0.41783620397E+01 -0.69877813316E+01  0.83469816575E+01  0.51100000000E-03 0. -1.
         12    1    3    3    0    0  0.79798640132E+00 -0.16796778550E+00 -0.10108571602E+02  0.10141410913E+02  0.00000000000E+00 0. -1.
</event>
<event>
 7    1  0.2097247E-008  0.4614232E+02  0.7816164E-02  0.1320468E+00
        -11   -1    0    0    0    0  0.00000000000E+00  0.00000000000E+00  0.45593999997E+02  0.45594000000E+02  0.51100000000E-03 0. -1.
         11   -1    0    0    0    0 -0.00000000000E+00 -0.00000000000E+00 -0.45593999997E+02  0.45594000000E+02  0.51100000000E-03 0.  1.
    9900012    2    1    2    0    0 -0.91093426450E+01 -0.43535806935E+02  0.71250853166E+01  0.46142318191E+02  0.10000003920E+02 0.  0.
         12    1    1    2    0    0  0.91093426450E+01  0.43535806935E+02 -0.71250853166E+01  0.45045681809E+02  0.00000000000E+00 0. -1.
         11    1    3    3    0    0 -0.61707990477E+01 -0.25317891526E+02 -0.65842157702E-01  0.26059139043E+02  0.51100000000E-03 0. -1.
        -11    1    3    3    0    0 -0.24789787059E+01 -0.62361556188E+01  0.18807226247E+01  0.69693679899E+01  0.51100000000E-03 0.  1.
         12    1    3    3    0    0 -0.45956489138E+00 -0.11981759790E+02  0.53102048496E+01  0.13113811158E+02  0.00000000000E+00 0. -1.
</event>
<event>
 7    1  0.2097247E-008  0.4614232E+02  0.7816164E-02  0.1320468E+00
        -11   -1    0    0    0    0  0.00000000000E+00  0.00000000000E+00  0.45593999997E+02  0.45594000000E+02  0.51100000000E-03 0.  1.
         11   -1    0    0    0    0 -0.00000000000E+00 -0.00000000000E+00 -0.45593999997E+02  0.45594000000E+02  0.51100000000E-03 0. -1.
    9900012    2    1    2    0    0  0.14298889501E+01  0.42365487624E+02  0.15239237107E+02  0.46142317947E+02  0.10000001691E+02 0.  0.
         12    1    1    2    0    0 -0.14298889501E+01 -0.42365487624E+02 -0.15239237107E+02  0.45045682053E+02  0.00000000000E+00 0. -1.
         11    1    3    3    0    0  0.11851556962E+01  0.14901284830E+02  0.24317582833E+01  0.15144845071E+02  0.51100000000E-03 0. -1.
        -11    1    3    3    0    0 -0.71237857958E+00  0.67786314631E+01  0.63257237467E+01  0.92990380650E+01  0.51100000000E-03 0.  1.
        -12    1    3    3    0    0  0.95711183351E+00  0.20685571331E+02  0.64817550769E+01  0.21698434811E+02  0.00000000000E+00 0.  1.
</event>
<event>
 7    1  0.2097247E-008  0.4614232E+02  0.7816164E-02  0.1320468E+00
        -11   -1    0    0    0    0  0.00000000000E+00  0.00000000000E+00  0.45593999997E+02  0.45594000000E+02  0.51100000000E-03 0.  1.
         11   -1    0    0    0    0 -0.00000000000E+00 -0.00000000000E+00 -0.45593999997E+02  0.45594000000E+02  0.51100000000E-03 0. -1.
    9900012    2    1    2    0    0  0.12555112682E+01 -0.44453432730E+02 -0.71714296351E+01  0.46142318819E+02  0.10000009645E+02 0.  0.
         12    1    1    2    0    0 -0.12555112682E+01  0.44453432730E+02  0.71714296351E+01  0.45045681181E+02  0.00000000000E+00 0. -1.
         11    1    3    3    0    0 -0.19383412385E+01 -0.65317820470E+01  0.40405380416E+00  0.68252914373E+01  0.51100000000E-03 0. -1.
        -11    1    3    3    0    0 -0.15448200589E+01 -0.17467777105E+02 -0.24646186840E+01  0.17708304592E+02  0.51100000000E-03 0.  1.
         12    1    3    3    0    0  0.47386725655E+01 -0.20453873578E+02 -0.51108647552E+01  0.21608722789E+02  0.00000000000E+00 0. -1.
</event>
<event>
 7    1  0.2097247E-008  0.4614232E+02  0.7816164E-02  0.1320468E+00
        -11   -1    0    0    0    0  0.00000000000E+00  0.00000000000E+00  0.45593999997E+02  0.45594000000E+02  0.51100000000E-03 0. -1.
         11   -1    0    0    0    0 -0.00000000000E+00 -0.00000000000E+00 -0.45593999997E+02  0.45594000000E+02  0.51100000000E-03 0.  1.
    9900012    2    1    2    0    0 -0.40116573936E+02  0.19076246459E+02 -0.74746821754E+01  0.46142317000E+02  0.99999930614E+01 0.  0.
         12    1    1    2    0    0  0.40116573936E+02 -0.19076246459E+02  0.74746821754E+01  0.45045683000E+02  0.00000000000E+00 0. -1.
         11    1    3    3    0    0  0.14555420654E+00 -0.67286263018E-02  0.18535241099E+00  0.23576912188E+00  0.51100000000E-03 0. -1.
        -11    1    3    3    0    0 -0.65645338339E+01  0.23462726757E+01 -0.41622298910E+01  0.81192522963E+01  0.51100000000E-03 0.  1.
         12    1    3    3    0    0 -0.33697594308E+02  0.16736702409E+02 -0.34978046954E+01  0.37787295582E+02  0.00000000000E+00 0. -1.
</event>
<event>
 7    1  0.2097247E-008  0.4614232E+02  0.7816164E-02  0.1320468E+00
        -11   -1    0    0    0    0  0.00000000000E+00  0.00000000000E+00  0.45593999997E+02  0.45594000000E+02  0.51100000000E-03 0.  1.
         11   -1    0    0    0    0 -0.00000000000E+00 -0.00000000000E+00 -0.45593999997E+02  0.45594000000E+02  0.51100000000E-03 0. -1.
    9900012    2    1    2    0    0 -0.41961107286E+02 -0.16162066544E+02 -0.26770341766E+01  0.46142318391E+02  0.10000005743E+02 0.  0.
         12    1    1    2    0    0  0.41961107286E+02  0.16162066544E+02  0.26770341766E+01  0.45045681609E+02  0.00000000000E+00 0. -1.
         11    1    3    3    0    0 -0.18727588789E+02 -0.40316972742E+01 -0.17934998247E+01  0.19240421166E+02  0.51100000000E-03 0. -1.
        -11    1    3    3    0    0 -0.72575208168E+01 -0.94440585858E+00  0.59691488260E+00  0.73430115396E+01  0.51100000000E-03 0.  1.
         12    1    3    3    0    0 -0.15975997680E+02 -0.11185963411E+02 -0.14804492345E+01  0.19558885685E+02  0.00000000000E+00 0. -1.
</event>
<event>
 7    1  0.2097247E-008  0.4614232E+02  0.7816164E-02  0.1320468E+00
        -11   -1    0    0    0    0  0.00000000000E+00  0.00000000000E+00  0.45593999997E+02  0.45594000000E+02  0.51100000000E-03 0.  1.
         11   -1    0    0    0    0 -0.00000000000E+00 -0.00000000000E+00 -0.45593999997E+02  0.45594000000E+02  0.51100000000E-03 0. -1.
    9900012    2    1    2    0    0  0.29389630970E+02 -0.10187178742E+02  0.32581964242E+02  0.46142318596E+02  0.10000007613E+02 0.  0.
         12    1    1    2    0    0 -0.29389630970E+02  0.10187178742E+02 -0.32581964242E+02  0.45045681404E+02  0.00000000000E+00 0. -1.
         11    1    3    3    0    0  0.13000561295E+01 -0.74547307508E+00 -0.30918155920E+00  0.15301861139E+01  0.51100000000E-03 0. -1.
        -11    1    3    3    0    0  0.53223294168E+01 -0.35370682938E+01  0.94278411070E+01  0.11389566749E+02  0.51100000000E-03 0.  1.
        -12    1    3    3    0    0  0.22767245423E+02 -0.59046373731E+01  0.23463304695E+02  0.33222565733E+02  0.00000000000E+00 0.  1.
</event>
<event>
 7    1  0.2097247E-008  0.4614231E+02  0.7816164E-02  0.1320468E+00
        -11   -1    0    0    0    0  0.00000000000E+00  0.00000000000E+00  0.45593999997E+02  0.45594000000E+02  0.51100000000E-03 0. -1.
         11   -1    0    0    0    0 -0.00000000000E+00 -0.00000000000E+00 -0.45593999997E+02  0.45594000000E+02  0.51100000000E-03 0.  1.
    9900012    2    1    2    0    0 -0.34416870364E+02 -0.28395367109E+02 -0.61883761369E+01  0.46142313879E+02  0.99999645956E+01 0.  0.
         12    1    1    2    0    0  0.34416870364E+02  0.28395367109E+02  0.61883761369E+01  0.45045686121E+02  0.00000000000E+00 0. -1.
         11    1    3    3    0    0 -0.14132721018E+02 -0.14789563423E+02 -0.40070724943E+01  0.20845182174E+02  0.51100000000E-03 0. -1.
        -11    1    3    3    0    0 -0.17296963822E+02 -0.13358959297E+02 -0.50092302107E+00  0.21860870868E+02  0.51100000000E-03 0.  1.
         12    1    3    3    0    0 -0.29871855236E+01 -0.24684438911E+00 -0.16803806215E+01  0.34362608367E+01  0.00000000000E+00 0. -1.
</event>
<event>
 7    1  0.2097247E-008  0.4614232E+02  0.7816164E-02  0.1320468E+00
        -11   -1    0    0    0    0  0.00000000000E+00  0.00000000000E+00  0.45593999997E+02  0.45594000000E+02  0.51100000000E-03 0.  1.
         11   -1    0    0    0    0 -0.00000000000E+00 -0.00000000000E+00 -0.45593999997E+02  0.45594000000E+02  0.51100000000E-03 0. -1.
    9900012    2    1    2    0    0  0.25312466058E+02 -0.20219848098E+01  0.37206234762E+02  0.46142320233E+02  0.10000022537E+02 0.  0.
         12    1    1    2    0    0 -0.25312466058E+02  0.20219848098E+01 -0.37206234762E+02  0.45045679767E+02  0.00000000000E+00 0. -1.
         11    1    3    3    0    0  0.25930787910E+01 -0.16580885864E+01  0.21706632908E+01  0.37663104970E+01  0.51100000000E-03 0.  1.
        -11    1    3    3    0    0  0.11647205789E+02  0.10725044453E+01  0.23892359261E+02  0.26601738662E+02  0.51100000000E-03 0. -1.
        -12    1    3    3    0    0  0.11072181478E+02 -0.14364006687E+01  0.11143212210E+02  0.15774271074E+02  0.00000000000E+00 0.  1.
</event>
<event>
 7    1  0.2097247E-008  0.4614232E+02  0.7816164E-02  0.1320468E+00
        -11   -1    0    0    0    0  0.00000000000E+00  0.00000000000E+00  0.45593999997E+02  0.45594000000E+02  0.51100000000E-03 0.  1.
         11   -1    0    0    0    0 -0.00000000000E+00 -0.00000000000E+00 -0.45593999997E+02  0.45594000000E+02  0.51100000000E-03 0. -1.
    9900012    2    1    2    0    0  0.44456312275E+02  0.64739664492E+01 -0.32920389598E+01  0.46142318041E+02  0.10000002548E+02 0.  0.
         12    1    1    2    0    0 -0.44456312275E+02 -0.64739664492E+01  0.32920389598E+01  0.45045681959E+02  0.00000000000E+00 0. -1.
         11    1    3    3    0    0  0.89414438525E+00  0.10438109162E+01  0.82135118792E+00  0.16011412947E+01  0.51100000000E-03 0. -1.
        -11    1    3    3    0    0  0.19101714365E+02 -0.27435229032E+00 -0.34689125501E+01  0.19416078786E+02  0.51100000000E-03 0.  1.
        -12    1    3    3    0    0  0.24460453525E+02  0.57045078233E+01 -0.64447759767E+00  0.25125097960E+02  0.00000000000E+00 0.  1.
</event>
<event>
 7    1  0.2097247E-008  0.4614232E+02  0.7816164E-02  0.1320468E+00
        -11   -1    0    0    0    0  0.00000000000E+00  0.00000000000E+00  0.45593999997E+02  0.45594000000E+02  0.51100000000E-03 0.  1.
         11   -1    0    0    0    0 -0.00000000000E+00 -0.00000000000E+00 -0.45593999997E+02  0.45594000000E+02  0.51100000000E-03 0. -1.
    9900012    2    1    2    0    0 -0.37675881625E+02 -0.80654275489E+00  0.24677733897E+02  0.46142321875E+02  0.10000037517E+02 0.  0.
         12    1    1    2    0    0  0.37675881625E+02  0.80654275489E+00 -0.24677733897E+02  0.45045678125E+02  0.00000000000E+00 0. -1.
         11    1    3    3    0    0 -0.13109468837E+02 -0.38647341982E+01  0.60265565546E+01  0.14936991925E+02  0.51100000000E-03 0. -1.
        -11    1    3    3    0    0 -0.71917117684E+01 -0.35540349435E+00  0.67576651704E+01  0.98748705622E+01  0.51100000000E-03 0.  1.
        -12    1    3    3    0    0 -0.17374701020E+02  0.34135949376E+01  0.11893512172E+02  0.21330459388E+02  0.00000000000E+00 0.  1.
</event>
<event>
 7    1  0.2097247E-008  0.4614232E+02  0.7816164E-02  0.1320468E+00
        -11   -1    0    0    0    0  0.00000000000E+00  0.00000000000E+00  0.45593999997E+02  0.45594000000E+02  0.51100000000E-03 0.  1.
         11   -1    0    0    0    0 -0.00000000000E+00 -0.00000000000E+00 -0.45593999997E+02  0.45594000000E+02  0.51100000000E-03 0. -1.
    9900012    2    1    2    0    0  0.38471139475E+02  0.19251820316E+01  0.23353342329E+02  0.46142317673E+02  0.99999991934E+01 0.  0.
         12    1    1    2    0    0 -0.38471139475E+02 -0.19251820316E+01 -0.23353342329E+02  0.45045682327E+02  0.00000000000E+00 0. -1.
         11    1    3    3    0    0  0.21591449142E+01  0.13869384900E+01  0.27473228177E+01  0.37594265602E+01  0.51100000000E-03 0. -1.
        -11    1    3    3    0    0  0.91699125672E+01 -0.67245837167E+00  0.89094232616E+01  0.12803019951E+02  0.51100000000E-03 0.  1.
         12    1    3    3    0    0  0.27142081994E+02  0.12107019132E+01  0.11696596250E+02  0.29579871161E+02  0.00000000000E+00 0. -1.
</event>
<event>
 7    1  0.2097247E-008  0.4614231E+02  0.7816164E-02  0.1320468E+00
        -11   -1    0    0    0    0  0.00000000000E+00  0.00000000000E+00  0.45593999997E+02  0.45594000000E+02  0.51100000000E-03 0.  1.
         11   -1    0    0    0    0 -0.00000000000E+00 -0.00000000000E+00 -0.45593999997E+02  0.45594000000E+02  0.51100000000E-03 0. -1.
    9900012    2    1    2    0    0 -0.19095641695E+02  0.11630273271E+02  0.39105076069E+02  0.46142314719E+02  0.99999722569E+01 0.  0.
         12    1    1    2    0    0  0.19095641695E+02 -0.11630273271E+02 -0.39105076069E+02  0.45045685281E+02  0.00000000000E+00 0. -1.
         11    1    3    3    0    0 -0.24870782615E+01 -0.58525155472E+00  0.18261671371E+01  0.31405356764E+01  0.51100000000E-03 0. -1.
        -11    1    3    3    0    0 -0.33863367318E+01  0.42216206097E+01  0.57844987028E+01  0.79214760327E+01  0.51100000000E-03 0.  1.
        -12    1    3    3    0    0 -0.13222226702E+02  0.79939042160E+01  0.31494410229E+02  0.35080303010E+02  0.00000000000E+00 0.  1.
</event>
<event>
 7    1  0.2133863E-008  0.4614232E+02  0.7816164E-02  0.1320468E+00
        -11   -1    0    0    0    0  0.00000000000E+00  0.00000000000E+00  0.45593999997E+02  0.45594000000E+02  0.51100000000E-03 0.  1.
         11   -1    0    0    0    0 -0.00000000000E+00 -0.00000000000E+00 -0.45593999997E+02  0.45594000000E+02  0.51100000000E-03 0. -1.
    9900012    2    1    2    0    0 -0.12772713597E+02  0.25501415157E+02  0.34866160783E+02  0.46142317018E+02  0.99999932211E+01 0.  0.
         12    1    1    2    0    0  0.12772713597E+02 -0.25501415157E+02 -0.34866160783E+02  0.45045682982E+02  0.00000000000E+00 0. -1.
         11    1    3    3    0    0 -0.74191363961E+00 -0.10177518601E+00  0.91370240607E-01  0.75441554803E+00  0.51100000000E-03 0. -1.
        -11    1    3    3    0    0 -0.56679123468E+01  0.54907888578E+01  0.73101142698E+01  0.10756940250E+02  0.51100000000E-03 0.  1.
        -12    1    3    3    0    0 -0.63628876103E+01  0.20112401485E+02  0.27464676272E+02  0.34630961219E+02  0.00000000000E+00 0.  1.
</event>
<event>
 7    1  0.2097247E-008  0.4614232E+02  0.7816164E-02  0.1320468E+00
        -11   -1    0    0    0    0  0.00000000000E+00  0.00000000000E+00  0.45593999997E+02  0.45594000000E+02  0.51100000000E-03 0. -1.
         11   -1    0    0    0    0 -0.00000000000E+00 -0.00000000000E+00 -0.45593999997E+02  0.45594000000E+02  0.51100000000E-03 0.  1.
    9900012    2    1    2    0    0 -0.12662590677E+02  0.24663898176E+02 -0.35503019044E+02  0.46142318330E+02  0.10000005185E+02 0.  0.
         12    1    1    2    0    0  0.12662590677E+02 -0.24663898176E+02  0.35503019044E+02  0.45045681670E+02  0.00000000000E+00 0. -1.
         11    1    3    3    0    0 -0.21525596875E-01  0.29578220304E+01 -0.14615069797E+01  0.32992692263E+01  0.51100000000E-03 0. -1.
        -11    1    3    3    0    0 -0.74295899529E+01  0.72393632814E+01 -0.16763718022E+02  0.19713686356E+02  0.51100000000E-03 0.  1.
        -12    1    3    3    0    0 -0.52114751276E+01  0.14466712864E+02 -0.17277794043E+02  0.23129362747E+02  0.00000000000E+00 0.  1.
</event>
<event>
 7    1  0.2097247E-008  0.4614232E+02  0.7816164E-02  0.1320468E+00
        -11   -1    0    0    0    0  0.00000000000E+00  0.00000000000E+00  0.45593999997E+02  0.45594000000E+02  0.51100000000E-03 0.  1.
         11   -1    0    0    0    0 -0.00000000000E+00 -0.00000000000E+00 -0.45593999997E+02  0.45594000000E+02  0.51100000000E-03 0. -1.
    9900012    2    1    2    0    0 -0.23961029519E+02 -0.24513574666E+02  0.29224429198E+02  0.46142317183E+02  0.99999947270E+01 0.  0.
         12    1    1    2    0    0  0.23961029519E+02  0.24513574666E+02 -0.29224429198E+02  0.45045682817E+02  0.00000000000E+00 0. -1.
         11    1    3    3    0    0 -0.74238244750E+00 -0.38268294049E+01  0.43853160522E+01  0.58674314765E+01  0.51100000000E-03 0.  1.
        -11    1    3    3    0    0 -0.10180550998E+02 -0.79428433082E+01  0.14083220801E+02  0.19106791642E+02  0.51100000000E-03 0. -1.
        -12    1    3    3    0    0 -0.13038096074E+02 -0.12743901953E+02  0.10755892345E+02  0.21168094065E+02  0.00000000000E+00 0.  1.
</event>
<event>
 7    1  0.2097247E-008  0.4614232E+02  0.7816164E-02  0.1320468E+00
        -11   -1    0    0    0    0  0.00000000000E+00  0.00000000000E+00  0.45593999997E+02  0.45594000000E+02  0.51100000000E-03 0.  1.
         11   -1    0    0    0    0 -0.00000000000E+00 -0.00000000000E+00 -0.45593999997E+02  0.45594000000E+02  0.51100000000E-03 0. -1.
    9900012    2    1    2    0    0 -0.45666931197E+01  0.66100369792E+01  0.44323427480E+02  0.46142317649E+02  0.99999989786E+01 0.  0.
         12    1    1    2    0    0  0.45666931197E+01 -0.66100369792E+01 -0.44323427480E+02  0.45045682351E+02  0.00000000000E+00 0. -1.
         11    1    3    3    0    0 -0.82446223421E+00  0.60804271948E+00  0.13123897191E+00  0.10328009746E+01  0.51100000000E-03 0. -1.
        -11    1    3    3    0    0  0.10060005484E+01  0.28047760765E+01  0.97595272547E+01  0.10204272558E+02  0.51100000000E-03 0.  1.
         12    1    3    3    0    0 -0.47482314339E+01  0.31972181832E+01  0.34432661253E+02  0.34905244116E+02  0.00000000000E+00 0. -1.
</event>
<event>
 7    1  0.2097247E-008  0.4614232E+02  0.7816164E-02  0.1320468E+00
        -11   -1    0    0    0    0  0.00000000000E+00  0.00000000000E+00  0.45593999997E+02  0.45594000000E+02  0.51100000000E-03 0. -1.
         11   -1    0    0    0    0 -0.00000000000E+00 -0.00000000000E+00 -0.45593999997E+02  0.45594000000E+02  0.51100000000E-03 0.  1.
    9900012    2    1    2    0    0 -0.35058437882E+02  0.25179405749E+02  0.12884756066E+02  0.46142317860E+02  0.10000000903E+02 0.  0.
         12    1    1    2    0    0  0.35058437882E+02 -0.25179405749E+02 -0.12884756066E+02  0.45045682140E+02  0.00000000000E+00 0. -1.
         11    1    3    3    0    0 -0.35579656211E+01  0.94931998681E+00 -0.72418624794E+00  0.37529686624E+01  0.51100000000E-03 0. -1.
        -11    1    3    3    0    0 -0.16471087446E+02  0.10558998078E+02  0.42543785795E+01  0.20022210153E+02  0.51100000000E-03 0.  1.
         12    1    3    3    0    0 -0.15029384815E+02  0.13671087684E+02  0.93545637346E+01  0.22367139045E+02  0.00000000000E+00 0. -1.
</event>
<event>
 7    1  0.2097247E-008  0.4614232E+02  0.7816164E-02  0.1320468E+00
        -11   -1    0    0    0    0  0.00000000000E+00  0.00000000000E+00  0.45593999997E+02  0.45594000000E+02  0.51100000000E-03 0.  1.
         11   -1    0    0    0    0 -0.00000000000E+00 -0.00000000000E+00 -0.45593999997E+02  0.45594000000E+02  0.51100000000E-03 0. -1.
    9900012    2    1    2    0    0  0.55120718198E+01  0.25950988681E+02  0.36404350067E+02  0.46142318152E+02  0.10000003567E+02 0.  0.
         12    1    1    2    0    0 -0.55120718198E+01 -0.25950988681E+02 -0.36404350067E+02  0.45045681848E+02  0.00000000000E+00 0. -1.
         11    1    3    3    0    0  0.31764817873E+01  0.11961534894E+02  0.11788805358E+02  0.17092228807E+02  0.51100000000E-03 0. -1.
        -11    1    3    3    0    0  0.13553587643E+01  0.11072871112E+02  0.13480215457E+02  0.17497476420E+02  0.51100000000E-03 0.  1.
         12    1    3    3    0    0  0.98023126814E+00  0.29165826757E+01  0.11135329252E+02  0.11552612925E+02  0.00000000000E+00 0. -1.
</event>
<event>
 7    1  0.2097247E-008  0.4614232E+02  0.7816164E-02  0.1320468E+00
        -11   -1    0    0    0    0  0.00000000000E+00  0.00000000000E+00  0.45593999997E+02  0.45594000000E+02  0.51100000000E-03 0.  1.
         11   -1    0    0    0    0 -0.00000000000E+00 -0.00000000000E+00 -0.45593999997E+02  0.45594000000E+02  0.51100000000E-03 0. -1.
    9900012    2    1    2    0    0 -0.23244981909E+02  0.34681138961E+02  0.16911620456E+02  0.46142317742E+02  0.99999998291E+01 0.  0.
         12    1    1    2    0    0  0.23244981909E+02 -0.34681138961E+02 -0.16911620456E+02  0.45045682258E+02  0.00000000000E+00 0. -1.
         11    1    3    3    0    0 -0.14326176553E+02  0.17703879694E+02  0.67750239549E+01  0.23760632161E+02  0.51100000000E-03 0. -1.
        -11    1    3    3    0    0 -0.88701395740E+01  0.13676424501E+02  0.67231577604E+01  0.17633060248E+02  0.51100000000E-03 0.  1.
        -12    1    3    3    0    0 -0.48665782063E-01  0.33008347663E+01  0.34134387410E+01  0.47486253328E+01  0.00000000000E+00 0.  1.
</event>
<event>
 7    1  0.2097247E-008  0.4614230E+02  0.7816164E-02  0.1320468E+00
        -11   -1    0    0    0    0  0.00000000000E+00  0.00000000000E+00  0.45593999997E+02  0.45594000000E+02  0.51100000000E-03 0. -1.
         11   -1    0    0    0    0 -0.00000000000E+00 -0.00000000000E+00 -0.45593999997E+02  0.45594000000E+02  0.51100000000E-03 0.  1.
    9900012    2    1    2    0    0 -0.33883955795E+02  0.20637203539E+02 -0.21333033570E+02  0.46142301520E+02  0.99998519023E+01 0.  0.
         12    1    1    2    0    0  0.33883955795E+02 -0.20637203539E+02  0.21333033570E+02  0.45045698480E+02  0.00000000000E+00 0. -1.
         11    1    3    3    0    0 -0.24745798088E+01  0.24178021546E+01 -0.10477832905E+01  0.36148530501E+01  0.51100000000E-03 0. -1.
        -11    1    3    3    0    0 -0.26961201700E+02  0.15786614077E+02 -0.13444965677E+02  0.34013095764E+02  0.51100000000E-03 0.  1.
        -12    1    3    3    0    0 -0.44481742860E+01  0.24327873071E+01 -0.68402846025E+01  0.85143527060E+01  0.00000000000E+00 0.  1.
</event>
<event>
 7    1  0.2097247E-008  0.4614232E+02  0.7816164E-02  0.1320468E+00
        -11   -1    0    0    0    0  0.00000000000E+00  0.00000000000E+00  0.45593999997E+02  0.45594000000E+02  0.51100000000E-03 0.  1.
         11   -1    0    0    0    0 -0.00000000000E+00 -0.00000000000E+00 -0.45593999997E+02  0.45594000000E+02  0.51100000000E-03 0. -1.
    9900012    2    1    2    0    0  0.34402244406E+02  0.23342505296E+02  0.17341470158E+02  0.46142316956E+02  0.99999926593E+01 0.  0.
         12    1    1    2    0    0 -0.34402244406E+02 -0.23342505296E+02 -0.17341470158E+02  0.45045683044E+02  0.00000000000E+00 0. -1.
         11    1    3    3    0    0  0.27190801963E+01  0.41007311647E+01 -0.31805547372E+00  0.49305732673E+01  0.51100000000E-03 0. -1.
        -11    1    3    3    0    0  0.16128366996E+01  0.19975655375E+01  0.13923869710E+01  0.29206595204E+01  0.51100000000E-03 0.  1.
        -12    1    3    3    0    0  0.30070327510E+02  0.17244208594E+02  0.16267138661E+02  0.38291084168E+02  0.00000000000E+00 0.  1.
</event>
<event>
 7    1  0.2097247E-008  0.4614232E+02  0.7816164E-02  0.1320468E+00
        -11   -1    0    0    0    0  0.00000000000E+00  0.00000000000E+00  0.45593999997E+02  0.45594000000E+02  0.51100000000E-03 0.  1.
         11   -1    0    0    0    0 -0.00000000000E+00 -0.00000000000E+00 -0.45593999997E+02  0.45594000000E+02  0.51100000000E-03 0. -1.
    9900012    2    1    2    0    0  0.36065467771E+01  0.21347625545E+02  0.39501710555E+02  0.46142318378E+02  0.10000005626E+02 0.  0.
         12    1    1    2    0    0 -0.36065467771E+01 -0.21347625545E+02 -0.39501710555E+02  0.45045681622E+02  0.00000000000E+00 0. -1.
         11    1    3    3    0    0 -0.22224958032E+01  0.22433167864E+01  0.73517737484E+01  0.80012833539E+01  0.51100000000E-03 0. -1.
        -11    1    3    3    0    0  0.17222538946E+01  0.27832892259E+01  0.85482128683E+01  0.91534037874E+01  0.51100000000E-03 0.  1.
        -12    1    3    3    0    0  0.41067886857E+01  0.16321019532E+02  0.23601723938E+02  0.28987631237E+02  0.00000000000E+00 0.  1.
</event>
<event>
 7    1  0.2097247E-008  0.4614232E+02  0.7816164E-02  0.1320468E+00
        -11   -1    0    0    0    0  0.00000000000E+00  0.00000000000E+00  0.45593999997E+02  0.45594000000E+02  0.51100000000E-03 0.  1.
         11   -1    0    0    0    0 -0.00000000000E+00 -0.00000000000E+00 -0.45593999997E+02  0.45594000000E+02  0.51100000000E-03 0. -1.
    9900012    2    1    2    0    0  0.29639227337E+02  0.27774112453E+02  0.19473787619E+02  0.46142317366E+02  0.99999964008E+01 0.  0.
         12    1    1    2    0    0 -0.29639227337E+02 -0.27774112453E+02 -0.19473787619E+02  0.45045682634E+02  0.00000000000E+00 0. -1.
         11    1    3    3    0    0  0.54677816479E+01  0.10419909651E+02  0.55520470260E+01  0.13011394227E+02  0.51100000000E-03 0. -1.
        -11    1    3    3    0    0  0.39167207139E+01  0.47595840227E+01  0.21089241716E+01  0.65147450174E+01  0.51100000000E-03 0.  1.
        -12    1    3    3    0    0  0.20254724975E+02  0.12594618779E+02  0.11812816421E+02  0.26616178122E+02  0.00000000000E+00 0.  1.
</event>
<event>
 7    1  0.2097247E-008  0.4614232E+02  0.7816164E-02  0.1320468E+00
        -11   -1    0    0    0    0  0.00000000000E+00  0.00000000000E+00  0.45593999997E+02  0.45594000000E+02  0.51100000000E-03 0.  1.
         11   -1    0    0    0    0 -0.00000000000E+00 -0.00000000000E+00 -0.45593999997E+02  0.45594000000E+02  0.51100000000E-03 0. -1.
    9900012    2    1    2    0    0  0.58189416988E+01  0.42453352160E+02  0.13891232671E+02  0.46142317219E+02  0.99999950577E+01 0.  0.
         12    1    1    2    0    0 -0.58189416988E+01 -0.42453352160E+02 -0.13891232671E+02  0.45045682781E+02  0.00000000000E+00 0. -1.
         11    1    3    3    0    0  0.95719270953E+00  0.25515336516E+01  0.32263674132E+01  0.42232675507E+01  0.51100000000E-03 0. -1.
        -11    1    3    3    0    0 -0.17994859816E-01  0.14896161365E+02  0.57765065311E+01  0.15976982669E+02  0.51100000000E-03 0.  1.
        -12    1    3    3    0    0  0.48797438491E+01  0.25005657143E+02  0.48883587264E+01  0.25942067000E+02  0.00000000000E+00 0.  1.
</event>
<event>
 7    1  0.2097247E-008  0.4614232E+02  0.7816164E-02  0.1320468E+00
        -11   -1    0    0    0    0  0.00000000000E+00  0.00000000000E+00  0.45593999997E+02  0.45594000000E+02  0.51100000000E-03 0.  1.
         11   -1    0    0    0    0 -0.00000000000E+00 -0.00000000000E+00 -0.45593999997E+02  0.45594000000E+02  0.51100000000E-03 0. -1.
    9900012    2    1    2    0    0  0.18426262511E+02 -0.39361725324E+02  0.11842337419E+02  0.46142317341E+02  0.99999961732E+01 0.  0.
         12    1    1    2    0    0 -0.18426262511E+02  0.39361725324E+02 -0.11842337419E+02  0.45045682659E+02  0.00000000000E+00 0. -1.
         11    1    3    3    0    0  0.28024371285E+00 -0.14832034715E+00 -0.20176891735E-01  0.31771501704E+00  0.51100000000E-03 0. -1.
        -11    1    3    3    0    0  0.18307753805E+02 -0.30994936500E+02  0.10449099657E+02  0.37483911508E+02  0.51100000000E-03 0.  1.
         12    1    3    3    0    0 -0.16173500614E+00 -0.82184684764E+01  0.14134146540E+01  0.83406908164E+01  0.00000000000E+00 0. -1.
</event>
<event>
 7    1  0.2097247E-008  0.4614232E+02  0.7816164E-02  0.1320468E+00
        -11   -1    0    0    0    0  0.00000000000E+00  0.00000000000E+00  0.45593999997E+02  0.45594000000E+02  0.51100000000E-03 0.  1.
         11   -1    0    0    0    0 -0.00000000000E+00 -0.00000000000E+00 -0.45593999997E+02  0.45594000000E+02  0.51100000000E-03 0. -1.
    9900012    2    1    2    0    0  0.68087612689E+00  0.14714729174E+02  0.42569080569E+02  0.46142317993E+02  0.10000002113E+02 0.  0.
         12    1    1    2    0    0 -0.68087612689E+00 -0.14714729174E+02 -0.42569080569E+02  0.45045682007E+02  0.00000000000E+00 0. -1.
         11    1    3    3    0    0  0.88408109557E+00  0.28184888659E+00  0.27330589809E+01  0.28862865126E+01  0.51100000000E-03 0. -1.
        -11    1    3    3    0    0  0.18767015054E+01  0.11468895702E+02  0.36596661612E+02  0.38397567873E+02  0.51100000000E-03 0.  1.
         12    1    3    3    0    0 -0.20799064741E+01  0.29639845862E+01  0.32393599766E+01  0.48584636076E+01  0.00000000000E+00 0. -1.
</event>
<event>
 7    1  0.2097247E-008  0.4614232E+02  0.7816164E-02  0.1320468E+00
        -11   -1    0    0    0    0  0.00000000000E+00  0.00000000000E+00  0.45593999997E+02  0.45594000000E+02  0.51100000000E-03 0.  1.
         11   -1    0    0    0    0 -0.00000000000E+00 -0.00000000000E+00 -0.45593999997E+02  0.45594000000E+02  0.51100000000E-03 0. -1.
    9900012    2    1    2    0    0  0.41487022400E+02 -0.15219639682E+02 -0.87351617103E+01  0.46142317523E+02  0.99999978329E+01 0.  0.
         12    1    1    2    0    0 -0.41487022400E+02  0.15219639682E+02  0.87351617103E+01  0.45045682477E+02  0.00000000000E+00 0. -1.
         11    1    3    3    0    0  0.55200255265E+01 -0.26499170774E+01 -0.40071298257E+01  0.73177750739E+01  0.51100000000E-03 0. -1.
        -11    1    3    3    0    0  0.19460298776E+02 -0.88074905784E+01 -0.48049433467E+01  0.21894350860E+02  0.51100000000E-03 0.  1.
        -12    1    3    3    0    0  0.16506698097E+02 -0.37622320267E+01  0.76911462021E-01  0.16930191590E+02  0.00000000000E+00 0.  1.
</event>
<event>
 7    1  0.2097247E-008  0.4614232E+02  0.7816164E-02  0.1320468E+00
        -11   -1    0    0    0    0  0.00000000000E+00  0.00000000000E+00  0.45593999997E+02  0.45594000000E+02  0.51100000000E-03 0.  1.
         11   -1    0    0    0    0 -0.00000000000E+00 -0.00000000000E+00 -0.45593999997E+02  0.45594000000E+02  0.51100000000E-03 0. -1.
    9900012    2    1    2    0    0  0.75698316137E+01  0.37481662528E+02  0.23810422212E+02  0.46142316717E+02  0.99999904785E+01 0.  0.
         12    1    1    2    0    0 -0.75698316137E+01 -0.37481662528E+02 -0.23810422212E+02  0.45045683283E+02  0.00000000000E+00 0. -1.
         11    1    3    3    0    0  0.34856362133E+01  0.80154989523E+01  0.64972955605E+01  0.10890947302E+02  0.51100000000E-03 0.  1.
        -11    1    3    3    0    0  0.28173004706E+01  0.47600373679E+01  0.10070030109E+01  0.56222053512E+01  0.51100000000E-03 0. -1.
        -12    1    3    3    0    0  0.12668949299E+01  0.24706126208E+02  0.16306123640E+02  0.29629164064E+02  0.00000000000E+00 0.  1.
</event>
<event>
 7    1  0.2097247E-008  0.4614232E+02  0.7816164E-02  0.1320468E+00
        -11   -1    0    0    0    0  0.00000000000E+00  0.00000000000E+00  0.45593999997E+02  0.45594000000E+02  0.51100000000E-03 0.  1.
         11   -1    0    0    0    0 -0.00000000000E+00 -0.00000000000E+00 -0.45593999997E+02  0.45594000000E+02  0.51100000000E-03 0. -1.
    9900012    2    1    2    0    0 -0.26025120101E+02  0.21812050772E+02  0.29597991136E+02  0.46142317472E+02  0.99999973608E+01 0.  0.
         12    1    1    2    0    0  0.26025120101E+02 -0.21812050772E+02 -0.29597991136E+02  0.45045682528E+02  0.00000000000E+00 0. -1.
         11    1    3    3    0    0 -0.13935139991E+02  0.63191363374E+01  0.14623735769E+02  0.21165378776E+02  0.51100000000E-03 0.  1.
        -11    1    3    3    0    0 -0.12207812826E+02  0.14378040139E+02  0.13967918765E+02  0.23470438580E+02  0.51100000000E-03 0. -1.
        -12    1    3    3    0    0  0.11783271593E+00  0.11148742954E+01  0.10063366015E+01  0.15065001158E+01  0.00000000000E+00 0.  1.
</event>
<event>
 7    1  0.2097247E-008  0.4614232E+02  0.7816164E-02  0.1320468E+00
        -11   -1    0    0    0    0  0.00000000000E+00  0.00000000000E+00  0.45593999997E+02  0.45594000000E+02  0.51100000000E-03 0.  1.
         11   -1    0    0    0    0 -0.00000000000E+00 -0.00000000000E+00 -0.45593999997E+02  0.45594000000E+02  0.51100000000E-03 0. -1.
    9900012    2    1    2    0    0  0.28864398281E+02  0.17387207420E+02  0.29893896364E+02  0.46142317523E+02  0.99999978287E+01 0.  0.
         12    1    1    2    0    0 -0.28864398281E+02 -0.17387207420E+02 -0.29893896364E+02  0.45045682477E+02  0.00000000000E+00 0. -1.
         11    1    3    3    0    0  0.31120533536E+01  0.36256801458E+01  0.45534344973E+01  0.66003180664E+01  0.51100000000E-03 0. -1.
        -11    1    3    3    0    0  0.78526065556E+01  0.64608920054E+01  0.13395254436E+02  0.16817829732E+02  0.51100000000E-03 0.  1.
         12    1    3    3    0    0  0.17899738372E+02  0.73006352687E+01  0.11945207430E+02  0.22724169725E+02  0.00000000000E+00 0. -1.
</event>
<event>
 7    1  0.2097247E-008  0.4614232E+02  0.7816164E-02  0.1320468E+00
        -11   -1    0    0    0    0  0.00000000000E+00  0.00000000000E+00  0.45593999997E+02  0.45594000000E+02  0.51100000000E-03 0.  1.
         11   -1    0    0    0    0 -0.00000000000E+00 -0.00000000000E+00 -0.45593999997E+02  0.45594000000E+02  0.51100000000E-03 0. -1.
    9900012    2    1    2    0    0  0.37499348368E+01  0.27275049858E+02  0.35652810523E+02  0.46142320360E+02  0.10000023701E+02 0.  0.
         12    1    1    2    0    0 -0.37499348368E+01 -0.27275049858E+02 -0.35652810523E+02  0.45045679640E+02  0.00000000000E+00 0. -1.
         11    1    3    3    0    0  0.15630791887E+01  0.88919692559E+01  0.57492030621E+01  0.10703441966E+02  0.51100000000E-03 0.  1.
        -11    1    3    3    0    0 -0.71526040206E+00  0.50406773514E+01  0.10985005109E+02  0.12107450727E+02  0.51100000000E-03 0. -1.
        -12    1    3    3    0    0  0.29021160502E+01  0.13342403251E+02  0.18918602352E+02  0.23331427668E+02  0.00000000000E+00 0.  1.
</event>
<event>
 7    1  0.2097247E-008  0.4614232E+02  0.7816164E-02  0.1320468E+00
        -11   -1    0    0    0    0  0.00000000000E+00  0.00000000000E+00  0.45593999997E+02  0.45594000000E+02  0.51100000000E-03 0. -1.
         11   -1    0    0    0    0 -0.00000000000E+00 -0.00000000000E+00 -0.45593999997E+02  0.45594000000E+02  0.51100000000E-03 0.  1.
    9900012    2    1    2    0    0  0.25911888136E+01 -0.40504878584E+02 -0.19538527765E+02  0.46142317457E+02  0.99999972283E+01 0.  0.
         12    1    1    2    0    0 -0.25911888136E+01  0.40504878584E+02  0.19538527765E+02  0.45045682543E+02  0.00000000000E+00 0. -1.
         11    1    3    3    0    0  0.29548214489E+01 -0.40012491434E+01 -0.25399005937E+01  0.55849852095E+01  0.51100000000E-03 0. -1.
        -11    1    3    3    0    0 -0.17877263062E+01 -0.25859746468E+02 -0.13724303538E+02  0.29330512450E+02  0.51100000000E-03 0.  1.
         12    1    3    3    0    0  0.14240936708E+01 -0.10643882972E+02 -0.32743236330E+01  0.11226819798E+02  0.00000000000E+00 0. -1.
</event>
<event>
 7    1  0.2097247E-008  0.4614232E+02  0.7816164E-02  0.1320468E+00
        -11   -1    0    0    0    0  0.00000000000E+00  0.00000000000E+00  0.45593999997E+02  0.45594000000E+02  0.51100000000E-03 0.  1.
         11   -1    0    0    0    0 -0.00000000000E+00 -0.00000000000E+00 -0.45593999997E+02  0.45594000000E+02  0.51100000000E-03 0. -1.
    9900012    2    1    2    0    0 -0.20386324344E+02 -0.34367750443E+02  0.20793481052E+02  0.46142319352E+02  0.10000014510E+02 0.  0.
         12    1    1    2    0    0  0.20386324344E+02  0.34367750443E+02 -0.20793481052E+02  0.45045680648E+02  0.00000000000E+00 0. -1.
         11    1    3    3    0    0  0.12528825959E+00 -0.30941027563E+01  0.21879395309E+01  0.37916023877E+01  0.51100000000E-03 0. -1.
        -11    1    3    3    0    0 -0.69476923800E+01 -0.64605610381E+01  0.25151787905E+01  0.98150600071E+01  0.51100000000E-03 0.  1.
        -12    1    3    3    0    0 -0.13563920223E+02 -0.24813086649E+02  0.16090362730E+02  0.32535656957E+02  0.00000000000E+00 0.  1.
</event>
<event>
 7    1  0.2097247E-008  0.4614232E+02  0.7816164E-02  0.1320468E+00
        -11   -1    0    0    0    0  0.00000000000E+00  0.00000000000E+00  0.45593999997E+02  0.45594000000E+02  0.51100000000E-03 0.  1.
         11   -1    0    0    0    0 -0.00000000000E+00 -0.00000000000E+00 -0.45593999997E+02  0.45594000000E+02  0.51100000000E-03 0. -1.
    9900012    2    1    2    0    0  0.17712215756E+02 -0.32417321423E+02  0.25778057075E+02  0.46142317168E+02  0.99999945944E+01 0.  0.
         12    1    1    2    0    0 -0.17712215756E+02  0.32417321423E+02 -0.25778057075E+02  0.45045682832E+02  0.00000000000E+00 0. -1.
         11    1    3    3    0    0  0.33429268266E+01 -0.49797892252E+01  0.31600124750E+01  0.67793170452E+01  0.51100000000E-03 0. -1.
        -11    1    3    3    0    0  0.81936553162E+00 -0.40306582234E+01  0.11133181288E-01  0.41131119359E+01  0.51100000000E-03 0.  1.
        -12    1    3    3    0    0  0.13549923397E+02 -0.23406873975E+02  0.22606911418E+02  0.35249888187E+02  0.00000000000E+00 0.  1.
</event>
<event>
 7    1  0.2097247E-008  0.4614232E+02  0.7816164E-02  0.1320468E+00
        -11   -1    0    0    0    0  0.00000000000E+00  0.00000000000E+00  0.45593999997E+02  0.45594000000E+02  0.51100000000E-03 0. -1.
         11   -1    0    0    0    0 -0.00000000000E+00 -0.00000000000E+00 -0.45593999997E+02  0.45594000000E+02  0.51100000000E-03 0.  1.
    9900012    2    1    2    0    0 -0.22114450460E+02  0.10443308442E+02 -0.37828585175E+02  0.46142318002E+02  0.10000002195E+02 0.  0.
         12    1    1    2    0    0  0.22114450460E+02 -0.10443308442E+02  0.37828585175E+02  0.45045681998E+02  0.00000000000E+00 0. -1.
         11    1    3    3    0    0 -0.74126354896E+01  0.42018331965E+01 -0.98927512495E+01  0.13056381377E+02  0.51100000000E-03 0. -1.
        -11    1    3    3    0    0 -0.12321866201E+02  0.25528140908E+01 -0.24382855520E+02  0.27438456408E+02  0.51100000000E-03 0.  1.
        -12    1    3    3    0    0 -0.23799487693E+01  0.36886611546E+01 -0.35529784053E+01  0.56474802174E+01  0.00000000000E+00 0.  1.
</event>
<event>
 7    1  0.2097247E-008  0.4614232E+02  0.7816164E-02  0.1320468E+00
        -11   -1    0    0    0    0  0.00000000000E+00  0.00000000000E+00  0.45593999997E+02  0.45594000000E+02  0.51100000000E-03 0.  1.
         11   -1    0    0    0    0 -0.00000000000E+00 -0.00000000000E+00 -0.45593999997E+02  0.45594000000E+02  0.51100000000E-03 0. -1.
    9900012    2    1    2    0    0  0.21697307984E+02  0.21301103872E+02  0.33235573470E+02  0.46142317146E+02  0.99999943922E+01 0.  0.
         12    1    1    2    0    0 -0.21697307984E+02 -0.21301103872E+02 -0.33235573470E+02  0.45045682854E+02  0.00000000000E+00 0. -1.
         11    1    3    3    0    0  0.40683411382E+01  0.12463301751E+01  0.40688504717E+01  0.58872984419E+01  0.51100000000E-03 0. -1.
        -11    1    3    3    0    0  0.23539850425E+01  0.40796950935E+01  0.97786625319E+01  0.10853911682E+02  0.51100000000E-03 0.  1.
         12    1    3    3    0    0  0.15274981803E+02  0.15975078603E+02  0.19388060466E+02  0.29401107022E+02  0.00000000000E+00 0. -1.
</event>
<event>
 7    1  0.2097247E-008  0.4614232E+02  0.7816164E-02  0.1320468E+00
        -11   -1    0    0    0    0  0.00000000000E+00  0.00000000000E+00  0.45593999997E+02  0.45594000000E+02  0.51100000000E-03 0.  1.
         11   -1    0    0    0    0 -0.00000000000E+00 -0.00000000000E+00 -0.45593999997E+02  0.45594000000E+02  0.51100000000E-03 0. -1.
    9900012    2    1    2    0    0  0.18822916267E+02  0.93850798309E+01  0.39833797216E+02  0.46142319842E+02  0.10000018974E+02 0.  0.
         12    1    1    2    0    0 -0.18822916267E+02 -0.93850798309E+01 -0.39833797216E+02  0.45045680158E+02  0.00000000000E+00 0. -1.
         11    1    3    3    0    0  0.37491776764E+01  0.30385772218E+01  0.93044721655E+01  0.10481530772E+02  0.51100000000E-03 0. -1.
        -11    1    3    3    0    0  0.52617208223E+01 -0.11867028922E+01  0.14089706769E+02  0.15086875318E+02  0.51100000000E-03 0.  1.
        -12    1    3    3    0    0  0.98120177684E+01  0.75332055014E+01  0.16439618282E+02  0.20573913752E+02  0.00000000000E+00 0.  1.
</event>
<event>
 7    1  0.2097247E-008  0.4614232E+02  0.7816164E-02  0.1320468E+00
        -11   -1    0    0    0    0  0.00000000000E+00  0.00000000000E+00  0.45593999997E+02  0.45594000000E+02  0.51100000000E-03 0.  1.
         11   -1    0    0    0    0 -0.00000000000E+00 -0.00000000000E+00 -0.45593999997E+02  0.45594000000E+02  0.51100000000E-03 0. -1.
    9900012    2    1    2    0    0 -0.39877379788E+02  0.35323185262E+01  0.20650202632E+02  0.46142316947E+02  0.99999925790E+01 0.  0.
         12    1    1    2    0    0  0.39877379788E+02 -0.35323185262E+01 -0.20650202632E+02  0.45045683053E+02  0.00000000000E+00 0. -1.
         11    1    3    3    0    0 -0.88053744254E+01  0.21763426836E+01  0.38745524350E+01  0.98632268088E+01  0.51100000000E-03 0. -1.
        -11    1    3    3    0    0 -0.12366282678E+02  0.46709671380E+00  0.22473830634E+01  0.12577513964E+02  0.51100000000E-03 0.  1.
         12    1    3    3    0    0 -0.18705722685E+02  0.88887912883E+00  0.14528267134E+02  0.23701576175E+02  0.00000000000E+00 0. -1.
</event>
<event>
 7    1  0.2097247E-008  0.4614232E+02  0.7816164E-02  0.1320468E+00
        -11   -1    0    0    0    0  0.00000000000E+00  0.00000000000E+00  0.45593999997E+02  0.45594000000E+02  0.51100000000E-03 0. -1.
         11   -1    0    0    0    0 -0.00000000000E+00 -0.00000000000E+00 -0.45593999997E+02  0.45594000000E+02  0.51100000000E-03 0.  1.
    9900012    2    1    2    0    0 -0.29576656746E+02 -0.21104676643E+02 -0.26625688604E+02  0.46142319918E+02  0.10000019665E+02 0.  0.
         12    1    1    2    0    0  0.29576656746E+02  0.21104676643E+02  0.26625688604E+02  0.45045680082E+02  0.00000000000E+00 0. -1.
         11    1    3    3    0    0 -0.21427904039E+02 -0.16263051480E+02 -0.16025502136E+02  0.31312276090E+02  0.51100000000E-03 0. -1.
        -11    1    3    3    0    0 -0.81560593808E+01 -0.53727476341E+01 -0.10387406678E+02  0.14257837828E+02  0.51100000000E-03 0.  1.
         12    1    3    3    0    0  0.73066745014E-02  0.53112247152E+00 -0.21277978938E+00  0.57220599963E+00  0.00000000000E+00 0. -1.
</event>
<event>
 7    1  0.2097247E-008  0.4614232E+02  0.7816164E-02  0.1320468E+00
        -11   -1    0    0    0    0  0.00000000000E+00  0.00000000000E+00  0.45593999997E+02  0.45594000000E+02  0.51100000000E-03 0. -1.
         11   -1    0    0    0    0 -0.00000000000E+00 -0.00000000000E+00 -0.45593999997E+02  0.45594000000E+02  0.51100000000E-03 0.  1.
    9900012    2    1    2    0    0 -0.35647075997E+02  0.21063341212E+02  0.17740775227E+02  0.46142317901E+02  0.10000001275E+02 0.  0.
         12    1    1    2    0    0  0.35647075997E+02 -0.21063341212E+02 -0.17740775227E+02  0.45045682099E+02  0.00000000000E+00 0. -1.
         11    1    3    3    0    0 -0.26718157427E+01  0.45862852724E+00  0.18798648132E+00  0.27174029269E+01  0.51100000000E-03 0. -1.
        -11    1    3    3    0    0 -0.51450309741E+01  0.19460190613E+00  0.30900405942E+01  0.60047951473E+01  0.51100000000E-03 0.  1.
        -12    1    3    3    0    0 -0.27830229280E+02  0.20410110778E+02  0.14462748151E+02  0.37420119827E+02  0.00000000000E+00 0.  1.
</event>
<event>
 7    1  0.2097247E-008  0.4614232E+02  0.7816164E-02  0.1320468E+00
        -11   -1    0    0    0    0  0.00000000000E+00  0.00000000000E+00  0.45593999997E+02  0.45594000000E+02  0.51100000000E-03 0.  1.
         11   -1    0    0    0    0 -0.00000000000E+00 -0.00000000000E+00 -0.45593999997E+02  0.45594000000E+02  0.51100000000E-03 0. -1.
    9900012    2    1    2    0    0 -0.40643320257E+02  0.31072752740E+01  0.19172350802E+02  0.46142315674E+02  0.99999809700E+01 0.  0.
         12    1    1    2    0    0  0.40643320257E+02 -0.31072752740E+01 -0.19172350802E+02  0.45045684326E+02  0.00000000000E+00 0. -1.
         11    1    3    3    0    0 -0.11824108697E+02 -0.33295653542E+01  0.69011281985E+01  0.14089752396E+02  0.51100000000E-03 0.  1.
        -11    1    3    3    0    0 -0.14247822758E+02  0.40600821792E+01  0.54063757437E+01  0.15770656916E+02  0.51100000000E-03 0. -1.
         12    1    3    3    0    0 -0.14571388802E+02  0.23767584490E+01  0.68648468596E+01  0.16281906361E+02  0.00000000000E+00 0. -1.
</event>
<event>
 7    1  0.2097247E-008  0.4614232E+02  0.7816164E-02  0.1320468E+00
        -11   -1    0    0    0    0  0.00000000000E+00  0.00000000000E+00  0.45593999997E+02  0.45594000000E+02  0.51100000000E-03 0.  1.
         11   -1    0    0    0    0 -0.00000000000E+00 -0.00000000000E+00 -0.45593999997E+02  0.45594000000E+02  0.51100000000E-03 0. -1.
    9900012    2    1    2    0    0 -0.88876629294E+01  0.44055922137E+02  0.30329028751E+01  0.46142319546E+02  0.10000016279E+02 0.  0.
         12    1    1    2    0    0  0.88876629294E+01 -0.44055922137E+02 -0.30329028751E+01  0.45045680454E+02  0.00000000000E+00 0. -1.
         11    1    3    3    0    0 -0.12726770253E+01  0.13589006726E+02  0.18834700997E+00  0.13649772360E+02  0.51100000000E-03 0. -1.
        -11    1    3    3    0    0 -0.42164398783E+01  0.93922488116E+01  0.41626178225E+01  0.11104957919E+02  0.51100000000E-03 0.  1.
         12    1    3    3    0    0 -0.33985460257E+01  0.21074666599E+02 -0.13180619573E+01  0.21387589268E+02  0.00000000000E+00 0. -1.
</event>
<event>
 7    1  0.2097247E-008  0.4614232E+02  0.7816164E-02  0.1320468E+00
        -11   -1    0    0    0    0  0.00000000000E+00  0.00000000000E+00  0.45593999997E+02  0.45594000000E+02  0.51100000000E-03 0.  1.
         11   -1    0    0    0    0 -0.00000000000E+00 -0.00000000000E+00 -0.45593999997E+02  0.45594000000E+02  0.51100000000E-03 0. -1.
    9900012    2    1    2    0    0 -0.42418795241E+02 -0.35686732813E+01  0.14731735365E+02  0.46142316016E+02  0.99999840882E+01 0.  0.
         12    1    1    2    0    0  0.42418795241E+02  0.35686732813E+01 -0.14731735365E+02  0.45045683984E+02  0.00000000000E+00 0. -1.
         11    1    3    3    0    0 -0.10825268061E+02 -0.27748605351E+01  0.36353338528E+01  0.11751677841E+02  0.51100000000E-03 0. -1.
        -11    1    3    3    0    0 -0.19782328979E+02  0.79160568321E+00  0.31001807075E+01  0.20039418656E+02  0.51100000000E-03 0.  1.
         12    1    3    3    0    0 -0.11811198201E+02 -0.15854184293E+01  0.79962208046E+01  0.14351219519E+02  0.00000000000E+00 0. -1.
</event>
<event>
 7    1  0.2097247E-008  0.4614232E+02  0.7816164E-02  0.1320468E+00
        -11   -1    0    0    0    0  0.00000000000E+00  0.00000000000E+00  0.45593999997E+02  0.45594000000E+02  0.51100000000E-03 0.  1.
         11   -1    0    0    0    0 -0.00000000000E+00 -0.00000000000E+00 -0.45593999997E+02  0.45594000000E+02  0.51100000000E-03 0. -1.
    9900012    2    1    2    0    0  0.41363065826E+02  0.17310856549E+02  0.43063387493E+01  0.46142317383E+02  0.99999965515E+01 0.  0.
         12    1    1    2    0    0 -0.41363065826E+02 -0.17310856549E+02 -0.43063387493E+01  0.45045682617E+02  0.00000000000E+00 0. -1.
         11    1    3    3    0    0  0.15393363740E+02  0.66028602695E+01 -0.16484897996E+01  0.16830654469E+02  0.51100000000E-03 0. -1.
        -11    1    3    3    0    0  0.84026514828E+01  0.29949709423E+01 -0.83609547809E+00  0.89595456802E+01  0.51100000000E-03 0.  1.
        -12    1    3    3    0    0  0.17567050604E+02  0.77130253371E+01  0.67909240270E+01  0.20352117234E+02  0.00000000000E+00 0.  1.
</event>
<event>
 7    1  0.2097247E-008  0.4614232E+02  0.7816164E-02  0.1320468E+00
        -11   -1    0    0    0    0  0.00000000000E+00  0.00000000000E+00  0.45593999997E+02  0.45594000000E+02  0.51100000000E-03 0. -1.
         11   -1    0    0    0    0 -0.00000000000E+00 -0.00000000000E+00 -0.45593999997E+02  0.45594000000E+02  0.51100000000E-03 0.  1.
    9900012    2    1    2    0    0 -0.31623218067E+02 -0.18295519657E+02 -0.26350702458E+02  0.46142317849E+02  0.10000000799E+02 0.  0.
         12    1    1    2    0    0  0.31623218067E+02  0.18295519657E+02  0.26350702458E+02  0.45045682151E+02  0.00000000000E+00 0. -1.
         11    1    3    3    0    0 -0.50609833853E+01 -0.49259284831E+01 -0.12212988423E+01  0.71672794958E+01  0.51100000000E-03 0. -1.
        -11    1    3    3    0    0 -0.18276112995E+02 -0.89393002222E+01 -0.16117473063E+02  0.25955737957E+02  0.51100000000E-03 0.  1.
         12    1    3    3    0    0 -0.82861216869E+01 -0.44302909516E+01 -0.90119305524E+01  0.13019300396E+02  0.00000000000E+00 0. -1.
</event>
<event>
 7    1  0.2097247E-008  0.4614232E+02  0.7816164E-02  0.1320468E+00
        -11   -1    0    0    0    0  0.00000000000E+00  0.00000000000E+00  0.45593999997E+02  0.45594000000E+02  0.51100000000E-03 0.  1.
         11   -1    0    0    0    0 -0.00000000000E+00 -0.00000000000E+00 -0.45593999997E+02  0.45594000000E+02  0.51100000000E-03 0. -1.
    9900012    2    1    2    0    0  0.27252828283E+02  0.76434995606E+01  0.35042447937E+02  0.46142324377E+02  0.10000060330E+02 0.  0.
         12    1    1    2    0    0 -0.27252828283E+02 -0.76434995606E+01 -0.35042447937E+02  0.45045675623E+02  0.00000000000E+00 0. -1.
         11    1    3    3    0    0  0.57903269592E+01 -0.14319129237E+01  0.59743361013E+01  0.84422125671E+01  0.51100000000E-03 0. -1.
        -11    1    3    3    0    0  0.12442185818E+02  0.54586418964E+01  0.12342210200E+02  0.18355786885E+02  0.51100000000E-03 0.  1.
         12    1    3    3    0    0  0.90203155058E+01  0.36167705878E+01  0.16725901635E+02  0.19344324925E+02  0.00000000000E+00 0. -1.
</event>
<event>
 7    1  0.2097247E-008  0.4614232E+02  0.7816164E-02  0.1320468E+00
        -11   -1    0    0    0    0  0.00000000000E+00  0.00000000000E+00  0.45593999997E+02  0.45594000000E+02  0.51100000000E-03 0.  1.
         11   -1    0    0    0    0 -0.00000000000E+00 -0.00000000000E+00 -0.45593999997E+02  0.45594000000E+02  0.51100000000E-03 0. -1.
    9900012    2    1    2    0    0 -0.43785523651E+02  0.35177592467E+01 -0.99783202077E+01  0.46142316681E+02  0.99999901543E+01 0.  0.
         12    1    1    2    0    0  0.43785523651E+02 -0.35177592467E+01  0.99783202077E+01  0.45045683319E+02  0.00000000000E+00 0. -1.
         11    1    3    3    0    0 -0.43876561597E+02  0.28772159271E+01 -0.10127538549E+02  0.45122035264E+02  0.51100000000E-03 0.  1.
        -11    1    3    3    0    0  0.10555042065E+00  0.63863537910E-01  0.37957923958E+00  0.39912416992E+00  0.51100000000E-03 0. -1.
        -12    1    3    3    0    0 -0.14512474441E-01  0.57667978173E+00 -0.23036089826E+00  0.62115724742E+00  0.00000000000E+00 0.  1.
</event>
<event>
 7    1  0.2097247E-008  0.4614232E+02  0.7816164E-02  0.1320468E+00
        -11   -1    0    0    0    0  0.00000000000E+00  0.00000000000E+00  0.45593999997E+02  0.45594000000E+02  0.51100000000E-03 0.  1.
         11   -1    0    0    0    0 -0.00000000000E+00 -0.00000000000E+00 -0.45593999997E+02  0.45594000000E+02  0.51100000000E-03 0. -1.
    9900012    2    1    2    0    0 -0.14173802352E+01  0.32598039671E+02  0.31055954466E+02  0.46142318021E+02  0.10000002369E+02 0.  0.
         12    1    1    2    0    0  0.14173802352E+01 -0.32598039671E+02 -0.31055954466E+02  0.45045681979E+02  0.00000000000E+00 0. -1.
         11    1    3    3    0    0 -0.31821671378E+01  0.10053255907E+02  0.10303138277E+02  0.14742754175E+02  0.51100000000E-03 0. -1.
        -11    1    3    3    0    0 -0.16396619251E+01  0.16831766966E+02  0.14715321089E+02  0.22417349207E+02  0.51100000000E-03 0.  1.
         12    1    3    3    0    0  0.34044488277E+01  0.57130167979E+01  0.60374950998E+01  0.89822146396E+01  0.00000000000E+00 0. -1.
</event>
<event>
 7    1  0.2097247E-008  0.4614232E+02  0.7816164E-02  0.1320468E+00
        -11   -1    0    0    0    0  0.00000000000E+00  0.00000000000E+00  0.45593999997E+02  0.45594000000E+02  0.51100000000E-03 0.  1.
         11   -1    0    0    0    0 -0.00000000000E+00 -0.00000000000E+00 -0.45593999997E+02  0.45594000000E+02  0.51100000000E-03 0. -1.
    9900012    2    1    2    0    0  0.39774304605E+02 -0.19171068633E+00  0.21144299826E+02  0.46142317910E+02  0.10000001356E+02 0.  0.
         12    1    1    2    0    0 -0.39774304605E+02  0.19171068633E+00 -0.21144299826E+02  0.45045682090E+02  0.00000000000E+00 0. -1.
         11    1    3    3    0    0  0.49077241404E+01  0.17448357981E+01  0.11705144884E+01  0.53385684063E+01  0.51100000000E-03 0. -1.
        -11    1    3    3    0    0  0.87585154990E+01  0.88591778547E+00  0.21375414373E+01  0.90590025790E+01  0.51100000000E-03 0.  1.
        -12    1    3    3    0    0  0.26108064966E+02 -0.28224642699E+01  0.17836243900E+02  0.31744746924E+02  0.00000000000E+00 0.  1.
</event>
<event>
 7    1  0.2097247E-008  0.4614232E+02  0.7816164E-02  0.1320468E+00
        -11   -1    0    0    0    0  0.00000000000E+00  0.00000000000E+00  0.45593999997E+02  0.45594000000E+02  0.51100000000E-03 0.  1.
         11   -1    0    0    0    0 -0.00000000000E+00 -0.00000000000E+00 -0.45593999997E+02  0.45594000000E+02  0.51100000000E-03 0. -1.
    9900012    2    1    2    0    0  0.12448024843E+02  0.51172466179E+01  0.42988063725E+02  0.46142321425E+02  0.10000033414E+02 0.  0.
         12    1    1    2    0    0 -0.12448024843E+02 -0.51172466179E+01 -0.42988063725E+02  0.45045678575E+02  0.00000000000E+00 0. -1.
         11    1    3    3    0    0  0.10395266281E+01  0.19939801536E+01  0.20783912921E+01  0.30620716987E+01  0.51100000000E-03 0. -1.
        -11    1    3    3    0    0  0.75146747620E+00 -0.16530547093E+01  0.60232234238E+01  0.62909867202E+01  0.51100000000E-03 0.  1.
        -12    1    3    3    0    0  0.10657030738E+02  0.47763211737E+01  0.34886449009E+02  0.36789263007E+02  0.00000000000E+00 0.  1.
</event>
<event>
 7    1  0.2097247E-008  0.4614232E+02  0.7816164E-02  0.1320468E+00
        -11   -1    0    0    0    0  0.00000000000E+00  0.00000000000E+00  0.45593999997E+02  0.45594000000E+02  0.51100000000E-03 0.  1.
         11   -1    0    0    0    0 -0.00000000000E+00 -0.00000000000E+00 -0.45593999997E+02  0.45594000000E+02  0.51100000000E-03 0. -1.
    9900012    2    1    2    0    0  0.84971976209E+01 -0.20652782269E+02  0.39119988589E+02  0.46142319962E+02  0.10000020070E+02 0.  0.
         12    1    1    2    0    0 -0.84971976209E+01  0.20652782269E+02 -0.39119988589E+02  0.45045680038E+02  0.00000000000E+00 0. -1.
         11    1    3    3    0    0  0.18116623210E+01 -0.40187745552E+01  0.23048916440E+01  0.49744542457E+01  0.51100000000E-03 0. -1.
        -11    1    3    3    0    0  0.49507567873E+01 -0.90965130848E+01  0.17124046000E+02  0.20012233627E+02  0.51100000000E-03 0.  1.
         12    1    3    3    0    0  0.17347785126E+01 -0.75374946287E+01  0.19691050946E+02  0.21155632090E+02  0.00000000000E+00 0. -1.
</event>
<event>
 7    1  0.2097247E-008  0.4614231E+02  0.7816164E-02  0.1320468E+00
        -11   -1    0    0    0    0  0.00000000000E+00  0.00000000000E+00  0.45593999997E+02  0.45594000000E+02  0.51100000000E-03 0.  1.
         11   -1    0    0    0    0 -0.00000000000E+00 -0.00000000000E+00 -0.45593999997E+02  0.45594000000E+02  0.51100000000E-03 0. -1.
    9900012    2    1    2    0    0  0.54642525849E+01 -0.35069821844E+02  0.27737400898E+02  0.46142313536E+02  0.99999614679E+01 0.  0.
         12    1    1    2    0    0 -0.54642525849E+01  0.35069821844E+02 -0.27737400898E+02  0.45045686464E+02  0.00000000000E+00 0. -1.
         11    1    3    3    0    0  0.30287076904E+01 -0.90982195933E+01  0.73760549061E+01  0.12097803779E+02  0.51100000000E-03 0.  1.
        -11    1    3    3    0    0  0.44536972307E+01 -0.88376835071E+01  0.90822642165E+01  0.13432333839E+02  0.51100000000E-03 0. -1.
        -12    1    3    3    0    0 -0.20181523362E+01 -0.17133918744E+02  0.11279081775E+02  0.20612175918E+02  0.00000000000E+00 0.  1.
</event>
<event>
 7    1  0.2097247E-008  0.4614232E+02  0.7816164E-02  0.1320468E+00
        -11   -1    0    0    0    0  0.00000000000E+00  0.00000000000E+00  0.45593999997E+02  0.45594000000E+02  0.51100000000E-03 0.  1.
         11   -1    0    0    0    0 -0.00000000000E+00 -0.00000000000E+00 -0.45593999997E+02  0.45594000000E+02  0.51100000000E-03 0. -1.
    9900012    2    1    2    0    0  0.45892895036E+01  0.35192789403E+02  0.27740212969E+02  0.46142318524E+02  0.10000006954E+02 0.  0.
         12    1    1    2    0    0 -0.45892895036E+01 -0.35192789403E+02 -0.27740212969E+02  0.45045681476E+02  0.00000000000E+00 0. -1.
         11    1    3    3    0    0  0.20860481876E+00  0.11025097521E+02  0.62207160546E+01  0.12660710873E+02  0.51100000000E-03 0. -1.
        -11    1    3    3    0    0 -0.11150403152E+01  0.68583557063E+01  0.30797835622E+01  0.76003568962E+01  0.51100000000E-03 0.  1.
        -12    1    3    3    0    0  0.54957250000E+01  0.17309336176E+02  0.18439713352E+02  0.25881250755E+02  0.00000000000E+00 0.  1.
</event>
<event>
 7    1  0.2097247E-008  0.4614232E+02  0.7816164E-02  0.1320468E+00
        -11   -1    0    0    0    0  0.00000000000E+00  0.00000000000E+00  0.45593999997E+02  0.45594000000E+02  0.51100000000E-03 0. -1.
         11   -1    0    0    0    0 -0.00000000000E+00 -0.00000000000E+00 -0.45593999997E+02  0.45594000000E+02  0.51100000000E-03 0.  1.
    9900012    2    1    2    0    0  0.28518932170E+02  0.28834869958E+02  0.19604444541E+02  0.46142318038E+02  0.10000002528E+02 0.  0.
         12    1    1    2    0    0 -0.28518932170E+02 -0.28834869958E+02 -0.19604444541E+02  0.45045681962E+02  0.00000000000E+00 0. -1.
         11    1    3    3    0    0  0.12240322482E+02  0.13668196644E+02  0.12664881333E+02  0.22294490652E+02  0.51100000000E-03 0. -1.
        -11    1    3    3    0    0  0.11435550166E+02  0.85719776402E+01  0.63672008363E+01  0.15645825482E+02  0.51100000000E-03 0.  1.
        -12    1    3    3    0    0  0.48430595230E+01  0.65946956731E+01  0.57236237184E+00  0.82020019049E+01  0.00000000000E+00 0.  1.
</event>
<event>
 7    1  0.2097247E-008  0.4614232E+02  0.7816164E-02  0.1320468E+00
        -11   -1    0    0    0    0  0.00000000000E+00  0.00000000000E+00  0.45593999997E+02  0.45594000000E+02  0.51100000000E-03 0.  1.
         11   -1    0    0    0    0 -0.00000000000E+00 -0.00000000000E+00 -0.45593999997E+02  0.45594000000E+02  0.51100000000E-03 0. -1.
    9900012    2    1    2    0    0  0.24785048307E+02 -0.18582045711E+02  0.32703548004E+02  0.46142322134E+02  0.10000039872E+02 0.  0.
         12    1    1    2    0    0 -0.24785048307E+02  0.18582045711E+02 -0.32703548004E+02  0.45045677866E+02  0.00000000000E+00 0. -1.
         11    1    3    3    0    0  0.13618737981E+02 -0.68472820942E+01  0.12855041879E+02  0.19940095241E+02  0.51100000000E-03 0. -1.
        -11    1    3    3    0    0  0.55974313796E+00  0.55023636213E+00  0.43288229308E+00  0.89635917772E+00  0.51100000000E-03 0.  1.
        -12    1    3    3    0    0  0.10606567189E+02 -0.12284999979E+02  0.19415623832E+02  0.25305867715E+02  0.00000000000E+00 0.  1.
</event>
<event>
 7    1  0.2412803E-008  0.4614232E+02  0.7816164E-02  0.1320468E+00
        -11   -1    0    0    0    0  0.00000000000E+00  0.00000000000E+00  0.45593999997E+02  0.45594000000E+02  0.51100000000E-03 0. -1.
         11   -1    0    0    0    0 -0.00000000000E+00 -0.00000000000E+00 -0.45593999997E+02  0.45594000000E+02  0.51100000000E-03 0.  1.
    9900012    2    1    2    0    0  0.13134450527E+02 -0.21171392398E+02 -0.37528281357E+02  0.46142317096E+02  0.99999939321E+01 0.  0.
         12    1    1    2    0    0 -0.13134450527E+02  0.21171392398E+02  0.37528281357E+02  0.45045682904E+02  0.00000000000E+00 0. -1.
         11    1    3    3    0    0 -0.97532518766E-01 -0.19140208380E+01 -0.13000185825E+01  0.23158231661E+01  0.51100000000E-03 0. -1.
        -11    1    3    3    0    0  0.82478546609E+01 -0.17519825825E+02 -0.29188279931E+02  0.35027519025E+02  0.51100000000E-03 0.  1.
        -12    1    3    3    0    0  0.49841283848E+01 -0.17375457347E+01 -0.70399828432E+01  0.87989749044E+01  0.00000000000E+00 0.  1.
</event>
<event>
 7    1  0.2097247E-008  0.4614232E+02  0.7816164E-02  0.1320468E+00
        -11   -1    0    0    0    0  0.00000000000E+00  0.00000000000E+00  0.45593999997E+02  0.45594000000E+02  0.51100000000E-03 0.  1.
         11   -1    0    0    0    0 -0.00000000000E+00 -0.00000000000E+00 -0.45593999997E+02  0.45594000000E+02  0.51100000000E-03 0. -1.
    9900012    2    1    2    0    0 -0.23954081895E+02  0.29572114943E+02  0.24099907125E+02  0.46142317132E+02  0.99999942660E+01 0.  0.
         12    1    1    2    0    0  0.23954081895E+02 -0.29572114943E+02 -0.24099907125E+02  0.45045682868E+02  0.00000000000E+00 0. -1.
         11    1    3    3    0    0  0.15605775355E+00  0.12793080104E+00  0.42812864944E+00  0.47330192677E+00  0.51100000000E-03 0. -1.
        -11    1    3    3    0    0 -0.55692462793E+00  0.31508404916E+01  0.44317857506E+01  0.54661399585E+01  0.51100000000E-03 0.  1.
        -12    1    3    3    0    0 -0.23553215020E+02  0.26293343650E+02  0.19239992725E+02  0.40202875247E+02  0.00000000000E+00 0.  1.
</event>
<event>
 7    1  0.2097247E-008  0.4614232E+02  0.7816164E-02  0.1320468E+00
        -11   -1    0    0    0    0  0.00000000000E+00  0.00000000000E+00  0.45593999997E+02  0.45594000000E+02  0.51100000000E-03 0.  1.
         11   -1    0    0    0    0 -0.00000000000E+00 -0.00000000000E+00 -0.45593999997E+02  0.45594000000E+02  0.51100000000E-03 0. -1.
    9900012    2    1    2    0    0 -0.11862317329E+02 -0.68687641905E+01  0.42909427824E+02  0.46142317742E+02  0.99999998243E+01 0.  0.
         12    1    1    2    0    0  0.11862317329E+02  0.68687641905E+01 -0.42909427824E+02  0.45045682258E+02  0.00000000000E+00 0. -1.
         11    1    3    3    0    0 -0.20773384240E+00  0.90964460562E+00  0.12068630553E+02  0.12104645817E+02  0.51100000000E-03 0. -1.
        -11    1    3    3    0    0 -0.46657023078E+01 -0.16772428943E+01  0.13309421651E+02  0.14202909093E+02  0.51100000000E-03 0.  1.
        -12    1    3    3    0    0 -0.69888811790E+01 -0.61011659018E+01  0.17531375620E+02  0.19834762832E+02  0.00000000000E+00 0.  1.
</event>
<event>
 7    1  0.2097247E-008  0.4614232E+02  0.7816164E-02  0.1320468E+00
        -11   -1    0    0    0    0  0.00000000000E+00  0.00000000000E+00  0.45593999997E+02  0.45594000000E+02  0.51100000000E-03 0.  1.
         11   -1    0    0    0    0 -0.00000000000E+00 -0.00000000000E+00 -0.45593999997E+02  0.45594000000E+02  0.51100000000E-03 0. -1.
    9900012    2    1    2    0    0 -0.61468357921E+00 -0.95607573114E+01  0.44015084312E+02  0.46142316930E+02  0.99999924216E+01 0.  0.
         12    1    1    2    0    0  0.61468357921E+00  0.95607573114E+01 -0.44015084312E+02  0.45045683070E+02  0.00000000000E+00 0. -1.
         11    1    3    3    0    0  0.93218573364E+00 -0.75659656308E+01  0.20322101923E+02  0.21704852752E+02  0.51100000000E-03 0. -1.
        -11    1    3    3    0    0  0.60633064149E+00  0.13625800350E+01  0.11791282819E+02  0.11885226627E+02  0.51100000000E-03 0.  1.
        -12    1    3    3    0    0 -0.21531999543E+01 -0.33573717156E+01  0.11901699570E+02  0.12552237551E+02  0.00000000000E+00 0.  1.
</event>
<event>
 7    1  0.2097247E-008  0.4614232E+02  0.7816164E-02  0.1320468E+00
        -11   -1    0    0    0    0  0.00000000000E+00  0.00000000000E+00  0.45593999997E+02  0.45594000000E+02  0.51100000000E-03 0.  1.
         11   -1    0    0    0    0 -0.00000000000E+00 -0.00000000000E+00 -0.45593999997E+02  0.45594000000E+02  0.51100000000E-03 0. -1.
    9900012    2    1    2    0    0  0.38268079258E+02 -0.16133045022E+02 -0.17446847378E+02  0.46142317463E+02  0.99999972825E+01 0.  0.
         12    1    1    2    0    0 -0.38268079258E+02  0.16133045022E+02  0.17446847378E+02  0.45045682537E+02  0.00000000000E+00 0. -1.
         11    1    3    3    0    0  0.18888823645E+02 -0.66906765915E+01 -0.69500273165E+01  0.21209801788E+02  0.51100000000E-03 0. -1.
        -11    1    3    3    0    0  0.16647908848E+02 -0.10204644655E+02 -0.10333045654E+02  0.22092068131E+02  0.51100000000E-03 0.  1.
         12    1    3    3    0    0  0.27313467652E+01  0.76227622458E+00 -0.16377440793E+00  0.28404475442E+01  0.00000000000E+00 0. -1.
</event>
<event>
 7    1  0.2097247E-008  0.4614232E+02  0.7816164E-02  0.1320468E+00
        -11   -1    0    0    0    0  0.00000000000E+00  0.00000000000E+00  0.45593999997E+02  0.45594000000E+02  0.51100000000E-03 0.  1.
         11   -1    0    0    0    0 -0.00000000000E+00 -0.00000000000E+00 -0.45593999997E+02  0.45594000000E+02  0.51100000000E-03 0. -1.
    9900012    2    1    2    0    0 -0.21120803621E+00 -0.26461705888E+01  0.44967395408E+02  0.46142317883E+02  0.10000001113E+02 0.  0.
         12    1    1    2    0    0  0.21120803621E+00  0.26461705888E+01 -0.44967395408E+02  0.45045682117E+02  0.00000000000E+00 0. -1.
         11    1    3    3    0    0 -0.16177718842E+01 -0.56239268209E+00  0.63786200164E+01  0.66045639503E+01  0.51100000000E-03 0. -1.
        -11    1    3    3    0    0 -0.31038899876E+01 -0.25256778709E+01  0.15487242309E+02  0.15995869978E+02  0.51100000000E-03 0.  1.
         12    1    3    3    0    0  0.45104538356E+01  0.44189996418E+00  0.23101533082E+02  0.23541883954E+02  0.00000000000E+00 0. -1.
</event>
<event>
 7    1  0.2097247E-008  0.4614232E+02  0.7816164E-02  0.1320468E+00
        -11   -1    0    0    0    0  0.00000000000E+00  0.00000000000E+00  0.45593999997E+02  0.45594000000E+02  0.51100000000E-03 0.  1.
         11   -1    0    0    0    0 -0.00000000000E+00 -0.00000000000E+00 -0.45593999997E+02  0.45594000000E+02  0.51100000000E-03 0. -1.
    9900012    2    1    2    0    0  0.19062687613E+02  0.38455264304E+02  0.13671852731E+02  0.46142323528E+02  0.10000052586E+02 0.  0.
         12    1    1    2    0    0 -0.19062687613E+02 -0.38455264304E+02 -0.13671852731E+02  0.45045676472E+02  0.00000000000E+00 0. -1.
         11    1    3    3    0    0  0.12070207863E+02  0.28771349130E+02  0.71309007050E+01  0.32005158862E+02  0.51100000000E-03 0. -1.
        -11    1    3    3    0    0  0.55102798066E+01  0.87644422416E+01  0.40954078570E+01  0.11133328214E+02  0.51100000000E-03 0.  1.
        -12    1    3    3    0    0  0.14821999438E+01  0.91947293213E+00  0.24455441693E+01  0.30038364520E+01  0.00000000000E+00 0.  1.
</event>
<event>
 7    1  0.2097247E-008  0.4614232E+02  0.7816164E-02  0.1320468E+00
        -11   -1    0    0    0    0  0.00000000000E+00  0.00000000000E+00  0.45593999997E+02  0.45594000000E+02  0.51100000000E-03 0.  1.
         11   -1    0    0    0    0 -0.00000000000E+00 -0.00000000000E+00 -0.45593999997E+02  0.45594000000E+02  0.51100000000E-03 0. -1.
    9900012    2    1    2    0    0 -0.38643224615E+02  0.14007841761E+02  0.18428102763E+02  0.46142318622E+02  0.10000007846E+02 0.  0.
         12    1    1    2    0    0  0.38643224615E+02 -0.14007841761E+02 -0.18428102763E+02  0.45045681378E+02  0.00000000000E+00 0. -1.
         11    1    3    3    0    0 -0.25916707607E+02  0.65001532391E+01  0.10153149494E+02  0.28583459732E+02  0.51100000000E-03 0. -1.
        -11    1    3    3    0    0 -0.63970495254E+01  0.58794415162E+01  0.31084036059E+01  0.92277975927E+01  0.51100000000E-03 0.  1.
        -12    1    3    3    0    0 -0.63294674820E+01  0.16282470054E+01  0.51665496626E+01  0.83310612969E+01  0.00000000000E+00 0.  1.
</event>
<event>
 7    1  0.2097247E-008  0.4614232E+02  0.7816164E-02  0.1320468E+00
        -11   -1    0    0    0    0  0.00000000000E+00  0.00000000000E+00  0.45593999997E+02  0.45594000000E+02  0.51100000000E-03 0.  1.
         11   -1    0    0    0    0 -0.00000000000E+00 -0.00000000000E+00 -0.45593999997E+02  0.45594000000E+02  0.51100000000E-03 0. -1.
    9900012    2    1    2    0    0  0.10577678687E+02  0.16277219692E+02  0.40648225785E+02  0.46142318445E+02  0.10000006232E+02 0.  0.
         12    1    1    2    0    0 -0.10577678687E+02 -0.16277219692E+02 -0.40648225785E+02  0.45045681555E+02  0.00000000000E+00 0. -1.
         11    1    3    3    0    0  0.14626116504E+00  0.50865413450E+01  0.48685055121E+01  0.70424882936E+01  0.51100000000E-03 0. -1.
        -11    1    3    3    0    0  0.21637171809E+01  0.38121200818E+01  0.69856878395E+01  0.82470459201E+01  0.51100000000E-03 0.  1.
         12    1    3    3    0    0  0.82677003413E+01  0.73785582650E+01  0.28794032434E+02  0.30852784231E+02  0.00000000000E+00 0. -1.
</event>
<event>
 7    1  0.2097247E-008  0.4614232E+02  0.7816164E-02  0.1320468E+00
        -11   -1    0    0    0    0  0.00000000000E+00  0.00000000000E+00  0.45593999997E+02  0.45594000000E+02  0.51100000000E-03 0. -1.
         11   -1    0    0    0    0 -0.00000000000E+00 -0.00000000000E+00 -0.45593999997E+02  0.45594000000E+02  0.51100000000E-03 0.  1.
    9900012    2    1    2    0    0 -0.20565475909E+02  0.39583257329E+02 -0.62721941069E+01  0.46142317865E+02  0.10000000944E+02 0.  0.
         12    1    1    2    0    0  0.20565475909E+02 -0.39583257329E+02  0.62721941069E+01  0.45045682135E+02  0.00000000000E+00 0. -1.
         11    1    3    3    0    0 -0.78006854668E+00  0.96702687699E+00 -0.82481608017E+00  0.14912980070E+01  0.51100000000E-03 0. -1.
        -11    1    3    3    0    0 -0.19074206316E+02  0.33044857122E+02 -0.70709958079E+01  0.38804470242E+02  0.51100000000E-03 0.  1.
        -12    1    3    3    0    0 -0.71120104657E+00  0.55713733295E+01  0.16236177812E+01  0.58465496154E+01  0.00000000000E+00 0.  1.
</event>
<event>
 7    1  0.2097247E-008  0.4614232E+02  0.7816164E-02  0.1320468E+00
        -11   -1    0    0    0    0  0.00000000000E+00  0.00000000000E+00  0.45593999997E+02  0.45594000000E+02  0.51100000000E-03 0. -1.
         11   -1    0    0    0    0 -0.00000000000E+00 -0.00000000000E+00 -0.45593999997E+02  0.45594000000E+02  0.51100000000E-03 0.  1.
    9900012    2    1    2    0    0 -0.27968955377E+02  0.31921107867E+02  0.15096153001E+02  0.46142318434E+02  0.10000006132E+02 0.  0.
         12    1    1    2    0    0  0.27968955377E+02 -0.31921107867E+02 -0.15096153001E+02  0.45045681566E+02  0.00000000000E+00 0. -1.
         11    1    3    3    0    0 -0.14688894039E+02  0.11147930464E+02  0.95752039804E+01  0.20777980972E+02  0.51100000000E-03 0. -1.
        -11    1    3    3    0    0 -0.91234647868E+01  0.13609315724E+02  0.46776293290E+01  0.17039110909E+02  0.51100000000E-03 0.  1.
         12    1    3    3    0    0 -0.41565965515E+01  0.71638616794E+01  0.84331969127E+00  0.83252265528E+01  0.00000000000E+00 0. -1.
</event>
<event>
 7    1  0.2097247E-008  0.4614232E+02  0.7816164E-02  0.1320468E+00
        -11   -1    0    0    0    0  0.00000000000E+00  0.00000000000E+00  0.45593999997E+02  0.45594000000E+02  0.51100000000E-03 0. -1.
         11   -1    0    0    0    0 -0.00000000000E+00 -0.00000000000E+00 -0.45593999997E+02  0.45594000000E+02  0.51100000000E-03 0.  1.
    9900012    2    1    2    0    0  0.43480540436E+02 -0.97551443646E+01 -0.65873112461E+01  0.46142324207E+02  0.10000058776E+02 0.  0.
         12    1    1    2    0    0 -0.43480540436E+02  0.97551443646E+01  0.65873112461E+01  0.45045675793E+02  0.00000000000E+00 0. -1.
         11    1    3    3    0    0  0.28322112531E+01 -0.23473378550E+01 -0.83420854624E+00  0.37719119486E+01  0.51100000000E-03 0. -1.
        -11    1    3    3    0    0  0.13079720258E+02 -0.56894940534E+01 -0.32945441551E+01  0.14639106737E+02  0.51100000000E-03 0.  1.
        -12    1    3    3    0    0  0.27568608926E+02 -0.17183124561E+01 -0.24585585448E+01  0.27731305521E+02  0.00000000000E+00 0.  1.
</event>
<event>
 7    1  0.2097247E-008  0.4614232E+02  0.7816164E-02  0.1320468E+00
        -11   -1    0    0    0    0  0.00000000000E+00  0.00000000000E+00  0.45593999997E+02  0.45594000000E+02  0.51100000000E-03 0.  1.
         11   -1    0    0    0    0 -0.00000000000E+00 -0.00000000000E+00 -0.45593999997E+02  0.45594000000E+02  0.51100000000E-03 0. -1.
    9900012    2    1    2    0    0 -0.44189679927E+02  0.87223264993E+01 -0.55343488539E+00  0.46142322274E+02  0.10000041154E+02 0.  0.
         12    1    1    2    0    0  0.44189679927E+02 -0.87223264993E+01  0.55343488539E+00  0.45045677726E+02  0.00000000000E+00 0. -1.
         11    1    3    3    0    0 -0.31142997430E+02  0.46373492635E+01 -0.42030642608E+01  0.31765658289E+02  0.51100000000E-03 0. -1.
        -11    1    3    3    0    0 -0.42161223104E+01  0.17381626178E+00  0.15326365723E+01  0.44894180640E+01  0.51100000000E-03 0.  1.
         12    1    3    3    0    0 -0.88305601868E+01  0.39111609739E+01  0.21169928031E+01  0.98872459211E+01  0.00000000000E+00 0. -1.
</event>
<event>
 7    1  0.2097247E-008  0.4614232E+02  0.7816164E-02  0.1320468E+00
        -11   -1    0    0    0    0  0.00000000000E+00  0.00000000000E+00  0.45593999997E+02  0.45594000000E+02  0.51100000000E-03 0.  1.
         11   -1    0    0    0    0 -0.00000000000E+00 -0.00000000000E+00 -0.45593999997E+02  0.45594000000E+02  0.51100000000E-03 0. -1.
    9900012    2    1    2    0    0  0.89779960515E+01 -0.13960180668E+01  0.44119838310E+02  0.46142318608E+02  0.10000007724E+02 0.  0.
         12    1    1    2    0    0 -0.89779960515E+01  0.13960180668E+01 -0.44119838310E+02  0.45045681392E+02  0.00000000000E+00 0. -1.
         11    1    3    3    0    0  0.17071768823E+01 -0.12010719007E+01  0.61130112108E+01  0.64595613584E+01  0.51100000000E-03 0.  1.
        -11    1    3    3    0    0 -0.24608259033E+00  0.31520754495E+01  0.95134711927E+01  0.10025082078E+02  0.51100000000E-03 0. -1.
         12    1    3    3    0    0  0.75169017595E+01 -0.33470216156E+01  0.28493355907E+02  0.29657675172E+02  0.00000000000E+00 0. -1.
</event>
<event>
 7    1  0.2097247E-008  0.4614232E+02  0.7816164E-02  0.1320468E+00
        -11   -1    0    0    0    0  0.00000000000E+00  0.00000000000E+00  0.45593999997E+02  0.45594000000E+02  0.51100000000E-03 0. -1.
         11   -1    0    0    0    0 -0.00000000000E+00 -0.00000000000E+00 -0.45593999997E+02  0.45594000000E+02  0.51100000000E-03 0.  1.
    9900012    2    1    2    0    0  0.21053757613E+02 -0.28927966055E+02 -0.27368330545E+02  0.46142318226E+02  0.10000004236E+02 0.  0.
         12    1    1    2    0    0 -0.21053757613E+02  0.28927966055E+02  0.27368330545E+02  0.45045681774E+02  0.00000000000E+00 0. -1.
         11    1    3    3    0    0  0.35224115540E+01 -0.53439432566E+01 -0.42951109497E+01  0.77079887790E+01  0.51100000000E-03 0. -1.
        -11    1    3    3    0    0  0.15371004293E+02 -0.13675040005E+02 -0.14755810829E+02  0.25318144592E+02  0.51100000000E-03 0.  1.
        -12    1    3    3    0    0  0.21603417656E+01 -0.99089827936E+01 -0.83174087666E+01  0.13116184855E+02  0.00000000000E+00 0.  1.
</event>
<event>
 7    1  0.2097247E-008  0.4614232E+02  0.7816164E-02  0.1320468E+00
        -11   -1    0    0    0    0  0.00000000000E+00  0.00000000000E+00  0.45593999997E+02  0.45594000000E+02  0.51100000000E-03 0. -1.
         11   -1    0    0    0    0 -0.00000000000E+00 -0.00000000000E+00 -0.45593999997E+02  0.45594000000E+02  0.51100000000E-03 0.  1.
    9900012    2    1    2    0    0 -0.16758875233E+02  0.34931262120E+02 -0.22979567529E+02  0.46142317674E+02  0.99999992092E+01 0.  0.
         12    1    1    2    0    0  0.16758875233E+02 -0.34931262120E+02  0.22979567529E+02  0.45045682326E+02  0.00000000000E+00 0. -1.
         11    1    3    3    0    0 -0.96823500546E+01  0.19028107137E+02 -0.89966528629E+01  0.23168006535E+02  0.51100000000E-03 0. -1.
        -11    1    3    3    0    0 -0.46293361980E+01  0.48075449077E+01 -0.36026849406E+01  0.75843642262E+01  0.51100000000E-03 0.  1.
         12    1    3    3    0    0 -0.24471889807E+01  0.11095610075E+02 -0.10380229725E+02  0.15389946913E+02  0.00000000000E+00 0. -1.
</event>
<event>
 7    1  0.2097247E-008  0.4614232E+02  0.7816164E-02  0.1320468E+00
        -11   -1    0    0    0    0  0.00000000000E+00  0.00000000000E+00  0.45593999997E+02  0.45594000000E+02  0.51100000000E-03 0.  1.
         11   -1    0    0    0    0 -0.00000000000E+00 -0.00000000000E+00 -0.45593999997E+02  0.45594000000E+02  0.51100000000E-03 0. -1.
    9900012    2    1    2    0    0  0.16687511246E+02 -0.21334349960E+02  0.35992857144E+02  0.46142320016E+02  0.10000020565E+02 0.  0.
         12    1    1    2    0    0 -0.16687511246E+02  0.21334349960E+02 -0.35992857144E+02  0.45045679984E+02  0.00000000000E+00 0. -1.
         11    1    3    3    0    0  0.11283370559E+02 -0.15879770000E+02  0.29796666395E+02  0.35599478577E+02  0.51100000000E-03 0.  1.
        -11    1    3    3    0    0  0.33006650140E+01 -0.81733932862E+00  0.20024307346E+01  0.39461579062E+01  0.51100000000E-03 0. -1.
        -12    1    3    3    0    0  0.21034756732E+01 -0.46372406314E+01  0.41937600146E+01  0.65966835334E+01  0.00000000000E+00 0.  1.
</event>
<event>
 7    1  0.2097247E-008  0.4614232E+02  0.7816164E-02  0.1320468E+00
        -11   -1    0    0    0    0  0.00000000000E+00  0.00000000000E+00  0.45593999997E+02  0.45594000000E+02  0.51100000000E-03 0.  1.
         11   -1    0    0    0    0 -0.00000000000E+00 -0.00000000000E+00 -0.45593999997E+02  0.45594000000E+02  0.51100000000E-03 0. -1.
    9900012    2    1    2    0    0  0.22846665806E+02 -0.37887139999E+02 -0.84680542802E+01  0.46142318086E+02  0.10000002963E+02 0.  0.
         12    1    1    2    0    0 -0.22846665806E+02  0.37887139999E+02  0.84680542802E+01  0.45045681914E+02  0.00000000000E+00 0. -1.
         11    1    3    3    0    0  0.16336735718E+01 -0.86501674996E-01 -0.11826980832E+01  0.20186993080E+01  0.51100000000E-03 0. -1.
        -11    1    3    3    0    0  0.19468779821E+01 -0.36859278267E+01  0.43511083208E+00  0.41911477567E+01  0.51100000000E-03 0.  1.
         12    1    3    3    0    0  0.19266114252E+02 -0.34114710498E+02 -0.77204670290E+01  0.39932471021E+02  0.00000000000E+00 0. -1.
</event>
<event>
 7    1  0.2097247E-008  0.4614232E+02  0.7816164E-02  0.1320468E+00
        -11   -1    0    0    0    0  0.00000000000E+00  0.00000000000E+00  0.45593999997E+02  0.45594000000E+02  0.51100000000E-03 0.  1.
         11   -1    0    0    0    0 -0.00000000000E+00 -0.00000000000E+00 -0.45593999997E+02  0.45594000000E+02  0.51100000000E-03 0. -1.
    9900012    2    1    2    0    0  0.44552650498E+02 -0.65910708686E+01  0.85587973645E+00  0.46142318612E+02  0.10000007759E+02 0.  0.
         12    1    1    2    0    0 -0.44552650498E+02  0.65910708686E+01 -0.85587973645E+00  0.45045681388E+02  0.00000000000E+00 0. -1.
         11    1    3    3    0    0  0.21591671898E+02 -0.88543047698E-01  0.21194669316E+01  0.21695628028E+02  0.51100000000E-03 0. -1.
        -11    1    3    3    0    0  0.58131309240E+01 -0.34469014698E+01  0.11725372840E+01  0.68591883503E+01  0.51100000000E-03 0.  1.
        -12    1    3    3    0    0  0.17147847676E+02 -0.30556263511E+01 -0.24361244791E+01  0.17587502233E+02  0.00000000000E+00 0.  1.
</event>
<event>
 7    1  0.2097247E-008  0.4614232E+02  0.7816164E-02  0.1320468E+00
        -11   -1    0    0    0    0  0.00000000000E+00  0.00000000000E+00  0.45593999997E+02  0.45594000000E+02  0.51100000000E-03 0.  1.
         11   -1    0    0    0    0 -0.00000000000E+00 -0.00000000000E+00 -0.45593999997E+02  0.45594000000E+02  0.51100000000E-03 0. -1.
    9900012    2    1    2    0    0 -0.11032656892E+01  0.33859785046E+02  0.29688571177E+02  0.46142317664E+02  0.99999991155E+01 0.  0.
         12    1    1    2    0    0  0.11032656892E+01 -0.33859785046E+02 -0.29688571177E+02  0.45045682336E+02  0.00000000000E+00 0. -1.
         11    1    3    3    0    0 -0.23471942944E+01  0.82042378077E+01  0.69232729794E+01  0.10988655426E+02  0.51100000000E-03 0. -1.
        -11    1    3    3    0    0 -0.88807995565E+00  0.16393397567E+00  0.20399388699E+01  0.22308991932E+01  0.51100000000E-03 0.  1.
         12    1    3    3    0    0  0.21320085609E+01  0.25491613263E+02  0.20725359328E+02  0.32922763045E+02  0.00000000000E+00 0. -1.
</event>
<event>
 7    1  0.2097247E-008  0.4614232E+02  0.7816164E-02  0.1320468E+00
        -11   -1    0    0    0    0  0.00000000000E+00  0.00000000000E+00  0.45593999997E+02  0.45594000000E+02  0.51100000000E-03 0.  1.
         11   -1    0    0    0    0 -0.00000000000E+00 -0.00000000000E+00 -0.45593999997E+02  0.45594000000E+02  0.51100000000E-03 0. -1.
    9900012    2    1    2    0    0 -0.41832475312E+01  0.40624158922E+01  0.44666662050E+02  0.46142317837E+02  0.10000000696E+02 0.  0.
         12    1    1    2    0    0  0.41832475312E+01 -0.40624158922E+01 -0.44666662050E+02  0.45045682163E+02  0.00000000000E+00 0. -1.
         11    1    3    3    0    0 -0.24027191011E+01  0.27818052379E+00  0.13422134672E+02  0.13638333582E+02  0.51100000000E-03 0. -1.
        -11    1    3    3    0    0 -0.11806924209E+01  0.18528105308E+01  0.30100172617E+02  0.30180247403E+02  0.51100000000E-03 0.  1.
         12    1    3    3    0    0 -0.59983600924E+00  0.19314248376E+01  0.11443547613E+01  0.23237368528E+01  0.00000000000E+00 0. -1.
</event>
<event>
 7    1  0.2097247E-008  0.4614231E+02  0.7816164E-02  0.1320468E+00
        -11   -1    0    0    0    0  0.00000000000E+00  0.00000000000E+00  0.45593999997E+02  0.45594000000E+02  0.51100000000E-03 0.  1.
         11   -1    0    0    0    0 -0.00000000000E+00 -0.00000000000E+00 -0.45593999997E+02  0.45594000000E+02  0.51100000000E-03 0. -1.
    9900012    2    1    2    0    0 -0.33187570770E+02  0.91259953228E+01  0.29058825218E+02  0.46142312446E+02  0.99999515285E+01 0.  0.
         12    1    1    2    0    0  0.33187570770E+02 -0.91259953228E+01 -0.29058825218E+02  0.45045687554E+02  0.00000000000E+00 0. -1.
         11    1    3    3    0    0 -0.96137029912E+01  0.34809078354E+01  0.34539336336E+01  0.10792111117E+02  0.51100000000E-03 0. -1.
        -11    1    3    3    0    0 -0.78115540791E+01  0.30843029153E+01  0.91759635148E+01  0.12439116057E+02  0.51100000000E-03 0.  1.
        -12    1    3    3    0    0 -0.15762313699E+02  0.25607845720E+01  0.16428928069E+02  0.22911085271E+02  0.00000000000E+00 0.  1.
</event>
<event>
 7    1  0.2097247E-008  0.4614232E+02  0.7816164E-02  0.1320468E+00
        -11   -1    0    0    0    0  0.00000000000E+00  0.00000000000E+00  0.45593999997E+02  0.45594000000E+02  0.51100000000E-03 0.  1.
         11   -1    0    0    0    0 -0.00000000000E+00 -0.00000000000E+00 -0.45593999997E+02  0.45594000000E+02  0.51100000000E-03 0. -1.
    9900012    2    1    2    0    0 -0.59347139069E+01 -0.87277562444E+01  0.43791768944E+02  0.46142316683E+02  0.99999901715E+01 0.  0.
         12    1    1    2    0    0  0.59347139069E+01  0.87277562444E+01 -0.43791768944E+02  0.45045683317E+02  0.00000000000E+00 0. -1.
         11    1    3    3    0    0 -0.64804370119E+00 -0.18779860866E+01  0.45457251295E+01  0.49608879844E+01  0.51100000000E-03 0. -1.
        -11    1    3    3    0    0  0.16633550896E+01 -0.45447209368E+01  0.20318371011E+02  0.20886776663E+02  0.51100000000E-03 0.  1.
         12    1    3    3    0    0 -0.69500252953E+01 -0.23050492210E+01  0.18927672803E+02  0.20294652036E+02  0.00000000000E+00 0. -1.
</event>
<event>
 7    1  0.2097247E-008  0.4614232E+02  0.7816164E-02  0.1320468E+00
        -11   -1    0    0    0    0  0.00000000000E+00  0.00000000000E+00  0.45593999997E+02  0.45594000000E+02  0.51100000000E-03 0.  1.
         11   -1    0    0    0    0 -0.00000000000E+00 -0.00000000000E+00 -0.45593999997E+02  0.45594000000E+02  0.51100000000E-03 0. -1.
    9900012    2    1    2    0    0  0.20254284451E+01  0.15161201045E+02  0.42369200283E+02  0.46142317519E+02  0.99999977942E+01 0.  0.
         12    1    1    2    0    0 -0.20254284451E+01 -0.15161201045E+02 -0.42369200283E+02  0.45045682481E+02  0.00000000000E+00 0. -1.
         11    1    3    3    0    0 -0.23819595738E+01  0.56300135695E+01  0.82315622295E+01  0.10253262954E+02  0.51100000000E-03 0. -1.
        -11    1    3    3    0    0  0.34349046508E+01  0.94434643273E+01  0.31959980289E+02  0.33502506307E+02  0.51100000000E-03 0.  1.
         12    1    3    3    0    0  0.97248336814E+00  0.87723148170E-01  0.21776577643E+01  0.23865482586E+01  0.00000000000E+00 0. -1.
</event>
<event>
 7    1  0.2097247E-008  0.4614232E+02  0.7816164E-02  0.1320468E+00
        -11   -1    0    0    0    0  0.00000000000E+00  0.00000000000E+00  0.45593999997E+02  0.45594000000E+02  0.51100000000E-03 0.  1.
         11   -1    0    0    0    0 -0.00000000000E+00 -0.00000000000E+00 -0.45593999997E+02  0.45594000000E+02  0.51100000000E-03 0. -1.
    9900012    2    1    2    0    0  0.44373236264E+01 -0.43354350815E+02  0.11394028896E+02  0.46142317964E+02  0.10000001853E+02 0.  0.
         12    1    1    2    0    0 -0.44373236264E+01  0.43354350815E+02 -0.11394028896E+02  0.45045682036E+02  0.00000000000E+00 0. -1.
         11    1    3    3    0    0 -0.12361952045E-01 -0.15611160608E+02  0.62113291284E+01  0.16801461191E+02  0.51100000000E-03 0. -1.
        -11    1    3    3    0    0  0.22328252733E+01 -0.25476703181E+02  0.54854551961E+01  0.26156034345E+02  0.51100000000E-03 0.  1.
         12    1    3    3    0    0  0.22168603051E+01 -0.22664870265E+01 -0.30275542870E+00  0.31848224289E+01  0.00000000000E+00 0. -1.
</event>
<event>
 7    1  0.2097247E-008  0.4614232E+02  0.7816164E-02  0.1320468E+00
        -11   -1    0    0    0    0  0.00000000000E+00  0.00000000000E+00  0.45593999997E+02  0.45594000000E+02  0.51100000000E-03 0.  1.
         11   -1    0    0    0    0 -0.00000000000E+00 -0.00000000000E+00 -0.45593999997E+02  0.45594000000E+02  0.51100000000E-03 0. -1.
    9900012    2    1    2    0    0  0.32433811235E+02  0.23164921721E+01  0.31173629838E+02  0.46142318248E+02  0.10000004443E+02 0.  0.
         12    1    1    2    0    0 -0.32433811235E+02 -0.23164921721E+01 -0.31173629838E+02  0.45045681752E+02  0.00000000000E+00 0. -1.
         11    1    3    3    0    0  0.26498616436E+01 -0.51999662011E+00  0.12079563980E+01  0.29582633648E+01  0.51100000000E-03 0. -1.
        -11    1    3    3    0    0  0.24910481178E+01 -0.14554534317E+01  0.58020740570E+01  0.64797939042E+01  0.51100000000E-03 0.  1.
         12    1    3    3    0    0  0.27292901473E+02  0.42919422239E+01  0.24163599383E+02  0.36704260979E+02  0.00000000000E+00 0. -1.
</event>
<event>
 7    1  0.2097247E-008  0.4614232E+02  0.7816164E-02  0.1320468E+00
        -11   -1    0    0    0    0  0.00000000000E+00  0.00000000000E+00  0.45593999997E+02  0.45594000000E+02  0.51100000000E-03 0.  1.
         11   -1    0    0    0    0 -0.00000000000E+00 -0.00000000000E+00 -0.45593999997E+02  0.45594000000E+02  0.51100000000E-03 0. -1.
    9900012    2    1    2    0    0 -0.55206812501E+01 -0.12653425855E+02  0.42878041560E+02  0.46142317018E+02  0.99999932220E+01 0.  0.
         12    1    1    2    0    0  0.55206812501E+01  0.12653425855E+02 -0.42878041560E+02  0.45045682982E+02  0.00000000000E+00 0. -1.
         11    1    3    3    0    0  0.10811235465E+01 -0.48291800944E+01  0.21284881029E+02  0.21852596395E+02  0.51100000000E-03 0. -1.
        -11    1    3    3    0    0  0.37301954810E+00 -0.15592876284E+01  0.19546288930E+01  0.25280616807E+01  0.51100000000E-03 0.  1.
        -12    1    3    3    0    0 -0.69748243447E+01 -0.62649581322E+01  0.19638531637E+02  0.21761658942E+02  0.00000000000E+00 0.  1.
</event>
<event>
 7    1  0.2097247E-008  0.4614232E+02  0.7816164E-02  0.1320468E+00
        -11   -1    0    0    0    0  0.00000000000E+00  0.00000000000E+00  0.45593999997E+02  0.45594000000E+02  0.51100000000E-03 0.  1.
         11   -1    0    0    0    0 -0.00000000000E+00 -0.00000000000E+00 -0.45593999997E+02  0.45594000000E+02  0.51100000000E-03 0. -1.
    9900012    2    1    2    0    0  0.77926471013E+01 -0.35707648487E+02  0.26331577729E+02  0.46142317687E+02  0.99999993240E+01 0.  0.
         12    1    1    2    0    0 -0.77926471013E+01  0.35707648487E+02 -0.26331577729E+02  0.45045682313E+02  0.00000000000E+00 0. -1.
         11    1    3    3    0    0  0.47516174194E+01 -0.52536766119E+01  0.66988778267E+01  0.97495615512E+01  0.51100000000E-03 0. -1.
        -11    1    3    3    0    0  0.11387716918E+01 -0.13200817275E+02  0.93683276823E+01  0.16227259212E+02  0.51100000000E-03 0.  1.
         12    1    3    3    0    0  0.19022579901E+01 -0.17253154600E+02  0.10264372220E+02  0.20165496924E+02  0.00000000000E+00 0. -1.
</event>
<event>
 7    1  0.2097247E-008  0.4614232E+02  0.7816164E-02  0.1320468E+00
        -11   -1    0    0    0    0  0.00000000000E+00  0.00000000000E+00  0.45593999997E+02  0.45594000000E+02  0.51100000000E-03 0.  1.
         11   -1    0    0    0    0 -0.00000000000E+00 -0.00000000000E+00 -0.45593999997E+02  0.45594000000E+02  0.51100000000E-03 0. -1.
    9900012    2    1    2    0    0  0.99139412954E+01  0.12024144732E+02  0.42264018825E+02  0.46142316790E+02  0.99999911485E+01 0.  0.
         12    1    1    2    0    0 -0.99139412954E+01 -0.12024144732E+02 -0.42264018825E+02  0.45045683210E+02  0.00000000000E+00 0. -1.
         11    1    3    3    0    0  0.16959367400E+01  0.61655546280E+01  0.22091245463E+02  0.22998117133E+02  0.51100000000E-03 0. -1.
        -11    1    3    3    0    0  0.77995391667E+01  0.65248037293E+01  0.19831487318E+02  0.22286627480E+02  0.51100000000E-03 0.  1.
         12    1    3    3    0    0  0.41846538869E+00 -0.66621362499E+00  0.34128604423E+00  0.85757217752E+00  0.00000000000E+00 0. -1.
</event>
<event>
 7    1  0.2097247E-008  0.4614232E+02  0.7816164E-02  0.1320468E+00
        -11   -1    0    0    0    0  0.00000000000E+00  0.00000000000E+00  0.45593999997E+02  0.45594000000E+02  0.51100000000E-03 0. -1.
         11   -1    0    0    0    0 -0.00000000000E+00 -0.00000000000E+00 -0.45593999997E+02  0.45594000000E+02  0.51100000000E-03 0.  1.
    9900012    2    1    2    0    0  0.43489730292E+02 -0.99465161233E+01 -0.62308680173E+01  0.46142317187E+02  0.99999947645E+01 0.  0.
         12    1    1    2    0    0 -0.43489730292E+02  0.99465161233E+01  0.62308680173E+01  0.45045682813E+02  0.00000000000E+00 0. -1.
         11    1    3    3    0    0  0.89667885576E+01  0.41607492538E+00  0.12420392427E+01  0.90619576871E+01  0.51100000000E-03 0. -1.
        -11    1    3    3    0    0  0.60283299591E+01 -0.23991416036E+00 -0.54500266741E+00  0.60576686166E+01  0.51100000000E-03 0.  1.
        -12    1    3    3    0    0  0.28494611775E+02 -0.10122676888E+02 -0.69279045925E+01  0.31022690883E+02  0.00000000000E+00 0.  1.
</event>
<event>
 7    1  0.2097247E-008  0.4614232E+02  0.7816164E-02  0.1320468E+00
        -11   -1    0    0    0    0  0.00000000000E+00  0.00000000000E+00  0.45593999997E+02  0.45594000000E+02  0.51100000000E-03 0.  1.
         11   -1    0    0    0    0 -0.00000000000E+00 -0.00000000000E+00 -0.45593999997E+02  0.45594000000E+02  0.51100000000E-03 0. -1.
    9900012    2    1    2    0    0  0.29455654964E+02 -0.94587709587E+01  0.32741556069E+02  0.46142318173E+02  0.10000003758E+02 0.  0.
         12    1    1    2    0    0 -0.29455654964E+02  0.94587709587E+01 -0.32741556069E+02  0.45045681827E+02  0.00000000000E+00 0. -1.
         11    1    3    3    0    0  0.14020157661E+02 -0.37185515478E+01  0.16898256670E+02  0.22269789518E+02  0.51100000000E-03 0.  1.
        -11    1    3    3    0    0  0.99789588852E+01 -0.22833906104E+01  0.53502603398E+01  0.11550704700E+02  0.51100000000E-03 0. -1.
         12    1    3    3    0    0  0.54565384182E+01 -0.34568288005E+01  0.10493039059E+02  0.12321823954E+02  0.00000000000E+00 0. -1.
</event>
<event>
 7    1  0.2097247E-008  0.4614232E+02  0.7816164E-02  0.1320468E+00
        -11   -1    0    0    0    0  0.00000000000E+00  0.00000000000E+00  0.45593999997E+02  0.45594000000E+02  0.51100000000E-03 0.  1.
         11   -1    0    0    0    0 -0.00000000000E+00 -0.00000000000E+00 -0.45593999997E+02  0.45594000000E+02  0.51100000000E-03 0. -1.
    9900012    2    1    2    0    0  0.37502350672E+02  0.23558097110E+02  0.82281977376E+01  0.46142317816E+02  0.10000000502E+02 0.  0.
         12    1    1    2    0    0 -0.37502350672E+02 -0.23558097110E+02 -0.82281977376E+01  0.45045682184E+02  0.00000000000E+00 0. -1.
         11    1    3    3    0    0  0.16195968088E+02  0.13301612221E+02  0.62400746486E+01  0.21867345561E+02  0.51100000000E-03 0. -1.
        -11    1    3    3    0    0  0.12893077038E+02  0.86956535683E+01  0.22545126752E+01  0.15713963668E+02  0.51100000000E-03 0.  1.
        -12    1    3    3    0    0  0.84133055463E+01  0.15608313208E+01 -0.26638958620E+00  0.85610085877E+01  0.00000000000E+00 0.  1.
</event>
<event>
 7    1  0.2097247E-008  0.4614232E+02  0.7816164E-02  0.1320468E+00
        -11   -1    0    0    0    0  0.00000000000E+00  0.00000000000E+00  0.45593999997E+02  0.45594000000E+02  0.51100000000E-03 0. -1.
         11   -1    0    0    0    0 -0.00000000000E+00 -0.00000000000E+00 -0.45593999997E+02  0.45594000000E+02  0.51100000000E-03 0.  1.
    9900012    2    1    2    0    0  0.38327844298E+02  0.18754180426E+02  0.14435041089E+02  0.46142319372E+02  0.10000014686E+02 0.  0.
         12    1    1    2    0    0 -0.38327844298E+02 -0.18754180426E+02 -0.14435041089E+02  0.45045680628E+02  0.00000000000E+00 0. -1.
         11    1    3    3    0    0  0.15091147286E+02  0.39283783726E+01  0.80575010883E+01  0.17552726486E+02  0.51100000000E-03 0. -1.
        -11    1    3    3    0    0  0.13990405087E+02  0.67324608129E+01  0.44510397395E+01  0.16151446317E+02  0.51100000000E-03 0.  1.
         12    1    3    3    0    0  0.92462919250E+01  0.80933412409E+01  0.19265002615E+01  0.12438146569E+02  0.00000000000E+00 0. -1.
</event>
<event>
 7    1  0.2097247E-008  0.4614232E+02  0.7816164E-02  0.1320468E+00
        -11   -1    0    0    0    0  0.00000000000E+00  0.00000000000E+00  0.45593999997E+02  0.45594000000E+02  0.51100000000E-03 0. -1.
         11   -1    0    0    0    0 -0.00000000000E+00 -0.00000000000E+00 -0.45593999997E+02  0.45594000000E+02  0.51100000000E-03 0.  1.
    9900012    2    1    2    0    0 -0.38952544410E+02 -0.21708986791E+02 -0.63665284919E+01  0.46142317537E+02  0.99999979596E+01 0.  0.
         12    1    1    2    0    0  0.38952544410E+02  0.21708986791E+02  0.63665284919E+01  0.45045682463E+02  0.00000000000E+00 0. -1.
         11    1    3    3    0    0 -0.99731142479E+00 -0.78945903322E-01 -0.80722285041E+00  0.12854849377E+01  0.51100000000E-03 0. -1.
        -11    1    3    3    0    0 -0.16379449804E+02 -0.49136000076E+01 -0.56564568712E+00  0.17109932677E+02  0.51100000000E-03 0.  1.
        -12    1    3    3    0    0 -0.21575783182E+02 -0.16716440880E+02 -0.49936599544E+01  0.27746899923E+02  0.00000000000E+00 0.  1.
</event>
<event>
 7    1  0.2265308E-008  0.4614232E+02  0.7816164E-02  0.1320468E+00
        -11   -1    0    0    0    0  0.00000000000E+00  0.00000000000E+00  0.45593999997E+02  0.45594000000E+02  0.51100000000E-03 0. -1.
         11   -1    0    0    0    0 -0.00000000000E+00 -0.00000000000E+00 -0.45593999997E+02  0.45594000000E+02  0.51100000000E-03 0.  1.
    9900012    2    1    2    0    0 -0.10877824882E+02 -0.42612359744E+02 -0.97454160775E+01  0.46142318613E+02  0.10000007770E+02 0.  0.
         12    1    1    2    0    0  0.10877824882E+02  0.42612359744E+02  0.97454160775E+01  0.45045681387E+02  0.00000000000E+00 0. -1.
         11    1    3    3    0    0 -0.14886618973E+01 -0.59972767472E+00 -0.31019415379E+00  0.16346278483E+01  0.51100000000E-03 0. -1.
        -11    1    3    3    0    0  0.70393730385E-01 -0.12529500983E+02 -0.29514630218E+01  0.12872625388E+02  0.51100000000E-03 0.  1.
        -12    1    3    3    0    0 -0.94595567155E+01 -0.29483131086E+02 -0.64837589019E+01  0.31635065376E+02  0.00000000000E+00 0.  1.
</event>
<event>
 7    1  0.2097247E-008  0.4614232E+02  0.7816164E-02  0.1320468E+00
        -11   -1    0    0    0    0  0.00000000000E+00  0.00000000000E+00  0.45593999997E+02  0.45594000000E+02  0.51100000000E-03 0.  1.
         11   -1    0    0    0    0 -0.00000000000E+00 -0.00000000000E+00 -0.45593999997E+02  0.45594000000E+02  0.51100000000E-03 0. -1.
    9900012    2    1    2    0    0  0.31057681943E+02  0.30247497279E+02  0.12232040530E+02  0.46142317467E+02  0.99999973215E+01 0.  0.
         12    1    1    2    0    0 -0.31057681943E+02 -0.30247497279E+02 -0.12232040530E+02  0.45045682533E+02  0.00000000000E+00 0. -1.
         11    1    3    3    0    0  0.12241927747E+02  0.14460537369E+02  0.15197212292E+01  0.19007406158E+02  0.51100000000E-03 0. -1.
        -11    1    3    3    0    0  0.59357319225E+01  0.38885549310E+01  0.12344930437E+01  0.72026207899E+01  0.51100000000E-03 0.  1.
         12    1    3    3    0    0  0.12880022274E+02  0.11898404978E+02  0.94778262573E+01  0.19932290520E+02  0.00000000000E+00 0. -1.
</event>
<event>
 7    1  0.2097247E-008  0.4614232E+02  0.7816164E-02  0.1320468E+00
        -11   -1    0    0    0    0  0.00000000000E+00  0.00000000000E+00  0.45593999997E+02  0.45594000000E+02  0.51100000000E-03 0. -1.
         11   -1    0    0    0    0 -0.00000000000E+00 -0.00000000000E+00 -0.45593999997E+02  0.45594000000E+02  0.51100000000E-03 0.  1.
    9900012    2    1    2    0    0  0.53168798824E+01 -0.17063914538E+02 -0.41348121011E+02  0.46142317608E+02  0.99999986036E+01 0.  0.
         12    1    1    2    0    0 -0.53168798824E+01  0.17063914538E+02  0.41348121011E+02  0.45045682392E+02  0.00000000000E+00 0. -1.
         11    1    3    3    0    0  0.37362659608E+01 -0.14712617606E+01 -0.77284291164E+01  0.87093576896E+01  0.51100000000E-03 0. -1.
        -11    1    3    3    0    0  0.18472364120E+01 -0.14467597105E+02 -0.33088877493E+02  0.36160717116E+02  0.51100000000E-03 0.  1.
        -12    1    3    3    0    0 -0.26662249036E+00 -0.11250556729E+01 -0.53081440161E+00  0.12722428025E+01  0.00000000000E+00 0.  1.
</event>
<event>
 7    1  0.2097247E-008  0.4614232E+02  0.7816164E-02  0.1320468E+00
        -11   -1    0    0    0    0  0.00000000000E+00  0.00000000000E+00  0.45593999997E+02  0.45594000000E+02  0.51100000000E-03 0.  1.
         11   -1    0    0    0    0 -0.00000000000E+00 -0.00000000000E+00 -0.45593999997E+02  0.45594000000E+02  0.51100000000E-03 0. -1.
    9900012    2    1    2    0    0  0.14640848059E+02 -0.38357992933E+02  0.18531687235E+02  0.46142317793E+02  0.10000000288E+02 0.  0.
         12    1    1    2    0    0 -0.14640848059E+02  0.38357992933E+02 -0.18531687235E+02  0.45045682207E+02  0.00000000000E+00 0. -1.
         11    1    3    3    0    0 -0.66597590410E+00 -0.20856595683E+01  0.19286307148E+01  0.29177245303E+01  0.51100000000E-03 0. -1.
        -11    1    3    3    0    0  0.30184593683E+01 -0.27732972473E+01  0.69619777977E+00  0.41577597561E+01  0.51100000000E-03 0.  1.
        -12    1    3    3    0    0  0.12288364595E+02 -0.33499036117E+02  0.15906858741E+02  0.39066833506E+02  0.00000000000E+00 0.  1.
</event>
<event>
 7    1  0.2157520E-008  0.4614232E+02  0.7816164E-02  0.1320468E+00
        -11   -1    0    0    0    0  0.00000000000E+00  0.00000000000E+00  0.45593999997E+02  0.45594000000E+02  0.51100000000E-03 0. -1.
         11   -1    0    0    0    0 -0.00000000000E+00 -0.00000000000E+00 -0.45593999997E+02  0.45594000000E+02  0.51100000000E-03 0.  1.
    9900012    2    1    2    0    0  0.19936144899E+02 -0.40292915602E+02 -0.28538560866E+01  0.46142318568E+02  0.10000007357E+02 0.  0.
         12    1    1    2    0    0 -0.19936144899E+02  0.40292915602E+02  0.28538560866E+01  0.45045681432E+02  0.00000000000E+00 0. -1.
         11    1    3    3    0    0 -0.24234469914E+00 -0.15546453368E+00  0.13542819174E+00  0.31818427157E+00  0.51100000000E-03 0. -1.
        -11    1    3    3    0    0  0.65440311525E+01 -0.57184644890E+01 -0.11040304663E+00  0.86912236728E+01  0.51100000000E-03 0.  1.
        -12    1    3    3    0    0  0.13634458445E+02 -0.34418986579E+02 -0.28788812317E+01  0.37132910624E+02  0.00000000000E+00 0.  1.
</event>
<event>
 7    1  0.2097247E-008  0.4614232E+02  0.7816164E-02  0.1320468E+00
        -11   -1    0    0    0    0  0.00000000000E+00  0.00000000000E+00  0.45593999997E+02  0.45594000000E+02  0.51100000000E-03 0.  1.
         11   -1    0    0    0    0 -0.00000000000E+00 -0.00000000000E+00 -0.45593999997E+02  0.45594000000E+02  0.51100000000E-03 0. -1.
    9900012    2    1    2    0    0 -0.11384293881E+02 -0.37998766235E+02  0.21344906123E+02  0.46142318743E+02  0.10000008951E+02 0.  0.
         12    1    1    2    0    0  0.11384293881E+02  0.37998766235E+02 -0.21344906123E+02  0.45045681257E+02  0.00000000000E+00 0. -1.
         11    1    3    3    0    0 -0.36805782682E+01 -0.39684152173E+01  0.41963016805E+01  0.68486439374E+01  0.51100000000E-03 0. -1.
        -11    1    3    3    0    0 -0.50708609054E+00 -0.94278351540E+01  0.68691104178E+01  0.11675867856E+02  0.51100000000E-03 0.  1.
        -12    1    3    3    0    0 -0.71966295220E+01 -0.24602515864E+02  0.10279494024E+02  0.27617806950E+02  0.00000000000E+00 0.  1.
</event>
<event>
 7    1  0.2097247E-008  0.4614232E+02  0.7816164E-02  0.1320468E+00
        -11   -1    0    0    0    0  0.00000000000E+00  0.00000000000E+00  0.45593999997E+02  0.45594000000E+02  0.51100000000E-03 0.  1.
         11   -1    0    0    0    0 -0.00000000000E+00 -0.00000000000E+00 -0.45593999997E+02  0.45594000000E+02  0.51100000000E-03 0. -1.
    9900012    2    1    2    0    0 -0.18736480787E+02 -0.40936711241E+02  0.14978241382E+01  0.46142317447E+02  0.99999971353E+01 0.  0.
         12    1    1    2    0    0  0.18736480787E+02  0.40936711241E+02 -0.14978241382E+01  0.45045682553E+02  0.00000000000E+00 0. -1.
         11    1    3    3    0    0 -0.17238054363E+00 -0.19397648646E+01 -0.17201929981E+01  0.25983585190E+01  0.51100000000E-03 0. -1.
        -11    1    3    3    0    0 -0.48946154769E+01 -0.15345336495E+02  0.11282572308E+01  0.16146503567E+02  0.51100000000E-03 0.  1.
        -12    1    3    3    0    0 -0.13669484767E+02 -0.23651609882E+02  0.20897599055E+01  0.27397455361E+02  0.00000000000E+00 0.  1.
</event>
<event>
 7    1  0.2097247E-008  0.4614232E+02  0.7816164E-02  0.1320468E+00
        -11   -1    0    0    0    0  0.00000000000E+00  0.00000000000E+00  0.45593999997E+02  0.45594000000E+02  0.51100000000E-03 0.  1.
         11   -1    0    0    0    0 -0.00000000000E+00 -0.00000000000E+00 -0.45593999997E+02  0.45594000000E+02  0.51100000000E-03 0. -1.
    9900012    2    1    2    0    0 -0.28078864837E+02 -0.35098850937E+02  0.29599873507E+01  0.46142317490E+02  0.99999975269E+01 0.  0.
         12    1    1    2    0    0  0.28078864837E+02  0.35098850937E+02 -0.29599873507E+01  0.45045682510E+02  0.00000000000E+00 0. -1.
         11    1    3    3    0    0 -0.41535268087E+01 -0.80864399693E+01 -0.27995149991E+00  0.90950904026E+01  0.51100000000E-03 0. -1.
        -11    1    3    3    0    0 -0.16585126944E+02 -0.21900602898E+02 -0.17586000569E+00  0.27472418351E+02  0.51100000000E-03 0.  1.
         12    1    3    3    0    0 -0.73402110847E+01 -0.51118080704E+01  0.34157988563E+01  0.95748087366E+01  0.00000000000E+00 0. -1.
</event>
<event>
 7    1  0.2097247E-008  0.4614232E+02  0.7816164E-02  0.1320468E+00
        -11   -1    0    0    0    0  0.00000000000E+00  0.00000000000E+00  0.45593999997E+02  0.45594000000E+02  0.51100000000E-03 0.  1.
         11   -1    0    0    0    0 -0.00000000000E+00 -0.00000000000E+00 -0.45593999997E+02  0.45594000000E+02  0.51100000000E-03 0. -1.
    9900012    2    1    2    0    0 -0.17123443557E+01  0.23085124696E+02  0.38642702285E+02  0.46142317129E+02  0.99999942338E+01 0.  0.
         12    1    1    2    0    0  0.17123443557E+01 -0.23085124696E+02 -0.38642702285E+02  0.45045682871E+02  0.00000000000E+00 0. -1.
         11    1    3    3    0    0  0.10689818451E+01  0.31925326002E+00  0.62611960916E+00  0.12793243745E+01  0.51100000000E-03 0. -1.
        -11    1    3    3    0    0  0.10207544704E+01  0.54663171060E+01  0.54218200531E+01  0.77665111434E+01  0.51100000000E-03 0.  1.
        -12    1    3    3    0    0 -0.38020806712E+01  0.17299554330E+02  0.32594762623E+02  0.37096481611E+02  0.00000000000E+00 0.  1.
</event>
<event>
 7    1  0.2097247E-008  0.4614232E+02  0.7816164E-02  0.1320468E+00
        -11   -1    0    0    0    0  0.00000000000E+00  0.00000000000E+00  0.45593999997E+02  0.45594000000E+02  0.51100000000E-03 0. -1.
         11   -1    0    0    0    0 -0.00000000000E+00 -0.00000000000E+00 -0.45593999997E+02  0.45594000000E+02  0.51100000000E-03 0.  1.
    9900012    2    1    2    0    0 -0.42842047348E+02 -0.13275888284E+02 -0.41741153999E+01  0.46142317964E+02  0.10000001849E+02 0.  0.
         12    1    1    2    0    0  0.42842047348E+02  0.13275888284E+02  0.41741153999E+01  0.45045682036E+02  0.00000000000E+00 0. -1.
         11    1    3    3    0    0  0.44729099209E+00 -0.20070405164E+00 -0.43701654103E+00  0.65676104194E+00  0.51100000000E-03 0. -1.
        -11    1    3    3    0    0 -0.93477191674E+01 -0.20532822003E+01  0.27398322258E+00  0.95744915527E+01  0.51100000000E-03 0.  1.
        -12    1    3    3    0    0 -0.33941619173E+02 -0.11021902032E+02 -0.40110820814E+01  0.35911065369E+02  0.00000000000E+00 0.  1.
</event>
<event>
 7    1  0.2097247E-008  0.4614233E+02  0.7816164E-02  0.1320468E+00
        -11   -1    0    0    0    0  0.00000000000E+00  0.00000000000E+00  0.45593999997E+02  0.45594000000E+02  0.51100000000E-03 0.  1.
         11   -1    0    0    0    0 -0.00000000000E+00 -0.00000000000E+00 -0.45593999997E+02  0.45594000000E+02  0.51100000000E-03 0. -1.
    9900012    2    1    2    0    0  0.13221345757E+01 -0.10495561674E+02  0.43785932750E+02  0.46142325830E+02  0.10000073576E+02 0.  0.
         12    1    1    2    0    0 -0.13221345757E+01  0.10495561674E+02 -0.43785932750E+02  0.45045674170E+02  0.00000000000E+00 0. -1.
         11    1    3    3    0    0  0.11300197726E+01 -0.28525279089E+01  0.50606035074E+01  0.59180713309E+01  0.51100000000E-03 0. -1.
        -11    1    3    3    0    0  0.24029179422E+01 -0.79845774930E+01  0.33822811515E+02  0.34835471454E+02  0.51100000000E-03 0.  1.
         12    1    3    3    0    0 -0.22108031391E+01  0.34154372797E+00  0.49025177278E+01  0.53887830453E+01  0.00000000000E+00 0. -1.
</event>
<event>
 7    1  0.2097247E-008  0.4614232E+02  0.7816164E-02  0.1320468E+00
        -11   -1    0    0    0    0  0.00000000000E+00  0.00000000000E+00  0.45593999997E+02  0.45594000000E+02  0.51100000000E-03 0.  1.
         11   -1    0    0    0    0 -0.00000000000E+00 -0.00000000000E+00 -0.45593999997E+02  0.45594000000E+02  0.51100000000E-03 0. -1.
    9900012    2    1    2    0    0  0.18915915887E+01  0.10623535932E+01  0.44993407854E+02  0.46142318029E+02  0.10000002442E+02 0.  0.
         12    1    1    2    0    0 -0.18915915887E+01 -0.10623535932E+01 -0.44993407854E+02  0.45045681971E+02  0.00000000000E+00 0. -1.
         11    1    3    3    0    0  0.80141691371E+00  0.33118981871E+01  0.19516470460E+02  0.19811702556E+02  0.51100000000E-03 0. -1.
        -11    1    3    3    0    0 -0.44357982781E+00 -0.25414479174E+00  0.22165190875E+02  0.22171085662E+02  0.51100000000E-03 0.  1.
         12    1    3    3    0    0  0.15337545028E+01 -0.19953998021E+01  0.33117465194E+01  0.41595298116E+01  0.00000000000E+00 0. -1.
</event>
<event>
 7    1  0.2097247E-008  0.4614232E+02  0.7816164E-02  0.1320468E+00
        -11   -1    0    0    0    0  0.00000000000E+00  0.00000000000E+00  0.45593999997E+02  0.45594000000E+02  0.51100000000E-03 0.  1.
         11   -1    0    0    0    0 -0.00000000000E+00 -0.00000000000E+00 -0.45593999997E+02  0.45594000000E+02  0.51100000000E-03 0. -1.
    9900012    2    1    2    0    0 -0.34977996094E+02 -0.18046675952E+02  0.21908230546E+02  0.46142319970E+02  0.10000020144E+02 0.  0.
         12    1    1    2    0    0  0.34977996094E+02  0.18046675952E+02 -0.21908230546E+02  0.45045680030E+02  0.00000000000E+00 0. -1.
         11    1    3    3    0    0 -0.92597072428E+01 -0.60138678801E+01  0.81499096798E+01  0.13723330979E+02  0.51100000000E-03 0. -1.
        -11    1    3    3    0    0 -0.12897021389E+02 -0.98955248913E+01  0.89726611702E+01  0.18567800686E+02  0.51100000000E-03 0.  1.
         12    1    3    3    0    0 -0.12821267463E+02 -0.21372831801E+01  0.47856596964E+01  0.13851188306E+02  0.00000000000E+00 0. -1.
</event>
<event>
 7    1  0.2097247E-008  0.4614232E+02  0.7816164E-02  0.1320468E+00
        -11   -1    0    0    0    0  0.00000000000E+00  0.00000000000E+00  0.45593999997E+02  0.45594000000E+02  0.51100000000E-03 0. -1.
         11   -1    0    0    0    0 -0.00000000000E+00 -0.00000000000E+00 -0.45593999997E+02  0.45594000000E+02  0.51100000000E-03 0.  1.
    9900012    2    1    2    0    0  0.33018399867E+02 -0.17157890420E+02 -0.25387114360E+02  0.46142317532E+02  0.99999979102E+01 0.  0.
         12    1    1    2    0    0 -0.33018399867E+02  0.17157890420E+02  0.25387114360E+02  0.45045682468E+02  0.00000000000E+00 0. -1.
         11    1    3    3    0    0  0.47368304935E+01 -0.12684434665E+01 -0.38020269017E+01  0.62049916015E+01  0.51100000000E-03 0. -1.
        -11    1    3    3    0    0  0.17550991257E+02 -0.11278263984E+02 -0.18435531809E+02  0.27840714177E+02  0.51100000000E-03 0.  1.
         12    1    3    3    0    0  0.10730578117E+02 -0.46111829697E+01 -0.31495556498E+01  0.12096611753E+02  0.00000000000E+00 0. -1.
</event>
<event>
 7    1  0.2097247E-008  0.4614232E+02  0.7816164E-02  0.1320468E+00
        -11   -1    0    0    0    0  0.00000000000E+00  0.00000000000E+00  0.45593999997E+02  0.45594000000E+02  0.51100000000E-03 0.  1.
         11   -1    0    0    0    0 -0.00000000000E+00 -0.00000000000E+00 -0.45593999997E+02  0.45594000000E+02  0.51100000000E-03 0. -1.
    9900012    2    1    2    0    0  0.18840081168E+02  0.39312114291E+02 -0.11345591534E+02  0.46142318346E+02  0.10000005331E+02 0.  0.
         12    1    1    2    0    0 -0.18840081168E+02 -0.39312114291E+02  0.11345591534E+02  0.45045681654E+02  0.00000000000E+00 0. -1.
         11    1    3    3    0    0  0.98147921049E+01  0.21787409305E+02 -0.43772820365E+01  0.24293660625E+02  0.51100000000E-03 0. -1.
        -11    1    3    3    0    0  0.79449556300E+01  0.16624217447E+02 -0.80175471382E+01  0.20093978900E+02  0.51100000000E-03 0.  1.
         12    1    3    3    0    0  0.10803334328E+01  0.90048753928E+00  0.10492376406E+01  0.17546788199E+01  0.00000000000E+00 0. -1.
</event>
<event>
 7    1  0.2097247E-008  0.4614232E+02  0.7816164E-02  0.1320468E+00
        -11   -1    0    0    0    0  0.00000000000E+00  0.00000000000E+00  0.45593999997E+02  0.45594000000E+02  0.51100000000E-03 0.  1.
         11   -1    0    0    0    0 -0.00000000000E+00 -0.00000000000E+00 -0.45593999997E+02  0.45594000000E+02  0.51100000000E-03 0. -1.
    9900012    2    1    2    0    0  0.32003705304E+02  0.30624623048E+02  0.81858895226E+01  0.46142317884E+02  0.10000001117E+02 0.  0.
         12    1    1    2    0    0 -0.32003705304E+02 -0.30624623048E+02 -0.81858895226E+01  0.45045682116E+02  0.00000000000E+00 0. -1.
         11    1    3    3    0    0  0.42965262271E+01  0.47932199681E+01 -0.50762413374E+00  0.64569944870E+01  0.51100000000E-03 0. -1.
        -11    1    3    3    0    0  0.23338256769E+01 -0.14576512438E+00 -0.33265404326E-01  0.23386099738E+01  0.51100000000E-03 0.  1.
        -12    1    3    3    0    0  0.25373353400E+02  0.25977168205E+02  0.87267790606E+01  0.37346713423E+02  0.00000000000E+00 0.  1.
</event>
<event>
 7    1  0.2097247E-008  0.4614232E+02  0.7816164E-02  0.1320468E+00
        -11   -1    0    0    0    0  0.00000000000E+00  0.00000000000E+00  0.45593999997E+02  0.45594000000E+02  0.51100000000E-03 0.  1.
         11   -1    0    0    0    0 -0.00000000000E+00 -0.00000000000E+00 -0.45593999997E+02  0.45594000000E+02  0.51100000000E-03 0. -1.
    9900012    2    1    2    0    0 -0.37099648805E+02  0.12046975577E+02  0.22529979045E+02  0.46142317435E+02  0.99999970262E+01 0.  0.
         12    1    1    2    0    0  0.37099648805E+02 -0.12046975577E+02 -0.22529979045E+02  0.45045682565E+02  0.00000000000E+00 0. -1.
         11    1    3    3    0    0  0.36494251962E+00  0.80125928297E+00  0.65625190918E+00  0.10981194428E+01  0.51100000000E-03 0. -1.
        -11    1    3    3    0    0 -0.97707182439E+01  0.23510215122E+01  0.35087470424E+01  0.10644507655E+02  0.51100000000E-03 0.  1.
        -12    1    3    3    0    0 -0.27693873080E+02  0.88946947819E+01  0.18364980093E+02  0.34399690337E+02  0.00000000000E+00 0.  1.
</event>
<event>
 7    1  0.2097247E-008  0.4614232E+02  0.7816164E-02  0.1320468E+00
        -11   -1    0    0    0    0  0.00000000000E+00  0.00000000000E+00  0.45593999997E+02  0.45594000000E+02  0.51100000000E-03 0.  1.
         11   -1    0    0    0    0 -0.00000000000E+00 -0.00000000000E+00 -0.45593999997E+02  0.45594000000E+02  0.51100000000E-03 0. -1.
    9900012    2    1    2    0    0 -0.15831459308E+02  0.57955719619E+01  0.41771877658E+02  0.46142317396E+02  0.99999966713E+01 0.  0.
         12    1    1    2    0    0  0.15831459308E+02 -0.57955719619E+01 -0.41771877658E+02  0.45045682604E+02  0.00000000000E+00 0. -1.
         11    1    3    3    0    0 -0.10902565333E+02  0.43700294737E+01  0.16587733038E+02  0.20325254636E+02  0.51100000000E-03 0. -1.
        -11    1    3    3    0    0 -0.20994749265E+01  0.56989333227E+00  0.55410132029E+01  0.59527641439E+01  0.51100000000E-03 0.  1.
         12    1    3    3    0    0 -0.28294190491E+01  0.85564915592E+00  0.19643131417E+02  0.19864298616E+02  0.00000000000E+00 0. -1.
</event>
<event>
 7    1  0.2097247E-008  0.4614232E+02  0.7816164E-02  0.1320468E+00
        -11   -1    0    0    0    0  0.00000000000E+00  0.00000000000E+00  0.45593999997E+02  0.45594000000E+02  0.51100000000E-03 0.  1.
         11   -1    0    0    0    0 -0.00000000000E+00 -0.00000000000E+00 -0.45593999997E+02  0.45594000000E+02  0.51100000000E-03 0. -1.
    9900012    2    1    2    0    0  0.27587086386E+02 -0.11134093257E+02  0.33824520325E+02  0.46142317153E+02  0.99999944553E+01 0.  0.
         12    1    1    2    0    0 -0.27587086386E+02  0.11134093257E+02 -0.33824520325E+02  0.45045682847E+02  0.00000000000E+00 0. -1.
         11    1    3    3    0    0  0.15186932226E+01  0.28346387746E-01  0.73745090386E+00  0.16885102069E+01  0.51100000000E-03 0. -1.
        -11    1    3    3    0    0  0.21589494234E+02 -0.52440036090E+01  0.23670477001E+02  0.32463784697E+02  0.51100000000E-03 0.  1.
         12    1    3    3    0    0  0.44788989291E+01 -0.59184360353E+01  0.94165924204E+01  0.11990022249E+02  0.00000000000E+00 0. -1.
</event>
<event>
 7    1  0.2097247E-008  0.4614232E+02  0.7816164E-02  0.1320468E+00
        -11   -1    0    0    0    0  0.00000000000E+00  0.00000000000E+00  0.45593999997E+02  0.45594000000E+02  0.51100000000E-03 0.  1.
         11   -1    0    0    0    0 -0.00000000000E+00 -0.00000000000E+00 -0.45593999997E+02  0.45594000000E+02  0.51100000000E-03 0. -1.
    9900012    2    1    2    0    0 -0.31374019750E+02  0.31111697215E+02 -0.87662261536E+01  0.46142317190E+02  0.99999947912E+01 0.  0.
         12    1    1    2    0    0  0.31374019750E+02 -0.31111697215E+02  0.87662261536E+01  0.45045682810E+02  0.00000000000E+00 0. -1.
         11    1    3    3    0    0 -0.84110601363E+01  0.85161676984E+01 -0.76201122440E+00  0.11993819502E+02  0.51100000000E-03 0. -1.
        -11    1    3    3    0    0 -0.19804090555E+02  0.22280963527E+02 -0.60412315291E+01  0.30416111143E+02  0.51100000000E-03 0.  1.
         12    1    3    3    0    0 -0.31588690588E+01  0.31456598940E+00 -0.19629834002E+01  0.37323865451E+01  0.00000000000E+00 0. -1.
</event>
<event>
 7    1  0.2097247E-008  0.4614232E+02  0.7816164E-02  0.1320468E+00
        -11   -1    0    0    0    0  0.00000000000E+00  0.00000000000E+00  0.45593999997E+02  0.45594000000E+02  0.51100000000E-03 0.  1.
         11   -1    0    0    0    0 -0.00000000000E+00 -0.00000000000E+00 -0.45593999997E+02  0.45594000000E+02  0.51100000000E-03 0. -1.
    9900012    2    1    2    0    0 -0.15621865013E+02  0.40720682573E+02  0.11264851315E+02  0.46142317290E+02  0.99999957037E+01 0.  0.
         12    1    1    2    0    0  0.15621865013E+02 -0.40720682573E+02 -0.11264851315E+02  0.45045682710E+02  0.00000000000E+00 0. -1.
         11    1    3    3    0    0 -0.11739989897E+01  0.56220649917E+00  0.60878203604E+00  0.14369988184E+01  0.51100000000E-03 0. -1.
        -11    1    3    3    0    0 -0.14225854892E+02  0.29568896760E+02  0.76063021444E+01  0.33683088273E+02  0.51100000000E-03 0.  1.
        -12    1    3    3    0    0 -0.22201113080E+00  0.10589579313E+02  0.30497671342E+01  0.11022230198E+02  0.00000000000E+00 0.  1.
</event>
<event>
 7    1  0.2097247E-008  0.4614232E+02  0.7816164E-02  0.1320468E+00
        -11   -1    0    0    0    0  0.00000000000E+00  0.00000000000E+00  0.45593999997E+02  0.45594000000E+02  0.51100000000E-03 0.  1.
         11   -1    0    0    0    0 -0.00000000000E+00 -0.00000000000E+00 -0.45593999997E+02  0.45594000000E+02  0.51100000000E-03 0. -1.
    9900012    2    1    2    0    0 -0.41224357702E+02  0.48607970971E+01  0.17493954097E+02  0.46142318228E+02  0.10000004259E+02 0.  0.
         12    1    1    2    0    0  0.41224357702E+02 -0.48607970971E+01 -0.17493954097E+02  0.45045681772E+02  0.00000000000E+00 0. -1.
         11    1    3    3    0    0 -0.92879995238E+01  0.13362044786E+00  0.27358982773E+01  0.96834874515E+01  0.51100000000E-03 0. -1.
        -11    1    3    3    0    0 -0.27740840947E+02  0.16098233644E+01  0.10457504466E+02  0.29690153042E+02  0.51100000000E-03 0.  1.
        -12    1    3    3    0    0 -0.41955172307E+01  0.31173532848E+01  0.43005513534E+01  0.67686777349E+01  0.00000000000E+00 0.  1.
</event>
<event>
 7    1  0.2097247E-008  0.4614232E+02  0.7816164E-02  0.1320468E+00
        -11   -1    0    0    0    0  0.00000000000E+00  0.00000000000E+00  0.45593999997E+02  0.45594000000E+02  0.51100000000E-03 0.  1.
         11   -1    0    0    0    0 -0.00000000000E+00 -0.00000000000E+00 -0.45593999997E+02  0.45594000000E+02  0.51100000000E-03 0. -1.
    9900012    2    1    2    0    0 -0.35694492709E+02  0.20683737659E+02  0.18088659725E+02  0.46142318476E+02  0.10000006517E+02 0.  0.
         12    1    1    2    0    0  0.35694492709E+02 -0.20683737659E+02 -0.18088659725E+02  0.45045681524E+02  0.00000000000E+00 0. -1.
         11    1    3    3    0    0 -0.60494903297E+01  0.27243776872E+01  0.19228640450E+00  0.66374348475E+01  0.51100000000E-03 0. -1.
        -11    1    3    3    0    0 -0.19918966975E+02  0.15336523412E+02  0.13107725155E+02  0.28351131454E+02  0.51100000000E-03 0.  1.
        -12    1    3    3    0    0 -0.97260354045E+01  0.26228365597E+01  0.47886481652E+01  0.11153752174E+02  0.00000000000E+00 0.  1.
</event>
<event>
 7    1  0.2097247E-008  0.4614232E+02  0.7816164E-02  0.1320468E+00
        -11   -1    0    0    0    0  0.00000000000E+00  0.00000000000E+00  0.45593999997E+02  0.45594000000E+02  0.51100000000E-03 0.  1.
         11   -1    0    0    0    0 -0.00000000000E+00 -0.00000000000E+00 -0.45593999997E+02  0.45594000000E+02  0.51100000000E-03 0. -1.
    9900012    2    1    2    0    0 -0.34227518546E+02 -0.11934340272E+01  0.29260317607E+02  0.46142317665E+02  0.99999991203E+01 0.  0.
         12    1    1    2    0    0  0.34227518546E+02  0.11934340272E+01 -0.29260317607E+02  0.45045682335E+02  0.00000000000E+00 0. -1.
         11    1    3    3    0    0 -0.11966637258E+02  0.23468025204E+01  0.73304800366E+01  0.14228275622E+02  0.51100000000E-03 0. -1.
        -11    1    3    3    0    0 -0.36917907610E+01 -0.10904191341E+01  0.68923987080E+01  0.78945229825E+01  0.51100000000E-03 0.  1.
        -12    1    3    3    0    0 -0.18569090527E+02 -0.24498174135E+01  0.15037438862E+02  0.24019519061E+02  0.00000000000E+00 0.  1.
</event>
<event>
 7    1  0.2097247E-008  0.4614232E+02  0.7816164E-02  0.1320468E+00
        -11   -1    0    0    0    0  0.00000000000E+00  0.00000000000E+00  0.45593999997E+02  0.45594000000E+02  0.51100000000E-03 0.  1.
         11   -1    0    0    0    0 -0.00000000000E+00 -0.00000000000E+00 -0.45593999997E+02  0.45594000000E+02  0.51100000000E-03 0. -1.
    9900012    2    1    2    0    0 -0.97468776514E+01  0.74471377224E+01  0.43343419297E+02  0.46142317848E+02  0.10000000791E+02 0.  0.
         12    1    1    2    0    0  0.97468776514E+01 -0.74471377224E+01 -0.43343419297E+02  0.45045682152E+02  0.00000000000E+00 0. -1.
         11    1    3    3    0    0 -0.45512573745E+01  0.49360755808E+01  0.18772239739E+02  0.19936794399E+02  0.51100000000E-03 0.  1.
        -11    1    3    3    0    0 -0.64666110977E+01  0.47823917341E+00  0.15055890724E+02  0.16392852636E+02  0.51100000000E-03 0. -1.
         12    1    3    3    0    0  0.12709908208E+01  0.20328229683E+01  0.95152888341E+01  0.98126708129E+01  0.00000000000E+00 0. -1.
</event>
<event>
 7    1  0.2097247E-008  0.4614232E+02  0.7816164E-02  0.1320468E+00
        -11   -1    0    0    0    0  0.00000000000E+00  0.00000000000E+00  0.45593999997E+02  0.45594000000E+02  0.51100000000E-03 0.  1.
         11   -1    0    0    0    0 -0.00000000000E+00 -0.00000000000E+00 -0.45593999997E+02  0.45594000000E+02  0.51100000000E-03 0. -1.
    9900012    2    1    2    0    0  0.21983820210E+01 -0.28001388793E+02  0.35216515005E+02  0.46142316667E+02  0.99999900253E+01 0.  0.
         12    1    1    2    0    0 -0.21983820210E+01  0.28001388793E+02 -0.35216515005E+02  0.45045683333E+02  0.00000000000E+00 0. -1.
         11    1    3    3    0    0 -0.82139063113E+00 -0.99362818534E+01  0.18693218821E+02  0.21185863442E+02  0.51100000000E-03 0. -1.
        -11    1    3    3    0    0  0.16429639020E+01 -0.11700390981E+02  0.12944379159E+02  0.17525850381E+02  0.51100000000E-03 0.  1.
         12    1    3    3    0    0  0.13768087501E+01 -0.63647159582E+01  0.35789170254E+01  0.74306028448E+01  0.00000000000E+00 0. -1.
</event>
<event>
 7    1  0.2097247E-008  0.4614232E+02  0.7816164E-02  0.1320468E+00
        -11   -1    0    0    0    0  0.00000000000E+00  0.00000000000E+00  0.45593999997E+02  0.45594000000E+02  0.51100000000E-03 0. -1.
         11   -1    0    0    0    0 -0.00000000000E+00 -0.00000000000E+00 -0.45593999997E+02  0.45594000000E+02  0.51100000000E-03 0.  1.
    9900012    2    1    2    0    0  0.29707331695E+02  0.29491278794E+02 -0.16638863309E+02  0.46142324808E+02  0.10000064257E+02 0.  0.
         12    1    1    2    0    0 -0.29707331695E+02 -0.29491278794E+02  0.16638863309E+02  0.45045675192E+02  0.00000000000E+00 0. -1.
         11    1    3    3    0    0  0.12653998815E+00  0.28692563451E+01 -0.35448388709E+00  0.28938388742E+01  0.51100000000E-03 0. -1.
        -11    1    3    3    0    0  0.13563364797E+02  0.92894481365E+01 -0.74496744729E+01  0.18048721875E+02  0.51100000000E-03 0.  1.
         12    1    3    3    0    0  0.16017426909E+02  0.17332574312E+02 -0.88347049485E+01  0.25199764059E+02  0.00000000000E+00 0. -1.
</event>
<event>
 7    1  0.2097247E-008  0.4614232E+02  0.7816164E-02  0.1320468E+00
        -11   -1    0    0    0    0  0.00000000000E+00  0.00000000000E+00  0.45593999997E+02  0.45594000000E+02  0.51100000000E-03 0.  1.
         11   -1    0    0    0    0 -0.00000000000E+00 -0.00000000000E+00 -0.45593999997E+02  0.45594000000E+02  0.51100000000E-03 0. -1.
    9900012    2    1    2    0    0 -0.13416345210E+02 -0.11298229328E+02  0.41490543521E+02  0.46142317561E+02  0.99999981710E+01 0.  0.
         12    1    1    2    0    0  0.13416345210E+02  0.11298229328E+02 -0.41490543521E+02  0.45045682439E+02  0.00000000000E+00 0. -1.
         11    1    3    3    0    0  0.22470041087E+00  0.36014630816E+00  0.20362582099E+01  0.20800344700E+01  0.51100000000E-03 0. -1.
        -11    1    3    3    0    0 -0.10751986650E+02 -0.11989387415E+02  0.36605591358E+02  0.39991498427E+02  0.51100000000E-03 0.  1.
         12    1    3    3    0    0 -0.28890589707E+01  0.33101177943E+00  0.28486939532E+01  0.40707846630E+01  0.00000000000E+00 0. -1.
</event>
<event>
 7    1  0.2097247E-008  0.4614232E+02  0.7816164E-02  0.1320468E+00
        -11   -1    0    0    0    0  0.00000000000E+00  0.00000000000E+00  0.45593999997E+02  0.45594000000E+02  0.51100000000E-03 0.  1.
         11   -1    0    0    0    0 -0.00000000000E+00 -0.00000000000E+00 -0.45593999997E+02  0.45594000000E+02  0.51100000000E-03 0. -1.
    9900012    2    1    2    0    0  0.11409171098E+02  0.30536259751E+02  0.31088282115E+02  0.46142316194E+02  0.99999857115E+01 0.  0.
         12    1    1    2    0    0 -0.11409171098E+02 -0.30536259751E+02 -0.31088282115E+02  0.45045683806E+02  0.00000000000E+00 0. -1.
         11    1    3    3    0    0  0.82748025944E+01  0.14671395261E+02  0.16358964833E+02  0.23480586184E+02  0.51100000000E-03 0.  1.
        -11    1    3    3    0    0 -0.10697222394E+01  0.31851866583E+00  0.88914908624E+00  0.14270060156E+01  0.51100000000E-03 0. -1.
         12    1    3    3    0    0  0.42040907429E+01  0.15546345824E+02  0.13840168196E+02  0.21234723995E+02  0.00000000000E+00 0. -1.
</event>
<event>
 7    1  0.2097247E-008  0.4614232E+02  0.7816164E-02  0.1320468E+00
        -11   -1    0    0    0    0  0.00000000000E+00  0.00000000000E+00  0.45593999997E+02  0.45594000000E+02  0.51100000000E-03 0. -1.
         11   -1    0    0    0    0 -0.00000000000E+00 -0.00000000000E+00 -0.45593999997E+02  0.45594000000E+02  0.51100000000E-03 0.  1.
    9900012    2    1    2    0    0  0.30029647722E+02 -0.11034946799E+02 -0.31710624141E+02  0.46142317892E+02  0.10000001197E+02 0.  0.
         12    1    1    2    0    0 -0.30029647722E+02  0.11034946799E+02  0.31710624141E+02  0.45045682108E+02  0.00000000000E+00 0. -1.
         11    1    3    3    0    0  0.56807681966E+01 -0.94296652294E+00 -0.68846246888E+01  0.89754314957E+01  0.51100000000E-03 0.  1.
        -11    1    3    3    0    0 -0.44634882049E-01  0.72007416439E+00 -0.17400023729E+01  0.18836421087E+01  0.51100000000E-03 0. -1.
         12    1    3    3    0    0  0.24393514407E+02 -0.10812054440E+02 -0.23085997079E+02  0.35283244288E+02  0.00000000000E+00 0. -1.
</event>
<event>
 7    1  0.2097247E-008  0.4614232E+02  0.7816164E-02  0.1320468E+00
        -11   -1    0    0    0    0  0.00000000000E+00  0.00000000000E+00  0.45593999997E+02  0.45594000000E+02  0.51100000000E-03 0.  1.
         11   -1    0    0    0    0 -0.00000000000E+00 -0.00000000000E+00 -0.45593999997E+02  0.45594000000E+02  0.51100000000E-03 0. -1.
    9900012    2    1    2    0    0  0.36494194059E+02 -0.36896211915E+01  0.26147160755E+02  0.46142317409E+02  0.99999967924E+01 0.  0.
         12    1    1    2    0    0 -0.36494194059E+02  0.36896211915E+01 -0.26147160755E+02  0.45045682591E+02  0.00000000000E+00 0. -1.
         11    1    3    3    0    0  0.11195892424E+01 -0.93332673135E+00 -0.29787498807E-01  0.14578979441E+01  0.51100000000E-03 0. -1.
        -11    1    3    3    0    0  0.16233089034E+02 -0.42967393214E+01  0.97763443360E+01  0.19430698835E+02  0.51100000000E-03 0.  1.
         12    1    3    3    0    0  0.19141515783E+02  0.15404448612E+01  0.16400603918E+02  0.25253720631E+02  0.00000000000E+00 0. -1.
</event>
<event>
 7    1  0.2097247E-008  0.4614232E+02  0.7816164E-02  0.1320468E+00
        -11   -1    0    0    0    0  0.00000000000E+00  0.00000000000E+00  0.45593999997E+02  0.45594000000E+02  0.51100000000E-03 0. -1.
         11   -1    0    0    0    0 -0.00000000000E+00 -0.00000000000E+00 -0.45593999997E+02  0.45594000000E+02  0.51100000000E-03 0.  1.
    9900012    2    1    2    0    0 -0.28542418531E+02  0.33836858087E+02  0.83373189066E+01  0.46142317550E+02  0.99999980735E+01 0.  0.
         12    1    1    2    0    0  0.28542418531E+02 -0.33836858087E+02 -0.83373189066E+01  0.45045682450E+02  0.00000000000E+00 0. -1.
         11    1    3    3    0    0 -0.50693658044E+01  0.30699081705E+01  0.81017981248E+00  0.59815714844E+01  0.51100000000E-03 0. -1.
        -11    1    3    3    0    0 -0.21531207892E+02  0.26064147405E+02  0.41663655563E+01  0.34063048828E+02  0.51100000000E-03 0.  1.
         12    1    3    3    0    0 -0.19418448353E+01  0.47028025119E+01  0.33607735378E+01  0.60976972377E+01  0.00000000000E+00 0. -1.
</event>
<event>
 7    1  0.2097247E-008  0.4614232E+02  0.7816164E-02  0.1320468E+00
        -11   -1    0    0    0    0  0.00000000000E+00  0.00000000000E+00  0.45593999997E+02  0.45594000000E+02  0.51100000000E-03 0. -1.
         11   -1    0    0    0    0 -0.00000000000E+00 -0.00000000000E+00 -0.45593999997E+02  0.45594000000E+02  0.51100000000E-03 0.  1.
    9900012    2    1    2    0    0  0.21122790457E+02 -0.35656414480E+02 -0.17651100146E+02  0.46142317558E+02  0.99999981508E+01 0.  0.
         12    1    1    2    0    0 -0.21122790457E+02  0.35656414480E+02  0.17651100146E+02  0.45045682442E+02  0.00000000000E+00 0. -1.
         11    1    3    3    0    0  0.89497702162E+01 -0.11355117214E+02 -0.84095994629E+01  0.16725980905E+02  0.51100000000E-03 0. -1.
        -11    1    3    3    0    0  0.12096149208E+02 -0.24698409951E+02 -0.92389845943E+01  0.29011844415E+02  0.51100000000E-03 0.  1.
         12    1    3    3    0    0  0.76871032571E-01  0.39711268445E+00 -0.25160889061E-02  0.40449223788E+00  0.00000000000E+00 0. -1.
</event>
<event>
 7    1  0.2097247E-008  0.4614232E+02  0.7816164E-02  0.1320468E+00
        -11   -1    0    0    0    0  0.00000000000E+00  0.00000000000E+00  0.45593999997E+02  0.45594000000E+02  0.51100000000E-03 0.  1.
         11   -1    0    0    0    0 -0.00000000000E+00 -0.00000000000E+00 -0.45593999997E+02  0.45594000000E+02  0.51100000000E-03 0. -1.
    9900012    2    1    2    0    0  0.77825289321E+01  0.16066458020E+02  0.41357160014E+02  0.46142317473E+02  0.99999973751E+01 0.  0.
         12    1    1    2    0    0 -0.77825289321E+01 -0.16066458020E+02 -0.41357160014E+02  0.45045682527E+02  0.00000000000E+00 0. -1.
         11    1    3    3    0    0  0.58509285256E+01  0.45364935724E+01  0.18033820432E+02  0.19494404792E+02  0.51100000000E-03 0. -1.
        -11    1    3    3    0    0  0.24449934407E+01  0.69172539319E+01  0.18740417805E+02  0.20125348560E+02  0.51100000000E-03 0.  1.
         12    1    3    3    0    0 -0.51339303424E+00  0.46127105159E+01  0.45829217764E+01  0.65225641216E+01  0.00000000000E+00 0. -1.
</event>
<event>
 7    1  0.2097247E-008  0.4614232E+02  0.7816164E-02  0.1320468E+00
        -11   -1    0    0    0    0  0.00000000000E+00  0.00000000000E+00  0.45593999997E+02  0.45594000000E+02  0.51100000000E-03 0.  1.
         11   -1    0    0    0    0 -0.00000000000E+00 -0.00000000000E+00 -0.45593999997E+02  0.45594000000E+02  0.51100000000E-03 0. -1.
    9900012    2    1    2    0    0  0.15855981782E+02 -0.32436728097E+00  0.42161548173E+02  0.46142317446E+02  0.99999971245E+01 0.  0.
         12    1    1    2    0    0 -0.15855981782E+02  0.32436728097E+00 -0.42161548173E+02  0.45045682554E+02  0.00000000000E+00 0. -1.
         11    1    3    3    0    0  0.81336730583E+01  0.36433531192E+01  0.22335538230E+02  0.24048012967E+02  0.51100000000E-03 0. -1.
        -11    1    3    3    0    0  0.64553089366E+01 -0.11133643739E+01  0.12066370658E+02  0.13729817727E+02  0.51100000000E-03 0.  1.
         12    1    3    3    0    0  0.12669997868E+01 -0.28543560262E+01  0.77596392851E+01  0.83644867517E+01  0.00000000000E+00 0. -1.
</event>
<event>
 7    1  0.2097247E-008  0.4614232E+02  0.7816164E-02  0.1320468E+00
        -11   -1    0    0    0    0  0.00000000000E+00  0.00000000000E+00  0.45593999997E+02  0.45594000000E+02  0.51100000000E-03 0.  1.
         11   -1    0    0    0    0 -0.00000000000E+00 -0.00000000000E+00 -0.45593999997E+02  0.45594000000E+02  0.51100000000E-03 0. -1.
    9900012    2    1    2    0    0  0.24532349779E+02 -0.34093389083E+02  0.16276304790E+02  0.46142318049E+02  0.10000002626E+02 0.  0.
         12    1    1    2    0    0 -0.24532349779E+02  0.34093389083E+02 -0.16276304790E+02  0.45045681951E+02  0.00000000000E+00 0. -1.
         11    1    3    3    0    0  0.40955698964E-01  0.26371360103E+00  0.51359610007E+00  0.57879482355E+00  0.51100000000E-03 0. -1.
        -11    1    3    3    0    0  0.96136849426E+01 -0.81034135950E+01  0.47463831009E+01  0.13439360211E+02  0.51100000000E-03 0.  1.
        -12    1    3    3    0    0  0.14877709137E+02 -0.26253689089E+02  0.11016325589E+02  0.32124163015E+02  0.00000000000E+00 0.  1.
</event>
<event>
 7    1  0.2097247E-008  0.4614232E+02  0.7816164E-02  0.1320468E+00
        -11   -1    0    0    0    0  0.00000000000E+00  0.00000000000E+00  0.45593999997E+02  0.45594000000E+02  0.51100000000E-03 0.  1.
         11   -1    0    0    0    0 -0.00000000000E+00 -0.00000000000E+00 -0.45593999997E+02  0.45594000000E+02  0.51100000000E-03 0. -1.
    9900012    2    1    2    0    0 -0.17585586402E+02 -0.51358174436E+01  0.41151961349E+02  0.46142318822E+02  0.10000009677E+02 0.  0.
         12    1    1    2    0    0  0.17585586402E+02  0.51358174436E+01 -0.41151961349E+02  0.45045681178E+02  0.00000000000E+00 0. -1.
         11    1    3    3    0    0 -0.90816444820E+01  0.99962037960E+00  0.25922166368E+02  0.27485163577E+02  0.51100000000E-03 0. -1.
        -11    1    3    3    0    0 -0.30065871461E+01 -0.35184715187E+01  0.75659619976E+01  0.88692158224E+01  0.51100000000E-03 0.  1.
        -12    1    3    3    0    0 -0.54973547738E+01 -0.26169663045E+01  0.76638329831E+01  0.97879394226E+01  0.00000000000E+00 0.  1.
</event>
<event>
 7    1  0.2097247E-008  0.4614232E+02  0.7816164E-02  0.1320468E+00
        -11   -1    0    0    0    0  0.00000000000E+00  0.00000000000E+00  0.45593999997E+02  0.45594000000E+02  0.51100000000E-03 0.  1.
         11   -1    0    0    0    0 -0.00000000000E+00 -0.00000000000E+00 -0.45593999997E+02  0.45594000000E+02  0.51100000000E-03 0. -1.
    9900012    2    1    2    0    0 -0.32857104907E+02  0.25329421056E+02  0.17548349982E+02  0.46142317621E+02  0.99999987195E+01 0.  0.
         12    1    1    2    0    0  0.32857104907E+02 -0.25329421056E+02 -0.17548349982E+02  0.45045682379E+02  0.00000000000E+00 0. -1.
         11    1    3    3    0    0 -0.86691162452E+00 -0.11416913499E+00  0.13887747811E+01  0.16411173053E+01  0.51100000000E-03 0. -1.
        -11    1    3    3    0    0 -0.52802935662E+01  0.74849444200E+01  0.49984272385E+01  0.10435045196E+02  0.51100000000E-03 0.  1.
         12    1    3    3    0    0 -0.26709899717E+02  0.17958645771E+02  0.11161147963E+02  0.34066155120E+02  0.00000000000E+00 0. -1.
</event>
<event>
 7    1  0.2097247E-008  0.4614232E+02  0.7816164E-02  0.1320468E+00
        -11   -1    0    0    0    0  0.00000000000E+00  0.00000000000E+00  0.45593999997E+02  0.45594000000E+02  0.51100000000E-03 0.  1.
         11   -1    0    0    0    0 -0.00000000000E+00 -0.00000000000E+00 -0.45593999997E+02  0.45594000000E+02  0.51100000000E-03 0. -1.
    9900012    2    1    2    0    0  0.23681268091E+02  0.35507049453E+02  0.14406956794E+02  0.46142318483E+02  0.10000006582E+02 0.  0.
         12    1    1    2    0    0 -0.23681268091E+02 -0.35507049453E+02 -0.14406956794E+02  0.45045681517E+02  0.00000000000E+00 0. -1.
         11    1    3    3    0    0  0.54530294579E+01  0.29811041083E+01  0.12590252796E+01  0.63409507875E+01  0.51100000000E-03 0. -1.
        -11    1    3    3    0    0  0.11803507910E+02  0.19499979772E+02  0.57816394114E+01  0.23515938523E+02  0.51100000000E-03 0.  1.
         12    1    3    3    0    0  0.64247307240E+01  0.13025965573E+02  0.73662921032E+01  0.16285429173E+02  0.00000000000E+00 0. -1.
</event>
<event>
 7    1  0.2097247E-008  0.4614232E+02  0.7816164E-02  0.1320468E+00
        -11   -1    0    0    0    0  0.00000000000E+00  0.00000000000E+00  0.45593999997E+02  0.45594000000E+02  0.51100000000E-03 0.  1.
         11   -1    0    0    0    0 -0.00000000000E+00 -0.00000000000E+00 -0.45593999997E+02  0.45594000000E+02  0.51100000000E-03 0. -1.
    9900012    2    1    2    0    0  0.11740522408E+02 -0.22245396387E+02  0.37368649691E+02  0.46142317560E+02  0.99999981639E+01 0.  0.
         12    1    1    2    0    0 -0.11740522408E+02  0.22245396387E+02 -0.37368649691E+02  0.45045682440E+02  0.00000000000E+00 0. -1.
         11    1    3    3    0    0  0.29385121870E+01 -0.13276964013E+02  0.18249163263E+02  0.22758395974E+02  0.51100000000E-03 0. -1.
        -11    1    3    3    0    0  0.44566442528E+01 -0.46723657347E+01  0.13981006530E+02  0.15400039721E+02  0.51100000000E-03 0.  1.
         12    1    3    3    0    0  0.43453659684E+01 -0.42960666392E+01  0.51384798976E+01  0.79838818645E+01  0.00000000000E+00 0. -1.
</event>
<event>
 7    1  0.2097247E-008  0.4614232E+02  0.7816164E-02  0.1320468E+00
        -11   -1    0    0    0    0  0.00000000000E+00  0.00000000000E+00  0.45593999997E+02  0.45594000000E+02  0.51100000000E-03 0.  1.
         11   -1    0    0    0    0 -0.00000000000E+00 -0.00000000000E+00 -0.45593999997E+02  0.45594000000E+02  0.51100000000E-03 0. -1.
    9900012    2    1    2    0    0  0.49437995421E+00 -0.40987938403E+02  0.18677739619E+02  0.46142318039E+02  0.10000002534E+02 0.  0.
         12    1    1    2    0    0 -0.49437995421E+00  0.40987938403E+02 -0.18677739619E+02  0.45045681961E+02  0.00000000000E+00 0. -1.
         11    1    3    3    0    0 -0.22400768249E+01 -0.29003895516E+02  0.12428944450E+02  0.31634199211E+02  0.51100000000E-03 0. -1.
        -11    1    3    3    0    0 -0.11347869384E+01 -0.40756747995E+01  0.13957767847E+01  0.44550038789E+01  0.51100000000E-03 0.  1.
         12    1    3    3    0    0  0.38692437175E+01 -0.79083680871E+01  0.48530183840E+01  0.10053114949E+02  0.00000000000E+00 0. -1.
</event>
<event>
 7    1  0.2097247E-008  0.4614232E+02  0.7816164E-02  0.1320468E+00
        -11   -1    0    0    0    0  0.00000000000E+00  0.00000000000E+00  0.45593999997E+02  0.45594000000E+02  0.51100000000E-03 0.  1.
         11   -1    0    0    0    0 -0.00000000000E+00 -0.00000000000E+00 -0.45593999997E+02  0.45594000000E+02  0.51100000000E-03 0. -1.
    9900012    2    1    2    0    0  0.27976960726E+02  0.38804361170E+01  0.35090530835E+02  0.46142317963E+02  0.10000001838E+02 0.  0.
         12    1    1    2    0    0 -0.27976960726E+02 -0.38804361170E+01 -0.35090530835E+02  0.45045682037E+02  0.00000000000E+00 0. -1.
         11    1    3    3    0    0  0.91290587221E+01  0.22141679381E+01  0.17821111515E+02  0.20145328707E+02  0.51100000000E-03 0. -1.
        -11    1    3    3    0    0  0.80132941452E+01  0.17485334578E+01  0.10073406174E+02  0.12990141051E+02  0.51100000000E-03 0.  1.
        -12    1    3    3    0    0  0.10834607859E+02 -0.82265278836E-01  0.71960131451E+01  0.13006848205E+02  0.00000000000E+00 0.  1.
</event>
<event>
 7    1  0.2097247E-008  0.4614232E+02  0.7816164E-02  0.1320468E+00
        -11   -1    0    0    0    0  0.00000000000E+00  0.00000000000E+00  0.45593999997E+02  0.45594000000E+02  0.51100000000E-03 0.  1.
         11   -1    0    0    0    0 -0.00000000000E+00 -0.00000000000E+00 -0.45593999997E+02  0.45594000000E+02  0.51100000000E-03 0. -1.
    9900012    2    1    2    0    0  0.46187844872E+01 -0.43372416285E+02  0.11252280703E+02  0.46142317793E+02  0.10000000288E+02 0.  0.
         12    1    1    2    0    0 -0.46187844872E+01  0.43372416285E+02 -0.11252280703E+02  0.45045682207E+02  0.00000000000E+00 0. -1.
         11    1    3    3    0    0 -0.28124481898E+01 -0.79214896297E+01  0.29580274932E+01  0.89112170709E+01  0.51100000000E-03 0. -1.
        -11    1    3    3    0    0  0.55946738560E+00 -0.67182026489E+01  0.11865273628E+01  0.68450783802E+01  0.51100000000E-03 0.  1.
        -12    1    3    3    0    0  0.68717652914E+01 -0.28732724006E+02  0.71077258472E+01  0.30386022342E+02  0.00000000000E+00 0.  1.
</event>
<event>
 7    1  0.2097247E-008  0.4614232E+02  0.7816164E-02  0.1320468E+00
        -11   -1    0    0    0    0  0.00000000000E+00  0.00000000000E+00  0.45593999997E+02  0.45594000000E+02  0.51100000000E-03 0.  1.
         11   -1    0    0    0    0 -0.00000000000E+00 -0.00000000000E+00 -0.45593999997E+02  0.45594000000E+02  0.51100000000E-03 0. -1.
    9900012    2    1    2    0    0  0.25346962832E+02 -0.22294841440E+02  0.29825911271E+02  0.46142318045E+02  0.10000002587E+02 0.  0.
         12    1    1    2    0    0 -0.25346962832E+02  0.22294841440E+02 -0.29825911271E+02  0.45045681955E+02  0.00000000000E+00 0. -1.
         11    1    3    3    0    0  0.73780047108E+01 -0.29318572202E+01  0.81115245282E+01  0.11350223377E+02  0.51100000000E-03 0. -1.
        -11    1    3    3    0    0  0.78591758684E+00 -0.39216694029E+01  0.22863999621E+01  0.46070361847E+01  0.51100000000E-03 0.  1.
         12    1    3    3    0    0  0.17183040535E+02 -0.15441314817E+02  0.19427986781E+02  0.30185058483E+02  0.00000000000E+00 0. -1.
</event>
<event>
 7    1  0.2097247E-008  0.4614232E+02  0.7816164E-02  0.1320468E+00
        -11   -1    0    0    0    0  0.00000000000E+00  0.00000000000E+00  0.45593999997E+02  0.45594000000E+02  0.51100000000E-03 0. -1.
         11   -1    0    0    0    0 -0.00000000000E+00 -0.00000000000E+00 -0.45593999997E+02  0.45594000000E+02  0.51100000000E-03 0.  1.
    9900012    2    1    2    0    0 -0.40855251347E+02 -0.12931663984E+01 -0.18928543031E+02  0.46142316708E+02  0.99999903939E+01 0.  0.
         12    1    1    2    0    0  0.40855251347E+02  0.12931663984E+01  0.18928543031E+02  0.45045683292E+02  0.00000000000E+00 0. -1.
         11    1    3    3    0    0 -0.67390988174E+01  0.11767123389E+01 -0.19482205861E+00  0.68438337717E+01  0.51100000000E-03 0. -1.
        -11    1    3    3    0    0 -0.12248999291E+02  0.14235680354E+01 -0.69517737434E+01  0.14155977113E+02  0.51100000000E-03 0.  1.
         12    1    3    3    0    0 -0.21867153239E+02 -0.38934467727E+01 -0.11781947229E+02  0.25142505823E+02  0.00000000000E+00 0. -1.
</event>
<event>
 7    1  0.2097247E-008  0.4614232E+02  0.7816164E-02  0.1320468E+00
        -11   -1    0    0    0    0  0.00000000000E+00  0.00000000000E+00  0.45593999997E+02  0.45594000000E+02  0.51100000000E-03 0.  1.
         11   -1    0    0    0    0 -0.00000000000E+00 -0.00000000000E+00 -0.45593999997E+02  0.45594000000E+02  0.51100000000E-03 0. -1.
    9900012    2    1    2    0    0 -0.33079006291E+02  0.39485792919E+01  0.30319986611E+02  0.46142317369E+02  0.99999964205E+01 0.  0.
         12    1    1    2    0    0  0.33079006291E+02 -0.39485792919E+01 -0.30319986611E+02  0.45045682631E+02  0.00000000000E+00 0. -1.
         11    1    3    3    0    0 -0.57632091534E+01 -0.47264372707E+00  0.67707195936E+01  0.89039663024E+01  0.51100000000E-03 0. -1.
        -11    1    3    3    0    0 -0.24540025309E+02  0.18753584443E+01  0.22455311859E+02  0.33316224912E+02  0.51100000000E-03 0.  1.
        -12    1    3    3    0    0 -0.27757718290E+01  0.25458645747E+01  0.10939551585E+01  0.39221261540E+01  0.00000000000E+00 0.  1.
</event>
<event>
 7    1  0.2097247E-008  0.4614232E+02  0.7816164E-02  0.1320468E+00
        -11   -1    0    0    0    0  0.00000000000E+00  0.00000000000E+00  0.45593999997E+02  0.45594000000E+02  0.51100000000E-03 0.  1.
         11   -1    0    0    0    0 -0.00000000000E+00 -0.00000000000E+00 -0.45593999997E+02  0.45594000000E+02  0.51100000000E-03 0. -1.
    9900012    2    1    2    0    0  0.25472095965E+02 -0.55881554782E+01  0.36729528528E+02  0.46142318516E+02  0.10000006882E+02 0.  0.
         12    1    1    2    0    0 -0.25472095965E+02  0.55881554782E+01 -0.36729528528E+02  0.45045681484E+02  0.00000000000E+00 0. -1.
         11    1    3    3    0    0  0.61310341203E+00 -0.10924620973E+01  0.23858869304E+01  0.26947775295E+01  0.51100000000E-03 0. -1.
        -11    1    3    3    0    0  0.58564199365E+01  0.14165738038E+01  0.12629887811E+02  0.13993512861E+02  0.51100000000E-03 0.  1.
        -12    1    3    3    0    0  0.19002572616E+02 -0.59122671847E+01  0.21713753786E+02  0.29454028125E+02  0.00000000000E+00 0.  1.
</event>
<event>
 7    1  0.2097247E-008  0.4614232E+02  0.7816164E-02  0.1320468E+00
        -11   -1    0    0    0    0  0.00000000000E+00  0.00000000000E+00  0.45593999997E+02  0.45594000000E+02  0.51100000000E-03 0.  1.
         11   -1    0    0    0    0 -0.00000000000E+00 -0.00000000000E+00 -0.45593999997E+02  0.45594000000E+02  0.51100000000E-03 0. -1.
    9900012    2    1    2    0    0  0.27928704569E+02  0.11001928490E+02  0.33586585463E+02  0.46142315496E+02  0.99999793410E+01 0.  0.
         12    1    1    2    0    0 -0.27928704569E+02 -0.11001928490E+02 -0.33586585463E+02  0.45045684504E+02  0.00000000000E+00 0. -1.
         11    1    3    3    0    0  0.43440890492E+01  0.21892618241E+01  0.68726848894E+01  0.84200816416E+01  0.51100000000E-03 0. -1.
        -11    1    3    3    0    0  0.20686277089E+02  0.10253993028E+02  0.21290178219E+02  0.31406020469E+02  0.51100000000E-03 0.  1.
         12    1    3    3    0    0  0.28983384305E+01 -0.14413263628E+01  0.54237223549E+01  0.63162133850E+01  0.00000000000E+00 0. -1.
</event>
<event>
 7    1  0.2097247E-008  0.4614232E+02  0.7816164E-02  0.1320468E+00
        -11   -1    0    0    0    0  0.00000000000E+00  0.00000000000E+00  0.45593999997E+02  0.45594000000E+02  0.51100000000E-03 0.  1.
         11   -1    0    0    0    0 -0.00000000000E+00 -0.00000000000E+00 -0.45593999997E+02  0.45594000000E+02  0.51100000000E-03 0. -1.
    9900012    2    1    2    0    0 -0.19941010798E+02 -0.30105090288E+02  0.26928666760E+02  0.46142318005E+02  0.10000002226E+02 0.  0.
         12    1    1    2    0    0  0.19941010798E+02  0.30105090288E+02 -0.26928666760E+02  0.45045681995E+02  0.00000000000E+00 0. -1.
         11    1    3    3    0    0 -0.20908328066E+01 -0.70421799742E+00  0.35341407173E+01  0.41662519948E+01  0.51100000000E-03 0. -1.
        -11    1    3    3    0    0 -0.37629704126E+01 -0.28170336711E+01  0.40784583314E+01  0.62232987758E+01  0.51100000000E-03 0.  1.
        -12    1    3    3    0    0 -0.14087207579E+02 -0.26583838619E+02  0.19316067711E+02  0.35752767235E+02  0.00000000000E+00 0.  1.
</event>
<event>
 7    1  0.2097247E-008  0.4614232E+02  0.7816164E-02  0.1320468E+00
        -11   -1    0    0    0    0  0.00000000000E+00  0.00000000000E+00  0.45593999997E+02  0.45594000000E+02  0.51100000000E-03 0.  1.
         11   -1    0    0    0    0 -0.00000000000E+00 -0.00000000000E+00 -0.45593999997E+02  0.45594000000E+02  0.51100000000E-03 0. -1.
    9900012    2    1    2    0    0  0.28316732977E+02 -0.27771835383E+02  0.21354185049E+02  0.46142318452E+02  0.10000006299E+02 0.  0.
         12    1    1    2    0    0 -0.28316732977E+02  0.27771835383E+02 -0.21354185049E+02  0.45045681548E+02  0.00000000000E+00 0. -1.
         11    1    3    3    0    0  0.12275949769E+02 -0.10263765275E+02  0.81649804436E+01  0.17964151142E+02  0.51100000000E-03 0. -1.
        -11    1    3    3    0    0  0.80005023494E+01 -0.35413408984E+01  0.39235829575E+01  0.95887244557E+01  0.51100000000E-03 0.  1.
         12    1    3    3    0    0  0.80402808582E+01 -0.13966729210E+02  0.92656216481E+01  0.18589442854E+02  0.00000000000E+00 0. -1.
</event>
<event>
 7    1  0.2097247E-008  0.4614232E+02  0.7816164E-02  0.1320468E+00
        -11   -1    0    0    0    0  0.00000000000E+00  0.00000000000E+00  0.45593999997E+02  0.45594000000E+02  0.51100000000E-03 0. -1.
         11   -1    0    0    0    0 -0.00000000000E+00 -0.00000000000E+00 -0.45593999997E+02  0.45594000000E+02  0.51100000000E-03 0.  1.
    9900012    2    1    2    0    0 -0.16428605829E+02 -0.36939083274E+02 -0.19867522489E+02  0.46142318604E+02  0.10000007682E+02 0.  0.
         12    1    1    2    0    0  0.16428605829E+02  0.36939083274E+02  0.19867522489E+02  0.45045681396E+02  0.00000000000E+00 0. -1.
         11    1    3    3    0    0 -0.43237593013E+01 -0.62132149448E+01 -0.33750127365E+00  0.75771262242E+01  0.51100000000E-03 0. -1.
        -11    1    3    3    0    0 -0.10331099903E+01 -0.13348362081E+01 -0.23436306377E+00  0.17041215512E+01  0.51100000000E-03 0.  1.
        -12    1    3    3    0    0 -0.11071736538E+02 -0.29391032121E+02 -0.19295658152E+02  0.36861070828E+02  0.00000000000E+00 0.  1.
</event>
<event>
 7    1  0.2097247E-008  0.4614232E+02  0.7816164E-02  0.1320468E+00
        -11   -1    0    0    0    0  0.00000000000E+00  0.00000000000E+00  0.45593999997E+02  0.45594000000E+02  0.51100000000E-03 0.  1.
         11   -1    0    0    0    0 -0.00000000000E+00 -0.00000000000E+00 -0.45593999997E+02  0.45594000000E+02  0.51100000000E-03 0. -1.
    9900012    2    1    2    0    0 -0.28306142853E+02 -0.25273008971E+02  0.24272428728E+02  0.46142317610E+02  0.99999986176E+01 0.  0.
         12    1    1    2    0    0  0.28306142853E+02  0.25273008971E+02 -0.24272428728E+02  0.45045682390E+02  0.00000000000E+00 0. -1.
         11    1    3    3    0    0 -0.70908270162E+01 -0.85469384311E+01  0.35461334075E+01  0.11657831991E+02  0.51100000000E-03 0. -1.
        -11    1    3    3    0    0 -0.85311830700E+01 -0.36775900154E+01  0.82114478396E+01  0.12398936599E+02  0.51100000000E-03 0.  1.
        -12    1    3    3    0    0 -0.12684132767E+02 -0.13048480524E+02  0.12514847481E+02  0.22085549020E+02  0.00000000000E+00 0.  1.
</event>
<event>
 7    1  0.2097247E-008  0.4614232E+02  0.7816164E-02  0.1320468E+00
        -11   -1    0    0    0    0  0.00000000000E+00  0.00000000000E+00  0.45593999997E+02  0.45594000000E+02  0.51100000000E-03 0.  1.
         11   -1    0    0    0    0 -0.00000000000E+00 -0.00000000000E+00 -0.45593999997E+02  0.45594000000E+02  0.51100000000E-03 0. -1.
    9900012    2    1    2    0    0 -0.39909889140E+02  0.18084791082E+01  0.20809701271E+02  0.46142317467E+02  0.99999973213E+01 0.  0.
         12    1    1    2    0    0  0.39909889140E+02 -0.18084791082E+01 -0.20809701271E+02  0.45045682533E+02  0.00000000000E+00 0. -1.
         11    1    3    3    0    0 -0.13820818291E+02 -0.13990200245E+01  0.70756441499E+01  0.15589644501E+02  0.51100000000E-03 0. -1.
        -11    1    3    3    0    0 -0.21268651563E+02 -0.39643768858E+00  0.10612061110E+02  0.23772432425E+02  0.51100000000E-03 0.  1.
        -12    1    3    3    0    0 -0.48204192850E+01  0.36039368213E+01  0.31219960118E+01  0.67802405409E+01  0.00000000000E+00 0.  1.
</event>
<event>
 7    1  0.2097247E-008  0.4614232E+02  0.7816164E-02  0.1320468E+00
        -11   -1    0    0    0    0  0.00000000000E+00  0.00000000000E+00  0.45593999997E+02  0.45594000000E+02  0.51100000000E-03 0.  1.
         11   -1    0    0    0    0 -0.00000000000E+00 -0.00000000000E+00 -0.45593999997E+02  0.45594000000E+02  0.51100000000E-03 0. -1.
    9900012    2    1    2    0    0  0.11938600995E+01 -0.37337846605E+02  0.25170884223E+02  0.46142317592E+02  0.99999984557E+01 0.  0.
         12    1    1    2    0    0 -0.11938600995E+01  0.37337846605E+02 -0.25170884223E+02  0.45045682408E+02  0.00000000000E+00 0. -1.
         11    1    3    3    0    0  0.44086803106E+01 -0.13318326184E+02  0.83491310680E+01  0.16325509618E+02  0.51100000000E-03 0. -1.
        -11    1    3    3    0    0 -0.13461802625E+01 -0.53364942990E+01  0.18633842274E+01  0.58105570939E+01  0.51100000000E-03 0.  1.
        -12    1    3    3    0    0 -0.18686399486E+01 -0.18683026122E+02  0.14958368928E+02  0.24006250880E+02  0.00000000000E+00 0.  1.
</event>
<event>
 7    1  0.2097247E-008  0.4614232E+02  0.7816164E-02  0.1320468E+00
        -11   -1    0    0    0    0  0.00000000000E+00  0.00000000000E+00  0.45593999997E+02  0.45594000000E+02  0.51100000000E-03 0. -1.
         11   -1    0    0    0    0 -0.00000000000E+00 -0.00000000000E+00 -0.45593999997E+02  0.45594000000E+02  0.51100000000E-03 0.  1.
    9900012    2    1    2    0    0 -0.28246393048E+02  0.29669006544E+02 -0.18735121879E+02  0.46142318060E+02  0.10000002729E+02 0.  0.
         12    1    1    2    0    0  0.28246393048E+02 -0.29669006544E+02  0.18735121879E+02  0.45045681940E+02  0.00000000000E+00 0. -1.
         11    1    3    3    0    0 -0.17840672790E+01  0.45533272200E+01  0.11589564880E+00  0.48917396590E+01  0.51100000000E-03 0. -1.
        -11    1    3    3    0    0 -0.73997992530E+01  0.78007543554E+01 -0.36952590519E+01  0.11369421147E+02  0.51100000000E-03 0.  1.
        -12    1    3    3    0    0 -0.19062526516E+02  0.17314924969E+02 -0.15155758476E+02  0.29881157254E+02  0.00000000000E+00 0.  1.
</event>
<event>
 7    1  0.2097247E-008  0.4614232E+02  0.7816164E-02  0.1320468E+00
        -11   -1    0    0    0    0  0.00000000000E+00  0.00000000000E+00  0.45593999997E+02  0.45594000000E+02  0.51100000000E-03 0. -1.
         11   -1    0    0    0    0 -0.00000000000E+00 -0.00000000000E+00 -0.45593999997E+02  0.45594000000E+02  0.51100000000E-03 0.  1.
    9900012    2    1    2    0    0  0.14024983284E+02  0.30404011119E+02 -0.30133193460E+02  0.46142318782E+02  0.10000009312E+02 0.  0.
         12    1    1    2    0    0 -0.14024983284E+02 -0.30404011119E+02  0.30133193460E+02  0.45045681218E+02  0.00000000000E+00 0. -1.
         11    1    3    3    0    0  0.12505642393E+02  0.23347004970E+02 -0.21044043413E+02  0.33827880456E+02  0.51100000000E-03 0.  1.
        -11    1    3    3    0    0  0.28336792513E+00  0.15607161547E+01  0.40285835823E-01  0.15867436800E+01  0.51100000000E-03 0. -1.
        -12    1    3    3    0    0  0.12359729662E+01  0.54962899944E+01 -0.91294358831E+01  0.10727694646E+02  0.00000000000E+00 0.  1.
</event>
<event>
 7    1  0.2097247E-008  0.4614232E+02  0.7816164E-02  0.1320468E+00
        -11   -1    0    0    0    0  0.00000000000E+00  0.00000000000E+00  0.45593999997E+02  0.45594000000E+02  0.51100000000E-03 0. -1.
         11   -1    0    0    0    0 -0.00000000000E+00 -0.00000000000E+00 -0.45593999997E+02  0.45594000000E+02  0.51100000000E-03 0.  1.
    9900012    2    1    2    0    0 -0.10860647497E+02  0.27312541549E+02 -0.34134804839E+02  0.46142317728E+02  0.99999996974E+01 0.  0.
         12    1    1    2    0    0  0.10860647497E+02 -0.27312541549E+02  0.34134804839E+02  0.45045682272E+02  0.00000000000E+00 0. -1.
         11    1    3    3    0    0 -0.36019768129E+01  0.92670087002E+01 -0.97248058746E+01  0.13907679058E+02  0.51100000000E-03 0. -1.
        -11    1    3    3    0    0 -0.35914447347E+01  0.12259599495E+01 -0.36456128024E+01  0.52623137541E+01  0.51100000000E-03 0.  1.
         12    1    3    3    0    0 -0.36672259498E+01  0.16819572900E+02 -0.20764386162E+02  0.26972324916E+02  0.00000000000E+00 0. -1.
</event>
<event>
 7    1  0.2097247E-008  0.4614232E+02  0.7816164E-02  0.1320468E+00
        -11   -1    0    0    0    0  0.00000000000E+00  0.00000000000E+00  0.45593999997E+02  0.45594000000E+02  0.51100000000E-03 0.  1.
         11   -1    0    0    0    0 -0.00000000000E+00 -0.00000000000E+00 -0.45593999997E+02  0.45594000000E+02  0.51100000000E-03 0. -1.
    9900012    2    1    2    0    0  0.23345563202E+02  0.11054750600E+02  0.36903803599E+02  0.46142317053E+02  0.99999935445E+01 0.  0.
         12    1    1    2    0    0 -0.23345563202E+02 -0.11054750600E+02 -0.36903803599E+02  0.45045682947E+02  0.00000000000E+00 0. -1.
         11    1    3    3    0    0  0.45744676538E+00  0.51369119650E+00 -0.18857071703E+00  0.71322883071E+00  0.51100000000E-03 0. -1.
        -11    1    3    3    0    0  0.18759919686E+02  0.55152648878E+01  0.29961079404E+02  0.35777353350E+02  0.51100000000E-03 0.  1.
        -12    1    3    3    0    0  0.41281967508E+01  0.50257945152E+01  0.71312949121E+01  0.96517348723E+01  0.00000000000E+00 0.  1.
</event>
<event>
 7    1  0.2097247E-008  0.4614232E+02  0.7816164E-02  0.1320468E+00
        -11   -1    0    0    0    0  0.00000000000E+00  0.00000000000E+00  0.45593999997E+02  0.45594000000E+02  0.51100000000E-03 0.  1.
         11   -1    0    0    0    0 -0.00000000000E+00 -0.00000000000E+00 -0.45593999997E+02  0.45594000000E+02  0.51100000000E-03 0. -1.
    9900012    2    1    2    0    0  0.47316714484E+00 -0.25893314808E+02  0.36856829910E+02  0.46142317078E+02  0.99999937689E+01 0.  0.
         12    1    1    2    0    0 -0.47316714484E+00  0.25893314808E+02 -0.36856829910E+02  0.45045682922E+02  0.00000000000E+00 0. -1.
         11    1    3    3    0    0 -0.10736247781E+01 -0.18782483260E+02  0.29905505163E+02  0.35330915455E+02  0.51100000000E-03 0. -1.
        -11    1    3    3    0    0 -0.89570361328E+00 -0.61521116308E+00  0.15422347602E+00  0.10975221545E+01  0.51100000000E-03 0.  1.
        -12    1    3    3    0    0  0.24424955362E+01 -0.64956203855E+01  0.67971012712E+01  0.97138794685E+01  0.00000000000E+00 0.  1.
</event>
<event>
 7    1  0.2097247E-008  0.4614232E+02  0.7816164E-02  0.1320468E+00
        -11   -1    0    0    0    0  0.00000000000E+00  0.00000000000E+00  0.45593999997E+02  0.45594000000E+02  0.51100000000E-03 0. -1.
         11   -1    0    0    0    0 -0.00000000000E+00 -0.00000000000E+00 -0.45593999997E+02  0.45594000000E+02  0.51100000000E-03 0.  1.
    9900012    2    1    2    0    0  0.17098051211E+02  0.92735372912E+01 -0.40629690308E+02  0.46142316703E+02  0.99999903551E+01 0.  0.
         12    1    1    2    0    0 -0.17098051211E+02 -0.92735372912E+01  0.40629690308E+02  0.45045683297E+02  0.00000000000E+00 0. -1.
         11    1    3    3    0    0  0.12149358474E+02  0.42783118249E+01 -0.29799970527E+02  0.32464582348E+02  0.51100000000E-03 0. -1.
        -11    1    3    3    0    0  0.53672093274E+01  0.40254704058E+01 -0.10677903089E+02  0.12610668602E+02  0.51100000000E-03 0.  1.
        -12    1    3    3    0    0 -0.41851658986E+00  0.96975506053E+00 -0.15181669262E+00  0.10670657532E+01  0.00000000000E+00 0.  1.
</event>
<event>
 7    1  0.2097247E-008  0.4614232E+02  0.7816164E-02  0.1320468E+00
        -11   -1    0    0    0    0  0.00000000000E+00  0.00000000000E+00  0.45593999997E+02  0.45594000000E+02  0.51100000000E-03 0. -1.
         11   -1    0    0    0    0 -0.00000000000E+00 -0.00000000000E+00 -0.45593999997E+02  0.45594000000E+02  0.51100000000E-03 0.  1.
    9900012    2    1    2    0    0  0.12051240492E+02 -0.39277551518E+02 -0.18470380149E+02  0.46142318814E+02  0.10000009599E+02 0.  0.
         12    1    1    2    0    0 -0.12051240492E+02  0.39277551518E+02  0.18470380149E+02  0.45045681186E+02  0.00000000000E+00 0. -1.
         11    1    3    3    0    0  0.23080045826E+01 -0.33129666526E+01 -0.16377471013E+01  0.43571606608E+01  0.51100000000E-03 0. -1.
        -11    1    3    3    0    0  0.11070397831E+02 -0.27004990435E+02 -0.12997589193E+02  0.31949343368E+02  0.51100000000E-03 0.  1.
         12    1    3    3    0    0 -0.13271619210E+01 -0.89595944304E+01 -0.38350438545E+01  0.98358147852E+01  0.00000000000E+00 0. -1.
</event>
<event>
 7    1  0.2097247E-008  0.4614232E+02  0.7816164E-02  0.1320468E+00
        -11   -1    0    0    0    0  0.00000000000E+00  0.00000000000E+00  0.45593999997E+02  0.45594000000E+02  0.51100000000E-03 0.  1.
         11   -1    0    0    0    0 -0.00000000000E+00 -0.00000000000E+00 -0.45593999997E+02  0.45594000000E+02  0.51100000000E-03 0. -1.
    9900012    2    1    2    0    0 -0.59817417482E+01  0.86926211102E+01  0.43792357771E+02  0.46142317684E+02  0.99999993006E+01 0.  0.
         12    1    1    2    0    0  0.59817417482E+01 -0.86926211102E+01 -0.43792357771E+02  0.45045682316E+02  0.00000000000E+00 0. -1.
         11    1    3    3    0    0 -0.53778750505E+01  0.32715828559E+01  0.19847680926E+02  0.20821989167E+02  0.51100000000E-03 0. -1.
        -11    1    3    3    0    0 -0.21615033832E+01 -0.24975985952E+00  0.43763597063E+01  0.48874330075E+01  0.51100000000E-03 0.  1.
        -12    1    3    3    0    0  0.15576366856E+01  0.56707981138E+01  0.19568317139E+02  0.20432895510E+02  0.00000000000E+00 0.  1.
</event>
<event>
 7    1  0.2097247E-008  0.4614231E+02  0.7816164E-02  0.1320468E+00
        -11   -1    0    0    0    0  0.00000000000E+00  0.00000000000E+00  0.45593999997E+02  0.45594000000E+02  0.51100000000E-03 0. -1.
         11   -1    0    0    0    0 -0.00000000000E+00 -0.00000000000E+00 -0.45593999997E+02  0.45594000000E+02  0.51100000000E-03 0.  1.
    9900012    2    1    2    0    0  0.18051764273E+02  0.40082308734E+02  0.98313872069E+01  0.46142313844E+02  0.99999642828E+01 0.  0.
         12    1    1    2    0    0 -0.18051764273E+02 -0.40082308734E+02 -0.98313872069E+01  0.45045686156E+02  0.00000000000E+00 0. -1.
         11    1    3    3    0    0  0.67323068995E+01  0.13154492195E+02 -0.99345746572E+00  0.14810522580E+02  0.51100000000E-03 0.  1.
        -11    1    3    3    0    0  0.12260831582E+01  0.64033944955E+01  0.20516174106E+01  0.68349012602E+01  0.51100000000E-03 0. -1.
         12    1    3    3    0    0  0.10093374215E+02  0.20524422044E+02  0.87732272620E+01  0.24496890004E+02  0.00000000000E+00 0. -1.
</event>
<event>
 7    1  0.2097247E-008  0.4614232E+02  0.7816164E-02  0.1320468E+00
        -11   -1    0    0    0    0  0.00000000000E+00  0.00000000000E+00  0.45593999997E+02  0.45594000000E+02  0.51100000000E-03 0. -1.
         11   -1    0    0    0    0 -0.00000000000E+00 -0.00000000000E+00 -0.45593999997E+02  0.45594000000E+02  0.51100000000E-03 0.  1.
    9900012    2    1    2    0    0 -0.35846716686E+02 -0.21776224360E+02 -0.16429316266E+02  0.46142317881E+02  0.10000001097E+02 0.  0.
         12    1    1    2    0    0  0.35846716686E+02  0.21776224360E+02  0.16429316266E+02  0.45045682119E+02  0.00000000000E+00 0. -1.
         11    1    3    3    0    0 -0.17249528839E+02 -0.88841002370E+01 -0.88291789760E+01  0.21317314180E+02  0.51100000000E-03 0. -1.
        -11    1    3    3    0    0 -0.14679197994E+02 -0.85081307643E+01 -0.83282774799E+01  0.18900458960E+02  0.51100000000E-03 0.  1.
         12    1    3    3    0    0 -0.39179898527E+01 -0.43839933591E+01  0.72814019008E+00  0.59245447416E+01  0.00000000000E+00 0. -1.
</event>
<event>
 7    1  0.2097247E-008  0.4614232E+02  0.7816164E-02  0.1320468E+00
        -11   -1    0    0    0    0  0.00000000000E+00  0.00000000000E+00  0.45593999997E+02  0.45594000000E+02  0.51100000000E-03 0. -1.
         11   -1    0    0    0    0 -0.00000000000E+00 -0.00000000000E+00 -0.45593999997E+02  0.45594000000E+02  0.51100000000E-03 0.  1.
    9900012    2    1    2    0    0  0.36557174835E+02 -0.92966694429E+01 -0.24622313369E+02  0.46142318628E+02  0.10000007901E+02 0.  0.
         12    1    1    2    0    0 -0.36557174835E+02  0.92966694429E+01  0.24622313369E+02  0.45045681372E+02  0.00000000000E+00 0. -1.
         11    1    3    3    0    0  0.13551751762E+02 -0.49910448885E+01 -0.72932522741E+01  0.16178752545E+02  0.51100000000E-03 0. -1.
        -11    1    3    3    0    0  0.20550674311E+02 -0.59546472926E+01 -0.14328074502E+02  0.25750373943E+02  0.51100000000E-03 0.  1.
         12    1    3    3    0    0  0.24547487616E+01  0.16490227383E+01 -0.30009865929E+01  0.42131921395E+01  0.00000000000E+00 0. -1.
</event>
<event>
 7    1  0.2097247E-008  0.4614232E+02  0.7816164E-02  0.1320468E+00
        -11   -1    0    0    0    0  0.00000000000E+00  0.00000000000E+00  0.45593999997E+02  0.45594000000E+02  0.51100000000E-03 0.  1.
         11   -1    0    0    0    0 -0.00000000000E+00 -0.00000000000E+00 -0.45593999997E+02  0.45594000000E+02  0.51100000000E-03 0. -1.
    9900012    2    1    2    0    0  0.16641234981E+02 -0.21789462632E+02  0.35740762862E+02  0.46142317483E+02  0.99999974634E+01 0.  0.
         12    1    1    2    0    0 -0.16641234981E+02  0.21789462632E+02 -0.35740762862E+02  0.45045682517E+02  0.00000000000E+00 0. -1.
         11    1    3    3    0    0  0.18577354527E+00 -0.31211170938E+01  0.82748945987E+01  0.88458897011E+01  0.51100000000E-03 0. -1.
        -11    1    3    3    0    0  0.95301216855E+01 -0.13778046616E+02  0.18403881311E+02  0.24886957135E+02  0.51100000000E-03 0.  1.
         12    1    3    3    0    0  0.69253397501E+01 -0.48902989222E+01  0.90619869523E+01  0.12409470646E+02  0.00000000000E+00 0. -1.
</event>
<event>
 7    1  0.2097247E-008  0.4614232E+02  0.7816164E-02  0.1320468E+00
        -11   -1    0    0    0    0  0.00000000000E+00  0.00000000000E+00  0.45593999997E+02  0.45594000000E+02  0.51100000000E-03 0.  1.
         11   -1    0    0    0    0 -0.00000000000E+00 -0.00000000000E+00 -0.45593999997E+02  0.45594000000E+02  0.51100000000E-03 0. -1.
    9900012    2    1    2    0    0 -0.41649709634E+02 -0.53572548969E+01  0.16300766957E+02  0.46142317676E+02  0.99999992272E+01 0.  0.
         12    1    1    2    0    0  0.41649709634E+02  0.53572548969E+01 -0.16300766957E+02  0.45045682324E+02  0.00000000000E+00 0. -1.
         11    1    3    3    0    0 -0.22333131740E+02 -0.43989102729E+00  0.62276658830E+01  0.23189353161E+02  0.51100000000E-03 0. -1.
        -11    1    3    3    0    0 -0.11035886266E+02 -0.29120414622E+01  0.28031264501E+01  0.11752799212E+02  0.51100000000E-03 0.  1.
         12    1    3    3    0    0 -0.82806916283E+01 -0.20053224074E+01  0.72699746235E+01  0.11200165304E+02  0.00000000000E+00 0. -1.
</event>
<event>
 7    1  0.2097247E-008  0.4614232E+02  0.7816164E-02  0.1320468E+00
        -11   -1    0    0    0    0  0.00000000000E+00  0.00000000000E+00  0.45593999997E+02  0.45594000000E+02  0.51100000000E-03 0.  1.
         11   -1    0    0    0    0 -0.00000000000E+00 -0.00000000000E+00 -0.45593999997E+02  0.45594000000E+02  0.51100000000E-03 0. -1.
    9900012    2    1    2    0    0  0.20658304306E+02  0.16682819112E+02  0.36387241823E+02  0.46142319210E+02  0.10000013215E+02 0.  0.
         12    1    1    2    0    0 -0.20658304306E+02 -0.16682819112E+02 -0.36387241823E+02  0.45045680790E+02  0.00000000000E+00 0. -1.
         11    1    3    3    0    0  0.29834063444E+01 -0.46121128046E+00  0.38742772470E+01  0.49115632652E+01  0.51100000000E-03 0. -1.
        -11    1    3    3    0    0  0.91379843767E+01  0.51976310399E+01  0.15874535840E+02  0.19039932124E+02  0.51100000000E-03 0.  1.
         12    1    3    3    0    0  0.85369135849E+01  0.11946399353E+02  0.16638428736E+02  0.22190823821E+02  0.00000000000E+00 0. -1.
</event>
<event>
 7    1  0.2097247E-008  0.4614232E+02  0.7816164E-02  0.1320468E+00
        -11   -1    0    0    0    0  0.00000000000E+00  0.00000000000E+00  0.45593999997E+02  0.45594000000E+02  0.51100000000E-03 0.  1.
         11   -1    0    0    0    0 -0.00000000000E+00 -0.00000000000E+00 -0.45593999997E+02  0.45594000000E+02  0.51100000000E-03 0. -1.
    9900012    2    1    2    0    0 -0.16092752427E+02  0.33953118560E+02  0.24845975885E+02  0.46142318094E+02  0.10000003038E+02 0.  0.
         12    1    1    2    0    0  0.16092752427E+02 -0.33953118560E+02 -0.24845975885E+02  0.45045681906E+02  0.00000000000E+00 0. -1.
         11    1    3    3    0    0 -0.96732057737E+01  0.23883555671E+02  0.20698837147E+02  0.33052034747E+02  0.51100000000E-03 0. -1.
        -11    1    3    3    0    0 -0.24775685963E+01  0.63274834703E+01  0.34175416103E+01  0.76062463894E+01  0.51100000000E-03 0.  1.
         12    1    3    3    0    0 -0.39419780574E+01  0.37420794189E+01  0.72959712777E+00  0.54840369575E+01  0.00000000000E+00 0. -1.
</event>
<event>
 7    1  0.2097247E-008  0.4614232E+02  0.7816164E-02  0.1320468E+00
        -11   -1    0    0    0    0  0.00000000000E+00  0.00000000000E+00  0.45593999997E+02  0.45594000000E+02  0.51100000000E-03 0.  1.
         11   -1    0    0    0    0 -0.00000000000E+00 -0.00000000000E+00 -0.45593999997E+02  0.45594000000E+02  0.51100000000E-03 0. -1.
    9900012    2    1    2    0    0 -0.26533342166E+02 -0.48856918097E+01  0.36072500089E+02  0.46142317703E+02  0.99999994665E+01 0.  0.
         12    1    1    2    0    0  0.26533342166E+02  0.48856918097E+01 -0.36072500089E+02  0.45045682297E+02  0.00000000000E+00 0. -1.
         11    1    3    3    0    0 -0.87433081054E+01  0.28205610319E+01  0.10918862797E+02  0.14269637914E+02  0.51100000000E-03 0. -1.
        -11    1    3    3    0    0 -0.19575467801E+01 -0.15509345138E+01  0.43371428009E+01  0.50048171993E+01  0.51100000000E-03 0.  1.
         12    1    3    3    0    0 -0.15832487280E+02 -0.61553183278E+01  0.20816494492E+02  0.26867862589E+02  0.00000000000E+00 0. -1.
</event>
<event>
 7    1  0.2097247E-008  0.4614232E+02  0.7816164E-02  0.1320468E+00
        -11   -1    0    0    0    0  0.00000000000E+00  0.00000000000E+00  0.45593999997E+02  0.45594000000E+02  0.51100000000E-03 0. -1.
         11   -1    0    0    0    0 -0.00000000000E+00 -0.00000000000E+00 -0.45593999997E+02  0.45594000000E+02  0.51100000000E-03 0.  1.
    9900012    2    1    2    0    0 -0.25615090836E+02  0.32462352682E+02  0.17865505738E+02  0.46142317460E+02  0.99999972582E+01 0.  0.
         12    1    1    2    0    0  0.25615090836E+02 -0.32462352682E+02 -0.17865505738E+02  0.45045682540E+02  0.00000000000E+00 0. -1.
         11    1    3    3    0    0 -0.13777258106E+02  0.14380961453E+02  0.51222399907E+01  0.20563614372E+02  0.51100000000E-03 0.  1.
        -11    1    3    3    0    0  0.37963126931E+00  0.15002703463E+01  0.12738791481E+01  0.20044199554E+01  0.51100000000E-03 0. -1.
        -12    1    3    3    0    0 -0.12217463999E+02  0.16581120882E+02  0.11469386599E+02  0.23574283133E+02  0.00000000000E+00 0.  1.
</event>
<event>
 7    1  0.2097247E-008  0.4614232E+02  0.7816164E-02  0.1320468E+00
        -11   -1    0    0    0    0  0.00000000000E+00  0.00000000000E+00  0.45593999997E+02  0.45594000000E+02  0.51100000000E-03 0. -1.
         11   -1    0    0    0    0 -0.00000000000E+00 -0.00000000000E+00 -0.45593999997E+02  0.45594000000E+02  0.51100000000E-03 0.  1.
    9900012    2    1    2    0    0  0.30340077938E+02 -0.28194018098E+01 -0.33175956657E+02  0.46142318121E+02  0.10000003283E+02 0.  0.
         12    1    1    2    0    0 -0.30340077938E+02  0.28194018098E+01  0.33175956657E+02  0.45045681879E+02  0.00000000000E+00 0. -1.
         11    1    3    3    0    0  0.10583263552E+02 -0.54160775438E+01 -0.10328698878E+02  0.15748694680E+02  0.51100000000E-03 0. -1.
        -11    1    3    3    0    0  0.26116729674E+01  0.91661121560E+00 -0.39402553235E+01  0.48152491197E+01  0.51100000000E-03 0.  1.
        -12    1    3    3    0    0  0.17145141419E+02  0.16800645183E+01 -0.18907002455E+02  0.25578374321E+02  0.00000000000E+00 0.  1.
</event>
<event>
 7    1  0.2097247E-008  0.4614232E+02  0.7816164E-02  0.1320468E+00
        -11   -1    0    0    0    0  0.00000000000E+00  0.00000000000E+00  0.45593999997E+02  0.45594000000E+02  0.51100000000E-03 0.  1.
         11   -1    0    0    0    0 -0.00000000000E+00 -0.00000000000E+00 -0.45593999997E+02  0.45594000000E+02  0.51100000000E-03 0. -1.
    9900012    2    1    2    0    0  0.50779444254E+01  0.35056193294E+02  0.27827885661E+02  0.46142318429E+02  0.10000006092E+02 0.  0.
         12    1    1    2    0    0 -0.50779444254E+01 -0.35056193294E+02 -0.27827885661E+02  0.45045681571E+02  0.00000000000E+00 0. -1.
         11    1    3    3    0    0 -0.21478364884E+01  0.12559082154E+02  0.68500375575E+01  0.14466055473E+02  0.51100000000E-03 0. -1.
        -11    1    3    3    0    0  0.37962262751E+00  0.35400952771E+01  0.27135510108E+01  0.44765776280E+01  0.51100000000E-03 0.  1.
        -12    1    3    3    0    0  0.68461582863E+01  0.18957015862E+02  0.18264297092E+02  0.27199685328E+02  0.00000000000E+00 0.  1.
</event>
<event>
 7    1  0.2470582E-008  0.4614232E+02  0.7816164E-02  0.1320468E+00
        -11   -1    0    0    0    0  0.00000000000E+00  0.00000000000E+00  0.45593999997E+02  0.45594000000E+02  0.51100000000E-03 0.  1.
         11   -1    0    0    0    0 -0.00000000000E+00 -0.00000000000E+00 -0.45593999997E+02  0.45594000000E+02  0.51100000000E-03 0. -1.
    9900012    2    1    2    0    0 -0.41454671369E+02  0.16938454785E+02  0.48695427839E+01  0.46142317901E+02  0.10000001274E+02 0.  0.
         12    1    1    2    0    0  0.41454671369E+02 -0.16938454785E+02 -0.48695427839E+01  0.45045682099E+02  0.00000000000E+00 0. -1.
         11    1    3    3    0    0 -0.12048923621E+00  0.12842849068E+00 -0.52368189996E+00  0.55249844047E+00  0.51100000000E-03 0. -1.
        -11    1    3    3    0    0 -0.93869573615E+01  0.12906351087E+01 -0.90519398324E+00  0.95184076346E+01  0.51100000000E-03 0.  1.
        -12    1    3    3    0    0 -0.31947224772E+02  0.15519391186E+02  0.62984186671E+01  0.36071411826E+02  0.00000000000E+00 0.  1.
</event>
<event>
 7    1  0.2097247E-008  0.4614232E+02  0.7816164E-02  0.1320468E+00
        -11   -1    0    0    0    0  0.00000000000E+00  0.00000000000E+00  0.45593999997E+02  0.45594000000E+02  0.51100000000E-03 0.  1.
         11   -1    0    0    0    0 -0.00000000000E+00 -0.00000000000E+00 -0.45593999997E+02  0.45594000000E+02  0.51100000000E-03 0. -1.
    9900012    2    1    2    0    0 -0.23610601109E+02 -0.37124820943E+02  0.96643919353E+01  0.46142320004E+02  0.10000020455E+02 0.  0.
         12    1    1    2    0    0  0.23610601109E+02  0.37124820943E+02 -0.96643919353E+01  0.45045679996E+02  0.00000000000E+00 0. -1.
         11    1    3    3    0    0 -0.67824840559E+01 -0.10226329949E+02  0.18867521427E+01  0.12415302981E+02  0.51100000000E-03 0. -1.
        -11    1    3    3    0    0 -0.15661276540E+02 -0.26244933067E+02  0.90568812285E+01  0.31876310834E+02  0.51100000000E-03 0.  1.
         12    1    3    3    0    0 -0.11668405138E+01 -0.65355792715E+00 -0.12792414359E+01  0.18507061896E+01  0.00000000000E+00 0. -1.
</event>
<event>
 7    1  0.2097247E-008  0.4614231E+02  0.7816164E-02  0.1320468E+00
        -11   -1    0    0    0    0  0.00000000000E+00  0.00000000000E+00  0.45593999997E+02  0.45594000000E+02  0.51100000000E-03 0.  1.
         11   -1    0    0    0    0 -0.00000000000E+00 -0.00000000000E+00 -0.45593999997E+02  0.45594000000E+02  0.51100000000E-03 0. -1.
    9900012    2    1    2    0    0  0.14520617483E+02 -0.37861459925E+02  0.19615700209E+02  0.46142310146E+02  0.99999305570E+01 0.  0.
         12    1    1    2    0    0 -0.14520617483E+02  0.37861459925E+02 -0.19615700209E+02  0.45045689854E+02  0.00000000000E+00 0. -1.
         11    1    3    3    0    0  0.72140790204E+00 -0.10636094407E+02  0.31259139682E+01  0.11109377660E+02  0.51100000000E-03 0. -1.
        -11    1    3    3    0    0  0.44800876372E+01 -0.45616110389E+01  0.37906692457E+01  0.74329438380E+01  0.51100000000E-03 0.  1.
        -12    1    3    3    0    0  0.93191219440E+01 -0.22663754479E+02  0.12699116995E+02  0.27599988648E+02  0.00000000000E+00 0.  1.
</event>
<event>
 7    1  0.2097247E-008  0.4614232E+02  0.7816164E-02  0.1320468E+00
        -11   -1    0    0    0    0  0.00000000000E+00  0.00000000000E+00  0.45593999997E+02  0.45594000000E+02  0.51100000000E-03 0.  1.
         11   -1    0    0    0    0 -0.00000000000E+00 -0.00000000000E+00 -0.45593999997E+02  0.45594000000E+02  0.51100000000E-03 0. -1.
    9900012    2    1    2    0    0 -0.17912762013E+02 -0.11929253781E+02  0.39571952229E+02  0.46142317167E+02  0.99999945783E+01 0.  0.
         12    1    1    2    0    0  0.17912762013E+02  0.11929253781E+02 -0.39571952229E+02  0.45045682833E+02  0.00000000000E+00 0. -1.
         11    1    3    3    0    0 -0.11886269783E+02 -0.42650561453E+01  0.20912353226E+02  0.24429503290E+02  0.51100000000E-03 0. -1.
        -11    1    3    3    0    0 -0.66391640946E+01 -0.55484255539E+01  0.12773654970E+02  0.15428214010E+02  0.51100000000E-03 0.  1.
         12    1    3    3    0    0  0.61267186470E+00 -0.21157720817E+01  0.58859440334E+01  0.62845998663E+01  0.00000000000E+00 0. -1.
</event>
<event>
 7    1  0.2097247E-008  0.4614232E+02  0.7816164E-02  0.1320468E+00
        -11   -1    0    0    0    0  0.00000000000E+00  0.00000000000E+00  0.45593999997E+02  0.45594000000E+02  0.51100000000E-03 0. -1.
         11   -1    0    0    0    0 -0.00000000000E+00 -0.00000000000E+00 -0.45593999997E+02  0.45594000000E+02  0.51100000000E-03 0.  1.
    9900012    2    1    2    0    0  0.30664201763E+02 -0.10488392753E+02 -0.31286000388E+02  0.46142317936E+02  0.10000001598E+02 0.  0.
         12    1    1    2    0    0 -0.30664201763E+02  0.10488392753E+02  0.31286000388E+02  0.45045682064E+02  0.00000000000E+00 0. -1.
         11    1    3    3    0    0  0.95857947298E+01 -0.68254075193E+01 -0.13776399351E+02  0.18118024941E+02  0.51100000000E-03 0.  1.
        -11    1    3    3    0    0  0.19978287059E+00  0.54400894001E+00 -0.54246109797E+00  0.79380301469E+00  0.51100000000E-03 0. -1.
        -12    1    3    3    0    0  0.20878624163E+02 -0.42069941733E+01 -0.16967139939E+02  0.27230489981E+02  0.00000000000E+00 0.  1.
</event>
<event>
 7    1  0.2097247E-008  0.4614232E+02  0.7816164E-02  0.1320468E+00
        -11   -1    0    0    0    0  0.00000000000E+00  0.00000000000E+00  0.45593999997E+02  0.45594000000E+02  0.51100000000E-03 0.  1.
         11   -1    0    0    0    0 -0.00000000000E+00 -0.00000000000E+00 -0.45593999997E+02  0.45594000000E+02  0.51100000000E-03 0. -1.
    9900012    2    1    2    0    0 -0.20064795129E+02  0.16061212191E+02  0.36993977168E+02  0.46142324432E+02  0.10000060835E+02 0.  0.
         12    1    1    2    0    0  0.20064795129E+02 -0.16061212191E+02 -0.36993977168E+02  0.45045675568E+02  0.00000000000E+00 0. -1.
         11    1    3    3    0    0 -0.58254199540E+01  0.10656424395E+02  0.19045616637E+02  0.22588280410E+02  0.51100000000E-03 0.  1.
        -11    1    3    3    0    0 -0.40461064890E+01  0.11655974921E+01  0.51499965526E+01  0.66522221841E+01  0.51100000000E-03 0. -1.
        -12    1    3    3    0    0 -0.10193268686E+02  0.42391903043E+01  0.12798363979E+02  0.16901821839E+02  0.00000000000E+00 0.  1.
</event>
<event>
 7    1  0.2097247E-008  0.4614232E+02  0.7816164E-02  0.1320468E+00
        -11   -1    0    0    0    0  0.00000000000E+00  0.00000000000E+00  0.45593999997E+02  0.45594000000E+02  0.51100000000E-03 0. -1.
         11   -1    0    0    0    0 -0.00000000000E+00 -0.00000000000E+00 -0.45593999997E+02  0.45594000000E+02  0.51100000000E-03 0.  1.
    9900012    2    1    2    0    0 -0.12080758885E+02 -0.20283584403E+02 -0.38363327405E+02  0.46142318509E+02  0.10000006816E+02 0.  0.
         12    1    1    2    0    0  0.12080758885E+02  0.20283584403E+02  0.38363327405E+02  0.45045681491E+02  0.00000000000E+00 0. -1.
         11    1    3    3    0    0 -0.47894745347E+01 -0.48070282955E+01 -0.48570044119E+01  0.83448834306E+01  0.51100000000E-03 0. -1.
        -11    1    3    3    0    0 -0.33549415508E+01 -0.10989003610E+02 -0.23131545588E+02  0.25827935162E+02  0.51100000000E-03 0.  1.
        -12    1    3    3    0    0 -0.39363427993E+01 -0.44875524976E+01 -0.10374777404E+02  0.11969499916E+02  0.00000000000E+00 0.  1.
</event>
<event>
 7    1  0.2097247E-008  0.4614232E+02  0.7816164E-02  0.1320468E+00
        -11   -1    0    0    0    0  0.00000000000E+00  0.00000000000E+00  0.45593999997E+02  0.45594000000E+02  0.51100000000E-03 0.  1.
         11   -1    0    0    0    0 -0.00000000000E+00 -0.00000000000E+00 -0.45593999997E+02  0.45594000000E+02  0.51100000000E-03 0. -1.
    9900012    2    1    2    0    0  0.32413083690E+01  0.95531900261E+00  0.44918757580E+02  0.46142317666E+02  0.99999991358E+01 0.  0.
         12    1    1    2    0    0 -0.32413083690E+01 -0.95531900261E+00 -0.44918757580E+02  0.45045682334E+02  0.00000000000E+00 0. -1.
         11    1    3    3    0    0  0.14383079019E+01  0.16817564202E+01  0.39499673564E+01  0.45276126883E+01  0.51100000000E-03 0. -1.
        -11    1    3    3    0    0 -0.22189149534E+00  0.14887959506E+01  0.33922462600E+02  0.33955842183E+02  0.51100000000E-03 0.  1.
        -12    1    3    3    0    0  0.20248919625E+01 -0.22152333682E+01  0.70463276240E+01  0.76588627955E+01  0.00000000000E+00 0.  1.
</event>
<event>
 7    1  0.2097247E-008  0.4614232E+02  0.7816164E-02  0.1320468E+00
        -11   -1    0    0    0    0  0.00000000000E+00  0.00000000000E+00  0.45593999997E+02  0.45594000000E+02  0.51100000000E-03 0.  1.
         11   -1    0    0    0    0 -0.00000000000E+00 -0.00000000000E+00 -0.45593999997E+02  0.45594000000E+02  0.51100000000E-03 0. -1.
    9900012    2    1    2    0    0 -0.48519065283E+01 -0.10744869082E+02  0.43475512934E+02  0.46142318371E+02  0.10000005564E+02 0.  0.
         12    1    1    2    0    0  0.48519065283E+01  0.10744869082E+02 -0.43475512934E+02  0.45045681629E+02  0.00000000000E+00 0. -1.
         11    1    3    3    0    0  0.58601512037E+00 -0.40448313432E+01  0.19940962997E+02  0.20355492620E+02  0.51100000000E-03 0.  1.
        -11    1    3    3    0    0 -0.40560167216E+00 -0.26656020682E+01  0.21433764238E+01  0.34444172015E+01  0.51100000000E-03 0. -1.
         12    1    3    3    0    0 -0.50323199766E+01 -0.40344356704E+01  0.21391173513E+02  0.22342408550E+02  0.00000000000E+00 0. -1.
</event>
<event>
 7    1  0.2097247E-008  0.4614232E+02  0.7816164E-02  0.1320468E+00
        -11   -1    0    0    0    0  0.00000000000E+00  0.00000000000E+00  0.45593999997E+02  0.45594000000E+02  0.51100000000E-03 0.  1.
         11   -1    0    0    0    0 -0.00000000000E+00 -0.00000000000E+00 -0.45593999997E+02  0.45594000000E+02  0.51100000000E-03 0. -1.
    9900012    2    1    2    0    0  0.13639745689E+02  0.25314308624E+02  0.34673574352E+02  0.46142316057E+02  0.99999844626E+01 0.  0.
         12    1    1    2    0    0 -0.13639745689E+02 -0.25314308624E+02 -0.34673574352E+02  0.45045683943E+02  0.00000000000E+00 0. -1.
         11    1    3    3    0    0  0.79082832602E+00 -0.11011464994E+00  0.36010941225E+01  0.36885517235E+01  0.51100000000E-03 0. -1.
        -11    1    3    3    0    0  0.56132129539E+01  0.15857131358E+02  0.16284599120E+02  0.23412495452E+02  0.51100000000E-03 0.  1.
         12    1    3    3    0    0  0.72357044089E+01  0.95672919158E+01  0.14787881110E+02  0.19041268881E+02  0.00000000000E+00 0. -1.
</event>
<event>
 7    1  0.2097247E-008  0.4614231E+02  0.7816164E-02  0.1320468E+00
        -11   -1    0    0    0    0  0.00000000000E+00  0.00000000000E+00  0.45593999997E+02  0.45594000000E+02  0.51100000000E-03 0.  1.
         11   -1    0    0    0    0 -0.00000000000E+00 -0.00000000000E+00 -0.45593999997E+02  0.45594000000E+02  0.51100000000E-03 0. -1.
    9900012    2    1    2    0    0  0.23265374987E+02  0.30031895024E+02  0.24205821772E+02  0.46142309866E+02  0.99999280044E+01 0.  0.
         12    1    1    2    0    0 -0.23265374987E+02 -0.30031895024E+02 -0.24205821772E+02  0.45045690134E+02  0.00000000000E+00 0. -1.
         11    1    3    3    0    0  0.64512893593E+01  0.76152820049E+01  0.23091137994E+01  0.10244201346E+02  0.51100000000E-03 0. -1.
        -11    1    3    3    0    0  0.20104171041E+01  0.96282369819E+00  0.81218753912E+00  0.23724365674E+01  0.51100000000E-03 0.  1.
        -12    1    3    3    0    0  0.14803668523E+02  0.21453789321E+02  0.21084520434E+02  0.33525671953E+02  0.00000000000E+00 0.  1.
</event>
<event>
 7    1  0.2097247E-008  0.4614232E+02  0.7816164E-02  0.1320468E+00
        -11   -1    0    0    0    0  0.00000000000E+00  0.00000000000E+00  0.45593999997E+02  0.45594000000E+02  0.51100000000E-03 0.  1.
         11   -1    0    0    0    0 -0.00000000000E+00 -0.00000000000E+00 -0.45593999997E+02  0.45594000000E+02  0.51100000000E-03 0. -1.
    9900012    2    1    2    0    0  0.31099267600E+02 -0.57609659655E+01  0.32074292875E+02  0.46142318325E+02  0.10000005145E+02 0.  0.
         12    1    1    2    0    0 -0.31099267600E+02  0.57609659655E+01 -0.32074292875E+02  0.45045681675E+02  0.00000000000E+00 0. -1.
         11    1    3    3    0    0  0.11358484918E+02 -0.14633348633E+01  0.72130713203E+01  0.13534582620E+02  0.51100000000E-03 0. -1.
        -11    1    3    3    0    0  0.77900898333E+01 -0.36686711501E+00  0.55963110169E+01  0.95988951630E+01  0.51100000000E-03 0.  1.
        -12    1    3    3    0    0  0.11950692848E+02 -0.39307639872E+01  0.19264910538E+02  0.23008840542E+02  0.00000000000E+00 0.  1.
</event>
<event>
 7    1  0.2097247E-008  0.4614232E+02  0.7816164E-02  0.1320468E+00
        -11   -1    0    0    0    0  0.00000000000E+00  0.00000000000E+00  0.45593999997E+02  0.45594000000E+02  0.51100000000E-03 0.  1.
         11   -1    0    0    0    0 -0.00000000000E+00 -0.00000000000E+00 -0.45593999997E+02  0.45594000000E+02  0.51100000000E-03 0. -1.
    9900012    2    1    2    0    0 -0.13063787724E+02 -0.43011651156E+02 -0.29067036673E+01  0.46142316400E+02  0.99999875846E+01 0.  0.
         12    1    1    2    0    0  0.13063787724E+02  0.43011651156E+02  0.29067036673E+01  0.45045683600E+02  0.00000000000E+00 0. -1.
         11    1    3    3    0    0 -0.39720471865E+01 -0.46173105952E+01  0.18579665753E+00  0.60935405671E+01  0.51100000000E-03 0. -1.
        -11    1    3    3    0    0 -0.35485521116E+01 -0.56988426352E+01  0.25497624752E+00  0.67181874503E+01  0.51100000000E-03 0.  1.
        -12    1    3    3    0    0 -0.55431884255E+01 -0.32695497925E+02 -0.33474765724E+01  0.33330588382E+02  0.00000000000E+00 0.  1.
</event>
<event>
 7    1  0.2097247E-008  0.4614232E+02  0.7816164E-02  0.1320468E+00
        -11   -1    0    0    0    0  0.00000000000E+00  0.00000000000E+00  0.45593999997E+02  0.45594000000E+02  0.51100000000E-03 0.  1.
         11   -1    0    0    0    0 -0.00000000000E+00 -0.00000000000E+00 -0.45593999997E+02  0.45594000000E+02  0.51100000000E-03 0. -1.
    9900012    2    1    2    0    0  0.29067629458E+02  0.12041689466E+02  0.32236379571E+02  0.46142317239E+02  0.99999952431E+01 0.  0.
         12    1    1    2    0    0 -0.29067629458E+02 -0.12041689466E+02 -0.32236379571E+02  0.45045682761E+02  0.00000000000E+00 0. -1.
         11    1    3    3    0    0  0.14146982941E+02  0.61790115606E+01  0.11289950951E+02  0.19125383733E+02  0.51100000000E-03 0. -1.
        -11    1    3    3    0    0  0.12215500041E+02  0.29280692201E+01  0.12739574820E+02  0.17891025612E+02  0.51100000000E-03 0.  1.
        -12    1    3    3    0    0  0.27051464765E+01  0.29346086854E+01  0.82068538007E+01  0.91259078946E+01  0.00000000000E+00 0.  1.
</event>
<event>
 7    1  0.2097247E-008  0.4614232E+02  0.7816164E-02  0.1320468E+00
        -11   -1    0    0    0    0  0.00000000000E+00  0.00000000000E+00  0.45593999997E+02  0.45594000000E+02  0.51100000000E-03 0.  1.
         11   -1    0    0    0    0 -0.00000000000E+00 -0.00000000000E+00 -0.45593999997E+02  0.45594000000E+02  0.51100000000E-03 0. -1.
    9900012    2    1    2    0    0 -0.43167493989E+02  0.12044596905E+02  0.45396714501E+01  0.46142317978E+02  0.10000001982E+02 0.  0.
         12    1    1    2    0    0  0.43167493989E+02 -0.12044596905E+02 -0.45396714501E+01  0.45045682022E+02  0.00000000000E+00 0. -1.
         11    1    3    3    0    0 -0.14863439826E+02  0.35063277010E+01 -0.10086932362E+01  0.15304693389E+02  0.51100000000E-03 0. -1.
        -11    1    3    3    0    0 -0.23323960822E+02  0.41882636626E+01  0.38185979611E+01  0.24002716337E+02  0.51100000000E-03 0.  1.
         12    1    3    3    0    0 -0.49800933411E+01  0.43500055412E+01  0.17297667252E+01  0.68349082523E+01  0.00000000000E+00 0. -1.
</event>
<event>
 7    1  0.2097247E-008  0.4614232E+02  0.7816164E-02  0.1320468E+00
        -11   -1    0    0    0    0  0.00000000000E+00  0.00000000000E+00  0.45593999997E+02  0.45594000000E+02  0.51100000000E-03 0.  1.
         11   -1    0    0    0    0 -0.00000000000E+00 -0.00000000000E+00 -0.45593999997E+02  0.45594000000E+02  0.51100000000E-03 0. -1.
    9900012    2    1    2    0    0 -0.35354480199E+02 -0.25904215709E+02  0.10399317640E+02  0.46142317976E+02  0.10000001957E+02 0.  0.
         12    1    1    2    0    0  0.35354480199E+02  0.25904215709E+02 -0.10399317640E+02  0.45045682024E+02  0.00000000000E+00 0. -1.
         11    1    3    3    0    0 -0.11669200641E+02 -0.68733823249E+01  0.35346150941E+01  0.13996682903E+02  0.51100000000E-03 0. -1.
        -11    1    3    3    0    0 -0.16896138669E+02 -0.14808044878E+02  0.84341830843E+01  0.23997773638E+02  0.51100000000E-03 0.  1.
         12    1    3    3    0    0 -0.67891408897E+01 -0.42227885059E+01 -0.15694805386E+01  0.81478614340E+01  0.00000000000E+00 0. -1.
</event>
<event>
 7    1  0.2097247E-008  0.4614232E+02  0.7816164E-02  0.1320468E+00
        -11   -1    0    0    0    0  0.00000000000E+00  0.00000000000E+00  0.45593999997E+02  0.45594000000E+02  0.51100000000E-03 0. -1.
         11   -1    0    0    0    0 -0.00000000000E+00 -0.00000000000E+00 -0.45593999997E+02  0.45594000000E+02  0.51100000000E-03 0.  1.
    9900012    2    1    2    0    0 -0.47819749406E+01 -0.44625875224E+02  0.38441408619E+01  0.46142318267E+02  0.10000004613E+02 0.  0.
         12    1    1    2    0    0  0.47819749406E+01  0.44625875224E+02 -0.38441408619E+01  0.45045681733E+02  0.00000000000E+00 0. -1.
         11    1    3    3    0    0  0.67962917703E+00 -0.54934111273E+01 -0.68095811038E+00  0.55770212337E+01  0.51100000000E-03 0. -1.
        -11    1    3    3    0    0 -0.42897167006E+01 -0.80945828581E+01  0.21805405726E+01  0.94169367879E+01  0.51100000000E-03 0.  1.
         12    1    3    3    0    0 -0.11718874171E+01 -0.31037881238E+02  0.23445583997E+01  0.31148360245E+02  0.00000000000E+00 0. -1.
</event>
<event>
 7    1  0.2097247E-008  0.4614232E+02  0.7816164E-02  0.1320468E+00
        -11   -1    0    0    0    0  0.00000000000E+00  0.00000000000E+00  0.45593999997E+02  0.45594000000E+02  0.51100000000E-03 0.  1.
         11   -1    0    0    0    0 -0.00000000000E+00 -0.00000000000E+00 -0.45593999997E+02  0.45594000000E+02  0.51100000000E-03 0. -1.
    9900012    2    1    2    0    0 -0.19931379872E+02 -0.39752752809E+02  0.71813789487E+01  0.46142318042E+02  0.10000002560E+02 0.  0.
         12    1    1    2    0    0  0.19931379872E+02  0.39752752809E+02 -0.71813789487E+01  0.45045681958E+02  0.00000000000E+00 0. -1.
         11    1    3    3    0    0 -0.63336009204E+01 -0.14785603594E+02 -0.69755622461E+00  0.16100160223E+02  0.51100000000E-03 0. -1.
        -11    1    3    3    0    0 -0.13688583725E+02 -0.21657790606E+02  0.75763602503E+01  0.26717755393E+02  0.51100000000E-03 0.  1.
        -12    1    3    3    0    0  0.90804773197E-01 -0.33093586081E+01  0.30257492306E+00  0.33244024257E+01  0.00000000000E+00 0.  1.
</event>
<event>
 7    1  0.2097247E-008  0.4614232E+02  0.7816164E-02  0.1320468E+00
        -11   -1    0    0    0    0  0.00000000000E+00  0.00000000000E+00  0.45593999997E+02  0.45594000000E+02  0.51100000000E-03 0. -1.
         11   -1    0    0    0    0 -0.00000000000E+00 -0.00000000000E+00 -0.45593999997E+02  0.45594000000E+02  0.51100000000E-03 0.  1.
    9900012    2    1    2    0    0  0.39001901469E+02  0.76270347517E+00 -0.22525170913E+02  0.46142319192E+02  0.10000013045E+02 0.  0.
         12    1    1    2    0    0 -0.39001901469E+02 -0.76270347517E+00  0.22525170913E+02  0.45045680808E+02  0.00000000000E+00 0. -1.
         11    1    3    3    0    0  0.23015633285E+02  0.39822571913E+01 -0.13891401438E+02  0.27176254010E+02  0.51100000000E-03 0.  1.
        -11    1    3    3    0    0  0.83841509959E+01 -0.84137115849E+00 -0.21522401537E+01  0.86967828126E+01  0.51100000000E-03 0. -1.
        -12    1    3    3    0    0  0.76021171879E+01 -0.23781825577E+01 -0.64815293223E+01  0.10269282369E+02  0.00000000000E+00 0.  1.
</event>
<event>
 7    1  0.2097247E-008  0.4614232E+02  0.7816164E-02  0.1320468E+00
        -11   -1    0    0    0    0  0.00000000000E+00  0.00000000000E+00  0.45593999997E+02  0.45594000000E+02  0.51100000000E-03 0.  1.
         11   -1    0    0    0    0 -0.00000000000E+00 -0.00000000000E+00 -0.45593999997E+02  0.45594000000E+02  0.51100000000E-03 0. -1.
    9900012    2    1    2    0    0 -0.41408278220E+02 -0.25458129262E+01  0.17549552887E+02  0.46142317908E+02  0.10000001341E+02 0.  0.
         12    1    1    2    0    0  0.41408278220E+02  0.25458129262E+01 -0.17549552887E+02  0.45045682092E+02  0.00000000000E+00 0. -1.
         11    1    3    3    0    0 -0.15575919024E+02 -0.51870306283E+01  0.84144615350E+01  0.18447701845E+02  0.51100000000E-03 0. -1.
        -11    1    3    3    0    0 -0.12251465840E+02 -0.17938052324E+00  0.48409273352E+01  0.13174413472E+02  0.51100000000E-03 0.  1.
         12    1    3    3    0    0 -0.13580893356E+02  0.28205982253E+01  0.42941640172E+01  0.14520202592E+02  0.00000000000E+00 0. -1.
</event>
<event>
 7    1  0.2097247E-008  0.4614232E+02  0.7816164E-02  0.1320468E+00
        -11   -1    0    0    0    0  0.00000000000E+00  0.00000000000E+00  0.45593999997E+02  0.45594000000E+02  0.51100000000E-03 0. -1.
         11   -1    0    0    0    0 -0.00000000000E+00 -0.00000000000E+00 -0.45593999997E+02  0.45594000000E+02  0.51100000000E-03 0.  1.
    9900012    2    1    2    0    0 -0.94689476673E+01 -0.16319599290E+02 -0.40903828321E+02  0.46142318052E+02  0.10000002649E+02 0.  0.
         12    1    1    2    0    0  0.94689476673E+01  0.16319599290E+02  0.40903828321E+02  0.45045681948E+02  0.00000000000E+00 0. -1.
         11    1    3    3    0    0 -0.21140333822E+01 -0.40743584345E+01 -0.67498327332E+01  0.81627064128E+01  0.51100000000E-03 0. -1.
        -11    1    3    3    0    0 -0.81806136116E+01 -0.11804610634E+02 -0.25428837214E+02  0.29204400928E+02  0.51100000000E-03 0.  1.
        -12    1    3    3    0    0  0.82569932647E+00 -0.44063022193E+00 -0.87251583736E+01  0.87752107106E+01  0.00000000000E+00 0.  1.
</event>
<event>
 7    1  0.2097247E-008  0.4614232E+02  0.7816164E-02  0.1320468E+00
        -11   -1    0    0    0    0  0.00000000000E+00  0.00000000000E+00  0.45593999997E+02  0.45594000000E+02  0.51100000000E-03 0.  1.
         11   -1    0    0    0    0 -0.00000000000E+00 -0.00000000000E+00 -0.45593999997E+02  0.45594000000E+02  0.51100000000E-03 0. -1.
    9900012    2    1    2    0    0  0.63949291811E+01  0.26114147792E+02  0.36142353210E+02  0.46142317302E+02  0.99999958167E+01 0.  0.
         12    1    1    2    0    0 -0.63949291811E+01 -0.26114147792E+02 -0.36142353210E+02  0.45045682698E+02  0.00000000000E+00 0. -1.
         11    1    3    3    0    0  0.20675888721E+01  0.98193479952E+01  0.83908373785E+01  0.13080545515E+02  0.51100000000E-03 0. -1.
        -11    1    3    3    0    0  0.52379271730E+01  0.77423406649E+01  0.15266167836E+02  0.17900715089E+02  0.51100000000E-03 0.  1.
        -12    1    3    3    0    0 -0.91058686401E+00  0.85524591317E+01  0.12485347996E+02  0.15161056698E+02  0.00000000000E+00 0.  1.
</event>
<event>
 7    1  0.2097247E-008  0.4614232E+02  0.7816164E-02  0.1320468E+00
        -11   -1    0    0    0    0  0.00000000000E+00  0.00000000000E+00  0.45593999997E+02  0.45594000000E+02  0.51100000000E-03 0.  1.
         11   -1    0    0    0    0 -0.00000000000E+00 -0.00000000000E+00 -0.45593999997E+02  0.45594000000E+02  0.51100000000E-03 0. -1.
    9900012    2    1    2    0    0  0.44828424043E+02  0.43133238998E+01  0.95977778183E+00  0.46142317203E+02  0.99999949103E+01 0.  0.
         12    1    1    2    0    0 -0.44828424043E+02 -0.43133238998E+01 -0.95977778183E+00  0.45045682797E+02  0.00000000000E+00 0. -1.
         11    1    3    3    0    0  0.90767123858E+01  0.34343383581E+01 -0.41435527614E+00  0.97135512686E+01  0.51100000000E-03 0. -1.
        -11    1    3    3    0    0  0.71706727430E+01  0.28610487203E+01 -0.33994270479E+00  0.77278527853E+01  0.51100000000E-03 0.  1.
        -12    1    3    3    0    0  0.28581038914E+02 -0.19820631786E+01  0.17140757628E+01  0.28700913149E+02  0.00000000000E+00 0.  1.
</event>
<event>
 7    1  0.2097247E-008  0.4614232E+02  0.7816164E-02  0.1320468E+00
        -11   -1    0    0    0    0  0.00000000000E+00  0.00000000000E+00  0.45593999997E+02  0.45594000000E+02  0.51100000000E-03 0. -1.
         11   -1    0    0    0    0 -0.00000000000E+00 -0.00000000000E+00 -0.45593999997E+02  0.45594000000E+02  0.51100000000E-03 0.  1.
    9900012    2    1    2    0    0 -0.38123542838E+02 -0.18441473732E+02 -0.15349954869E+02  0.46142316673E+02  0.99999900745E+01 0.  0.
         12    1    1    2    0    0  0.38123542838E+02  0.18441473732E+02  0.15349954869E+02  0.45045683327E+02  0.00000000000E+00 0. -1.
         11    1    3    3    0    0 -0.60014327474E+01 -0.17846141386E+01 -0.36395371237E+01  0.72421180176E+01  0.51100000000E-03 0. -1.
        -11    1    3    3    0    0 -0.82938757047E+01 -0.50570905452E+00 -0.26820698425E+01  0.87314153924E+01  0.51100000000E-03 0.  1.
        -12    1    3    3    0    0 -0.23828234386E+02 -0.16151150539E+02 -0.90283479027E+01  0.30168783263E+02  0.00000000000E+00 0.  1.
</event>
<event>
 7    1  0.2097247E-008  0.4614232E+02  0.7816164E-02  0.1320468E+00
        -11   -1    0    0    0    0  0.00000000000E+00  0.00000000000E+00  0.45593999997E+02  0.45594000000E+02  0.51100000000E-03 0.  1.
         11   -1    0    0    0    0 -0.00000000000E+00 -0.00000000000E+00 -0.45593999997E+02  0.45594000000E+02  0.51100000000E-03 0. -1.
    9900012    2    1    2    0    0  0.37523720033E+02 -0.22801634655E+02  0.10058309537E+02  0.46142315425E+02  0.99999787016E+01 0.  0.
         12    1    1    2    0    0 -0.37523720033E+02  0.22801634655E+02 -0.10058309537E+02  0.45045684575E+02  0.00000000000E+00 0. -1.
         11    1    3    3    0    0  0.12240603414E+02 -0.48663370673E+01  0.20038082910E+01  0.13323995509E+02  0.51100000000E-03 0. -1.
        -11    1    3    3    0    0  0.70501286111E+01 -0.13768142486E+01  0.16855563692E+01  0.73784165945E+01  0.51100000000E-03 0.  1.
         12    1    3    3    0    0  0.18232988007E+02 -0.16558483339E+02  0.63689448773E+01  0.25439903322E+02  0.00000000000E+00 0. -1.
</event>
<event>
 7    1  0.2097247E-008  0.4614232E+02  0.7816164E-02  0.1320468E+00
        -11   -1    0    0    0    0  0.00000000000E+00  0.00000000000E+00  0.45593999997E+02  0.45594000000E+02  0.51100000000E-03 0.  1.
         11   -1    0    0    0    0 -0.00000000000E+00 -0.00000000000E+00 -0.45593999997E+02  0.45594000000E+02  0.51100000000E-03 0. -1.
    9900012    2    1    2    0    0  0.11845978106E+02 -0.10661844675E+02  0.42132070414E+02  0.46142317782E+02  0.10000000189E+02 0.  0.
         12    1    1    2    0    0 -0.11845978106E+02  0.10661844675E+02 -0.42132070414E+02  0.45045682218E+02  0.00000000000E+00 0. -1.
         11    1    3    3    0    0  0.41957416556E+01  0.28050063502E+00  0.91167356618E+01  0.10039810657E+02  0.51100000000E-03 0. -1.
        -11    1    3    3    0    0  0.72975989555E+00 -0.60522644788E+01  0.12551299836E+02  0.13953407564E+02  0.51100000000E-03 0.  1.
        -12    1    3    3    0    0  0.69204765546E+01 -0.48900808312E+01  0.20464034916E+02  0.22149099560E+02  0.00000000000E+00 0.  1.
</event>
<event>
 7    1  0.2097247E-008  0.4614232E+02  0.7816164E-02  0.1320468E+00
        -11   -1    0    0    0    0  0.00000000000E+00  0.00000000000E+00  0.45593999997E+02  0.45594000000E+02  0.51100000000E-03 0. -1.
         11   -1    0    0    0    0 -0.00000000000E+00 -0.00000000000E+00 -0.45593999997E+02  0.45594000000E+02  0.51100000000E-03 0.  1.
    9900012    2    1    2    0    0 -0.43931094352E+02 -0.56522594775E+01 -0.81990554316E+01  0.46142316543E+02  0.99999888885E+01 0.  0.
         12    1    1    2    0    0  0.43931094352E+02  0.56522594775E+01  0.81990554316E+01  0.45045683457E+02  0.00000000000E+00 0. -1.
         11    1    3    3    0    0 -0.26816702477E+02 -0.18225709357E+01 -0.88510185281E+01  0.28298371434E+02  0.51100000000E-03 0. -1.
        -11    1    3    3    0    0 -0.10919146366E+02 -0.20947134854E+01 -0.11097468265E+01  0.11173500805E+02  0.51100000000E-03 0.  1.
         12    1    3    3    0    0 -0.61952455088E+01 -0.17349750564E+01  0.17617099230E+01  0.66704443040E+01  0.00000000000E+00 0. -1.
</event>
<event>
 7    1  0.2097247E-008  0.4614232E+02  0.7816164E-02  0.1320468E+00
        -11   -1    0    0    0    0  0.00000000000E+00  0.00000000000E+00  0.45593999997E+02  0.45594000000E+02  0.51100000000E-03 0.  1.
         11   -1    0    0    0    0 -0.00000000000E+00 -0.00000000000E+00 -0.45593999997E+02  0.45594000000E+02  0.51100000000E-03 0. -1.
    9900012    2    1    2    0    0  0.11961950994E+02  0.28273209407E+02  0.32964385290E+02  0.46142319415E+02  0.10000015085E+02 0.  0.
         12    1    1    2    0    0 -0.11961950994E+02 -0.28273209407E+02 -0.32964385290E+02  0.45045680585E+02  0.00000000000E+00 0. -1.
         11    1    3    3    0    0  0.26556773285E+01  0.47161167773E+01  0.11845699859E+02  0.13023631788E+02  0.51100000000E-03 0. -1.
        -11    1    3    3    0    0  0.29383894976E+01  0.66706540536E+01  0.78947091730E+01  0.10745147348E+02  0.51100000000E-03 0.  1.
        -12    1    3    3    0    0  0.63678841675E+01  0.16886438576E+02  0.13223976258E+02  0.22373540279E+02  0.00000000000E+00 0.  1.
</event>
<event>
 7    1  0.2097247E-008  0.4614232E+02  0.7816164E-02  0.1320468E+00
        -11   -1    0    0    0    0  0.00000000000E+00  0.00000000000E+00  0.45593999997E+02  0.45594000000E+02  0.51100000000E-03 0. -1.
         11   -1    0    0    0    0 -0.00000000000E+00 -0.00000000000E+00 -0.45593999997E+02  0.45594000000E+02  0.51100000000E-03 0.  1.
    9900012    2    1    2    0    0  0.92153976191E+01  0.44088331777E+02 -0.63947643402E+00  0.46142317829E+02  0.10000000615E+02 0.  0.
         12    1    1    2    0    0 -0.92153976191E+01 -0.44088331777E+02  0.63947643402E+00  0.45045682171E+02  0.00000000000E+00 0. -1.
         11    1    3    3    0    0  0.35146615552E+01  0.23713645296E+02  0.16238304103E+01  0.24027622532E+02  0.51100000000E-03 0. -1.
        -11    1    3    3    0    0 -0.11083075506E+01  0.34766440706E+01  0.51693736006E+00  0.36854611808E+01  0.51100000000E-03 0.  1.
         12    1    3    3    0    0  0.68090436144E+01  0.16898042410E+02 -0.27802442043E+01  0.18429234116E+02  0.00000000000E+00 0. -1.
</event>
<event>
 7    1  0.2097247E-008  0.4614232E+02  0.7816164E-02  0.1320468E+00
        -11   -1    0    0    0    0  0.00000000000E+00  0.00000000000E+00  0.45593999997E+02  0.45594000000E+02  0.51100000000E-03 0.  1.
         11   -1    0    0    0    0 -0.00000000000E+00 -0.00000000000E+00 -0.45593999997E+02  0.45594000000E+02  0.51100000000E-03 0. -1.
    9900012    2    1    2    0    0 -0.57810395528E+01  0.86141327748E+01  0.43834799149E+02  0.46142319650E+02  0.10000017222E+02 0.  0.
         12    1    1    2    0    0  0.57810395528E+01 -0.86141327748E+01 -0.43834799149E+02  0.45045680350E+02  0.00000000000E+00 0. -1.
         11    1    3    3    0    0 -0.55179717079E+01  0.79449836313E+01  0.36651151413E+02  0.37906169377E+02  0.51100000000E-03 0. -1.
        -11    1    3    3    0    0 -0.13780965929E+01 -0.11711997619E+01  0.25390040652E+01  0.31172746119E+01  0.51100000000E-03 0.  1.
         12    1    3    3    0    0  0.11150287480E+01  0.18403489053E+01  0.46446436710E+01  0.51188756610E+01  0.00000000000E+00 0. -1.
</event>
<event>
 7    1  0.2097247E-008  0.4614232E+02  0.7816164E-02  0.1320468E+00
        -11   -1    0    0    0    0  0.00000000000E+00  0.00000000000E+00  0.45593999997E+02  0.45594000000E+02  0.51100000000E-03 0. -1.
         11   -1    0    0    0    0 -0.00000000000E+00 -0.00000000000E+00 -0.45593999997E+02  0.45594000000E+02  0.51100000000E-03 0.  1.
    9900012    2    1    2    0    0  0.94921308482E+01  0.22381707430E+01 -0.43977307037E+02  0.46142317737E+02  0.99999997838E+01 0.  0.
         12    1    1    2    0    0 -0.94921308482E+01 -0.22381707430E+01  0.43977307037E+02  0.45045682263E+02  0.00000000000E+00 0. -1.
         11    1    3    3    0    0  0.29640497724E+01  0.39477069141E+01 -0.29597589500E+02  0.30006454062E+02  0.51100000000E-03 0.  1.
        -11    1    3    3    0    0  0.29590939441E+01 -0.22237040934E+01 -0.77674047910E+01  0.86042823242E+01  0.51100000000E-03 0. -1.
         12    1    3    3    0    0  0.35689871316E+01  0.51416792229E+00 -0.66123127457E+01  0.75315813509E+01  0.00000000000E+00 0. -1.
</event>
<event>
 7    1  0.2097247E-008  0.4614232E+02  0.7816164E-02  0.1320468E+00
        -11   -1    0    0    0    0  0.00000000000E+00  0.00000000000E+00  0.45593999997E+02  0.45594000000E+02  0.51100000000E-03 0.  1.
         11   -1    0    0    0    0 -0.00000000000E+00 -0.00000000000E+00 -0.45593999997E+02  0.45594000000E+02  0.51100000000E-03 0. -1.
    9900012    2    1    2    0    0 -0.30617200730E+02  0.17318613743E+02  0.28138337716E+02  0.46142318609E+02  0.10000007736E+02 0.  0.
         12    1    1    2    0    0  0.30617200730E+02 -0.17318613743E+02 -0.28138337716E+02  0.45045681391E+02  0.00000000000E+00 0. -1.
         11    1    3    3    0    0 -0.69040248229E+01  0.62655280202E+01  0.50935584624E+01  0.10623875856E+02  0.51100000000E-03 0. -1.
        -11    1    3    3    0    0 -0.11703968435E+02  0.80229376554E+01  0.15506951166E+02  0.21019418176E+02  0.51100000000E-03 0.  1.
         12    1    3    3    0    0 -0.12009207472E+02  0.30301480672E+01  0.75378280879E+01  0.14499024577E+02  0.00000000000E+00 0. -1.
</event>
<event>
 7    1  0.2097247E-008  0.4614232E+02  0.7816164E-02  0.1320468E+00
        -11   -1    0    0    0    0  0.00000000000E+00  0.00000000000E+00  0.45593999997E+02  0.45594000000E+02  0.51100000000E-03 0. -1.
         11   -1    0    0    0    0 -0.00000000000E+00 -0.00000000000E+00 -0.45593999997E+02  0.45594000000E+02  0.51100000000E-03 0.  1.
    9900012    2    1    2    0    0 -0.42542114954E+02  0.19663277145E+01  0.14677040906E+02  0.46142317419E+02  0.99999968814E+01 0.  0.
         12    1    1    2    0    0  0.42542114954E+02 -0.19663277145E+01 -0.14677040906E+02  0.45045682581E+02  0.00000000000E+00 0. -1.
         11    1    3    3    0    0 -0.23435922238E+02  0.55685231465E+00  0.11726189030E+02  0.26211753949E+02  0.51100000000E-03 0. -1.
        -11    1    3    3    0    0 -0.10687340370E+02 -0.91589233925E+00  0.31976202599E+01  0.11192983452E+02  0.51100000000E-03 0.  1.
        -12    1    3    3    0    0 -0.84188523461E+01  0.23253677391E+01 -0.24676838443E+00  0.87375800187E+01  0.00000000000E+00 0.  1.
</event>
<event>
 7    1  0.2097247E-008  0.4614232E+02  0.7816164E-02  0.1320468E+00
        -11   -1    0    0    0    0  0.00000000000E+00  0.00000000000E+00  0.45593999997E+02  0.45594000000E+02  0.51100000000E-03 0.  1.
         11   -1    0    0    0    0 -0.00000000000E+00 -0.00000000000E+00 -0.45593999997E+02  0.45594000000E+02  0.51100000000E-03 0. -1.
    9900012    2    1    2    0    0  0.75939001850E+01 -0.93091935591E+01  0.43414111017E+02  0.46142318296E+02  0.10000004882E+02 0.  0.
         12    1    1    2    0    0 -0.75939001850E+01  0.93091935591E+01 -0.43414111017E+02  0.45045681704E+02  0.00000000000E+00 0. -1.
         11    1    3    3    0    0 -0.10575075978E+01 -0.54154943435E+00  0.54771803184E+01  0.56045608758E+01  0.51100000000E-03 0. -1.
        -11    1    3    3    0    0  0.13471057543E+01 -0.23540318624E+01  0.21699955554E+01  0.34734767732E+01  0.51100000000E-03 0.  1.
        -12    1    3    3    0    0  0.73043020284E+01 -0.64136122624E+01  0.35766935143E+02  0.37064280647E+02  0.00000000000E+00 0.  1.
</event>
<event>
 7    1  0.2097247E-008  0.4614232E+02  0.7816164E-02  0.1320468E+00
        -11   -1    0    0    0    0  0.00000000000E+00  0.00000000000E+00  0.45593999997E+02  0.45594000000E+02  0.51100000000E-03 0.  1.
         11   -1    0    0    0    0 -0.00000000000E+00 -0.00000000000E+00 -0.45593999997E+02  0.45594000000E+02  0.51100000000E-03 0. -1.
    9900012    2    1    2    0    0 -0.37388916343E+02 -0.16709026617E+02  0.18761419286E+02  0.46142317750E+02  0.99999998970E+01 0.  0.
         12    1    1    2    0    0  0.37388916343E+02  0.16709026617E+02 -0.18761419286E+02  0.45045682250E+02  0.00000000000E+00 0. -1.
         11    1    3    3    0    0 -0.14154245334E+01 -0.58520129860E+00 -0.16660643644E+00  0.15406638619E+01  0.51100000000E-03 0. -1.
        -11    1    3    3    0    0 -0.32123988849E+02 -0.16026125927E+02  0.19254233203E+02  0.40737119047E+02  0.51100000000E-03 0.  1.
         12    1    3    3    0    0 -0.38495029603E+01 -0.97699391178E-01 -0.32620748039E+00  0.38645348404E+01  0.00000000000E+00 0. -1.
</event>
<event>
 7    1  0.2097247E-008  0.4614232E+02  0.7816164E-02  0.1320468E+00
        -11   -1    0    0    0    0  0.00000000000E+00  0.00000000000E+00  0.45593999997E+02  0.45594000000E+02  0.51100000000E-03 0.  1.
         11   -1    0    0    0    0 -0.00000000000E+00 -0.00000000000E+00 -0.45593999997E+02  0.45594000000E+02  0.51100000000E-03 0. -1.
    9900012    2    1    2    0    0 -0.24991364524E+02  0.39455681313E+01  0.37268991282E+02  0.46142317412E+02  0.99999968135E+01 0.  0.
         12    1    1    2    0    0  0.24991364524E+02 -0.39455681313E+01 -0.37268991282E+02  0.45045682588E+02  0.00000000000E+00 0. -1.
         11    1    3    3    0    0 -0.69147849856E+01  0.17366893576E+01  0.69438100721E+01  0.99522278863E+01  0.51100000000E-03 0. -1.
        -11    1    3    3    0    0 -0.97880089375E+01 -0.25400086291E+01  0.13901454571E+02  0.17190322924E+02  0.51100000000E-03 0.  1.
        -12    1    3    3    0    0 -0.82885706008E+01  0.47488874027E+01  0.16423726639E+02  0.18999766601E+02  0.00000000000E+00 0.  1.
</event>
<event>
 7    1  0.2097247E-008  0.4614232E+02  0.7816164E-02  0.1320468E+00
        -11   -1    0    0    0    0  0.00000000000E+00  0.00000000000E+00  0.45593999997E+02  0.45594000000E+02  0.51100000000E-03 0.  1.
         11   -1    0    0    0    0 -0.00000000000E+00 -0.00000000000E+00 -0.45593999997E+02  0.45594000000E+02  0.51100000000E-03 0. -1.
    9900012    2    1    2    0    0  0.57192892412E+01  0.18206348364E+02  0.40803579519E+02  0.46142317724E+02  0.99999996598E+01 0.  0.
         12    1    1    2    0    0 -0.57192892412E+01 -0.18206348364E+02 -0.40803579519E+02  0.45045682276E+02  0.00000000000E+00 0. -1.
         11    1    3    3    0    0 -0.10416176166E+01  0.48910640853E+01  0.17400121560E+02  0.18104466457E+02  0.51100000000E-03 0. -1.
        -11    1    3    3    0    0  0.17785517825E+01  0.67993122190E+01  0.85285255082E+01  0.11051228018E+02  0.51100000000E-03 0.  1.
        -12    1    3    3    0    0  0.49823550754E+01  0.65159720596E+01  0.14874932451E+02  0.16986623249E+02  0.00000000000E+00 0.  1.
</event>
<event>
 7    1  0.2097247E-008  0.4614232E+02  0.7816164E-02  0.1320468E+00
        -11   -1    0    0    0    0  0.00000000000E+00  0.00000000000E+00  0.45593999997E+02  0.45594000000E+02  0.51100000000E-03 0.  1.
         11   -1    0    0    0    0 -0.00000000000E+00 -0.00000000000E+00 -0.45593999997E+02  0.45594000000E+02  0.51100000000E-03 0. -1.
    9900012    2    1    2    0    0  0.66861800126E+01  0.26959392396E+02  0.35462650617E+02  0.46142318406E+02  0.10000005881E+02 0.  0.
         12    1    1    2    0    0 -0.66861800126E+01 -0.26959392396E+02 -0.35462650617E+02  0.45045681594E+02  0.00000000000E+00 0. -1.
         11    1    3    3    0    0  0.11478014626E+00  0.40401930534E+01  0.84176976045E+01  0.93377710195E+01  0.51100000000E-03 0. -1.
        -11    1    3    3    0    0  0.52986256919E+01  0.17217128959E+02  0.24553971948E+02  0.30453283936E+02  0.51100000000E-03 0.  1.
        -12    1    3    3    0    0  0.12727741745E+01  0.57020703831E+01  0.24909810643E+01  0.63512634504E+01  0.00000000000E+00 0.  1.
</event>
<event>
 7    1  0.2097247E-008  0.4614232E+02  0.7816164E-02  0.1320468E+00
        -11   -1    0    0    0    0  0.00000000000E+00  0.00000000000E+00  0.45593999997E+02  0.45594000000E+02  0.51100000000E-03 0.  1.
         11   -1    0    0    0    0 -0.00000000000E+00 -0.00000000000E+00 -0.45593999997E+02  0.45594000000E+02  0.51100000000E-03 0. -1.
    9900012    2    1    2    0    0  0.26845737530E+02 -0.19358934799E+02  0.30555711956E+02  0.46142317485E+02  0.99999974825E+01 0.  0.
         12    1    1    2    0    0 -0.26845737530E+02  0.19358934799E+02 -0.30555711956E+02  0.45045682515E+02  0.00000000000E+00 0. -1.
         11    1    3    3    0    0  0.15195903541E+01 -0.29269742857E+00  0.47543311131E+01  0.49998491200E+01  0.51100000000E-03 0.  1.
        -11    1    3    3    0    0  0.14070302002E+02 -0.13323847562E+02  0.16522973084E+02  0.25465799655E+02  0.51100000000E-03 0. -1.
         12    1    3    3    0    0  0.11255845174E+02 -0.57423898089E+01  0.92784077594E+01  0.15676668710E+02  0.00000000000E+00 0. -1.
</event>
<event>
 7    1  0.2097247E-008  0.4614232E+02  0.7816164E-02  0.1320468E+00
        -11   -1    0    0    0    0  0.00000000000E+00  0.00000000000E+00  0.45593999997E+02  0.45594000000E+02  0.51100000000E-03 0.  1.
         11   -1    0    0    0    0 -0.00000000000E+00 -0.00000000000E+00 -0.45593999997E+02  0.45594000000E+02  0.51100000000E-03 0. -1.
    9900012    2    1    2    0    0 -0.34377344379E+02  0.52629245800E+01 -0.28628890477E+02  0.46142317059E+02  0.99999935946E+01 0.  0.
         12    1    1    2    0    0  0.34377344379E+02 -0.52629245800E+01  0.28628890477E+02  0.45045682941E+02  0.00000000000E+00 0. -1.
         11    1    3    3    0    0 -0.74379310738E+01 -0.69379284670E+00 -0.10134882843E+02  0.12590473290E+02  0.51100000000E-03 0. -1.
        -11    1    3    3    0    0 -0.12834273796E+02  0.59636766463E+00 -0.95760603886E+01  0.16024205786E+02  0.51100000000E-03 0.  1.
        -12    1    3    3    0    0 -0.14105139510E+02  0.53603497621E+01 -0.89179472461E+01  0.17527637982E+02  0.00000000000E+00 0.  1.
</event>
<event>
 7    1  0.2097247E-008  0.4614232E+02  0.7816164E-02  0.1320468E+00
        -11   -1    0    0    0    0  0.00000000000E+00  0.00000000000E+00  0.45593999997E+02  0.45594000000E+02  0.51100000000E-03 0.  1.
         11   -1    0    0    0    0 -0.00000000000E+00 -0.00000000000E+00 -0.45593999997E+02  0.45594000000E+02  0.51100000000E-03 0. -1.
    9900012    2    1    2    0    0 -0.24967729329E+02 -0.19797757738E+02  0.31839829917E+02  0.46142317760E+02  0.99999999876E+01 0.  0.
         12    1    1    2    0    0  0.24967729329E+02  0.19797757738E+02 -0.31839829917E+02  0.45045682240E+02  0.00000000000E+00 0. -1.
         11    1    3    3    0    0 -0.25595066818E+01 -0.12494072881E+00  0.60088932674E+00  0.26320624772E+01  0.51100000000E-03 0. -1.
        -11    1    3    3    0    0 -0.12396389650E+02 -0.14184439458E+02  0.18487960966E+02  0.26394573306E+02  0.51100000000E-03 0.  1.
         12    1    3    3    0    0 -0.10011832998E+02 -0.54883775518E+01  0.12750979625E+02  0.17115681977E+02  0.00000000000E+00 0. -1.
</event>
<event>
 7    1  0.2097247E-008  0.4614232E+02  0.7816164E-02  0.1320468E+00
        -11   -1    0    0    0    0  0.00000000000E+00  0.00000000000E+00  0.45593999997E+02  0.45594000000E+02  0.51100000000E-03 0. -1.
         11   -1    0    0    0    0 -0.00000000000E+00 -0.00000000000E+00 -0.45593999997E+02  0.45594000000E+02  0.51100000000E-03 0.  1.
    9900012    2    1    2    0    0  0.43532664738E+02  0.33235336606E+01 -0.11089390194E+02  0.46142319296E+02  0.10000013997E+02 0.  0.
         12    1    1    2    0    0 -0.43532664738E+02 -0.33235336606E+01  0.11089390194E+02  0.45045680704E+02  0.00000000000E+00 0. -1.
         11    1    3    3    0    0  0.56078196317E+01  0.21895593763E+01 -0.25268706430E+01  0.65289269250E+01  0.51100000000E-03 0. -1.
        -11    1    3    3    0    0  0.20388644166E+02  0.43501379982E+01 -0.47324557964E+01  0.21377947742E+02  0.51100000000E-03 0.  1.
         12    1    3    3    0    0  0.17536200940E+02 -0.32161637139E+01 -0.38300637550E+01  0.18235444629E+02  0.00000000000E+00 0. -1.
</event>
<event>
 7    1  0.2097247E-008  0.4614232E+02  0.7816164E-02  0.1320468E+00
        -11   -1    0    0    0    0  0.00000000000E+00  0.00000000000E+00  0.45593999997E+02  0.45594000000E+02  0.51100000000E-03 0.  1.
         11   -1    0    0    0    0 -0.00000000000E+00 -0.00000000000E+00 -0.45593999997E+02  0.45594000000E+02  0.51100000000E-03 0. -1.
    9900012    2    1    2    0    0  0.11868572693E+02  0.33295372921E+02  0.27922546803E+02  0.46142317680E+02  0.99999992578E+01 0.  0.
         12    1    1    2    0    0 -0.11868572693E+02 -0.33295372921E+02 -0.27922546803E+02  0.45045682320E+02  0.00000000000E+00 0. -1.
         11    1    3    3    0    0  0.21941917257E-02  0.23825071045E+01 -0.21865385019E+00  0.23925205715E+01  0.51100000000E-03 0. -1.
        -11    1    3    3    0    0  0.46440360651E+01  0.99266796320E+01  0.64519220804E+01  0.12717442285E+02  0.51100000000E-03 0.  1.
        -12    1    3    3    0    0  0.72223424366E+01  0.20986186185E+02  0.21689278572E+02  0.31032354823E+02  0.00000000000E+00 0.  1.
</event>
<event>
 7    1  0.2097247E-008  0.4614233E+02  0.7816164E-02  0.1320468E+00
        -11   -1    0    0    0    0  0.00000000000E+00  0.00000000000E+00  0.45593999997E+02  0.45594000000E+02  0.51100000000E-03 0.  1.
         11   -1    0    0    0    0 -0.00000000000E+00 -0.00000000000E+00 -0.45593999997E+02  0.45594000000E+02  0.51100000000E-03 0. -1.
    9900012    2    1    2    0    0  0.18572858589E+02 -0.11119075912E+02  0.39503517527E+02  0.46142325154E+02  0.10000067415E+02 0.  0.
         12    1    1    2    0    0 -0.18572858589E+02  0.11119075912E+02 -0.39503517527E+02  0.45045674846E+02  0.00000000000E+00 0. -1.
         11    1    3    3    0    0  0.78933054288E-01  0.99349306708E+00  0.26566224685E+01  0.28374111621E+01  0.51100000000E-03 0. -1.
        -11    1    3    3    0    0  0.26116743422E+01 -0.14793920722E+00  0.66812792515E+01  0.71751112588E+01  0.51100000000E-03 0.  1.
         12    1    3    3    0    0  0.15882251193E+02 -0.11964629772E+02  0.30165615807E+02  0.36129802733E+02  0.00000000000E+00 0. -1.
</event>
<event>
 7    1  0.2097247E-008  0.4614232E+02  0.7816164E-02  0.1320468E+00
        -11   -1    0    0    0    0  0.00000000000E+00  0.00000000000E+00  0.45593999997E+02  0.45594000000E+02  0.51100000000E-03 0.  1.
         11   -1    0    0    0    0 -0.00000000000E+00 -0.00000000000E+00 -0.45593999997E+02  0.45594000000E+02  0.51100000000E-03 0. -1.
    9900012    2    1    2    0    0 -0.25385527326E+02  0.49064091862E+01  0.36886522919E+02  0.46142318500E+02  0.10000006736E+02 0.  0.
         12    1    1    2    0    0  0.25385527326E+02 -0.49064091862E+01 -0.36886522919E+02  0.45045681500E+02  0.00000000000E+00 0. -1.
         11    1    3    3    0    0 -0.30394136392E+01  0.78357804654E+00  0.30536771296E+01  0.43791522123E+01  0.51100000000E-03 0. -1.
        -11    1    3    3    0    0 -0.21889145696E+02  0.51936712715E+01  0.33795149662E+02  0.40598288899E+02  0.51100000000E-03 0.  1.
         12    1    3    3    0    0 -0.45696799113E+00 -0.10708401318E+01  0.37696127803E-01  0.11648773888E+01  0.00000000000E+00 0. -1.
</event>
<event>
 7    1  0.2097247E-008  0.4614232E+02  0.7816164E-02  0.1320468E+00
        -11   -1    0    0    0    0  0.00000000000E+00  0.00000000000E+00  0.45593999997E+02  0.45594000000E+02  0.51100000000E-03 0.  1.
         11   -1    0    0    0    0 -0.00000000000E+00 -0.00000000000E+00 -0.45593999997E+02  0.45594000000E+02  0.51100000000E-03 0. -1.
    9900012    2    1    2    0    0  0.34861295161E+01 -0.41491121797E+02 -0.17188578625E+02  0.46142317386E+02  0.99999965825E+01 0.  0.
         12    1    1    2    0    0 -0.34861295161E+01  0.41491121797E+02  0.17188578625E+02  0.45045682614E+02  0.00000000000E+00 0. -1.
         11    1    3    3    0    0  0.50811535529E+01 -0.11827717114E+02 -0.70182316408E+01  0.14661807160E+02  0.51100000000E-03 0. -1.
        -11    1    3    3    0    0 -0.62538702935E+00 -0.19120235698E+01 -0.46270999529E+00  0.20642296066E+01  0.51100000000E-03 0.  1.
         12    1    3    3    0    0 -0.96963700736E+00 -0.27751381113E+02 -0.97076369886E+01  0.29416280620E+02  0.00000000000E+00 0. -1.
</event>
<event>
 7    1  0.2097247E-008  0.4614232E+02  0.7816164E-02  0.1320468E+00
        -11   -1    0    0    0    0  0.00000000000E+00  0.00000000000E+00  0.45593999997E+02  0.45594000000E+02  0.51100000000E-03 0. -1.
         11   -1    0    0    0    0 -0.00000000000E+00 -0.00000000000E+00 -0.45593999997E+02  0.45594000000E+02  0.51100000000E-03 0.  1.
    9900012    2    1    2    0    0  0.19468162802E+02  0.40540884026E+02  0.25575044323E+01  0.46142317971E+02  0.10000001916E+02 0.  0.
         12    1    1    2    0    0 -0.19468162802E+02 -0.40540884026E+02 -0.25575044323E+01  0.45045682029E+02  0.00000000000E+00 0. -1.
         11    1    3    3    0    0  0.35662259836E+01  0.13730273892E+02  0.13731148235E+00  0.14186516261E+02  0.51100000000E-03 0. -1.
        -11    1    3    3    0    0  0.13378498681E+02  0.24862874713E+02  0.50759447944E+00  0.28238350135E+02  0.51100000000E-03 0.  1.
        -12    1    3    3    0    0  0.25234381377E+01  0.19477354220E+01  0.19125984705E+01  0.37174515758E+01  0.00000000000E+00 0.  1.
</event>
<event>
 7    1  0.2097247E-008  0.4614232E+02  0.7816164E-02  0.1320468E+00
        -11   -1    0    0    0    0  0.00000000000E+00  0.00000000000E+00  0.45593999997E+02  0.45594000000E+02  0.51100000000E-03 0.  1.
         11   -1    0    0    0    0 -0.00000000000E+00 -0.00000000000E+00 -0.45593999997E+02  0.45594000000E+02  0.51100000000E-03 0. -1.
    9900012    2    1    2    0    0 -0.17322583893E+02  0.19689099445E+02  0.36624866191E+02  0.46142319039E+02  0.10000011654E+02 0.  0.
         12    1    1    2    0    0  0.17322583893E+02 -0.19689099445E+02 -0.36624866191E+02  0.45045680961E+02  0.00000000000E+00 0. -1.
         11    1    3    3    0    0 -0.34068154504E+01  0.31489294143E+01  0.10931088341E+02  0.11874798548E+02  0.51100000000E-03 0. -1.
        -11    1    3    3    0    0 -0.26609533478E+01 -0.62346142282E-02  0.28987434865E+01  0.39348984296E+01  0.51100000000E-03 0.  1.
         12    1    3    3    0    0 -0.11254815095E+02  0.16546404645E+02  0.22795034364E+02  0.30332622062E+02  0.00000000000E+00 0. -1.
</event>
<event>
 7    1  0.2097247E-008  0.4614232E+02  0.7816164E-02  0.1320468E+00
        -11   -1    0    0    0    0  0.00000000000E+00  0.00000000000E+00  0.45593999997E+02  0.45594000000E+02  0.51100000000E-03 0.  1.
         11   -1    0    0    0    0 -0.00000000000E+00 -0.00000000000E+00 -0.45593999997E+02  0.45594000000E+02  0.51100000000E-03 0. -1.
    9900012    2    1    2    0    0 -0.27949943591E+02 -0.14989202880E+02  0.31988091909E+02  0.46142316814E+02  0.99999913659E+01 0.  0.
         12    1    1    2    0    0  0.27949943591E+02  0.14989202880E+02 -0.31988091909E+02  0.45045683186E+02  0.00000000000E+00 0. -1.
         11    1    3    3    0    0 -0.15122810735E+02 -0.50439043483E+01  0.21066187539E+02  0.26418263253E+02  0.51100000000E-03 0. -1.
        -11    1    3    3    0    0 -0.17133076866E+01 -0.20713241418E+01  0.27230161086E+01  0.38263068249E+01  0.51100000000E-03 0.  1.
         12    1    3    3    0    0 -0.11113825169E+02 -0.78739743898E+01  0.81988882610E+01  0.15897746736E+02  0.00000000000E+00 0. -1.
</event>
<event>
 7    1  0.2097247E-008  0.4614232E+02  0.7816164E-02  0.1320468E+00
        -11   -1    0    0    0    0  0.00000000000E+00  0.00000000000E+00  0.45593999997E+02  0.45594000000E+02  0.51100000000E-03 0.  1.
         11   -1    0    0    0    0 -0.00000000000E+00 -0.00000000000E+00 -0.45593999997E+02  0.45594000000E+02  0.51100000000E-03 0. -1.
    9900012    2    1    2    0    0 -0.40797257405E+02 -0.17500358427E+02  0.76442757079E+01  0.46142315324E+02  0.99999777747E+01 0.  0.
         12    1    1    2    0    0  0.40797257405E+02  0.17500358427E+02 -0.76442757079E+01  0.45045684676E+02  0.00000000000E+00 0. -1.
         11    1    3    3    0    0 -0.15078992533E+02 -0.10063088957E+02  0.18435679116E+01  0.18221978983E+02  0.51100000000E-03 0. -1.
        -11    1    3    3    0    0 -0.59607871696E+01 -0.41675723278E+01  0.11853580819E+01  0.73691734158E+01  0.51100000000E-03 0.  1.
        -12    1    3    3    0    0 -0.19757477703E+02 -0.32696971422E+01  0.46153497145E+01  0.20551162925E+02  0.00000000000E+00 0.  1.
</event>
<event>
 7    1  0.2097247E-008  0.4614232E+02  0.7816164E-02  0.1320468E+00
        -11   -1    0    0    0    0  0.00000000000E+00  0.00000000000E+00  0.45593999997E+02  0.45594000000E+02  0.51100000000E-03 0.  1.
         11   -1    0    0    0    0 -0.00000000000E+00 -0.00000000000E+00 -0.45593999997E+02  0.45594000000E+02  0.51100000000E-03 0. -1.
    9900012    2    1    2    0    0  0.35629169168E+02 -0.26770827752E+02  0.65573256113E+01  0.46142318373E+02  0.10000005577E+02 0.  0.
         12    1    1    2    0    0 -0.35629169168E+02  0.26770827752E+02 -0.65573256113E+01  0.45045681627E+02  0.00000000000E+00 0. -1.
         11    1    3    3    0    0  0.88248763861E+01 -0.45138864850E+01  0.34869513895E+01  0.10507732614E+02  0.51100000000E-03 0. -1.
        -11    1    3    3    0    0  0.15207808362E+02 -0.13702340000E+02  0.50629371422E+01  0.21087078731E+02  0.51100000000E-03 0.  1.
         12    1    3    3    0    0  0.11596484420E+02 -0.85546012668E+01 -0.19925629204E+01  0.14547507028E+02  0.00000000000E+00 0. -1.
</event>
<event>
 7    1  0.2097247E-008  0.4614232E+02  0.7816164E-02  0.1320468E+00
        -11   -1    0    0    0    0  0.00000000000E+00  0.00000000000E+00  0.45593999997E+02  0.45594000000E+02  0.51100000000E-03 0. -1.
         11   -1    0    0    0    0 -0.00000000000E+00 -0.00000000000E+00 -0.45593999997E+02  0.45594000000E+02  0.51100000000E-03 0.  1.
    9900012    2    1    2    0    0 -0.41771155724E+02  0.57277862785E+01 -0.15858007158E+02  0.46142318995E+02  0.10000011253E+02 0.  0.
         12    1    1    2    0    0  0.41771155724E+02 -0.57277862785E+01  0.15858007158E+02  0.45045681005E+02  0.00000000000E+00 0. -1.
         11    1    3    3    0    0 -0.10603625423E+02 -0.11644765921E+01 -0.27808273548E+01  0.11023877670E+02  0.51100000000E-03 0. -1.
        -11    1    3    3    0    0 -0.26851309928E+02  0.77631565874E+01 -0.12694331768E+02  0.30698623818E+02  0.51100000000E-03 0.  1.
        -12    1    3    3    0    0 -0.43162203737E+01 -0.87089371672E+00 -0.38284803508E+00  0.44198175074E+01  0.00000000000E+00 0.  1.
</event>
<event>
 7    1  0.2097247E-008  0.4614232E+02  0.7816164E-02  0.1320468E+00
        -11   -1    0    0    0    0  0.00000000000E+00  0.00000000000E+00  0.45593999997E+02  0.45594000000E+02  0.51100000000E-03 0.  1.
         11   -1    0    0    0    0 -0.00000000000E+00 -0.00000000000E+00 -0.45593999997E+02  0.45594000000E+02  0.51100000000E-03 0. -1.
    9900012    2    1    2    0    0 -0.15509241619E+02 -0.24329203903E+01  0.42221533947E+02  0.46142316455E+02  0.99999880871E+01 0.  0.
         12    1    1    2    0    0  0.15509241619E+02  0.24329203903E+01 -0.42221533947E+02  0.45045683545E+02  0.00000000000E+00 0. -1.
         11    1    3    3    0    0 -0.64024540919E+01  0.23308172860E+01  0.88485815337E+01  0.11167879075E+02  0.51100000000E-03 0. -1.
        -11    1    3    3    0    0 -0.13356864123E+01 -0.41182563969E-01  0.52740689089E+01  0.54407313215E+01  0.51100000000E-03 0.  1.
        -12    1    3    3    0    0 -0.77711011153E+01 -0.47225551124E+01  0.28098883504E+02  0.29533706058E+02  0.00000000000E+00 0.  1.
</event>
<event>
 7    1  0.2097247E-008  0.4614232E+02  0.7816164E-02  0.1320468E+00
        -11   -1    0    0    0    0  0.00000000000E+00  0.00000000000E+00  0.45593999997E+02  0.45594000000E+02  0.51100000000E-03 0. -1.
         11   -1    0    0    0    0 -0.00000000000E+00 -0.00000000000E+00 -0.45593999997E+02  0.45594000000E+02  0.51100000000E-03 0.  1.
    9900012    2    1    2    0    0 -0.27479884568E+01  0.44949308739E+02  0.10591395528E+01  0.46142316819E+02  0.99999914102E+01 0.  0.
         12    1    1    2    0    0  0.27479884568E+01 -0.44949308739E+02 -0.10591395528E+01  0.45045683181E+02  0.00000000000E+00 0. -1.
         11    1    3    3    0    0 -0.34035005950E+01  0.17306990950E+02  0.43231335173E+01  0.18160540623E+02  0.51100000000E-03 0. -1.
        -11    1    3    3    0    0  0.26600413985E+00  0.40814799056E+01  0.49427005416E+00  0.41198955776E+01  0.51100000000E-03 0.  1.
        -12    1    3    3    0    0  0.38950799836E+00  0.23560837883E+02 -0.37582640186E+01  0.23861880619E+02  0.00000000000E+00 0.  1.
</event>
<event>
 7    1  0.2097247E-008  0.4614232E+02  0.7816164E-02  0.1320468E+00
        -11   -1    0    0    0    0  0.00000000000E+00  0.00000000000E+00  0.45593999997E+02  0.45594000000E+02  0.51100000000E-03 0. -1.
         11   -1    0    0    0    0 -0.00000000000E+00 -0.00000000000E+00 -0.45593999997E+02  0.45594000000E+02  0.51100000000E-03 0.  1.
    9900012    2    1    2    0    0  0.42374150323E+02  0.11982490094E+01 -0.15235124857E+02  0.46142318234E+02  0.10000004316E+02 0.  0.
         12    1    1    2    0    0 -0.42374150323E+02 -0.11982490094E+01  0.15235124857E+02  0.45045681766E+02  0.00000000000E+00 0. -1.
         11    1    3    3    0    0  0.11934119171E+02 -0.19131918385E+01 -0.59591476829E+01  0.13475716855E+02  0.51100000000E-03 0. -1.
        -11    1    3    3    0    0  0.26848810345E+02  0.89659654104E+00 -0.93564625406E+01  0.28446544497E+02  0.51100000000E-03 0.  1.
        -12    1    3    3    0    0  0.35912208082E+01  0.22148443069E+01  0.80485366587E-01  0.42200568825E+01  0.00000000000E+00 0.  1.
</event>
<event>
 7    1  0.2097247E-008  0.4614232E+02  0.7816164E-02  0.1320468E+00
        -11   -1    0    0    0    0  0.00000000000E+00  0.00000000000E+00  0.45593999997E+02  0.45594000000E+02  0.51100000000E-03 0.  1.
         11   -1    0    0    0    0 -0.00000000000E+00 -0.00000000000E+00 -0.45593999997E+02  0.45594000000E+02  0.51100000000E-03 0. -1.
    9900012    2    1    2    0    0  0.34241370651E+02  0.25824432095E+02  0.13774649295E+02  0.46142315187E+02  0.99999765264E+01 0.  0.
         12    1    1    2    0    0 -0.34241370651E+02 -0.25824432095E+02 -0.13774649295E+02  0.45045684813E+02  0.00000000000E+00 0. -1.
         11    1    3    3    0    0 -0.13545405392E+00  0.12507630713E+00  0.84451392069E-01  0.20279098124E+00  0.51100000000E-03 0. -1.
        -11    1    3    3    0    0  0.17826078277E+02  0.93249517200E+01  0.96391561728E+01  0.22307781676E+02  0.51100000000E-03 0.  1.
         12    1    3    3    0    0  0.16550746428E+02  0.16374404068E+02  0.40510417306E+01  0.23631742530E+02  0.00000000000E+00 0. -1.
</event>
<event>
 7    1  0.2097247E-008  0.4614233E+02  0.7816164E-02  0.1320468E+00
        -11   -1    0    0    0    0  0.00000000000E+00  0.00000000000E+00  0.45593999997E+02  0.45594000000E+02  0.51100000000E-03 0.  1.
         11   -1    0    0    0    0 -0.00000000000E+00 -0.00000000000E+00 -0.45593999997E+02  0.45594000000E+02  0.51100000000E-03 0. -1.
    9900012    2    1    2    0    0  0.12916802360E+02 -0.32778421083E+02  0.28068558094E+02  0.46142327340E+02  0.10000087351E+02 0.  0.
         12    1    1    2    0    0 -0.12916802360E+02  0.32778421083E+02 -0.28068558094E+02  0.45045672660E+02  0.00000000000E+00 0. -1.
         11    1    3    3    0    0  0.39386471849E+01 -0.51241800197E+01  0.66858594293E+01  0.92989719373E+01  0.51100000000E-03 0. -1.
        -11    1    3    3    0    0  0.85109239099E+01 -0.26831994331E+02  0.21989101154E+02  0.35719914829E+02  0.51100000000E-03 0.  1.
         12    1    3    3    0    0  0.46723126551E+00 -0.82224673204E+00 -0.60640248942E+00  0.11234405739E+01  0.00000000000E+00 0. -1.
</event>
<event>
 7    1  0.2097247E-008  0.4614232E+02  0.7816164E-02  0.1320468E+00
        -11   -1    0    0    0    0  0.00000000000E+00  0.00000000000E+00  0.45593999997E+02  0.45594000000E+02  0.51100000000E-03 0.  1.
         11   -1    0    0    0    0 -0.00000000000E+00 -0.00000000000E+00 -0.45593999997E+02  0.45594000000E+02  0.51100000000E-03 0. -1.
    9900012    2    1    2    0    0  0.39171381816E+02  0.12380832693E+02 -0.18477856056E+02  0.46142319453E+02  0.10000015426E+02 0.  0.
         12    1    1    2    0    0 -0.39171381816E+02 -0.12380832693E+02  0.18477856056E+02  0.45045680547E+02  0.00000000000E+00 0. -1.
         11    1    3    3    0    0  0.15290665371E+02  0.72104241965E+01 -0.90068705536E+01  0.19155113730E+02  0.51100000000E-03 0. -1.
        -11    1    3    3    0    0  0.16010536843E+02  0.33423251122E+01 -0.94860248153E+01  0.18907487782E+02  0.51100000000E-03 0.  1.
         12    1    3    3    0    0  0.78701796015E+01  0.18280833845E+01  0.15039312992E-01  0.80797179407E+01  0.00000000000E+00 0. -1.
</event>
<event>
 7    1  0.2097247E-008  0.4614232E+02  0.7816164E-02  0.1320468E+00
        -11   -1    0    0    0    0  0.00000000000E+00  0.00000000000E+00  0.45593999997E+02  0.45594000000E+02  0.51100000000E-03 0. -1.
         11   -1    0    0    0    0 -0.00000000000E+00 -0.00000000000E+00 -0.45593999997E+02  0.45594000000E+02  0.51100000000E-03 0.  1.
    9900012    2    1    2    0    0  0.24186945619E+02  0.11504546663E+01 -0.37983966456E+02  0.46142316610E+02  0.99999895069E+01 0.  0.
         12    1    1    2    0    0 -0.24186945619E+02 -0.11504546663E+01  0.37983966456E+02  0.45045683390E+02  0.00000000000E+00 0. -1.
         11    1    3    3    0    0  0.45366556976E+01  0.25222183555E+00 -0.97078072020E+01  0.10718506505E+02  0.51100000000E-03 0.  1.
        -11    1    3    3    0    0  0.18854375001E+02 -0.13242162171E+01 -0.26004049972E+02  0.32147342355E+02  0.51100000000E-03 0. -1.
         12    1    3    3    0    0  0.79591492092E+00  0.22224490478E+01 -0.22721092817E+01  0.32764677504E+01  0.00000000000E+00 0. -1.
</event>
<event>
 7    1  0.2097247E-008  0.4614232E+02  0.7816164E-02  0.1320468E+00
        -11   -1    0    0    0    0  0.00000000000E+00  0.00000000000E+00  0.45593999997E+02  0.45594000000E+02  0.51100000000E-03 0.  1.
         11   -1    0    0    0    0 -0.00000000000E+00 -0.00000000000E+00 -0.45593999997E+02  0.45594000000E+02  0.51100000000E-03 0. -1.
    9900012    2    1    2    0    0 -0.31098496672E+02  0.32521186197E+02  0.20903222965E+01  0.46142317696E+02  0.99999994071E+01 0.  0.
         12    1    1    2    0    0  0.31098496672E+02 -0.32521186197E+02 -0.20903222965E+01  0.45045682304E+02  0.00000000000E+00 0. -1.
         11    1    3    3    0    0 -0.25741520256E+02  0.28245027186E+02 -0.14215933802E+01  0.38241709609E+02  0.51100000000E-03 0.  1.
        -11    1    3    3    0    0 -0.22700920312E+01  0.19499393655E+01  0.57779955018E+00  0.30478572704E+01  0.51100000000E-03 0. -1.
        -12    1    3    3    0    0 -0.30868843857E+01  0.23262196455E+01  0.29341161265E+01  0.48527508172E+01  0.00000000000E+00 0.  1.
</event>
<event>
 7    1  0.2097247E-008  0.4614232E+02  0.7816164E-02  0.1320468E+00
        -11   -1    0    0    0    0  0.00000000000E+00  0.00000000000E+00  0.45593999997E+02  0.45594000000E+02  0.51100000000E-03 0.  1.
         11   -1    0    0    0    0 -0.00000000000E+00 -0.00000000000E+00 -0.45593999997E+02  0.45594000000E+02  0.51100000000E-03 0. -1.
    9900012    2    1    2    0    0 -0.21422083112E+02 -0.39563567228E+02  0.22208078005E+01  0.46142317811E+02  0.10000000451E+02 0.  0.
         12    1    1    2    0    0  0.21422083112E+02  0.39563567228E+02 -0.22208078005E+01  0.45045682189E+02  0.00000000000E+00 0. -1.
         11    1    3    3    0    0 -0.68271276497E+01 -0.10137049514E+02  0.32436631329E+00  0.12225982928E+02  0.51100000000E-03 0. -1.
        -11    1    3    3    0    0 -0.13073285747E+02 -0.22652525430E+02  0.44278017401E+01  0.26526461073E+02  0.51100000000E-03 0.  1.
         12    1    3    3    0    0 -0.15216697156E+01 -0.67739922842E+01 -0.25313602529E+01  0.73898738094E+01  0.00000000000E+00 0. -1.
</event>
<event>
 7    1  0.2097247E-008  0.4614232E+02  0.7816164E-02  0.1320468E+00
        -11   -1    0    0    0    0  0.00000000000E+00  0.00000000000E+00  0.45593999997E+02  0.45594000000E+02  0.51100000000E-03 0. -1.
         11   -1    0    0    0    0 -0.00000000000E+00 -0.00000000000E+00 -0.45593999997E+02  0.45594000000E+02  0.51100000000E-03 0.  1.
    9900012    2    1    2    0    0 -0.92548593514E+01 -0.42478831339E+02 -0.11790249606E+02  0.46142317417E+02  0.99999968651E+01 0.  0.
         12    1    1    2    0    0  0.92548593514E+01  0.42478831339E+02  0.11790249606E+02  0.45045682583E+02  0.00000000000E+00 0. -1.
         11    1    3    3    0    0 -0.49423106504E+01 -0.29540054301E+02 -0.95211402874E+01  0.31427589079E+02  0.51100000000E-03 0.  1.
        -11    1    3    3    0    0 -0.38437524484E+01 -0.78143652001E+01 -0.35622033860E+01  0.94089334990E+01  0.51100000000E-03 0. -1.
        -12    1    3    3    0    0 -0.46879625265E+00 -0.51244118383E+01  0.12930940670E+01  0.53057948397E+01  0.00000000000E+00 0.  1.
</event>
<event>
 7    1  0.2097247E-008  0.4614232E+02  0.7816164E-02  0.1320468E+00
        -11   -1    0    0    0    0  0.00000000000E+00  0.00000000000E+00  0.45593999997E+02  0.45594000000E+02  0.51100000000E-03 0. -1.
         11   -1    0    0    0    0 -0.00000000000E+00 -0.00000000000E+00 -0.45593999997E+02  0.45594000000E+02  0.51100000000E-03 0.  1.
    9900012    2    1    2    0    0 -0.37395569939E+02  0.60812013188E+01 -0.24366037687E+02  0.46142318153E+02  0.10000003570E+02 0.  0.
         12    1    1    2    0    0  0.37395569939E+02 -0.60812013188E+01  0.24366037687E+02  0.45045681847E+02  0.00000000000E+00 0. -1.
         11    1    3    3    0    0 -0.17905341264E+01 -0.13261452123E+01 -0.22562281821E+00  0.22395489499E+01  0.51100000000E-03 0.  1.
        -11    1    3    3    0    0 -0.94743942759E+00  0.10392523908E+01 -0.12609005572E+01  0.18887978921E+01  0.51100000000E-03 0. -1.
        -12    1    3    3    0    0 -0.34657596385E+02  0.63680941403E+01 -0.22879514311E+02  0.42013971311E+02  0.00000000000E+00 0.  1.
</event>
<event>
 7    1  0.2097247E-008  0.4614232E+02  0.7816164E-02  0.1320468E+00
        -11   -1    0    0    0    0  0.00000000000E+00  0.00000000000E+00  0.45593999997E+02  0.45594000000E+02  0.51100000000E-03 0.  1.
         11   -1    0    0    0    0 -0.00000000000E+00 -0.00000000000E+00 -0.45593999997E+02  0.45594000000E+02  0.51100000000E-03 0. -1.
    9900012    2    1    2    0    0 -0.41665554266E+02 -0.16992415859E+02 -0.20863261073E+01  0.46142319123E+02  0.10000012419E+02 0.  0.
         12    1    1    2    0    0  0.41665554266E+02  0.16992415859E+02  0.20863261073E+01  0.45045680877E+02  0.00000000000E+00 0. -1.
         11    1    3    3    0    0 -0.92333447426E+01 -0.13575805265E+01  0.74725535888E-01  0.93329129530E+01  0.51100000000E-03 0. -1.
        -11    1    3    3    0    0 -0.30319994184E+02 -0.12790403263E+02 -0.33376639023E+01  0.33076222027E+02  0.51100000000E-03 0.  1.
         12    1    3    3    0    0 -0.21122153392E+01 -0.28444320702E+01  0.11766122592E+01  0.37331841435E+01  0.00000000000E+00 0. -1.
</event>
<event>
 7    1  0.2097247E-008  0.4614232E+02  0.7816164E-02  0.1320468E+00
        -11   -1    0    0    0    0  0.00000000000E+00  0.00000000000E+00  0.45593999997E+02  0.45594000000E+02  0.51100000000E-03 0.  1.
         11   -1    0    0    0    0 -0.00000000000E+00 -0.00000000000E+00 -0.45593999997E+02  0.45594000000E+02  0.51100000000E-03 0. -1.
    9900012    2    1    2    0    0 -0.26171723640E+02 -0.21710826824E+02  0.29543093749E+02  0.46142317544E+02  0.99999980222E+01 0.  0.
         12    1    1    2    0    0  0.26171723640E+02  0.21710826824E+02 -0.29543093749E+02  0.45045682456E+02  0.00000000000E+00 0. -1.
         11    1    3    3    0    0 -0.97121461991E+01 -0.62691105962E+01  0.12814403790E+02  0.17257939512E+02  0.51100000000E-03 0. -1.
        -11    1    3    3    0    0 -0.14843734414E+02 -0.15846089343E+02  0.16339667555E+02  0.27173879644E+02  0.51100000000E-03 0.  1.
         12    1    3    3    0    0 -0.16158430272E+01  0.40437311563E+00  0.38902240362E+00  0.17104983881E+01  0.00000000000E+00 0. -1.
</event>
<event>
 7    1  0.2097247E-008  0.4614231E+02  0.7816164E-02  0.1320468E+00
        -11   -1    0    0    0    0  0.00000000000E+00  0.00000000000E+00  0.45593999997E+02  0.45594000000E+02  0.51100000000E-03 0.  1.
         11   -1    0    0    0    0 -0.00000000000E+00 -0.00000000000E+00 -0.45593999997E+02  0.45594000000E+02  0.51100000000E-03 0. -1.
    9900012    2    1    2    0    0  0.34691658562E+02 -0.15427233923E+02  0.24240528715E+02  0.46142312607E+02  0.99999530032E+01 0.  0.
         12    1    1    2    0    0 -0.34691658562E+02  0.15427233923E+02 -0.24240528715E+02  0.45045687393E+02  0.00000000000E+00 0. -1.
         11    1    3    3    0    0  0.10020839086E+02 -0.50931282202E+01  0.78201002981E+01  0.13693470706E+02  0.51100000000E-03 0.  1.
        -11    1    3    3    0    0  0.10593843818E+02 -0.23426313749E+00  0.51628596736E+01  0.11787261189E+02  0.51100000000E-03 0. -1.
         12    1    3    3    0    0  0.14076975658E+02 -0.10099842565E+02  0.11257568744E+02  0.20661580712E+02  0.00000000000E+00 0. -1.
</event>
<event>
 7    1  0.2097247E-008  0.4614232E+02  0.7816164E-02  0.1320468E+00
        -11   -1    0    0    0    0  0.00000000000E+00  0.00000000000E+00  0.45593999997E+02  0.45594000000E+02  0.51100000000E-03 0.  1.
         11   -1    0    0    0    0 -0.00000000000E+00 -0.00000000000E+00 -0.45593999997E+02  0.45594000000E+02  0.51100000000E-03 0. -1.
    9900012    2    1    2    0    0  0.24632711809E+02  0.17007330628E+02  0.33661456279E+02  0.46142318464E+02  0.10000006414E+02 0.  0.
         12    1    1    2    0    0 -0.24632711809E+02 -0.17007330628E+02 -0.33661456279E+02  0.45045681536E+02  0.00000000000E+00 0. -1.
         11    1    3    3    0    0 -0.49948241377E+00  0.24561218122E+01  0.29898414858E+01  0.39014317128E+01  0.51100000000E-03 0. -1.
        -11    1    3    3    0    0  0.76778424186E+01  0.46687933956E+01  0.95357854418E+01  0.13102598988E+02  0.51100000000E-03 0.  1.
         12    1    3    3    0    0  0.17454351804E+02  0.98824154198E+01  0.21135829352E+02  0.29138287764E+02  0.00000000000E+00 0. -1.
</event>
<event>
 7    1  0.2097247E-008  0.4614232E+02  0.7816164E-02  0.1320468E+00
        -11   -1    0    0    0    0  0.00000000000E+00  0.00000000000E+00  0.45593999997E+02  0.45594000000E+02  0.51100000000E-03 0.  1.
         11   -1    0    0    0    0 -0.00000000000E+00 -0.00000000000E+00 -0.45593999997E+02  0.45594000000E+02  0.51100000000E-03 0. -1.
    9900012    2    1    2    0    0 -0.15580147704E+02  0.13204555030E+02  0.40149870831E+02  0.46142318701E+02  0.10000008569E+02 0.  0.
         12    1    1    2    0    0  0.15580147704E+02 -0.13204555030E+02 -0.40149870831E+02  0.45045681299E+02  0.00000000000E+00 0. -1.
         11    1    3    3    0    0 -0.76938495200E+01  0.11001260715E+02  0.23385792783E+02  0.26965132340E+02  0.51100000000E-03 0. -1.
        -11    1    3    3    0    0 -0.78804872253E+01  0.19432132861E+01  0.16992209985E+02  0.18831180452E+02  0.51100000000E-03 0.  1.
        -12    1    3    3    0    0 -0.58109583104E-02  0.26008102848E+00 -0.22813193693E+00  0.34600590928E+00  0.00000000000E+00 0.  1.
</event>
<event>
 7    1  0.2097247E-008  0.4614232E+02  0.7816164E-02  0.1320468E+00
        -11   -1    0    0    0    0  0.00000000000E+00  0.00000000000E+00  0.45593999997E+02  0.45594000000E+02  0.51100000000E-03 0.  1.
         11   -1    0    0    0    0 -0.00000000000E+00 -0.00000000000E+00 -0.45593999997E+02  0.45594000000E+02  0.51100000000E-03 0. -1.
    9900012    2    1    2    0    0 -0.19162066082E+02 -0.20215254498E+02  0.35401584007E+02  0.46142318285E+02  0.10000004774E+02 0.  0.
         12    1    1    2    0    0  0.19162066082E+02  0.20215254498E+02 -0.35401584007E+02  0.45045681715E+02  0.00000000000E+00 0. -1.
         11    1    3    3    0    0 -0.10697375855E+02 -0.10761632727E+02  0.13036463674E+02  0.20004898763E+02  0.51100000000E-03 0. -1.
        -11    1    3    3    0    0 -0.60085515838E+01 -0.86373361236E+01  0.14932686732E+02  0.18267222031E+02  0.51100000000E-03 0.  1.
        -12    1    3    3    0    0 -0.24561386431E+01 -0.81628564748E+00  0.74324336013E+01  0.78701974899E+01  0.00000000000E+00 0.  1.
</event>
<event>
 7    1  0.2097247E-008  0.4614232E+02  0.7816164E-02  0.1320468E+00
        -11   -1    0    0    0    0  0.00000000000E+00  0.00000000000E+00  0.45593999997E+02  0.45594000000E+02  0.51100000000E-03 0.  1.
         11   -1    0    0    0    0 -0.00000000000E+00 -0.00000000000E+00 -0.45593999997E+02  0.45594000000E+02  0.51100000000E-03 0. -1.
    9900012    2    1    2    0    0 -0.30382281254E+02 -0.22200557315E+02  0.24762183986E+02  0.46142317466E+02  0.99999973045E+01 0.  0.
         12    1    1    2    0    0  0.30382281254E+02  0.22200557315E+02 -0.24762183986E+02  0.45045682534E+02  0.00000000000E+00 0. -1.
         11    1    3    3    0    0 -0.74581494124E+00 -0.13933174377E+01  0.21830429752E+01  0.26950417996E+01  0.51100000000E-03 0. -1.
        -11    1    3    3    0    0 -0.60500073777E+01 -0.65943225811E+01  0.91885861466E+01  0.12826449049E+02  0.51100000000E-03 0.  1.
        -12    1    3    3    0    0 -0.23586458935E+02 -0.14212917296E+02  0.13390554864E+02  0.30620826617E+02  0.00000000000E+00 0.  1.
</event>
<event>
 7    1  0.2097247E-008  0.4614232E+02  0.7816164E-02  0.1320468E+00
        -11   -1    0    0    0    0  0.00000000000E+00  0.00000000000E+00  0.45593999997E+02  0.45594000000E+02  0.51100000000E-03 0.  1.
         11   -1    0    0    0    0 -0.00000000000E+00 -0.00000000000E+00 -0.45593999997E+02  0.45594000000E+02  0.51100000000E-03 0. -1.
    9900012    2    1    2    0    0  0.52930961705E+01  0.25760742933E+02  0.36571583169E+02  0.46142318309E+02  0.10000004994E+02 0.  0.
         12    1    1    2    0    0 -0.52930961705E+01 -0.25760742933E+02 -0.36571583169E+02  0.45045681691E+02  0.00000000000E+00 0. -1.
         11    1    3    3    0    0 -0.23789954435E+01  0.50364964439E+01  0.64830368994E+01  0.85472617515E+01  0.51100000000E-03 0. -1.
        -11    1    3    3    0    0  0.71802410547E+01  0.16152464625E+02  0.26014168740E+02  0.31451469768E+02  0.51100000000E-03 0.  1.
        -12    1    3    3    0    0  0.49185055926E+00  0.45717818638E+01  0.40743775303E+01  0.61435867897E+01  0.00000000000E+00 0.  1.
</event>
<event>
 7    1  0.2498450E-008  0.4614232E+02  0.7816164E-02  0.1320468E+00
        -11   -1    0    0    0    0  0.00000000000E+00  0.00000000000E+00  0.45593999997E+02  0.45594000000E+02  0.51100000000E-03 0. -1.
         11   -1    0    0    0    0 -0.00000000000E+00 -0.00000000000E+00 -0.45593999997E+02  0.45594000000E+02  0.51100000000E-03 0.  1.
    9900012    2    1    2    0    0 -0.68660234087E+01  0.16657783387E+02 -0.41285462813E+02  0.46142318026E+02  0.10000002416E+02 0.  0.
         12    1    1    2    0    0  0.68660234087E+01 -0.16657783387E+02  0.41285462813E+02  0.45045681974E+02  0.00000000000E+00 0. -1.
         11    1    3    3    0    0 -0.79801777048E+00 -0.78968728420E+00 -0.17550969911E+01  0.20834596416E+01  0.51100000000E-03 0. -1.
        -11    1    3    3    0    0  0.76997776375E-01  0.14620834445E+01 -0.70673576585E+00  0.16257590105E+01  0.51100000000E-03 0.  1.
        -12    1    3    3    0    0 -0.61450034146E+01  0.15985387227E+02 -0.38823630056E+02  0.42433099374E+02  0.00000000000E+00 0.  1.
</event>
<event>
 7    1  0.2097247E-008  0.4614232E+02  0.7816164E-02  0.1320468E+00
        -11   -1    0    0    0    0  0.00000000000E+00  0.00000000000E+00  0.45593999997E+02  0.45594000000E+02  0.51100000000E-03 0.  1.
         11   -1    0    0    0    0 -0.00000000000E+00 -0.00000000000E+00 -0.45593999997E+02  0.45594000000E+02  0.51100000000E-03 0. -1.
    9900012    2    1    2    0    0  0.41216148763E+02 -0.17707597539E+02  0.40967516599E+01  0.46142319812E+02  0.10000018702E+02 0.  0.
         12    1    1    2    0    0 -0.41216148763E+02  0.17707597539E+02 -0.40967516599E+01  0.45045680188E+02  0.00000000000E+00 0. -1.
         11    1    3    3    0    0  0.61627480941E+01 -0.33660098565E+01  0.23860279810E+01  0.74163748700E+01  0.51100000000E-03 0. -1.
        -11    1    3    3    0    0  0.26110492846E+02 -0.83482600956E+01  0.40473912393E+01  0.27709793565E+02  0.51100000000E-03 0.  1.
        -12    1    3    3    0    0  0.89429078227E+01 -0.59933275864E+01 -0.23366675603E+01  0.11016151377E+02  0.00000000000E+00 0.  1.
</event>
<event>
 7    1  0.2097247E-008  0.4614232E+02  0.7816164E-02  0.1320468E+00
        -11   -1    0    0    0    0  0.00000000000E+00  0.00000000000E+00  0.45593999997E+02  0.45594000000E+02  0.51100000000E-03 0. -1.
         11   -1    0    0    0    0 -0.00000000000E+00 -0.00000000000E+00 -0.45593999997E+02  0.45594000000E+02  0.51100000000E-03 0.  1.
    9900012    2    1    2    0    0 -0.34985456804E+02  0.27700379692E+02 -0.61498203271E+01  0.46142317489E+02  0.99999975163E+01 0.  0.
         12    1    1    2    0    0  0.34985456804E+02 -0.27700379692E+02  0.61498203271E+01  0.45045682511E+02  0.00000000000E+00 0. -1.
         11    1    3    3    0    0 -0.26348113697E+00 -0.50675818499E+00  0.27314923047E+00  0.63311683820E+00  0.51100000000E-03 0. -1.
        -11    1    3    3    0    0 -0.25896637010E+02  0.18200353795E+02 -0.55744639117E+01  0.32139746963E+02  0.51100000000E-03 0.  1.
        -12    1    3    3    0    0 -0.88253386573E+01  0.10006784082E+02 -0.84850564580E+00  0.13369453688E+02  0.00000000000E+00 0.  1.
</event>
<event>
 7    1  0.2134611E-008  0.4614232E+02  0.7816164E-02  0.1320468E+00
        -11   -1    0    0    0    0  0.00000000000E+00  0.00000000000E+00  0.45593999997E+02  0.45594000000E+02  0.51100000000E-03 0. -1.
         11   -1    0    0    0    0 -0.00000000000E+00 -0.00000000000E+00 -0.45593999997E+02  0.45594000000E+02  0.51100000000E-03 0.  1.
    9900012    2    1    2    0    0  0.10327011606E+02 -0.23214482109E+02 -0.37196155711E+02  0.46142319320E+02  0.10000014211E+02 0.  0.
         12    1    1    2    0    0 -0.10327011606E+02  0.23214482109E+02  0.37196155711E+02  0.45045680680E+02  0.00000000000E+00 0. -1.
         11    1    3    3    0    0 -0.90181100872E+00 -0.55231554004E+01 -0.76471644346E+01  0.94761612916E+01  0.51100000000E-03 0. -1.
        -11    1    3    3    0    0  0.14567731005E+01 -0.68256829373E+01 -0.78371169833E+01  0.10494405095E+02  0.51100000000E-03 0.  1.
         12    1    3    3    0    0  0.97720495140E+01 -0.10865643771E+02 -0.21711874293E+02  0.26171752933E+02  0.00000000000E+00 0. -1.
</event>
<event>
 7    1  0.2097247E-008  0.4614232E+02  0.7816164E-02  0.1320468E+00
        -11   -1    0    0    0    0  0.00000000000E+00  0.00000000000E+00  0.45593999997E+02  0.45594000000E+02  0.51100000000E-03 0.  1.
         11   -1    0    0    0    0 -0.00000000000E+00 -0.00000000000E+00 -0.45593999997E+02  0.45594000000E+02  0.51100000000E-03 0. -1.
    9900012    2    1    2    0    0  0.38998506215E+02  0.21423618926E+02  0.70184573689E+01  0.46142315648E+02  0.99999807309E+01 0.  0.
         12    1    1    2    0    0 -0.38998506215E+02 -0.21423618926E+02 -0.70184573689E+01  0.45045684352E+02  0.00000000000E+00 0. -1.
         11    1    3    3    0    0  0.45823070423E+01  0.32752855551E+01  0.46789797224E+00  0.56518989791E+01  0.51100000000E-03 0.  1.
        -11    1    3    3    0    0  0.16937981557E+02  0.66425707612E+01 -0.10581662860E+01  0.18224672334E+02  0.51100000000E-03 0. -1.
         12    1    3    3    0    0  0.17478217616E+02  0.11505762610E+02  0.76087256826E+01  0.22265744335E+02  0.00000000000E+00 0. -1.
</event>
<event>
 7    1  0.2097247E-008  0.4614232E+02  0.7816164E-02  0.1320468E+00
        -11   -1    0    0    0    0  0.00000000000E+00  0.00000000000E+00  0.45593999997E+02  0.45594000000E+02  0.51100000000E-03 0.  1.
         11   -1    0    0    0    0 -0.00000000000E+00 -0.00000000000E+00 -0.45593999997E+02  0.45594000000E+02  0.51100000000E-03 0. -1.
    9900012    2    1    2    0    0  0.30648664753E+02  0.24074437680E+02  0.22587483549E+02  0.46142316368E+02  0.99999872953E+01 0.  0.
         12    1    1    2    0    0 -0.30648664753E+02 -0.24074437680E+02 -0.22587483549E+02  0.45045683632E+02  0.00000000000E+00 0. -1.
         11    1    3    3    0    0  0.55432645477E+01  0.22660658523E+01  0.41305602533E+01  0.72749133713E+01  0.51100000000E-03 0. -1.
        -11    1    3    3    0    0  0.25686739048E+02  0.20932451891E+02  0.17658395631E+02  0.37547237469E+02  0.51100000000E-03 0.  1.
         12    1    3    3    0    0 -0.58133884239E+00  0.87591993736E+00  0.79852766558E+00  0.13201655271E+01  0.00000000000E+00 0. -1.
</event>
<event>
 7    1  0.2097247E-008  0.4614232E+02  0.7816164E-02  0.1320468E+00
        -11   -1    0    0    0    0  0.00000000000E+00  0.00000000000E+00  0.45593999997E+02  0.45594000000E+02  0.51100000000E-03 0.  1.
         11   -1    0    0    0    0 -0.00000000000E+00 -0.00000000000E+00 -0.45593999997E+02  0.45594000000E+02  0.51100000000E-03 0. -1.
    9900012    2    1    2    0    0  0.12801080135E+02  0.57045586200E+01  0.42810089671E+02  0.46142318528E+02  0.10000006991E+02 0.  0.
         12    1    1    2    0    0 -0.12801080135E+02 -0.57045586200E+01 -0.42810089671E+02  0.45045681472E+02  0.00000000000E+00 0. -1.
         11    1    3    3    0    0  0.13698217097E+01 -0.12296529715E+01  0.59519211351E+01  0.62300741092E+01  0.51100000000E-03 0. -1.
        -11    1    3    3    0    0  0.87635519092E+01  0.10182196492E+01  0.21262483256E+02  0.23020204339E+02  0.51100000000E-03 0.  1.
         12    1    3    3    0    0  0.26677065160E+01  0.59159919424E+01  0.15595685279E+02  0.16892040080E+02  0.00000000000E+00 0. -1.
</event>
<event>
 7    1  0.2097247E-008  0.4614232E+02  0.7816164E-02  0.1320468E+00
        -11   -1    0    0    0    0  0.00000000000E+00  0.00000000000E+00  0.45593999997E+02  0.45594000000E+02  0.51100000000E-03 0. -1.
         11   -1    0    0    0    0 -0.00000000000E+00 -0.00000000000E+00 -0.45593999997E+02  0.45594000000E+02  0.51100000000E-03 0.  1.
    9900012    2    1    2    0    0 -0.80570386148E+01  0.41379691835E+02  0.15871948437E+02  0.46142317468E+02  0.99999973272E+01 0.  0.
         12    1    1    2    0    0  0.80570386148E+01 -0.41379691835E+02 -0.15871948437E+02  0.45045682532E+02  0.00000000000E+00 0. -1.
         11    1    3    3    0    0  0.14550140335E+00 -0.41443079977E-01  0.10950439101E+00  0.18676097030E+00  0.51100000000E-03 0. -1.
        -11    1    3    3    0    0 -0.11401383164E+01  0.24831928454E+02  0.11698593000E+02  0.27473290021E+02  0.51100000000E-03 0.  1.
         12    1    3    3    0    0 -0.70624017018E+01  0.16589206461E+02  0.40638510458E+01  0.18482266477E+02  0.00000000000E+00 0. -1.
</event>
<event>
 7    1  0.2097247E-008  0.4614232E+02  0.7816164E-02  0.1320468E+00
        -11   -1    0    0    0    0  0.00000000000E+00  0.00000000000E+00  0.45593999997E+02  0.45594000000E+02  0.51100000000E-03 0.  1.
         11   -1    0    0    0    0 -0.00000000000E+00 -0.00000000000E+00 -0.45593999997E+02  0.45594000000E+02  0.51100000000E-03 0. -1.
    9900012    2    1    2    0    0  0.39579008784E+02  0.14256296274E+02  0.16105076936E+02  0.46142318488E+02  0.10000006632E+02 0.  0.
         12    1    1    2    0    0 -0.39579008784E+02 -0.14256296274E+02 -0.16105076936E+02  0.45045681512E+02  0.00000000000E+00 0. -1.
         11    1    3    3    0    0  0.45028756849E+01  0.94768823886E-01 -0.85953475340E+00  0.45851576654E+01  0.51100000000E-03 0. -1.
        -11    1    3    3    0    0  0.94054515364E+01  0.51691701008E+01  0.45175583393E+01  0.11644362230E+02  0.51100000000E-03 0.  1.
        -12    1    3    3    0    0  0.25670681562E+02  0.89923573495E+01  0.12447053350E+02  0.29912798593E+02  0.00000000000E+00 0.  1.
</event>
<event>
 7    1  0.2097247E-008  0.4614232E+02  0.7816164E-02  0.1320468E+00
        -11   -1    0    0    0    0  0.00000000000E+00  0.00000000000E+00  0.45593999997E+02  0.45594000000E+02  0.51100000000E-03 0.  1.
         11   -1    0    0    0    0 -0.00000000000E+00 -0.00000000000E+00 -0.45593999997E+02  0.45594000000E+02  0.51100000000E-03 0. -1.
    9900012    2    1    2    0    0  0.19532583377E+02  0.30057815879E+02  0.27278551394E+02  0.46142317910E+02  0.10000001357E+02 0.  0.
         12    1    1    2    0    0 -0.19532583377E+02 -0.30057815879E+02 -0.27278551394E+02  0.45045682090E+02  0.00000000000E+00 0. -1.
         11    1    3    3    0    0  0.70093039920E+01  0.19036854971E+02  0.16455778158E+02  0.26121348064E+02  0.51100000000E-03 0. -1.
        -11    1    3    3    0    0  0.13512032150E+01  0.47793863790E+00  0.13788753473E+01  0.19888370859E+01  0.51100000000E-03 0.  1.
        -12    1    3    3    0    0  0.11172076170E+02  0.10543022270E+02  0.94438978885E+01  0.18032132760E+02  0.00000000000E+00 0.  1.
</event>
<event>
 7    1  0.2097247E-008  0.4614232E+02  0.7816164E-02  0.1320468E+00
        -11   -1    0    0    0    0  0.00000000000E+00  0.00000000000E+00  0.45593999997E+02  0.45594000000E+02  0.51100000000E-03 0.  1.
         11   -1    0    0    0    0 -0.00000000000E+00 -0.00000000000E+00 -0.45593999997E+02  0.45594000000E+02  0.51100000000E-03 0. -1.
    9900012    2    1    2    0    0 -0.22340174910E+02  0.19035413393E+02  0.34171377826E+02  0.46142318291E+02  0.10000004832E+02 0.  0.
         12    1    1    2    0    0  0.22340174910E+02 -0.19035413393E+02 -0.34171377826E+02  0.45045681709E+02  0.00000000000E+00 0. -1.
         11    1    3    3    0    0 -0.20431735974E+01  0.68915601101E-01  0.34820284738E+00  0.20737775178E+01  0.51100000000E-03 0. -1.
        -11    1    3    3    0    0 -0.54527191306E+01  0.29842226146E+01  0.99410388276E+01  0.11724418270E+02  0.51100000000E-03 0.  1.
         12    1    3    3    0    0 -0.14844282182E+02  0.15982275178E+02  0.23882136151E+02  0.32344122503E+02  0.00000000000E+00 0. -1.
</event>
<event>
 7    1  0.2097247E-008  0.4614232E+02  0.7816164E-02  0.1320468E+00
        -11   -1    0    0    0    0  0.00000000000E+00  0.00000000000E+00  0.45593999997E+02  0.45594000000E+02  0.51100000000E-03 0.  1.
         11   -1    0    0    0    0 -0.00000000000E+00 -0.00000000000E+00 -0.45593999997E+02  0.45594000000E+02  0.51100000000E-03 0. -1.
    9900012    2    1    2    0    0 -0.34221085072E+02 -0.10284910328E+02  0.27427204308E+02  0.46142316743E+02  0.99999907132E+01 0.  0.
         12    1    1    2    0    0  0.34221085072E+02  0.10284910328E+02 -0.27427204308E+02  0.45045683257E+02  0.00000000000E+00 0. -1.
         11    1    3    3    0    0 -0.36735800140E+01  0.95074750306E+00  0.41641462148E+01  0.56337576176E+01  0.51100000000E-03 0. -1.
        -11    1    3    3    0    0 -0.10603054015E+02 -0.71445732439E+01  0.96185178223E+01  0.15999548951E+02  0.51100000000E-03 0.  1.
        -12    1    3    3    0    0 -0.19944451042E+02 -0.40910845875E+01  0.13644540271E+02  0.24509010174E+02  0.00000000000E+00 0.  1.
</event>
<event>
 7    1  0.2097247E-008  0.4614232E+02  0.7816164E-02  0.1320468E+00
        -11   -1    0    0    0    0  0.00000000000E+00  0.00000000000E+00  0.45593999997E+02  0.45594000000E+02  0.51100000000E-03 0. -1.
         11   -1    0    0    0    0 -0.00000000000E+00 -0.00000000000E+00 -0.45593999997E+02  0.45594000000E+02  0.51100000000E-03 0.  1.
    9900012    2    1    2    0    0 -0.38234448884E+02  0.15098723718E+02 -0.18419254399E+02  0.46142317943E+02  0.10000001655E+02 0.  0.
         12    1    1    2    0    0  0.38234448884E+02 -0.15098723718E+02  0.18419254399E+02  0.45045682057E+02  0.00000000000E+00 0. -1.
         11    1    3    3    0    0 -0.32067266197E+02  0.13749362371E+02 -0.13770045779E+02  0.37509581282E+02  0.51100000000E-03 0. -1.
        -11    1    3    3    0    0 -0.42341341957E+01 -0.56193608247E+00 -0.16342884028E+01  0.45732442962E+01  0.51100000000E-03 0.  1.
         12    1    3    3    0    0 -0.19330484913E+01  0.19112974297E+01 -0.30149202177E+01  0.40594923640E+01  0.00000000000E+00 0. -1.
</event>
<event>
 7    1  0.2097247E-008  0.4614232E+02  0.7816164E-02  0.1320468E+00
        -11   -1    0    0    0    0  0.00000000000E+00  0.00000000000E+00  0.45593999997E+02  0.45594000000E+02  0.51100000000E-03 0. -1.
         11   -1    0    0    0    0 -0.00000000000E+00 -0.00000000000E+00 -0.45593999997E+02  0.45594000000E+02  0.51100000000E-03 0.  1.
    9900012    2    1    2    0    0 -0.32828714968E+02  0.55066764080E+01 -0.30349058188E+02  0.46142319359E+02  0.10000014568E+02 0.  0.
         12    1    1    2    0    0  0.32828714968E+02 -0.55066764080E+01  0.30349058188E+02  0.45045680641E+02  0.00000000000E+00 0. -1.
         11    1    3    3    0    0 -0.72701393063E+01  0.10981173915E+01 -0.11368123418E+02  0.13538649033E+02  0.51100000000E-03 0. -1.
        -11    1    3    3    0    0 -0.35593083955E+01  0.22587841562E+01 -0.16966320696E+01  0.45441547904E+01  0.51100000000E-03 0.  1.
        -12    1    3    3    0    0 -0.21999267266E+02  0.21497748603E+01 -0.17284302700E+02  0.28059515535E+02  0.00000000000E+00 0.  1.
</event>
<event>
 7    1  0.2097247E-008  0.4614232E+02  0.7816164E-02  0.1320468E+00
        -11   -1    0    0    0    0  0.00000000000E+00  0.00000000000E+00  0.45593999997E+02  0.45594000000E+02  0.51100000000E-03 0.  1.
         11   -1    0    0    0    0 -0.00000000000E+00 -0.00000000000E+00 -0.45593999997E+02  0.45594000000E+02  0.51100000000E-03 0. -1.
    9900012    2    1    2    0    0  0.15974278142E+02 -0.35365749416E+02  0.22873558936E+02  0.46142317717E+02  0.99999995980E+01 0.  0.
         12    1    1    2    0    0 -0.15974278142E+02  0.35365749416E+02 -0.22873558936E+02  0.45045682283E+02  0.00000000000E+00 0. -1.
         11    1    3    3    0    0 -0.20011561636E-01 -0.26592562389E+01  0.12135717390E+01  0.29231491296E+01  0.51100000000E-03 0. -1.
        -11    1    3    3    0    0  0.39718560026E+01 -0.17532943422E+02  0.11687691649E+02  0.21442525073E+02  0.51100000000E-03 0.  1.
         12    1    3    3    0    0  0.12022433701E+02 -0.15173549755E+02  0.99722955478E+01  0.21776643514E+02  0.00000000000E+00 0. -1.
</event>
<event>
 7    1  0.2097247E-008  0.4614232E+02  0.7816164E-02  0.1320468E+00
        -11   -1    0    0    0    0  0.00000000000E+00  0.00000000000E+00  0.45593999997E+02  0.45594000000E+02  0.51100000000E-03 0.  1.
         11   -1    0    0    0    0 -0.00000000000E+00 -0.00000000000E+00 -0.45593999997E+02  0.45594000000E+02  0.51100000000E-03 0. -1.
    9900012    2    1    2    0    0  0.17388805398E+02 -0.32687756494E+02  0.25656450630E+02  0.46142318335E+02  0.10000005232E+02 0.  0.
         12    1    1    2    0    0 -0.17388805398E+02  0.32687756494E+02 -0.25656450630E+02  0.45045681665E+02  0.00000000000E+00 0. -1.
         11    1    3    3    0    0  0.94378924913E+00  0.17756480813E+00 -0.28887698346E+00  0.10028547156E+01  0.51100000000E-03 0. -1.
        -11    1    3    3    0    0  0.15093398854E+02 -0.27162542729E+02  0.21622659072E+02  0.37857017871E+02  0.51100000000E-03 0.  1.
        -12    1    3    3    0    0  0.13516172948E+01 -0.57027785732E+01  0.43226685414E+01  0.72824457488E+01  0.00000000000E+00 0.  1.
</event>
<event>
 7    1  0.3997879E-008  0.4614231E+02  0.7816164E-02  0.1320468E+00
        -11   -1    0    0    0    0  0.00000000000E+00  0.00000000000E+00  0.45593999997E+02  0.45594000000E+02  0.51100000000E-03 0. -1.
         11   -1    0    0    0    0 -0.00000000000E+00 -0.00000000000E+00 -0.45593999997E+02  0.45594000000E+02  0.51100000000E-03 0.  1.
    9900012    2    1    2    0    0 -0.21401073362E+02 -0.71732811903E+01 -0.38982714540E+02  0.46142312782E+02  0.99999545958E+01 0.  0.
         12    1    1    2    0    0  0.21401073362E+02  0.71732811903E+01  0.38982714540E+02  0.45045687218E+02  0.00000000000E+00 0. -1.
         11    1    3    3    0    0 -0.89208766717E-01  0.32086074726E+00  0.26146520054E+00  0.42340776493E+00  0.51100000000E-03 0. -1.
        -11    1    3    3    0    0 -0.10648237067E+01 -0.29212668605E+00 -0.62271603212E+01  0.63242954908E+01  0.51100000000E-03 0.  1.
        -12    1    3    3    0    0 -0.20247040888E+02 -0.72020152515E+01 -0.33017019419E+02  0.39394609526E+02  0.00000000000E+00 0.  1.
</event>
<event>
 7    1  0.2097247E-008  0.4614232E+02  0.7816164E-02  0.1320468E+00
        -11   -1    0    0    0    0  0.00000000000E+00  0.00000000000E+00  0.45593999997E+02  0.45594000000E+02  0.51100000000E-03 0.  1.
         11   -1    0    0    0    0 -0.00000000000E+00 -0.00000000000E+00 -0.45593999997E+02  0.45594000000E+02  0.51100000000E-03 0. -1.
    9900012    2    1    2    0    0  0.17954617888E+02  0.40189257614E+02  0.95691560519E+01  0.46142317869E+02  0.10000000987E+02 0.  0.
         12    1    1    2    0    0 -0.17954617888E+02 -0.40189257614E+02 -0.95691560519E+01  0.45045682131E+02  0.00000000000E+00 0. -1.
         11    1    3    3    0    0  0.83970963284E+01  0.12314769206E+02  0.60496153302E+00  0.14917464465E+02  0.51100000000E-03 0. -1.
        -11    1    3    3    0    0  0.78303194575E+01  0.24329045446E+02  0.58991455408E+01  0.26230064306E+02  0.51100000000E-03 0.  1.
        -12    1    3    3    0    0  0.17272021023E+01  0.35454429612E+01  0.30650489781E+01  0.49947890978E+01  0.00000000000E+00 0.  1.
</event>
<event>
 7    1  0.2097247E-008  0.4614232E+02  0.7816164E-02  0.1320468E+00
        -11   -1    0    0    0    0  0.00000000000E+00  0.00000000000E+00  0.45593999997E+02  0.45594000000E+02  0.51100000000E-03 0.  1.
         11   -1    0    0    0    0 -0.00000000000E+00 -0.00000000000E+00 -0.45593999997E+02  0.45594000000E+02  0.51100000000E-03 0. -1.
    9900012    2    1    2    0    0  0.15491390597E+02 -0.29743941382E+02  0.30073714000E+02  0.46142317573E+02  0.99999982805E+01 0.  0.
         12    1    1    2    0    0 -0.15491390597E+02  0.29743941382E+02 -0.30073714000E+02  0.45045682427E+02  0.00000000000E+00 0. -1.
         11    1    3    3    0    0  0.30558397026E+01 -0.33973791939E+01  0.87621969689E+00  0.46527521848E+01  0.51100000000E-03 0. -1.
        -11    1    3    3    0    0  0.16221375079E+01 -0.13702112351E+01  0.11810522773E+01  0.24297517705E+01  0.51100000000E-03 0.  1.
        -12    1    3    3    0    0  0.10813413387E+02 -0.24976350953E+02  0.28016442026E+02  0.39059813617E+02  0.00000000000E+00 0.  1.
</event>
<event>
 7    1  0.2097247E-008  0.4614232E+02  0.7816164E-02  0.1320468E+00
        -11   -1    0    0    0    0  0.00000000000E+00  0.00000000000E+00  0.45593999997E+02  0.45594000000E+02  0.51100000000E-03 0. -1.
         11   -1    0    0    0    0 -0.00000000000E+00 -0.00000000000E+00 -0.45593999997E+02  0.45594000000E+02  0.51100000000E-03 0.  1.
    9900012    2    1    2    0    0 -0.13645616997E+02 -0.41901079293E+02  0.93386377672E+01  0.46142318026E+02  0.10000002418E+02 0.  0.
         12    1    1    2    0    0  0.13645616997E+02  0.41901079293E+02 -0.93386377672E+01  0.45045681974E+02  0.00000000000E+00 0. -1.
         11    1    3    3    0    0 -0.92551010843E+00 -0.55532791690E+00 -0.79100956015E-01  0.10822269995E+01  0.51100000000E-03 0. -1.
        -11    1    3    3    0    0 -0.65786665605E+01 -0.23190319833E+02  0.99763459099E+00  0.24126024594E+02  0.51100000000E-03 0.  1.
        -12    1    3    3    0    0 -0.61414403279E+01 -0.18155431543E+02  0.84201041322E+01  0.20934066433E+02  0.00000000000E+00 0.  1.
</event>
<event>
 7    1  0.2097247E-008  0.4614232E+02  0.7816164E-02  0.1320468E+00
        -11   -1    0    0    0    0  0.00000000000E+00  0.00000000000E+00  0.45593999997E+02  0.45594000000E+02  0.51100000000E-03 0.  1.
         11   -1    0    0    0    0 -0.00000000000E+00 -0.00000000000E+00 -0.45593999997E+02  0.45594000000E+02  0.51100000000E-03 0. -1.
    9900012    2    1    2    0    0 -0.29439968958E+02  0.23279533599E+02  0.24909134677E+02  0.46142318218E+02  0.10000004167E+02 0.  0.
         12    1    1    2    0    0  0.29439968958E+02 -0.23279533599E+02 -0.24909134677E+02  0.45045681782E+02  0.00000000000E+00 0. -1.
         11    1    3    3    0    0  0.26186084361E+00  0.10572924033E+01  0.12237625071E+01  0.16383019448E+01  0.51100000000E-03 0. -1.
        -11    1    3    3    0    0 -0.13703184351E+02  0.10054392902E+02  0.70009415016E+01  0.18381546729E+02  0.51100000000E-03 0.  1.
        -12    1    3    3    0    0 -0.15998645451E+02  0.12167848294E+02  0.16684430668E+02  0.26122469544E+02  0.00000000000E+00 0.  1.
</event>
<event>
 7    1  0.2097247E-008  0.4614232E+02  0.7816164E-02  0.1320468E+00
        -11   -1    0    0    0    0  0.00000000000E+00  0.00000000000E+00  0.45593999997E+02  0.45594000000E+02  0.51100000000E-03 0. -1.
         11   -1    0    0    0    0 -0.00000000000E+00 -0.00000000000E+00 -0.45593999997E+02  0.45594000000E+02  0.51100000000E-03 0.  1.
    9900012    2    1    2    0    0  0.40837580986E+02 -0.18661428074E+02  0.36272145019E+01  0.46142316482E+02  0.99999883375E+01 0.  0.
         12    1    1    2    0    0 -0.40837580986E+02  0.18661428074E+02 -0.36272145019E+01  0.45045683518E+02  0.00000000000E+00 0. -1.
         11    1    3    3    0    0  0.27657791143E+01 -0.49540050994E+00 -0.10481581676E+01  0.29989317398E+01  0.51100000000E-03 0. -1.
        -11    1    3    3    0    0  0.22262586793E+01 -0.72597636490E-01 -0.12518553098E+01  0.25551203693E+01  0.51100000000E-03 0.  1.
         12    1    3    3    0    0  0.35845543192E+02 -0.18093429927E+02  0.59272279793E+01  0.40588264373E+02  0.00000000000E+00 0. -1.
</event>
<event>
 7    1  0.2097247E-008  0.4614232E+02  0.7816164E-02  0.1320468E+00
        -11   -1    0    0    0    0  0.00000000000E+00  0.00000000000E+00  0.45593999997E+02  0.45594000000E+02  0.51100000000E-03 0.  1.
         11   -1    0    0    0    0 -0.00000000000E+00 -0.00000000000E+00 -0.45593999997E+02  0.45594000000E+02  0.51100000000E-03 0. -1.
    9900012    2    1    2    0    0  0.15445890713E+02 -0.17887851978E+02  0.38347913788E+02  0.46142320071E+02  0.10000021068E+02 0.  0.
         12    1    1    2    0    0 -0.15445890713E+02  0.17887851978E+02 -0.38347913788E+02  0.45045679929E+02  0.00000000000E+00 0. -1.
         11    1    3    3    0    0  0.20323420221E+01 -0.15449892429E+01  0.13734736775E+01  0.28989370568E+01  0.51100000000E-03 0. -1.
        -11    1    3    3    0    0  0.72634953302E+01 -0.32896753114E+01  0.12256748789E+02  0.14622182437E+02  0.51100000000E-03 0.  1.
         12    1    3    3    0    0  0.61500533606E+01 -0.13053187424E+02  0.24717691321E+02  0.28621200578E+02  0.00000000000E+00 0. -1.
</event>
<event>
 7    1  0.2097247E-008  0.4614232E+02  0.7816164E-02  0.1320468E+00
        -11   -1    0    0    0    0  0.00000000000E+00  0.00000000000E+00  0.45593999997E+02  0.45594000000E+02  0.51100000000E-03 0.  1.
         11   -1    0    0    0    0 -0.00000000000E+00 -0.00000000000E+00 -0.45593999997E+02  0.45594000000E+02  0.51100000000E-03 0. -1.
    9900012    2    1    2    0    0 -0.14943381136E+02 -0.42467275714E+02 -0.15294891252E+01  0.46142317817E+02  0.10000000512E+02 0.  0.
         12    1    1    2    0    0  0.14943381136E+02  0.42467275714E+02  0.15294891252E+01  0.45045682183E+02  0.00000000000E+00 0. -1.
         11    1    3    3    0    0 -0.32079290514E+01 -0.23191776245E+02 -0.24757792011E+01  0.23543125899E+02  0.51100000000E-03 0.  1.
        -11    1    3    3    0    0 -0.30071557344E+01 -0.44836126267E+01  0.44148819725E+00  0.54167037842E+01  0.51100000000E-03 0. -1.
        -12    1    3    3    0    0 -0.87282963503E+01 -0.14791886843E+02  0.50480187871E+00  0.17182488134E+02  0.00000000000E+00 0.  1.
</event>
<event>
 7    1  0.2097247E-008  0.4614232E+02  0.7816164E-02  0.1320468E+00
        -11   -1    0    0    0    0  0.00000000000E+00  0.00000000000E+00  0.45593999997E+02  0.45594000000E+02  0.51100000000E-03 0. -1.
         11   -1    0    0    0    0 -0.00000000000E+00 -0.00000000000E+00 -0.45593999997E+02  0.45594000000E+02  0.51100000000E-03 0.  1.
    9900012    2    1    2    0    0  0.21511592281E+02 -0.35870186456E+02 -0.16724072280E+02  0.46142317938E+02  0.10000001612E+02 0.  0.
         12    1    1    2    0    0 -0.21511592281E+02  0.35870186456E+02  0.16724072280E+02  0.45045682062E+02  0.00000000000E+00 0. -1.
         11    1    3    3    0    0  0.15380076584E+02 -0.28561727592E+02 -0.13223071530E+02  0.35030967153E+02  0.51100000000E-03 0. -1.
        -11    1    3    3    0    0  0.21313101689E+01 -0.25529075679E+01  0.96030523234E+00  0.34615035009E+01  0.51100000000E-03 0.  1.
         12    1    3    3    0    0  0.40002055277E+01 -0.47555512964E+01 -0.44613059827E+01  0.76498472839E+01  0.00000000000E+00 0. -1.
</event>
<event>
 7    1  0.2097247E-008  0.4614232E+02  0.7816164E-02  0.1320468E+00
        -11   -1    0    0    0    0  0.00000000000E+00  0.00000000000E+00  0.45593999997E+02  0.45594000000E+02  0.51100000000E-03 0. -1.
         11   -1    0    0    0    0 -0.00000000000E+00 -0.00000000000E+00 -0.45593999997E+02  0.45594000000E+02  0.51100000000E-03 0.  1.
    9900012    2    1    2    0    0  0.49037051678E+01  0.43100156648E+02  0.12142636634E+02  0.46142318166E+02  0.10000003689E+02 0.  0.
         12    1    1    2    0    0 -0.49037051678E+01 -0.43100156648E+02 -0.12142636634E+02  0.45045681834E+02  0.00000000000E+00 0. -1.
         11    1    3    3    0    0  0.65337759347E+00  0.72605254892E+01 -0.72935347914E+00  0.73262602614E+01  0.51100000000E-03 0. -1.
        -11    1    3    3    0    0  0.22865566279E+01  0.14073511910E+02  0.19708354664E+01  0.14393619121E+02  0.51100000000E-03 0.  1.
         12    1    3    3    0    0  0.19637709464E+01  0.21766119249E+02  0.10901154647E+02  0.24422438783E+02  0.00000000000E+00 0. -1.
</event>
<event>
 7    1  0.2097247E-008  0.4614232E+02  0.7816164E-02  0.1320468E+00
        -11   -1    0    0    0    0  0.00000000000E+00  0.00000000000E+00  0.45593999997E+02  0.45594000000E+02  0.51100000000E-03 0. -1.
         11   -1    0    0    0    0 -0.00000000000E+00 -0.00000000000E+00 -0.45593999997E+02  0.45594000000E+02  0.51100000000E-03 0.  1.
    9900012    2    1    2    0    0 -0.43431850752E+02 -0.87704324279E+01 -0.81158757280E+01  0.46142316705E+02  0.99999903663E+01 0.  0.
         12    1    1    2    0    0  0.43431850752E+02  0.87704324279E+01  0.81158757280E+01  0.45045683295E+02  0.00000000000E+00 0. -1.
         11    1    3    3    0    0 -0.25283669212E+02 -0.34014728004E+00 -0.53170175439E+01  0.25838930025E+02  0.51100000000E-03 0. -1.
        -11    1    3    3    0    0 -0.98923713012E+01 -0.37719260325E+01 -0.81325303699E+00  0.10618277484E+02  0.51100000000E-03 0.  1.
         12    1    3    3    0    0 -0.82558102386E+01 -0.46583591153E+01 -0.19856051471E+01  0.96851091962E+01  0.00000000000E+00 0. -1.
</event>
<event>
 7    1  0.2097247E-008  0.4614232E+02  0.7816164E-02  0.1320468E+00
        -11   -1    0    0    0    0  0.00000000000E+00  0.00000000000E+00  0.45593999997E+02  0.45594000000E+02  0.51100000000E-03 0.  1.
         11   -1    0    0    0    0 -0.00000000000E+00 -0.00000000000E+00 -0.45593999997E+02  0.45594000000E+02  0.51100000000E-03 0. -1.
    9900012    2    1    2    0    0 -0.28679517224E+02  0.32134987595E+02  0.13188686334E+02  0.46142316709E+02  0.99999904047E+01 0.  0.
         12    1    1    2    0    0  0.28679517224E+02 -0.32134987595E+02 -0.13188686334E+02  0.45045683291E+02  0.00000000000E+00 0. -1.
         11    1    3    3    0    0 -0.12298392597E+01  0.95056240941E+00  0.25982451083E+01  0.30276973764E+01  0.51100000000E-03 0. -1.
        -11    1    3    3    0    0 -0.12863020414E+02  0.11917911460E+02  0.58741971738E+01  0.18493244724E+02  0.51100000000E-03 0.  1.
        -12    1    3    3    0    0 -0.14586657551E+02  0.19266513725E+02  0.47162440521E+01  0.24621374608E+02  0.00000000000E+00 0.  1.
</event>
<event>
 7    1  0.2097247E-008  0.4614232E+02  0.7816164E-02  0.1320468E+00
        -11   -1    0    0    0    0  0.00000000000E+00  0.00000000000E+00  0.45593999997E+02  0.45594000000E+02  0.51100000000E-03 0.  1.
         11   -1    0    0    0    0 -0.00000000000E+00 -0.00000000000E+00 -0.45593999997E+02  0.45594000000E+02  0.51100000000E-03 0. -1.
    9900012    2    1    2    0    0  0.73197859248E+01  0.42945045853E+01  0.44239026237E+02  0.46142317876E+02  0.10000001047E+02 0.  0.
         12    1    1    2    0    0 -0.73197859248E+01 -0.42945045853E+01 -0.44239026237E+02  0.45045682124E+02  0.00000000000E+00 0. -1.
         11    1    3    3    0    0  0.11718571008E+01 -0.47044533803E+00  0.27738009561E+01  0.30477105975E+01  0.51100000000E-03 0. -1.
        -11    1    3    3    0    0  0.37927285970E+01  0.25846985900E+01  0.38344025294E+02  0.38617738580E+02  0.51100000000E-03 0.  1.
        -12    1    3    3    0    0  0.23552002270E+01  0.21802513333E+01  0.31211999870E+01  0.44768686986E+01  0.00000000000E+00 0.  1.
</event>
<event>
 7    1  0.2097247E-008  0.4614232E+02  0.7816164E-02  0.1320468E+00
        -11   -1    0    0    0    0  0.00000000000E+00  0.00000000000E+00  0.45593999997E+02  0.45594000000E+02  0.51100000000E-03 0.  1.
         11   -1    0    0    0    0 -0.00000000000E+00 -0.00000000000E+00 -0.45593999997E+02  0.45594000000E+02  0.51100000000E-03 0. -1.
    9900012    2    1    2    0    0 -0.11471143241E+02 -0.44190158028E+01  0.43335882748E+02  0.46142316950E+02  0.99999926012E+01 0.  0.
         12    1    1    2    0    0  0.11471143241E+02  0.44190158028E+01 -0.43335882748E+02  0.45045683050E+02  0.00000000000E+00 0. -1.
         11    1    3    3    0    0 -0.86955633276E+00 -0.57554845618E+00 -0.13037990283E+00  0.10508964846E+01  0.51100000000E-03 0. -1.
        -11    1    3    3    0    0 -0.31133660378E+01 -0.30021616865E+01  0.12718198203E+02  0.13433487584E+02  0.51100000000E-03 0.  1.
         12    1    3    3    0    0 -0.74882208703E+01 -0.84130566021E+00  0.30748064448E+02  0.31657932882E+02  0.00000000000E+00 0. -1.
</event>
<event>
 7    1  0.2097247E-008  0.4614232E+02  0.7816164E-02  0.1320468E+00
        -11   -1    0    0    0    0  0.00000000000E+00  0.00000000000E+00  0.45593999997E+02  0.45594000000E+02  0.51100000000E-03 0.  1.
         11   -1    0    0    0    0 -0.00000000000E+00 -0.00000000000E+00 -0.45593999997E+02  0.45594000000E+02  0.51100000000E-03 0. -1.
    9900012    2    1    2    0    0  0.25008056935E+02 -0.22677464992E+02  0.29823533243E+02  0.46142318018E+02  0.10000002341E+02 0.  0.
         12    1    1    2    0    0 -0.25008056935E+02  0.22677464992E+02 -0.29823533243E+02  0.45045681982E+02  0.00000000000E+00 0. -1.
         11    1    3    3    0    0  0.97775418890E+01 -0.10699901858E+02  0.10671633224E+02  0.17999221680E+02  0.51100000000E-03 0. -1.
        -11    1    3    3    0    0  0.83225914440E+01 -0.94703146236E+01  0.85121869972E+01  0.15212156821E+02  0.51100000000E-03 0.  1.
        -12    1    3    3    0    0  0.69079236017E+01 -0.25072485100E+01  0.10639713023E+02  0.12930939517E+02  0.00000000000E+00 0.  1.
</event>
<event>
 7    1  0.2097247E-008  0.4614232E+02  0.7816164E-02  0.1320468E+00
        -11   -1    0    0    0    0  0.00000000000E+00  0.00000000000E+00  0.45593999997E+02  0.45594000000E+02  0.51100000000E-03 0. -1.
         11   -1    0    0    0    0 -0.00000000000E+00 -0.00000000000E+00 -0.45593999997E+02  0.45594000000E+02  0.51100000000E-03 0.  1.
    9900012    2    1    2    0    0  0.38475564117E+02  0.74773615813E+01 -0.22199853302E+02  0.46142318110E+02  0.10000003182E+02 0.  0.
         12    1    1    2    0    0 -0.38475564117E+02 -0.74773615813E+01  0.22199853302E+02  0.45045681890E+02  0.00000000000E+00 0. -1.
         11    1    3    3    0    0  0.67155650533E+01 -0.78425447784E-01 -0.52290789948E+01  0.85116527144E+01  0.51100000000E-03 0.  1.
        -11    1    3    3    0    0  0.22594963818E+02  0.54832667369E+01 -0.15913040468E+02  0.28174872870E+02  0.51100000000E-03 0. -1.
         12    1    3    3    0    0  0.91650352457E+01  0.20725202922E+01 -0.10577338386E+01  0.94557925257E+01  0.00000000000E+00 0. -1.
</event>
<event>
 7    1  0.2097247E-008  0.4614232E+02  0.7816164E-02  0.1320468E+00
        -11   -1    0    0    0    0  0.00000000000E+00  0.00000000000E+00  0.45593999997E+02  0.45594000000E+02  0.51100000000E-03 0.  1.
         11   -1    0    0    0    0 -0.00000000000E+00 -0.00000000000E+00 -0.45593999997E+02  0.45594000000E+02  0.51100000000E-03 0. -1.
    9900012    2    1    2    0    0  0.23975363626E+02  0.32353043559E+02 -0.20188510642E+02  0.46142318182E+02  0.10000003839E+02 0.  0.
         12    1    1    2    0    0 -0.23975363626E+02 -0.32353043559E+02  0.20188510642E+02  0.45045681818E+02  0.00000000000E+00 0. -1.
         11    1    3    3    0    0  0.50088109764E+01  0.43247232143E+01 -0.60103655605E+01  0.89395700517E+01  0.51100000000E-03 0. -1.
        -11    1    3    3    0    0  0.10579389511E+02  0.20452540129E+02 -0.84154531932E+01  0.24516315646E+02  0.51100000000E-03 0.  1.
        -12    1    3    3    0    0  0.83871631378E+01  0.75757802159E+01 -0.57626918884E+01  0.12686432484E+02  0.00000000000E+00 0.  1.
</event>
<event>
 7    1  0.2200543E-008  0.4614232E+02  0.7816164E-02  0.1320468E+00
        -11   -1    0    0    0    0  0.00000000000E+00  0.00000000000E+00  0.45593999997E+02  0.45594000000E+02  0.51100000000E-03 0.  1.
         11   -1    0    0    0    0 -0.00000000000E+00 -0.00000000000E+00 -0.45593999997E+02  0.45594000000E+02  0.51100000000E-03 0. -1.
    9900012    2    1    2    0    0  0.39203971830E+02  0.83740727118E+00  0.22168912753E+02  0.46142319287E+02  0.10000013918E+02 0.  0.
         12    1    1    2    0    0 -0.39203971830E+02 -0.83740727118E+00 -0.22168912753E+02  0.45045680713E+02  0.00000000000E+00 0. -1.
         11    1    3    3    0    0  0.13949754994E+02 -0.68735515830E+00  0.85794126602E+01  0.16391291693E+02  0.51100000000E-03 0. -1.
        -11    1    3    3    0    0  0.24889488013E+02  0.41310219796E+00  0.11645842094E+02  0.27482410835E+02  0.51100000000E-03 0.  1.
         12    1    3    3    0    0  0.36472882339E+00  0.11116602315E+01  0.19436579988E+01  0.22686167595E+01  0.00000000000E+00 0. -1.
</event>
<event>
 7    1  0.2097247E-008  0.4614232E+02  0.7816164E-02  0.1320468E+00
        -11   -1    0    0    0    0  0.00000000000E+00  0.00000000000E+00  0.45593999997E+02  0.45594000000E+02  0.51100000000E-03 0. -1.
         11   -1    0    0    0    0 -0.00000000000E+00 -0.00000000000E+00 -0.45593999997E+02  0.45594000000E+02  0.51100000000E-03 0.  1.
    9900012    2    1    2    0    0  0.33930407690E+02  0.26169008857E+02 -0.13893304921E+02  0.46142317496E+02  0.99999975863E+01 0.  0.
         12    1    1    2    0    0 -0.33930407690E+02 -0.26169008857E+02  0.13893304921E+02  0.45045682504E+02  0.00000000000E+00 0. -1.
         11    1    3    3    0    0  0.87278287931E+01  0.88105856111E+01 -0.26739351249E+01  0.12686660063E+02  0.51100000000E-03 0. -1.
        -11    1    3    3    0    0  0.52348320332E+01  0.65565796250E+01 -0.65435673598E+00  0.84154848817E+01  0.51100000000E-03 0.  1.
         12    1    3    3    0    0  0.19967746864E+02  0.10801843621E+02 -0.10565013060E+02  0.25040172551E+02  0.00000000000E+00 0. -1.
</event>
<event>
 7    1  0.2097247E-008  0.4614232E+02  0.7816164E-02  0.1320468E+00
        -11   -1    0    0    0    0  0.00000000000E+00  0.00000000000E+00  0.45593999997E+02  0.45594000000E+02  0.51100000000E-03 0.  1.
         11   -1    0    0    0    0 -0.00000000000E+00 -0.00000000000E+00 -0.45593999997E+02  0.45594000000E+02  0.51100000000E-03 0. -1.
    9900012    2    1    2    0    0  0.11834181846E+02  0.30667850681E+02  0.30798515029E+02  0.46142318150E+02  0.10000003548E+02 0.  0.
         12    1    1    2    0    0 -0.11834181846E+02 -0.30667850681E+02 -0.30798515029E+02  0.45045681850E+02  0.00000000000E+00 0. -1.
         11    1    3    3    0    0  0.45283067405E+01  0.84427843568E+01  0.57785664617E+01  0.11188297469E+02  0.51100000000E-03 0.  1.
        -11    1    3    3    0    0  0.11453816977E+01  0.11151257334E+02  0.81720438445E+01  0.13872445358E+02  0.51100000000E-03 0. -1.
         12    1    3    3    0    0  0.61604934081E+01  0.11073808990E+02  0.16847904722E+02  0.21081575323E+02  0.00000000000E+00 0. -1.
</event>
<event>
 7    1  0.2097247E-008  0.4614232E+02  0.7816164E-02  0.1320468E+00
        -11   -1    0    0    0    0  0.00000000000E+00  0.00000000000E+00  0.45593999997E+02  0.45594000000E+02  0.51100000000E-03 0. -1.
         11   -1    0    0    0    0 -0.00000000000E+00 -0.00000000000E+00 -0.45593999997E+02  0.45594000000E+02  0.51100000000E-03 0.  1.
    9900012    2    1    2    0    0  0.37460322712E+02 -0.56443927430E-01 -0.25016683886E+02  0.46142318340E+02  0.10000005275E+02 0.  0.
         12    1    1    2    0    0 -0.37460322712E+02  0.56443927430E-01  0.25016683886E+02  0.45045681660E+02  0.00000000000E+00 0. -1.
         11    1    3    3    0    0  0.97521636551E+01  0.15436190112E+01 -0.24907263562E+01  0.10182886312E+02  0.51100000000E-03 0. -1.
        -11    1    3    3    0    0  0.87479916668E+01  0.13027997563E+01 -0.73957107581E+01  0.11529144950E+02  0.51100000000E-03 0.  1.
         12    1    3    3    0    0  0.18960167390E+02 -0.29028626950E+01 -0.15130246772E+02  0.24430287077E+02  0.00000000000E+00 0. -1.
</event>
<event>
 7    1  0.2097247E-008  0.4614232E+02  0.7816164E-02  0.1320468E+00
        -11   -1    0    0    0    0  0.00000000000E+00  0.00000000000E+00  0.45593999997E+02  0.45594000000E+02  0.51100000000E-03 0.  1.
         11   -1    0    0    0    0 -0.00000000000E+00 -0.00000000000E+00 -0.45593999997E+02  0.45594000000E+02  0.51100000000E-03 0. -1.
    9900012    2    1    2    0    0 -0.33871461782E+02 -0.73417761450E+01  0.28773875037E+02  0.46142317800E+02  0.10000000359E+02 0.  0.
         12    1    1    2    0    0  0.33871461782E+02  0.73417761450E+01 -0.28773875037E+02  0.45045682200E+02  0.00000000000E+00 0. -1.
         11    1    3    3    0    0 -0.16983146959E+02  0.53287538599E+00  0.11689466472E+02  0.20624133036E+02  0.51100000000E-03 0. -1.
        -11    1    3    3    0    0 -0.16029647320E+02 -0.65760731592E+01  0.15003716809E+02  0.22919551692E+02  0.51100000000E-03 0.  1.
        -12    1    3    3    0    0 -0.85866750281E+00 -0.12985783717E+01  0.20806917552E+01  0.25986330730E+01  0.00000000000E+00 0.  1.
</event>
<event>
 7    1  0.2097247E-008  0.4614232E+02  0.7816164E-02  0.1320468E+00
        -11   -1    0    0    0    0  0.00000000000E+00  0.00000000000E+00  0.45593999997E+02  0.45594000000E+02  0.51100000000E-03 0.  1.
         11   -1    0    0    0    0 -0.00000000000E+00 -0.00000000000E+00 -0.45593999997E+02  0.45594000000E+02  0.51100000000E-03 0. -1.
    9900012    2    1    2    0    0 -0.37059962833E+02 -0.25569103170E+02  0.13760825131E+01  0.46142317796E+02  0.10000000318E+02 0.  0.
         12    1    1    2    0    0  0.37059962833E+02  0.25569103170E+02 -0.13760825131E+01  0.45045682204E+02  0.00000000000E+00 0. -1.
         11    1    3    3    0    0 -0.49397404135E+01 -0.34674149289E+01  0.35364443194E+01  0.69950296873E+01  0.51100000000E-03 0. -1.
        -11    1    3    3    0    0 -0.14085359029E+02 -0.95093192393E+01 -0.23076496495E+01  0.17150794108E+02  0.51100000000E-03 0.  1.
         12    1    3    3    0    0 -0.18034863391E+02 -0.12592369002E+02  0.14728784316E+00  0.21996494000E+02  0.00000000000E+00 0. -1.
</event>
<event>
 7    1  0.2097247E-008  0.4614232E+02  0.7816164E-02  0.1320468E+00
        -11   -1    0    0    0    0  0.00000000000E+00  0.00000000000E+00  0.45593999997E+02  0.45594000000E+02  0.51100000000E-03 0. -1.
         11   -1    0    0    0    0 -0.00000000000E+00 -0.00000000000E+00 -0.45593999997E+02  0.45594000000E+02  0.51100000000E-03 0.  1.
    9900012    2    1    2    0    0 -0.33837209267E+02 -0.28210506859E+02 -0.93980893488E+01  0.46142317503E+02  0.99999976428E+01 0.  0.
         12    1    1    2    0    0  0.33837209267E+02  0.28210506859E+02  0.93980893488E+01  0.45045682497E+02  0.00000000000E+00 0. -1.
         11    1    3    3    0    0 -0.65427867889E+01 -0.91568601437E+01 -0.43831712021E+01  0.12077596479E+02  0.51100000000E-03 0. -1.
        -11    1    3    3    0    0 -0.19731454647E+02 -0.15884549112E+02 -0.23367377261E+01  0.25438347950E+02  0.51100000000E-03 0.  1.
        -12    1    3    3    0    0 -0.75629678312E+01 -0.31690976033E+01 -0.26781804206E+01  0.86263730733E+01  0.00000000000E+00 0.  1.
</event>
<event>
 7    1  0.2097247E-008  0.4614232E+02  0.7816164E-02  0.1320468E+00
        -11   -1    0    0    0    0  0.00000000000E+00  0.00000000000E+00  0.45593999997E+02  0.45594000000E+02  0.51100000000E-03 0. -1.
         11   -1    0    0    0    0 -0.00000000000E+00 -0.00000000000E+00 -0.45593999997E+02  0.45594000000E+02  0.51100000000E-03 0.  1.
    9900012    2    1    2    0    0  0.38332746247E+02  0.13052295577E+02  0.19731994906E+02  0.46142317880E+02  0.10000001088E+02 0.  0.
         12    1    1    2    0    0 -0.38332746247E+02 -0.13052295577E+02 -0.19731994906E+02  0.45045682120E+02  0.00000000000E+00 0. -1.
         11    1    3    3    0    0  0.16185198642E+02  0.26334495489E+01  0.87560653472E+01  0.18589362341E+02  0.51100000000E-03 0. -1.
        -11    1    3    3    0    0  0.12746895797E+02  0.58138580115E+01  0.28400725213E+01  0.14295114887E+02  0.51100000000E-03 0.  1.
        -12    1    3    3    0    0  0.94006518073E+01  0.46049880167E+01  0.81358570370E+01  0.13257840652E+02  0.00000000000E+00 0.  1.
</event>
<event>
 7    1  0.2097247E-008  0.4614232E+02  0.7816164E-02  0.1320468E+00
        -11   -1    0    0    0    0  0.00000000000E+00  0.00000000000E+00  0.45593999997E+02  0.45594000000E+02  0.51100000000E-03 0.  1.
         11   -1    0    0    0    0 -0.00000000000E+00 -0.00000000000E+00 -0.45593999997E+02  0.45594000000E+02  0.51100000000E-03 0. -1.
    9900012    2    1    2    0    0 -0.17620139757E+02 -0.41166418205E+02 -0.48959384414E+01  0.46142317342E+02  0.99999961820E+01 0.  0.
         12    1    1    2    0    0  0.17620139757E+02  0.41166418205E+02  0.48959384414E+01  0.45045682658E+02  0.00000000000E+00 0. -1.
         11    1    3    3    0    0 -0.15379101070E+01 -0.25388060129E+01 -0.14380220166E+01  0.32982739501E+01  0.51100000000E-03 0. -1.
        -11    1    3    3    0    0 -0.44103671026E+01 -0.33287052511E+01 -0.40666955231E+00  0.55404870737E+01  0.51100000000E-03 0.  1.
        -12    1    3    3    0    0 -0.11671862547E+02 -0.35298906941E+02 -0.30512468725E+01  0.37303556319E+02  0.00000000000E+00 0.  1.
</event>
<event>
 7    1  0.2097247E-008  0.4614232E+02  0.7816164E-02  0.1320468E+00
        -11   -1    0    0    0    0  0.00000000000E+00  0.00000000000E+00  0.45593999997E+02  0.45594000000E+02  0.51100000000E-03 0. -1.
         11   -1    0    0    0    0 -0.00000000000E+00 -0.00000000000E+00 -0.45593999997E+02  0.45594000000E+02  0.51100000000E-03 0.  1.
    9900012    2    1    2    0    0  0.24117394528E+02 -0.37148742733E+02  0.82119255881E+01  0.46142317329E+02  0.99999960572E+01 0.  0.
         12    1    1    2    0    0 -0.24117394528E+02  0.37148742733E+02 -0.82119255881E+01  0.45045682671E+02  0.00000000000E+00 0. -1.
         11    1    3    3    0    0  0.20260769197E+01 -0.13130616844E+01  0.13874693255E+01  0.27846346371E+01  0.51100000000E-03 0. -1.
        -11    1    3    3    0    0  0.80557817118E+01 -0.16078993557E+02 -0.65178299111E+00  0.17995957160E+02  0.51100000000E-03 0.  1.
        -12    1    3    3    0    0  0.14035535896E+02 -0.19756687492E+02  0.74762392537E+01  0.25361725531E+02  0.00000000000E+00 0.  1.
</event>
<event>
 7    1  0.2097247E-008  0.4614232E+02  0.7816164E-02  0.1320468E+00
        -11   -1    0    0    0    0  0.00000000000E+00  0.00000000000E+00  0.45593999997E+02  0.45594000000E+02  0.51100000000E-03 0.  1.
         11   -1    0    0    0    0 -0.00000000000E+00 -0.00000000000E+00 -0.45593999997E+02  0.45594000000E+02  0.51100000000E-03 0. -1.
    9900012    2    1    2    0    0 -0.32766046719E+02 -0.18423085863E+02  0.24821152682E+02  0.46142317291E+02  0.99999957107E+01 0.  0.
         12    1    1    2    0    0  0.32766046719E+02  0.18423085863E+02 -0.24821152682E+02  0.45045682709E+02  0.00000000000E+00 0. -1.
         11    1    3    3    0    0 -0.17045034929E+01 -0.37293903436E+00  0.17792317473E+01  0.24920035217E+01  0.51100000000E-03 0. -1.
        -11    1    3    3    0    0 -0.17574477719E+02 -0.53246916946E+01  0.93968985521E+01  0.20628046718E+02  0.51100000000E-03 0.  1.
        -12    1    3    3    0    0 -0.13487065507E+02 -0.12725455134E+02  0.13645022383E+02  0.23022267051E+02  0.00000000000E+00 0.  1.
</event>
<event>
 7    1  0.2097247E-008  0.4614232E+02  0.7816164E-02  0.1320468E+00
        -11   -1    0    0    0    0  0.00000000000E+00  0.00000000000E+00  0.45593999997E+02  0.45594000000E+02  0.51100000000E-03 0. -1.
         11   -1    0    0    0    0 -0.00000000000E+00 -0.00000000000E+00 -0.45593999997E+02  0.45594000000E+02  0.51100000000E-03 0.  1.
    9900012    2    1    2    0    0 -0.19563715036E+02 -0.43351663812E+01 -0.40343288923E+02  0.46142316803E+02  0.99999912641E+01 0.  0.
         12    1    1    2    0    0  0.19563715036E+02  0.43351663812E+01  0.40343288923E+02  0.45045683197E+02  0.00000000000E+00 0. -1.
         11    1    3    3    0    0 -0.73627997573E+01 -0.50386966979E+00 -0.78522362451E+01  0.10776006645E+02  0.51100000000E-03 0. -1.
        -11    1    3    3    0    0 -0.56119520608E+01  0.60356541435E+00 -0.95979485300E+01  0.11134581869E+02  0.51100000000E-03 0.  1.
         12    1    3    3    0    0 -0.65889632179E+01 -0.44348621258E+01 -0.22893104148E+02  0.24231728289E+02  0.00000000000E+00 0. -1.
</event>
<event>
 7    1  0.2097247E-008  0.4614232E+02  0.7816164E-02  0.1320468E+00
        -11   -1    0    0    0    0  0.00000000000E+00  0.00000000000E+00  0.45593999997E+02  0.45594000000E+02  0.51100000000E-03 0. -1.
         11   -1    0    0    0    0 -0.00000000000E+00 -0.00000000000E+00 -0.45593999997E+02  0.45594000000E+02  0.51100000000E-03 0.  1.
    9900012    2    1    2    0    0  0.14357025456E+02 -0.29041950284E+02 -0.31297833883E+02  0.46142318053E+02  0.10000002665E+02 0.  0.
         12    1    1    2    0    0 -0.14357025456E+02  0.29041950284E+02  0.31297833883E+02  0.45045681947E+02  0.00000000000E+00 0. -1.
         11    1    3    3    0    0  0.80358755912E+01 -0.13111303667E+02 -0.11240739669E+02  0.19048249498E+02  0.51100000000E-03 0. -1.
        -11    1    3    3    0    0 -0.20628636045E+00 -0.75366439754E+01 -0.74159726506E+01  0.10575453044E+02  0.51100000000E-03 0.  1.
         12    1    3    3    0    0  0.65274362254E+01 -0.83940026421E+01 -0.12641121564E+02  0.16518615512E+02  0.00000000000E+00 0. -1.
</event>
<event>
 7    1  0.2097247E-008  0.4614232E+02  0.7816164E-02  0.1320468E+00
        -11   -1    0    0    0    0  0.00000000000E+00  0.00000000000E+00  0.45593999997E+02  0.45594000000E+02  0.51100000000E-03 0.  1.
         11   -1    0    0    0    0 -0.00000000000E+00 -0.00000000000E+00 -0.45593999997E+02  0.45594000000E+02  0.51100000000E-03 0. -1.
    9900012    2    1    2    0    0 -0.13018214712E+02  0.11217960167E+02  0.41638887394E+02  0.46142317765E+02  0.10000000038E+02 0.  0.
         12    1    1    2    0    0  0.13018214712E+02 -0.11217960167E+02 -0.41638887394E+02  0.45045682235E+02  0.00000000000E+00 0. -1.
         11    1    3    3    0    0 -0.38043229696E+01  0.91268611076E+01  0.21754418131E+02  0.23896174911E+02  0.51100000000E-03 0. -1.
        -11    1    3    3    0    0 -0.28298642076E+00  0.91620106525E+00  0.16607955882E+01  0.19177455392E+01  0.51100000000E-03 0.  1.
         12    1    3    3    0    0 -0.89309053218E+01  0.11748979938E+01  0.18223673675E+02  0.20328397315E+02  0.00000000000E+00 0. -1.
</event>
<event>
 7    1  0.2097247E-008  0.4614232E+02  0.7816164E-02  0.1320468E+00
        -11   -1    0    0    0    0  0.00000000000E+00  0.00000000000E+00  0.45593999997E+02  0.45594000000E+02  0.51100000000E-03 0.  1.
         11   -1    0    0    0    0 -0.00000000000E+00 -0.00000000000E+00 -0.45593999997E+02  0.45594000000E+02  0.51100000000E-03 0. -1.
    9900012    2    1    2    0    0 -0.24475602995E+02  0.13455529600E+02  0.35341294836E+02  0.46142317194E+02  0.99999948303E+01 0.  0.
         12    1    1    2    0    0  0.24475602995E+02 -0.13455529600E+02 -0.35341294836E+02  0.45045682806E+02  0.00000000000E+00 0. -1.
         11    1    3    3    0    0 -0.27505507230E+01  0.11488005657E+01  0.94226127836E+01  0.98828590980E+01  0.51100000000E-03 0. -1.
        -11    1    3    3    0    0 -0.70233477004E+00  0.11960487850E+01  0.26463202028E+01  0.29877780544E+01  0.51100000000E-03 0.  1.
         12    1    3    3    0    0 -0.21022717502E+02  0.11110680249E+02  0.23272361849E+02  0.33271680042E+02  0.00000000000E+00 0. -1.
</event>
<event>
 7    1  0.2097247E-008  0.4614232E+02  0.7816164E-02  0.1320468E+00
        -11   -1    0    0    0    0  0.00000000000E+00  0.00000000000E+00  0.45593999997E+02  0.45594000000E+02  0.51100000000E-03 0.  1.
         11   -1    0    0    0    0 -0.00000000000E+00 -0.00000000000E+00 -0.45593999997E+02  0.45594000000E+02  0.51100000000E-03 0. -1.
    9900012    2    1    2    0    0 -0.37608405496E+02  0.16446038558E+02  0.18553949907E+02  0.46142318683E+02  0.10000008407E+02 0.  0.
         12    1    1    2    0    0  0.37608405496E+02 -0.16446038558E+02 -0.18553949907E+02  0.45045681317E+02  0.00000000000E+00 0. -1.
         11    1    3    3    0    0 -0.29351877405E+02  0.12442821618E+02  0.18171862788E+02  0.36695682504E+02  0.51100000000E-03 0. -1.
        -11    1    3    3    0    0 -0.47756850822E+01  0.12011334784E+01  0.66511703718E+00  0.49691317725E+01  0.51100000000E-03 0.  1.
         12    1    3    3    0    0 -0.34808430086E+01  0.28020834616E+01 -0.28302991811E+00  0.44775044066E+01  0.00000000000E+00 0. -1.
</event>
<event>
 7    1  0.2229006E-008  0.4614232E+02  0.7816164E-02  0.1320468E+00
        -11   -1    0    0    0    0  0.00000000000E+00  0.00000000000E+00  0.45593999997E+02  0.45594000000E+02  0.51100000000E-03 0. -1.
         11   -1    0    0    0    0 -0.00000000000E+00 -0.00000000000E+00 -0.45593999997E+02  0.45594000000E+02  0.51100000000E-03 0.  1.
    9900012    2    1    2    0    0 -0.33468654185E+02 -0.26605175942E+02 -0.14181936232E+02  0.46142317464E+02  0.99999972889E+01 0.  0.
         12    1    1    2    0    0  0.33468654185E+02  0.26605175942E+02  0.14181936232E+02  0.45045682536E+02  0.00000000000E+00 0. -1.
         11    1    3    3    0    0  0.37305079572E+00 -0.81737450082E+00  0.18758858392E+00  0.91785494972E+00  0.51100000000E-03 0. -1.
        -11    1    3    3    0    0 -0.16134153550E+02 -0.11502424518E+02 -0.39676141086E+01  0.20207885652E+02  0.51100000000E-03 0.  1.
        -12    1    3    3    0    0 -0.17707551431E+02 -0.14285376924E+02 -0.10401910707E+02  0.25016576862E+02  0.00000000000E+00 0.  1.
</event>
<event>
 7    1  0.2097247E-008  0.4614232E+02  0.7816164E-02  0.1320468E+00
        -11   -1    0    0    0    0  0.00000000000E+00  0.00000000000E+00  0.45593999997E+02  0.45594000000E+02  0.51100000000E-03 0.  1.
         11   -1    0    0    0    0 -0.00000000000E+00 -0.00000000000E+00 -0.45593999997E+02  0.45594000000E+02  0.51100000000E-03 0. -1.
    9900012    2    1    2    0    0 -0.28369973682E+02 -0.34554192529E+02  0.55014440126E+01  0.46142317474E+02  0.99999973786E+01 0.  0.
         12    1    1    2    0    0  0.28369973682E+02  0.34554192529E+02 -0.55014440126E+01  0.45045682526E+02  0.00000000000E+00 0. -1.
         11    1    3    3    0    0 -0.13696210433E+02 -0.16170699131E+02  0.20633581973E+01  0.21291668275E+02  0.51100000000E-03 0. -1.
        -11    1    3    3    0    0 -0.12314121140E+02 -0.17046748750E+02  0.76562866822E+00  0.21043179654E+02  0.51100000000E-03 0.  1.
         12    1    3    3    0    0 -0.23596421094E+01 -0.13367446471E+01  0.26724571470E+01  0.38074695454E+01  0.00000000000E+00 0. -1.
</event>
<event>
 7    1  0.2097247E-008  0.4614232E+02  0.7816164E-02  0.1320468E+00
        -11   -1    0    0    0    0  0.00000000000E+00  0.00000000000E+00  0.45593999997E+02  0.45594000000E+02  0.51100000000E-03 0.  1.
         11   -1    0    0    0    0 -0.00000000000E+00 -0.00000000000E+00 -0.45593999997E+02  0.45594000000E+02  0.51100000000E-03 0. -1.
    9900012    2    1    2    0    0 -0.25377900838E+02 -0.14312607833E+02  0.34354402156E+02  0.46142317173E+02  0.99999946344E+01 0.  0.
         12    1    1    2    0    0  0.25377900838E+02  0.14312607833E+02 -0.34354402156E+02  0.45045682827E+02  0.00000000000E+00 0. -1.
         11    1    3    3    0    0 -0.31540281580E+01 -0.40622630468E+01  0.11359971502E+02  0.12469916900E+02  0.51100000000E-03 0. -1.
        -11    1    3    3    0    0 -0.12502689446E+02 -0.59134443157E+01  0.14647364407E+02  0.20145256300E+02  0.51100000000E-03 0.  1.
         12    1    3    3    0    0 -0.97211832341E+01 -0.43369004703E+01  0.83470662463E+01  0.13527143973E+02  0.00000000000E+00 0. -1.
</event>
<event>
 7    1  0.2097247E-008  0.4614232E+02  0.7816164E-02  0.1320468E+00
        -11   -1    0    0    0    0  0.00000000000E+00  0.00000000000E+00  0.45593999997E+02  0.45594000000E+02  0.51100000000E-03 0.  1.
         11   -1    0    0    0    0 -0.00000000000E+00 -0.00000000000E+00 -0.45593999997E+02  0.45594000000E+02  0.51100000000E-03 0. -1.
    9900012    2    1    2    0    0 -0.26292570611E+02  0.17148715015E+02  0.32306899707E+02  0.46142318024E+02  0.10000002399E+02 0.  0.
         12    1    1    2    0    0  0.26292570611E+02 -0.17148715015E+02 -0.32306899707E+02  0.45045681976E+02  0.00000000000E+00 0. -1.
         11    1    3    3    0    0 -0.84508134964E+01  0.40226494841E+01  0.94500854808E+01  0.13300453882E+02  0.51100000000E-03 0. -1.
        -11    1    3    3    0    0 -0.18383319325E+02  0.13515732036E+02  0.22632441576E+02  0.32137965925E+02  0.51100000000E-03 0.  1.
         12    1    3    3    0    0  0.54156221047E+00 -0.38966650507E+00  0.22437265048E+00  0.70389821655E+00  0.00000000000E+00 0. -1.
</event>
<event>
 7    1  0.2097247E-008  0.4614232E+02  0.7816164E-02  0.1320468E+00
        -11   -1    0    0    0    0  0.00000000000E+00  0.00000000000E+00  0.45593999997E+02  0.45594000000E+02  0.51100000000E-03 0.  1.
         11   -1    0    0    0    0 -0.00000000000E+00 -0.00000000000E+00 -0.45593999997E+02  0.45594000000E+02  0.51100000000E-03 0. -1.
    9900012    2    1    2    0    0 -0.42757377984E+02  0.13528263964E+02  0.42315713968E+01  0.46142317694E+02  0.99999993837E+01 0.  0.
         12    1    1    2    0    0  0.42757377984E+02 -0.13528263964E+02 -0.42315713968E+01  0.45045682306E+02  0.00000000000E+00 0. -1.
         11    1    3    3    0    0 -0.23370305424E+01  0.17289333974E+01  0.29895968144E+00  0.29223790994E+01  0.51100000000E-03 0. -1.
        -11    1    3    3    0    0 -0.29688463557E+02  0.10082982934E+02 -0.80420397573E+00  0.31364281556E+02  0.51100000000E-03 0.  1.
        -12    1    3    3    0    0 -0.10731883885E+02  0.17163476324E+01  0.47368156911E+01  0.11855657039E+02  0.00000000000E+00 0.  1.
</event>
<event>
 7    1  0.2097247E-008  0.4614232E+02  0.7816164E-02  0.1320468E+00
        -11   -1    0    0    0    0  0.00000000000E+00  0.00000000000E+00  0.45593999997E+02  0.45594000000E+02  0.51100000000E-03 0. -1.
         11   -1    0    0    0    0 -0.00000000000E+00 -0.00000000000E+00 -0.45593999997E+02  0.45594000000E+02  0.51100000000E-03 0.  1.
    9900012    2    1    2    0    0 -0.28767574629E+02 -0.15422439453E+02 -0.31043334442E+02  0.46142316500E+02  0.99999884976E+01 0.  0.
         12    1    1    2    0    0  0.28767574629E+02  0.15422439453E+02  0.31043334442E+02  0.45045683500E+02  0.00000000000E+00 0. -1.
         11    1    3    3    0    0  0.22228121463E+00  0.33193991424E+00 -0.85531107969E+00  0.94400760019E+00  0.51100000000E-03 0. -1.
        -11    1    3    3    0    0 -0.20913039696E+02 -0.78586812997E+01 -0.19766700636E+02  0.29830128316E+02  0.51100000000E-03 0.  1.
         12    1    3    3    0    0 -0.80768161477E+01 -0.78956980675E+01 -0.10421322727E+02  0.15368180583E+02  0.00000000000E+00 0. -1.
</event>
<event>
 7    1  0.2097247E-008  0.4614232E+02  0.7816164E-02  0.1320468E+00
        -11   -1    0    0    0    0  0.00000000000E+00  0.00000000000E+00  0.45593999997E+02  0.45594000000E+02  0.51100000000E-03 0.  1.
         11   -1    0    0    0    0 -0.00000000000E+00 -0.00000000000E+00 -0.45593999997E+02  0.45594000000E+02  0.51100000000E-03 0. -1.
    9900012    2    1    2    0    0  0.38095248016E+02 -0.20198493078E+02  0.13034045802E+02  0.46142318808E+02  0.10000009548E+02 0.  0.
         12    1    1    2    0    0 -0.38095248016E+02  0.20198493078E+02 -0.13034045802E+02  0.45045681192E+02  0.00000000000E+00 0. -1.
         11    1    3    3    0    0  0.98482271748E+00 -0.16485639324E+01 -0.14685324029E-01  0.19203788022E+01  0.51100000000E-03 0. -1.
        -11    1    3    3    0    0  0.10571792521E+02 -0.48229069721E+01  0.42088912555E-02  0.11619950376E+02  0.51100000000E-03 0.  1.
         12    1    3    3    0    0  0.26538632778E+02 -0.13727022174E+02  0.13044522235E+02  0.32601989630E+02  0.00000000000E+00 0. -1.
</event>
<event>
 7    1  0.2097247E-008  0.4614232E+02  0.7816164E-02  0.1320468E+00
        -11   -1    0    0    0    0  0.00000000000E+00  0.00000000000E+00  0.45593999997E+02  0.45594000000E+02  0.51100000000E-03 0. -1.
         11   -1    0    0    0    0 -0.00000000000E+00 -0.00000000000E+00 -0.45593999997E+02  0.45594000000E+02  0.51100000000E-03 0.  1.
    9900012    2    1    2    0    0 -0.37293061840E+01 -0.15160385312E+02 -0.42253621073E+02  0.46142317618E+02  0.99999986993E+01 0.  0.
         12    1    1    2    0    0  0.37293061840E+01  0.15160385312E+02  0.42253621073E+02  0.45045682382E+02  0.00000000000E+00 0. -1.
         11    1    3    3    0    0  0.11280708621E+01 -0.47559133815E+01 -0.13815458191E+02  0.14654628663E+02  0.51100000000E-03 0. -1.
        -11    1    3    3    0    0 -0.18825935579E+01 -0.45983932154E+01 -0.21063322997E+02  0.21641463782E+02  0.51100000000E-03 0.  1.
        -12    1    3    3    0    0 -0.29747834882E+01 -0.58060787147E+01 -0.73748398853E+01  0.98462251740E+01  0.00000000000E+00 0.  1.
</event>
<event>
 7    1  0.2097247E-008  0.4614232E+02  0.7816164E-02  0.1320468E+00
        -11   -1    0    0    0    0  0.00000000000E+00  0.00000000000E+00  0.45593999997E+02  0.45594000000E+02  0.51100000000E-03 0.  1.
         11   -1    0    0    0    0 -0.00000000000E+00 -0.00000000000E+00 -0.45593999997E+02  0.45594000000E+02  0.51100000000E-03 0. -1.
    9900012    2    1    2    0    0 -0.23663089700E+02 -0.34908170934E+02  0.15830075873E+02  0.46142317474E+02  0.99999973802E+01 0.  0.
         12    1    1    2    0    0  0.23663089700E+02  0.34908170934E+02 -0.15830075873E+02  0.45045682526E+02  0.00000000000E+00 0. -1.
         11    1    3    3    0    0 -0.65536984250E+01 -0.11201698919E+02  0.68430309309E+01  0.14671608443E+02  0.51100000000E-03 0.  1.
        -11    1    3    3    0    0 -0.44906878679E-01 -0.29960370916E+01  0.24000484437E+01  0.38390738044E+01  0.51100000000E-03 0. -1.
         12    1    3    3    0    0 -0.17064484396E+02 -0.20710434923E+02  0.65869964987E+01  0.27631635227E+02  0.00000000000E+00 0. -1.
</event>
<event>
 7    1  0.2097247E-008  0.4614232E+02  0.7816164E-02  0.1320468E+00
        -11   -1    0    0    0    0  0.00000000000E+00  0.00000000000E+00  0.45593999997E+02  0.45594000000E+02  0.51100000000E-03 0.  1.
         11   -1    0    0    0    0 -0.00000000000E+00 -0.00000000000E+00 -0.45593999997E+02  0.45594000000E+02  0.51100000000E-03 0. -1.
    9900012    2    1    2    0    0  0.40925132033E+02  0.18638345142E+02 -0.26190204198E+01  0.46142316416E+02  0.99999877384E+01 0.  0.
         12    1    1    2    0    0 -0.40925132033E+02 -0.18638345142E+02  0.26190204198E+01  0.45045683584E+02  0.00000000000E+00 0. -1.
         11    1    3    3    0    0  0.72708807847E+01  0.25959767534E+01 -0.77683679361E+00  0.77593993552E+01  0.51100000000E-03 0. -1.
        -11    1    3    3    0    0  0.33981675170E+02  0.15931704258E+02 -0.10805336415E+01  0.37546517830E+02  0.51100000000E-03 0.  1.
        -12    1    3    3    0    0 -0.32742392232E+00  0.11066413142E+00 -0.76164998472E+00  0.83639923130E+00  0.00000000000E+00 0.  1.
</event>
<event>
 7    1  0.2097247E-008  0.4614232E+02  0.7816164E-02  0.1320468E+00
        -11   -1    0    0    0    0  0.00000000000E+00  0.00000000000E+00  0.45593999997E+02  0.45594000000E+02  0.51100000000E-03 0. -1.
         11   -1    0    0    0    0 -0.00000000000E+00 -0.00000000000E+00 -0.45593999997E+02  0.45594000000E+02  0.51100000000E-03 0.  1.
    9900012    2    1    2    0    0 -0.26238555096E+02  0.22738427479E+02 -0.28698705208E+02  0.46142317206E+02  0.99999949378E+01 0.  0.
         12    1    1    2    0    0  0.26238555096E+02 -0.22738427479E+02  0.28698705208E+02  0.45045682794E+02  0.00000000000E+00 0. -1.
         11    1    3    3    0    0 -0.22178428689E+01  0.14504045356E+01 -0.58628746107E+01  0.64339567352E+01  0.51100000000E-03 0. -1.
        -11    1    3    3    0    0 -0.87873438041E+01  0.10408630217E+02 -0.11476477478E+02  0.17811977141E+02  0.51100000000E-03 0.  1.
         12    1    3    3    0    0 -0.15233368423E+02  0.10879392726E+02 -0.11359353120E+02  0.21896383329E+02  0.00000000000E+00 0. -1.
</event>
<event>
 7    1  0.2097247E-008  0.4614231E+02  0.7816164E-02  0.1320468E+00
        -11   -1    0    0    0    0  0.00000000000E+00  0.00000000000E+00  0.45593999997E+02  0.45594000000E+02  0.51100000000E-03 0. -1.
         11   -1    0    0    0    0 -0.00000000000E+00 -0.00000000000E+00 -0.45593999997E+02  0.45594000000E+02  0.51100000000E-03 0.  1.
    9900012    2    1    2    0    0  0.14356498460E+02 -0.21672891849E+02 -0.36787103997E+02  0.46142308645E+02  0.99999168730E+01 0.  0.
         12    1    1    2    0    0 -0.14356498460E+02  0.21672891849E+02  0.36787103997E+02  0.45045691355E+02  0.00000000000E+00 0. -1.
         11    1    3    3    0    0  0.60027168164E+01 -0.29888572794E+01 -0.10554119034E+02  0.12504211525E+02  0.51100000000E-03 0. -1.
        -11    1    3    3    0    0  0.58517920597E+01 -0.85188110889E+01 -0.10438720810E+02  0.14689469190E+02  0.51100000000E-03 0.  1.
        -12    1    3    3    0    0  0.25019895838E+01 -0.10165223481E+02 -0.15794264153E+02  0.18948627930E+02  0.00000000000E+00 0.  1.
</event>
<event>
 7    1  0.2097247E-008  0.4614232E+02  0.7816164E-02  0.1320468E+00
        -11   -1    0    0    0    0  0.00000000000E+00  0.00000000000E+00  0.45593999997E+02  0.45594000000E+02  0.51100000000E-03 0. -1.
         11   -1    0    0    0    0 -0.00000000000E+00 -0.00000000000E+00 -0.45593999997E+02  0.45594000000E+02  0.51100000000E-03 0.  1.
    9900012    2    1    2    0    0  0.69916204604E+01  0.28083249832E+02 -0.34519005352E+02  0.46142318649E+02  0.10000008101E+02 0.  0.
         12    1    1    2    0    0 -0.69916204604E+01 -0.28083249832E+02  0.34519005352E+02  0.45045681351E+02  0.00000000000E+00 0. -1.
         11    1    3    3    0    0  0.61238639972E+00  0.13046732688E+02 -0.14914426014E+02  0.19825043620E+02  0.51100000000E-03 0.  1.
        -11    1    3    3    0    0  0.61854385803E+01  0.97511714584E+01 -0.16639781894E+02  0.20254069640E+02  0.51100000000E-03 0. -1.
         12    1    3    3    0    0  0.19379548038E+00  0.52853456861E+01 -0.29647974435E+01  0.60632053891E+01  0.00000000000E+00 0. -1.
</event>
<event>
 7    1  0.2097247E-008  0.4614232E+02  0.7816164E-02  0.1320468E+00
        -11   -1    0    0    0    0  0.00000000000E+00  0.00000000000E+00  0.45593999997E+02  0.45594000000E+02  0.51100000000E-03 0. -1.
         11   -1    0    0    0    0 -0.00000000000E+00 -0.00000000000E+00 -0.45593999997E+02  0.45594000000E+02  0.51100000000E-03 0.  1.
    9900012    2    1    2    0    0 -0.63198378676E+00 -0.44139810302E+02 -0.89661200202E+01  0.46142316908E+02  0.99999922190E+01 0.  0.
         12    1    1    2    0    0  0.63198378676E+00  0.44139810302E+02  0.89661200202E+01  0.45045683092E+02  0.00000000000E+00 0. -1.
         11    1    3    3    0    0  0.46736348877E+00 -0.34611002741E+02 -0.50580277510E+01  0.34981760738E+02  0.51100000000E-03 0. -1.
        -11    1    3    3    0    0 -0.17848998781E+01 -0.95953998286E+01 -0.37359392485E+01  0.10450588872E+02  0.51100000000E-03 0.  1.
         12    1    3    3    0    0  0.68555260258E+00  0.66592267129E-01 -0.17215302073E+00  0.70996729748E+00  0.00000000000E+00 0. -1.
</event>
<event>
 7    1  0.2097247E-008  0.4614232E+02  0.7816164E-02  0.1320468E+00
        -11   -1    0    0    0    0  0.00000000000E+00  0.00000000000E+00  0.45593999997E+02  0.45594000000E+02  0.51100000000E-03 0.  1.
         11   -1    0    0    0    0 -0.00000000000E+00 -0.00000000000E+00 -0.45593999997E+02  0.45594000000E+02  0.51100000000E-03 0. -1.
    9900012    2    1    2    0    0  0.10889031256E+02  0.14384867813E+02  0.41274907518E+02  0.46142318583E+02  0.10000007495E+02 0.  0.
         12    1    1    2    0    0 -0.10889031256E+02 -0.14384867813E+02 -0.41274907518E+02  0.45045681417E+02  0.00000000000E+00 0. -1.
         11    1    3    3    0    0  0.41883400274E+01  0.92988675873E+01  0.13706625954E+02  0.17084575672E+02  0.51100000000E-03 0. -1.
        -11    1    3    3    0    0  0.14788365987E+01  0.50724485653E+00  0.18694663648E+01  0.24370391421E+01  0.51100000000E-03 0.  1.
        -12    1    3    3    0    0  0.52218546300E+01  0.45787553692E+01  0.25698815199E+02  0.26620703769E+02  0.00000000000E+00 0.  1.
</event>
<event>
 7    1  0.2097247E-008  0.4614232E+02  0.7816164E-02  0.1320468E+00
        -11   -1    0    0    0    0  0.00000000000E+00  0.00000000000E+00  0.45593999997E+02  0.45594000000E+02  0.51100000000E-03 0.  1.
         11   -1    0    0    0    0 -0.00000000000E+00 -0.00000000000E+00 -0.45593999997E+02  0.45594000000E+02  0.51100000000E-03 0. -1.
    9900012    2    1    2    0    0  0.37883385089E+02 -0.10585063440E+02  0.21952656861E+02  0.46142316776E+02  0.99999910211E+01 0.  0.
         12    1    1    2    0    0 -0.37883385089E+02  0.10585063440E+02 -0.21952656861E+02  0.45045683224E+02  0.00000000000E+00 0. -1.
         11    1    3    3    0    0  0.12702539349E+02 -0.10778974241E+01  0.66745702247E+01  0.14389796966E+02  0.51100000000E-03 0. -1.
        -11    1    3    3    0    0  0.22352335351E+02 -0.62134122345E+01  0.11067550786E+02  0.25704553446E+02  0.51100000000E-03 0.  1.
         12    1    3    3    0    0  0.28285103890E+01 -0.32937537811E+01  0.42105358508E+01  0.60479663641E+01  0.00000000000E+00 0. -1.
</event>
<event>
 7    1  0.2097247E-008  0.4614232E+02  0.7816164E-02  0.1320468E+00
        -11   -1    0    0    0    0  0.00000000000E+00  0.00000000000E+00  0.45593999997E+02  0.45594000000E+02  0.51100000000E-03 0.  1.
         11   -1    0    0    0    0 -0.00000000000E+00 -0.00000000000E+00 -0.45593999997E+02  0.45594000000E+02  0.51100000000E-03 0. -1.
    9900012    2    1    2    0    0 -0.17680780532E+02 -0.31707678584E+02  0.26666957452E+02  0.46142317619E+02  0.99999987052E+01 0.  0.
         12    1    1    2    0    0  0.17680780532E+02  0.31707678584E+02 -0.26666957452E+02  0.45045682381E+02  0.00000000000E+00 0. -1.
         11    1    3    3    0    0 -0.12618493179E+01 -0.27866235456E+01  0.17800013480E+00  0.30641832182E+01  0.51100000000E-03 0. -1.
        -11    1    3    3    0    0 -0.69920163267E+00 -0.71031089643E+00 -0.38077326535E+00  0.10669644012E+01  0.51100000000E-03 0.  1.
        -12    1    3    3    0    0 -0.15719729581E+02 -0.28210744142E+02  0.26869730583E+02  0.42011170000E+02  0.00000000000E+00 0.  1.
</event>
<event>
 7    1  0.2097247E-008  0.4614232E+02  0.7816164E-02  0.1320468E+00
        -11   -1    0    0    0    0  0.00000000000E+00  0.00000000000E+00  0.45593999997E+02  0.45594000000E+02  0.51100000000E-03 0.  1.
         11   -1    0    0    0    0 -0.00000000000E+00 -0.00000000000E+00 -0.45593999997E+02  0.45594000000E+02  0.51100000000E-03 0. -1.
    9900012    2    1    2    0    0  0.13165118977E+02  0.91193744548E+01  0.42102612763E+02  0.46142319302E+02  0.10000014048E+02 0.  0.
         12    1    1    2    0    0 -0.13165118977E+02 -0.91193744548E+01 -0.42102612763E+02  0.45045680698E+02  0.00000000000E+00 0. -1.
         11    1    3    3    0    0  0.32778301057E+01  0.20396207015E+01  0.15885027557E+02  0.16347425595E+02  0.51100000000E-03 0. -1.
        -11    1    3    3    0    0  0.74468371462E+01  0.54363614502E+01  0.24935486007E+02  0.26585482353E+02  0.51100000000E-03 0.  1.
        -12    1    3    3    0    0  0.24404517250E+01  0.16433923031E+01  0.12820991986E+01  0.32094113540E+01  0.00000000000E+00 0.  1.
</event>
<event>
 7    1  0.2097247E-008  0.4614232E+02  0.7816164E-02  0.1320468E+00
        -11   -1    0    0    0    0  0.00000000000E+00  0.00000000000E+00  0.45593999997E+02  0.45594000000E+02  0.51100000000E-03 0.  1.
         11   -1    0    0    0    0 -0.00000000000E+00 -0.00000000000E+00 -0.45593999997E+02  0.45594000000E+02  0.51100000000E-03 0. -1.
    9900012    2    1    2    0    0 -0.34169620881E+02 -0.12284811770E+02  0.26657717045E+02  0.46142317971E+02  0.10000001915E+02 0.  0.
         12    1    1    2    0    0  0.34169620881E+02  0.12284811770E+02 -0.26657717045E+02  0.45045682029E+02  0.00000000000E+00 0. -1.
         11    1    3    3    0    0 -0.63334594881E+01 -0.65860248109E+01  0.75540277975E+01  0.11855453097E+02  0.51100000000E-03 0. -1.
        -11    1    3    3    0    0 -0.58405238619E+01 -0.72775241546E+00  0.32727393769E+01  0.67344016698E+01  0.51100000000E-03 0.  1.
        -12    1    3    3    0    0 -0.21995637531E+02 -0.49710345432E+01  0.15830949871E+02  0.27552463205E+02  0.00000000000E+00 0.  1.
</event>
<event>
 7    1  0.2097247E-008  0.4614232E+02  0.7816164E-02  0.1320468E+00
        -11   -1    0    0    0    0  0.00000000000E+00  0.00000000000E+00  0.45593999997E+02  0.45594000000E+02  0.51100000000E-03 0. -1.
         11   -1    0    0    0    0 -0.00000000000E+00 -0.00000000000E+00 -0.45593999997E+02  0.45594000000E+02  0.51100000000E-03 0.  1.
    9900012    2    1    2    0    0  0.60939081058E+01 -0.39585498502E+02 -0.20614706012E+02  0.46142317502E+02  0.99999976416E+01 0.  0.
         12    1    1    2    0    0 -0.60939081058E+01  0.39585498502E+02  0.20614706012E+02  0.45045682498E+02  0.00000000000E+00 0. -1.
         11    1    3    3    0    0  0.50378124306E+01 -0.13055651572E+02 -0.62927198841E+01  0.15343660446E+02  0.51100000000E-03 0. -1.
        -11    1    3    3    0    0  0.69559576117E+00 -0.11224335867E+02 -0.95748473480E+01  0.14769809448E+02  0.51100000000E-03 0.  1.
        -12    1    3    3    0    0  0.36049991399E+00 -0.15305511063E+02 -0.47471387803E+01  0.16028847609E+02  0.00000000000E+00 0.  1.
</event>
<event>
 7    1  0.2097247E-008  0.4614232E+02  0.7816164E-02  0.1320468E+00
        -11   -1    0    0    0    0  0.00000000000E+00  0.00000000000E+00  0.45593999997E+02  0.45594000000E+02  0.51100000000E-03 0.  1.
         11   -1    0    0    0    0 -0.00000000000E+00 -0.00000000000E+00 -0.45593999997E+02  0.45594000000E+02  0.51100000000E-03 0. -1.
    9900012    2    1    2    0    0 -0.32271039265E+02 -0.30832621918E+02  0.60862867837E+01  0.46142318338E+02  0.10000005261E+02 0.  0.
         12    1    1    2    0    0  0.32271039265E+02  0.30832621918E+02 -0.60862867837E+01  0.45045681662E+02  0.00000000000E+00 0. -1.
         11    1    3    3    0    0 -0.13413214394E+02 -0.14265198261E+02  0.24406519097E+01  0.19732384139E+02  0.51100000000E-03 0. -1.
        -11    1    3    3    0    0 -0.14236037629E+02 -0.15964781606E+02  0.20708362856E+01  0.21490169434E+02  0.51100000000E-03 0.  1.
         12    1    3    3    0    0 -0.46217872421E+01 -0.60264205082E+00  0.15747985884E+01  0.49197647654E+01  0.00000000000E+00 0. -1.
</event>
<event>
 7    1  0.2097247E-008  0.4614232E+02  0.7816164E-02  0.1320468E+00
        -11   -1    0    0    0    0  0.00000000000E+00  0.00000000000E+00  0.45593999997E+02  0.45594000000E+02  0.51100000000E-03 0.  1.
         11   -1    0    0    0    0 -0.00000000000E+00 -0.00000000000E+00 -0.45593999997E+02  0.45594000000E+02  0.51100000000E-03 0. -1.
    9900012    2    1    2    0    0 -0.23229377768E+02 -0.37635589554E+01  0.38410221833E+02  0.46142317534E+02  0.99999979327E+01 0.  0.
         12    1    1    2    0    0  0.23229377768E+02  0.37635589554E+01 -0.38410221833E+02  0.45045682466E+02  0.00000000000E+00 0. -1.
         11    1    3    3    0    0 -0.46645550933E+01 -0.34679846601E+01  0.10563082617E+02  0.12056687209E+02  0.51100000000E-03 0. -1.
        -11    1    3    3    0    0 -0.10246733225E+02 -0.32260510580E+01  0.16940118271E+02  0.20059176317E+02  0.51100000000E-03 0.  1.
         12    1    3    3    0    0 -0.83180894496E+01  0.29304767628E+01  0.10907020945E+02  0.14026454008E+02  0.00000000000E+00 0. -1.
</event>
<event>
 7    1  0.2097247E-008  0.4614232E+02  0.7816164E-02  0.1320468E+00
        -11   -1    0    0    0    0  0.00000000000E+00  0.00000000000E+00  0.45593999997E+02  0.45594000000E+02  0.51100000000E-03 0.  1.
         11   -1    0    0    0    0 -0.00000000000E+00 -0.00000000000E+00 -0.45593999997E+02  0.45594000000E+02  0.51100000000E-03 0. -1.
    9900012    2    1    2    0    0  0.14372526242E+01 -0.83324159639E+01  0.44244984064E+02  0.46142318012E+02  0.10000002289E+02 0.  0.
         12    1    1    2    0    0 -0.14372526242E+01  0.83324159639E+01 -0.44244984064E+02  0.45045681988E+02  0.00000000000E+00 0. -1.
         11    1    3    3    0    0 -0.26371748056E+01 -0.27776321073E+01  0.30367544710E+02  0.30608131323E+02  0.51100000000E-03 0. -1.
        -11    1    3    3    0    0  0.25814525845E+01 -0.26515512680E+01  0.78837167920E+01  0.87090534670E+01  0.51100000000E-03 0.  1.
         12    1    3    3    0    0  0.14929748453E+01 -0.29032325887E+01  0.59937225622E+01  0.68251332225E+01  0.00000000000E+00 0. -1.
</event>
<event>
 7    1  0.2097247E-008  0.4614232E+02  0.7816164E-02  0.1320468E+00
        -11   -1    0    0    0    0  0.00000000000E+00  0.00000000000E+00  0.45593999997E+02  0.45594000000E+02  0.51100000000E-03 0.  1.
         11   -1    0    0    0    0 -0.00000000000E+00 -0.00000000000E+00 -0.45593999997E+02  0.45594000000E+02  0.51100000000E-03 0. -1.
    9900012    2    1    2    0    0  0.44135563685E+02 -0.84347160099E+01 -0.31655937242E+01  0.46142318747E+02  0.10000008990E+02 0.  0.
         12    1    1    2    0    0 -0.44135563685E+02  0.84347160099E+01  0.31655937242E+01  0.45045681253E+02  0.00000000000E+00 0. -1.
         11    1    3    3    0    0  0.12015618252E+02 -0.29353952791E+00 -0.10154839930E+01  0.12062025345E+02  0.51100000000E-03 0. -1.
        -11    1    3    3    0    0  0.26938292354E+02 -0.70347991797E+01 -0.46404669225E+01  0.28225767093E+02  0.51100000000E-03 0.  1.
         12    1    3    3    0    0  0.51816530792E+01 -0.11063773023E+01  0.24903571913E+01  0.58545263095E+01  0.00000000000E+00 0. -1.
</event>
<event>
 7    1  0.2097247E-008  0.4614232E+02  0.7816164E-02  0.1320468E+00
        -11   -1    0    0    0    0  0.00000000000E+00  0.00000000000E+00  0.45593999997E+02  0.45594000000E+02  0.51100000000E-03 0.  1.
         11   -1    0    0    0    0 -0.00000000000E+00 -0.00000000000E+00 -0.45593999997E+02  0.45594000000E+02  0.51100000000E-03 0. -1.
    9900012    2    1    2    0    0  0.31503719432E+02 -0.31634867557E+02  0.59886773612E+01  0.46142318299E+02  0.10000004901E+02 0.  0.
         12    1    1    2    0    0 -0.31503719432E+02  0.31634867557E+02 -0.59886773612E+01  0.45045681701E+02  0.00000000000E+00 0. -1.
         11    1    3    3    0    0  0.28720834742E+00 -0.11059361250E+01  0.11381143842E+01  0.16127268708E+01  0.51100000000E-03 0. -1.
        -11    1    3    3    0    0  0.26927846374E+02 -0.22892008298E+02  0.23523412038E+01  0.35421553659E+02  0.51100000000E-03 0.  1.
        -12    1    3    3    0    0  0.42886647106E+01 -0.76369231346E+01  0.24982217732E+01  0.91080377684E+01  0.00000000000E+00 0.  1.
</event>
<event>
 7    1  0.2097247E-008  0.4614232E+02  0.7816164E-02  0.1320468E+00
        -11   -1    0    0    0    0  0.00000000000E+00  0.00000000000E+00  0.45593999997E+02  0.45594000000E+02  0.51100000000E-03 0. -1.
         11   -1    0    0    0    0 -0.00000000000E+00 -0.00000000000E+00 -0.45593999997E+02  0.45594000000E+02  0.51100000000E-03 0.  1.
    9900012    2    1    2    0    0 -0.41646519161E+02  0.16599713961E+02  0.43738433451E+01  0.46142316883E+02  0.99999919958E+01 0.  0.
         12    1    1    2    0    0  0.41646519161E+02 -0.16599713961E+02 -0.43738433451E+01  0.45045683117E+02  0.00000000000E+00 0. -1.
         11    1    3    3    0    0 -0.98992157589E+00  0.89024154586E+00  0.16024541225E+01  0.20833468775E+01  0.51100000000E-03 0. -1.
        -11    1    3    3    0    0 -0.23437681197E+02  0.11059167619E+02 -0.52474463314E+00  0.25921138970E+02  0.51100000000E-03 0.  1.
        -12    1    3    3    0    0 -0.17218916388E+02  0.46503047968E+01  0.32961338558E+01  0.18137831035E+02  0.00000000000E+00 0.  1.
</event>
<event>
 7    1  0.2097247E-008  0.4614232E+02  0.7816164E-02  0.1320468E+00
        -11   -1    0    0    0    0  0.00000000000E+00  0.00000000000E+00  0.45593999997E+02  0.45594000000E+02  0.51100000000E-03 0. -1.
         11   -1    0    0    0    0 -0.00000000000E+00 -0.00000000000E+00 -0.45593999997E+02  0.45594000000E+02  0.51100000000E-03 0.  1.
    9900012    2    1    2    0    0 -0.78347141784E+01 -0.43829168694E+02  0.68362660609E+01  0.46142319760E+02  0.10000018226E+02 0.  0.
         12    1    1    2    0    0  0.78347141784E+01  0.43829168694E+02 -0.68362660609E+01  0.45045680240E+02  0.00000000000E+00 0. -1.
         11    1    3    3    0    0 -0.19351789817E+01 -0.97179108532E+01  0.57996264972E+01  0.11481218437E+02  0.51100000000E-03 0. -1.
        -11    1    3    3    0    0 -0.87178851055E+00 -0.61186408800E+01  0.68600398963E+00  0.62183907211E+01  0.51100000000E-03 0.  1.
         12    1    3    3    0    0 -0.50277466861E+01 -0.27992616961E+02  0.35063557409E+00  0.28442710601E+02  0.00000000000E+00 0. -1.
</event>
<event>
 7    1  0.2097247E-008  0.4614232E+02  0.7816164E-02  0.1320468E+00
        -11   -1    0    0    0    0  0.00000000000E+00  0.00000000000E+00  0.45593999997E+02  0.45594000000E+02  0.51100000000E-03 0.  1.
         11   -1    0    0    0    0 -0.00000000000E+00 -0.00000000000E+00 -0.45593999997E+02  0.45594000000E+02  0.51100000000E-03 0. -1.
    9900012    2    1    2    0    0  0.30649183681E+02 -0.29606751327E+02  0.14600723444E+02  0.46142319747E+02  0.10000018106E+02 0.  0.
         12    1    1    2    0    0 -0.30649183681E+02  0.29606751327E+02 -0.14600723444E+02  0.45045680253E+02  0.00000000000E+00 0. -1.
         11    1    3    3    0    0  0.93547792239E+01 -0.12127560962E+02  0.82663342121E+01  0.17404651987E+02  0.51100000000E-03 0. -1.
        -11    1    3    3    0    0  0.20859483475E+02 -0.17811781862E+02  0.64509771944E+01  0.28177876623E+02  0.51100000000E-03 0.  1.
        -12    1    3    3    0    0  0.43492098157E+00  0.33259149718E+00 -0.11658796266E+00  0.55979113716E+00  0.00000000000E+00 0.  1.
</event>
<event>
 7    1  0.2097247E-008  0.4614232E+02  0.7816164E-02  0.1320468E+00
        -11   -1    0    0    0    0  0.00000000000E+00  0.00000000000E+00  0.45593999997E+02  0.45594000000E+02  0.51100000000E-03 0.  1.
         11   -1    0    0    0    0 -0.00000000000E+00 -0.00000000000E+00 -0.45593999997E+02  0.45594000000E+02  0.51100000000E-03 0. -1.
    9900012    2    1    2    0    0  0.99005065398E+01  0.16769333855E+02  0.40618751366E+02  0.46142317075E+02  0.99999937426E+01 0.  0.
         12    1    1    2    0    0 -0.99005065398E+01 -0.16769333855E+02 -0.40618751366E+02  0.45045682925E+02  0.00000000000E+00 0. -1.
         11    1    3    3    0    0 -0.13813271467E+01  0.22638903445E+01  0.29172875425E+01  0.39425665555E+01  0.51100000000E-03 0. -1.
        -11    1    3    3    0    0  0.10980288826E+02  0.11893950089E+02  0.34033375461E+02  0.37686913338E+02  0.51100000000E-03 0.  1.
        -12    1    3    3    0    0  0.30154486063E+00  0.26114934211E+01  0.36680883624E+01  0.45128371814E+01  0.00000000000E+00 0.  1.
</event>
<event>
 7    1  0.2097247E-008  0.4614232E+02  0.7816164E-02  0.1320468E+00
        -11   -1    0    0    0    0  0.00000000000E+00  0.00000000000E+00  0.45593999997E+02  0.45594000000E+02  0.51100000000E-03 0. -1.
         11   -1    0    0    0    0 -0.00000000000E+00 -0.00000000000E+00 -0.45593999997E+02  0.45594000000E+02  0.51100000000E-03 0.  1.
    9900012    2    1    2    0    0 -0.29171881139E+02  0.22360385965E+02 -0.26040885849E+02  0.46142320457E+02  0.10000024582E+02 0.  0.
         12    1    1    2    0    0  0.29171881139E+02 -0.22360385965E+02  0.26040885849E+02  0.45045679543E+02  0.00000000000E+00 0. -1.
         11    1    3    3    0    0 -0.58109802568E+01  0.64903436779E+01 -0.39199162609E+01  0.95528946585E+01  0.51100000000E-03 0. -1.
        -11    1    3    3    0    0 -0.16224465683E+02  0.99228741431E+01 -0.18750434630E+02  0.26707218444E+02  0.51100000000E-03 0.  1.
        -12    1    3    3    0    0 -0.71364351993E+01  0.59471681442E+01 -0.33705349590E+01  0.98822073546E+01  0.00000000000E+00 0.  1.
</event>
<event>
 7    1  0.2097247E-008  0.4614232E+02  0.7816164E-02  0.1320468E+00
        -11   -1    0    0    0    0  0.00000000000E+00  0.00000000000E+00  0.45593999997E+02  0.45594000000E+02  0.51100000000E-03 0. -1.
         11   -1    0    0    0    0 -0.00000000000E+00 -0.00000000000E+00 -0.45593999997E+02  0.45594000000E+02  0.51100000000E-03 0.  1.
    9900012    2    1    2    0    0  0.24482635024E+02 -0.25607076255E+02 -0.27820703575E+02  0.46142319636E+02  0.10000017095E+02 0.  0.
         12    1    1    2    0    0 -0.24482635024E+02  0.25607076255E+02  0.27820703575E+02  0.45045680364E+02  0.00000000000E+00 0. -1.
         11    1    3    3    0    0  0.52754581675E+01 -0.35506789823E+01 -0.66800748047E+01  0.92228617993E+01  0.51100000000E-03 0.  1.
        -11    1    3    3    0    0  0.14779927152E+02 -0.13807090250E+02 -0.17909265654E+02  0.27015250957E+02  0.51100000000E-03 0. -1.
         12    1    3    3    0    0  0.44272497050E+01 -0.82493070232E+01 -0.32313631164E+01  0.99042068791E+01  0.00000000000E+00 0. -1.
</event>
<event>
 7    1  0.2097247E-008  0.4614232E+02  0.7816164E-02  0.1320468E+00
        -11   -1    0    0    0    0  0.00000000000E+00  0.00000000000E+00  0.45593999997E+02  0.45594000000E+02  0.51100000000E-03 0.  1.
         11   -1    0    0    0    0 -0.00000000000E+00 -0.00000000000E+00 -0.45593999997E+02  0.45594000000E+02  0.51100000000E-03 0. -1.
    9900012    2    1    2    0    0  0.31774143582E+02 -0.23145214705E+02  0.21995823898E+02  0.46142318375E+02  0.10000005595E+02 0.  0.
         12    1    1    2    0    0 -0.31774143582E+02  0.23145214705E+02 -0.21995823898E+02  0.45045681625E+02  0.00000000000E+00 0. -1.
         11    1    3    3    0    0  0.17931207332E+02 -0.15459220724E+02  0.98748307000E+01  0.25652056124E+02  0.51100000000E-03 0. -1.
        -11    1    3    3    0    0  0.61560552614E+01 -0.28291636471E+01  0.24202788083E+01  0.71943681511E+01  0.51100000000E-03 0.  1.
         12    1    3    3    0    0  0.76868809890E+01 -0.48568303344E+01  0.97007143899E+01  0.13295894100E+02  0.00000000000E+00 0. -1.
</event>
<event>
 7    1  0.2097247E-008  0.4614232E+02  0.7816164E-02  0.1320468E+00
        -11   -1    0    0    0    0  0.00000000000E+00  0.00000000000E+00  0.45593999997E+02  0.45594000000E+02  0.51100000000E-03 0. -1.
         11   -1    0    0    0    0 -0.00000000000E+00 -0.00000000000E+00 -0.45593999997E+02  0.45594000000E+02  0.51100000000E-03 0.  1.
    9900012    2    1    2    0    0  0.13424517625E+02  0.60978298652E+01 -0.42564214066E+02  0.46142317392E+02  0.99999966367E+01 0.  0.
         12    1    1    2    0    0 -0.13424517625E+02 -0.60978298652E+01  0.42564214066E+02  0.45045682608E+02  0.00000000000E+00 0. -1.
         11    1    3    3    0    0  0.81586950572E+01 -0.95256277691E+00 -0.18884204499E+02  0.20593320779E+02  0.51100000000E-03 0. -1.
        -11    1    3    3    0    0  0.21905427137E+01  0.14777737127E+01 -0.11573453524E+02  0.11871272858E+02  0.51100000000E-03 0.  1.
         12    1    3    3    0    0  0.30752798538E+01  0.55726189295E+01 -0.12106556043E+02  0.13677723755E+02  0.00000000000E+00 0. -1.
</event>
<event>
 7    1  0.2097247E-008  0.4614232E+02  0.7816164E-02  0.1320468E+00
        -11   -1    0    0    0    0  0.00000000000E+00  0.00000000000E+00  0.45593999997E+02  0.45594000000E+02  0.51100000000E-03 0. -1.
         11   -1    0    0    0    0 -0.00000000000E+00 -0.00000000000E+00 -0.45593999997E+02  0.45594000000E+02  0.51100000000E-03 0.  1.
    9900012    2    1    2    0    0  0.41556638204E+02  0.16605789092E+02 -0.51387891261E+01  0.46142316923E+02  0.99999923544E+01 0.  0.
         12    1    1    2    0    0 -0.41556638204E+02 -0.16605789092E+02  0.51387891261E+01  0.45045683077E+02  0.00000000000E+00 0. -1.
         11    1    3    3    0    0  0.54723472906E+01  0.93006056106E+00 -0.24375900895E+00  0.55561692047E+01  0.51100000000E-03 0. -1.
        -11    1    3    3    0    0  0.29784577679E+01  0.17815166855E+01 -0.30748222535E+01  0.46367601326E+01  0.51100000000E-03 0.  1.
        -12    1    3    3    0    0  0.33105833146E+02  0.13894211846E+02 -0.18202078637E+01  0.35949387585E+02  0.00000000000E+00 0.  1.
</event>
<event>
 7    1  0.2097247E-008  0.4614232E+02  0.7816164E-02  0.1320468E+00
        -11   -1    0    0    0    0  0.00000000000E+00  0.00000000000E+00  0.45593999997E+02  0.45594000000E+02  0.51100000000E-03 0. -1.
         11   -1    0    0    0    0 -0.00000000000E+00 -0.00000000000E+00 -0.45593999997E+02  0.45594000000E+02  0.51100000000E-03 0.  1.
    9900012    2    1    2    0    0  0.36108142786E+02  0.25718004373E+02 -0.79937319468E+01  0.46142317912E+02  0.10000001373E+02 0.  0.
         12    1    1    2    0    0 -0.36108142786E+02 -0.25718004373E+02  0.79937319468E+01  0.45045682088E+02  0.00000000000E+00 0. -1.
         11    1    3    3    0    0  0.11322833274E+02  0.69590823630E+01 -0.14074632678E+01  0.13364742190E+02  0.51100000000E-03 0. -1.
        -11    1    3    3    0    0  0.22163228172E+02  0.15709281950E+02 -0.83002267690E+01  0.28405703425E+02  0.51100000000E-03 0.  1.
         12    1    3    3    0    0  0.26220813396E+01  0.30496400598E+01  0.17139580900E+01  0.43718722969E+01  0.00000000000E+00 0. -1.
</event>
<event>
 7    1  0.2097247E-008  0.4614232E+02  0.7816164E-02  0.1320468E+00
        -11   -1    0    0    0    0  0.00000000000E+00  0.00000000000E+00  0.45593999997E+02  0.45594000000E+02  0.51100000000E-03 0.  1.
         11   -1    0    0    0    0 -0.00000000000E+00 -0.00000000000E+00 -0.45593999997E+02  0.45594000000E+02  0.51100000000E-03 0. -1.
    9900012    2    1    2    0    0 -0.41529044603E+01  0.44847028986E+02 -0.78158059418E+00  0.46142317715E+02  0.99999995766E+01 0.  0.
         12    1    1    2    0    0  0.41529044603E+01 -0.44847028986E+02  0.78158059418E+00  0.45045682285E+02  0.00000000000E+00 0. -1.
         11    1    3    3    0    0 -0.39361190042E+01  0.69086241486E+01  0.12759657838E+01  0.80529627706E+01  0.51100000000E-03 0. -1.
        -11    1    3    3    0    0 -0.14516678712E+01  0.21474101841E+02 -0.12030334231E+01  0.21556708449E+02  0.51100000000E-03 0.  1.
         12    1    3    3    0    0  0.12348824151E+01  0.16464302996E+02 -0.85451295489E+00  0.16532646495E+02  0.00000000000E+00 0. -1.
</event>
<event>
 7    1  0.2097247E-008  0.4614232E+02  0.7816164E-02  0.1320468E+00
        -11   -1    0    0    0    0  0.00000000000E+00  0.00000000000E+00  0.45593999997E+02  0.45594000000E+02  0.51100000000E-03 0. -1.
         11   -1    0    0    0    0 -0.00000000000E+00 -0.00000000000E+00 -0.45593999997E+02  0.45594000000E+02  0.51100000000E-03 0.  1.
    9900012    2    1    2    0    0  0.15139912539E+02 -0.47880047042E+01 -0.42154141100E+02  0.46142317048E+02  0.99999934984E+01 0.  0.
         12    1    1    2    0    0 -0.15139912539E+02  0.47880047042E+01  0.42154141100E+02  0.45045682952E+02  0.00000000000E+00 0. -1.
         11    1    3    3    0    0  0.78345738145E+01  0.50596949008E+00 -0.21549751515E+02  0.22935307772E+02  0.51100000000E-03 0. -1.
        -11    1    3    3    0    0  0.40470760799E+01 -0.36323523894E+01 -0.17759282750E+02  0.18573231618E+02  0.51100000000E-03 0.  1.
        -12    1    3    3    0    0  0.32582626444E+01 -0.16616218049E+01 -0.28451068347E+01  0.46337776579E+01  0.00000000000E+00 0.  1.
</event>
<event>
 7    1  0.2097247E-008  0.4614232E+02  0.7816164E-02  0.1320468E+00
        -11   -1    0    0    0    0  0.00000000000E+00  0.00000000000E+00  0.45593999997E+02  0.45594000000E+02  0.51100000000E-03 0.  1.
         11   -1    0    0    0    0 -0.00000000000E+00 -0.00000000000E+00 -0.45593999997E+02  0.45594000000E+02  0.51100000000E-03 0. -1.
    9900012    2    1    2    0    0  0.13977291415E+02  0.16719172171E+01  0.42789642550E+02  0.46142317720E+02  0.99999996296E+01 0.  0.
         12    1    1    2    0    0 -0.13977291415E+02 -0.16719172171E+01 -0.42789642550E+02  0.45045682280E+02  0.00000000000E+00 0. -1.
         11    1    3    3    0    0  0.15921319061E+01  0.13525868181E+01  0.74776164737E+01  0.77639631308E+01  0.51100000000E-03 0. -1.
        -11    1    3    3    0    0  0.12308065577E+02  0.23348541443E+01  0.33066040226E+02  0.35359624413E+02  0.51100000000E-03 0.  1.
         12    1    3    3    0    0  0.77093931672E-01 -0.20155237452E+01  0.22459858503E+01  0.30187301770E+01  0.00000000000E+00 0. -1.
</event>
<event>
 7    1  0.2097247E-008  0.4614232E+02  0.7816164E-02  0.1320468E+00
        -11   -1    0    0    0    0  0.00000000000E+00  0.00000000000E+00  0.45593999997E+02  0.45594000000E+02  0.51100000000E-03 0. -1.
         11   -1    0    0    0    0 -0.00000000000E+00 -0.00000000000E+00 -0.45593999997E+02  0.45594000000E+02  0.51100000000E-03 0.  1.
    9900012    2    1    2    0    0  0.10770460461E+02 -0.36911055556E+02  0.23466670962E+02  0.46142317778E+02  0.10000000156E+02 0.  0.
         12    1    1    2    0    0 -0.10770460461E+02  0.36911055556E+02 -0.23466670962E+02  0.45045682222E+02  0.00000000000E+00 0. -1.
         11    1    3    3    0    0  0.73456128908E+01 -0.14963689267E+02  0.60784751871E+01  0.17743108129E+02  0.51100000000E-03 0. -1.
        -11    1    3    3    0    0  0.30316662252E+01 -0.15248526504E+02  0.10363467213E+02  0.18684485906E+02  0.51100000000E-03 0.  1.
         12    1    3    3    0    0  0.39318134534E+00 -0.66988397850E+01  0.70247285621E+01  0.97147237432E+01  0.00000000000E+00 0. -1.
</event>
<event>
 7    1  0.2097247E-008  0.4614232E+02  0.7816164E-02  0.1320468E+00
        -11   -1    0    0    0    0  0.00000000000E+00  0.00000000000E+00  0.45593999997E+02  0.45594000000E+02  0.51100000000E-03 0.  1.
         11   -1    0    0    0    0 -0.00000000000E+00 -0.00000000000E+00 -0.45593999997E+02  0.45594000000E+02  0.51100000000E-03 0. -1.
    9900012    2    1    2    0    0 -0.41302565968E+02  0.16279833831E+02  0.76274851180E+01  0.46142317917E+02  0.10000001421E+02 0.  0.
         12    1    1    2    0    0  0.41302565968E+02 -0.16279833831E+02 -0.76274851180E+01  0.45045682083E+02  0.00000000000E+00 0. -1.
         11    1    3    3    0    0 -0.92848022240E+01  0.27949460769E+01 -0.74862849678E+00  0.97252105787E+01  0.51100000000E-03 0. -1.
        -11    1    3    3    0    0 -0.16613216036E+02  0.91539926347E+01  0.15864941237E+01  0.19034481660E+02  0.51100000000E-03 0.  1.
         12    1    3    3    0    0 -0.15404547708E+02  0.43308951191E+01  0.67896194911E+01  0.17382625678E+02  0.00000000000E+00 0. -1.
</event>
<event>
 7    1  0.2097247E-008  0.4614232E+02  0.7816164E-02  0.1320468E+00
        -11   -1    0    0    0    0  0.00000000000E+00  0.00000000000E+00  0.45593999997E+02  0.45594000000E+02  0.51100000000E-03 0.  1.
         11   -1    0    0    0    0 -0.00000000000E+00 -0.00000000000E+00 -0.45593999997E+02  0.45594000000E+02  0.51100000000E-03 0. -1.
    9900012    2    1    2    0    0  0.26281796601E+02 -0.12314519088E+02  0.34448995064E+02  0.46142317922E+02  0.10000001467E+02 0.  0.
         12    1    1    2    0    0 -0.26281796601E+02  0.12314519088E+02 -0.34448995064E+02  0.45045682078E+02  0.00000000000E+00 0. -1.
         11    1    3    3    0    0  0.16895206271E+02 -0.86806547578E+01  0.16734737434E+02  0.25315078495E+02  0.51100000000E-03 0. -1.
        -11    1    3    3    0    0  0.38234684733E+01 -0.25642417563E+01  0.44454551759E+01  0.63997124102E+01  0.51100000000E-03 0.  1.
         12    1    3    3    0    0  0.55631218561E+01 -0.10696225739E+01  0.13268802454E+02  0.14427527016E+02  0.00000000000E+00 0. -1.
</event>
<event>
 7    1  0.2097247E-008  0.4614232E+02  0.7816164E-02  0.1320468E+00
        -11   -1    0    0    0    0  0.00000000000E+00  0.00000000000E+00  0.45593999997E+02  0.45594000000E+02  0.51100000000E-03 0. -1.
         11   -1    0    0    0    0 -0.00000000000E+00 -0.00000000000E+00 -0.45593999997E+02  0.45594000000E+02  0.51100000000E-03 0.  1.
    9900012    2    1    2    0    0 -0.38202443271E+02 -0.18710245656E+02 -0.14819357339E+02  0.46142319671E+02  0.10000017415E+02 0.  0.
         12    1    1    2    0    0  0.38202443271E+02  0.18710245656E+02  0.14819357339E+02  0.45045680329E+02  0.00000000000E+00 0. -1.
         11    1    3    3    0    0 -0.21807436977E+02 -0.13852384555E+02 -0.62330503333E+01  0.26576376391E+02  0.51100000000E-03 0. -1.
        -11    1    3    3    0    0 -0.15649232876E+02 -0.51337697206E+01 -0.72151411489E+01  0.17980888276E+02  0.51100000000E-03 0.  1.
         12    1    3    3    0    0 -0.74577341793E+00  0.27590861935E+00 -0.13711658568E+01  0.15850550035E+01  0.00000000000E+00 0. -1.
</event>
<event>
 7    1  0.2097247E-008  0.4614232E+02  0.7816164E-02  0.1320468E+00
        -11   -1    0    0    0    0  0.00000000000E+00  0.00000000000E+00  0.45593999997E+02  0.45594000000E+02  0.51100000000E-03 0.  1.
         11   -1    0    0    0    0 -0.00000000000E+00 -0.00000000000E+00 -0.45593999997E+02  0.45594000000E+02  0.51100000000E-03 0. -1.
    9900012    2    1    2    0    0 -0.26987955843E+02 -0.32045935197E+02  0.16547565209E+02  0.46142316105E+02  0.99999848950E+01 0.  0.
         12    1    1    2    0    0  0.26987955843E+02  0.32045935197E+02 -0.16547565209E+02  0.45045683895E+02  0.00000000000E+00 0. -1.
         11    1    3    3    0    0 -0.19095990611E+02 -0.18968107245E+02  0.86740468853E+01  0.28278702932E+02  0.51100000000E-03 0. -1.
        -11    1    3    3    0    0 -0.83638194509E+01 -0.10870885652E+02  0.72881128106E+01  0.15532102861E+02  0.51100000000E-03 0.  1.
         12    1    3    3    0    0  0.47185421928E+00 -0.22069423001E+01  0.58540551289E+00  0.23315103119E+01  0.00000000000E+00 0. -1.
</event>
<event>
 7    1  0.2097247E-008  0.4614232E+02  0.7816164E-02  0.1320468E+00
        -11   -1    0    0    0    0  0.00000000000E+00  0.00000000000E+00  0.45593999997E+02  0.45594000000E+02  0.51100000000E-03 0.  1.
         11   -1    0    0    0    0 -0.00000000000E+00 -0.00000000000E+00 -0.45593999997E+02  0.45594000000E+02  0.51100000000E-03 0. -1.
    9900012    2    1    2    0    0  0.19343651001E+02 -0.31541146414E+02  0.25692268507E+02  0.46142318606E+02  0.10000007708E+02 0.  0.
         12    1    1    2    0    0 -0.19343651001E+02  0.31541146414E+02 -0.25692268507E+02  0.45045681394E+02  0.00000000000E+00 0. -1.
         11    1    3    3    0    0  0.11736220943E+02 -0.13784059521E+02  0.10275217860E+02  0.20816322472E+02  0.51100000000E-03 0. -1.
        -11    1    3    3    0    0  0.82794410557E+01 -0.14848433006E+02  0.12122685819E+02  0.20880244698E+02  0.51100000000E-03 0.  1.
        -12    1    3    3    0    0 -0.67201099798E+00 -0.29086538870E+01  0.32943648278E+01  0.44457514364E+01  0.00000000000E+00 0.  1.
</event>
<event>
 7    1  0.2097247E-008  0.4614232E+02  0.7816164E-02  0.1320468E+00
        -11   -1    0    0    0    0  0.00000000000E+00  0.00000000000E+00  0.45593999997E+02  0.45594000000E+02  0.51100000000E-03 0.  1.
         11   -1    0    0    0    0 -0.00000000000E+00 -0.00000000000E+00 -0.45593999997E+02  0.45594000000E+02  0.51100000000E-03 0. -1.
    9900012    2    1    2    0    0  0.37185750041E+02  0.13390039374E+02  0.21611116110E+02  0.46142317631E+02  0.99999988155E+01 0.  0.
         12    1    1    2    0    0 -0.37185750041E+02 -0.13390039374E+02 -0.21611116110E+02  0.45045682369E+02  0.00000000000E+00 0. -1.
         11    1    3    3    0    0  0.11528989338E+02  0.17058329544E+01  0.77638389856E+01  0.14003737261E+02  0.51100000000E-03 0. -1.
        -11    1    3    3    0    0  0.25593516498E+02  0.11388836854E+02  0.14408369444E+02  0.31501346033E+02  0.51100000000E-03 0.  1.
         12    1    3    3    0    0  0.63244205732E-01  0.29536956532E+00 -0.56109231939E+00  0.63723433724E+00  0.00000000000E+00 0. -1.
</event>
<event>
 7    1  0.2097247E-008  0.4614232E+02  0.7816164E-02  0.1320468E+00
        -11   -1    0    0    0    0  0.00000000000E+00  0.00000000000E+00  0.45593999997E+02  0.45594000000E+02  0.51100000000E-03 0. -1.
         11   -1    0    0    0    0 -0.00000000000E+00 -0.00000000000E+00 -0.45593999997E+02  0.45594000000E+02  0.51100000000E-03 0.  1.
    9900012    2    1    2    0    0 -0.27075639634E+01  0.43621145384E+02 -0.10907713370E+02  0.46142318318E+02  0.10000005075E+02 0.  0.
         12    1    1    2    0    0  0.27075639634E+01 -0.43621145384E+02  0.10907713370E+02  0.45045681682E+02  0.00000000000E+00 0. -1.
         11    1    3    3    0    0 -0.27310188796E+01  0.73892570875E+01 -0.23642998520E+01  0.82249315180E+01  0.51100000000E-03 0. -1.
        -11    1    3    3    0    0 -0.13155203778E+01  0.30279225126E+02 -0.94547646309E+01  0.31748301412E+02  0.51100000000E-03 0.  1.
        -12    1    3    3    0    0  0.13389752940E+01  0.59526631709E+01  0.91135111252E+00  0.61690853872E+01  0.00000000000E+00 0.  1.
</event>
<event>
 7    1  0.2097247E-008  0.4614232E+02  0.7816164E-02  0.1320468E+00
        -11   -1    0    0    0    0  0.00000000000E+00  0.00000000000E+00  0.45593999997E+02  0.45594000000E+02  0.51100000000E-03 0. -1.
         11   -1    0    0    0    0 -0.00000000000E+00 -0.00000000000E+00 -0.45593999997E+02  0.45594000000E+02  0.51100000000E-03 0.  1.
    9900012    2    1    2    0    0  0.12036800926E+02  0.17730039823E+02 -0.39621643749E+02  0.46142317165E+02  0.99999945660E+01 0.  0.
         12    1    1    2    0    0 -0.12036800926E+02 -0.17730039823E+02  0.39621643749E+02  0.45045682835E+02  0.00000000000E+00 0. -1.
         11    1    3    3    0    0 -0.45796850270E+00  0.43144440312E+01 -0.59817279263E+01  0.73895352826E+01  0.51100000000E-03 0. -1.
        -11    1    3    3    0    0  0.10847754599E+02  0.13340587464E+02 -0.32435049878E+02  0.36710727514E+02  0.51100000000E-03 0.  1.
         12    1    3    3    0    0  0.16470148304E+01  0.75008327663E-01 -0.12048659445E+01  0.20420543688E+01  0.00000000000E+00 0. -1.
</event>
<event>
 7    1  0.2097247E-008  0.4614232E+02  0.7816164E-02  0.1320468E+00
        -11   -1    0    0    0    0  0.00000000000E+00  0.00000000000E+00  0.45593999997E+02  0.45594000000E+02  0.51100000000E-03 0.  1.
         11   -1    0    0    0    0 -0.00000000000E+00 -0.00000000000E+00 -0.45593999997E+02  0.45594000000E+02  0.51100000000E-03 0. -1.
    9900012    2    1    2    0    0 -0.30253766756E+02  0.29276666436E+00  0.33372706058E+02  0.46142316246E+02  0.99999861829E+01 0.  0.
         12    1    1    2    0    0  0.30253766756E+02 -0.29276666436E+00 -0.33372706058E+02  0.45045683754E+02  0.00000000000E+00 0. -1.
         11    1    3    3    0    0 -0.37205233264E+01  0.79059240125E+00  0.38431171940E+01  0.54071138508E+01  0.51100000000E-03 0. -1.
        -11    1    3    3    0    0 -0.26266849769E+02 -0.19110997128E+01  0.26396137881E+02  0.37287475031E+02  0.51100000000E-03 0.  1.
         12    1    3    3    0    0 -0.26639366053E+00  0.14132739759E+01  0.31334509835E+01  0.34477273644E+01  0.00000000000E+00 0. -1.
</event>
<event>
 7    1  0.2097247E-008  0.4614232E+02  0.7816164E-02  0.1320468E+00
        -11   -1    0    0    0    0  0.00000000000E+00  0.00000000000E+00  0.45593999997E+02  0.45594000000E+02  0.51100000000E-03 0.  1.
         11   -1    0    0    0    0 -0.00000000000E+00 -0.00000000000E+00 -0.45593999997E+02  0.45594000000E+02  0.51100000000E-03 0. -1.
    9900012    2    1    2    0    0 -0.32859593037E+02  0.17852810591E+02  0.25112492203E+02  0.46142323568E+02  0.10000052956E+02 0.  0.
         12    1    1    2    0    0  0.32859593037E+02 -0.17852810591E+02 -0.25112492203E+02  0.45045676432E+02  0.00000000000E+00 0. -1.
         11    1    3    3    0    0 -0.31116828070E+02  0.15156282694E+02  0.22228008684E+02  0.41134587205E+02  0.51100000000E-03 0.  1.
        -11    1    3    3    0    0 -0.14844127152E+01  0.95880893462E+00  0.27194563491E+01  0.32431834327E+01  0.51100000000E-03 0. -1.
        -12    1    3    3    0    0 -0.25835225171E+00  0.17377189624E+01  0.16502717008E+00  0.17645529307E+01  0.00000000000E+00 0.  1.
</event>
<event>
 7    1  0.2097247E-008  0.4614231E+02  0.7816164E-02  0.1320468E+00
        -11   -1    0    0    0    0  0.00000000000E+00  0.00000000000E+00  0.45593999997E+02  0.45594000000E+02  0.51100000000E-03 0.  1.
         11   -1    0    0    0    0 -0.00000000000E+00 -0.00000000000E+00 -0.45593999997E+02  0.45594000000E+02  0.51100000000E-03 0. -1.
    9900012    2    1    2    0    0 -0.29831559637E+02 -0.33697788480E+02 -0.19107246920E+01  0.46142314661E+02  0.99999717302E+01 0.  0.
         12    1    1    2    0    0  0.29831559637E+02  0.33697788480E+02  0.19107246920E+01  0.45045685339E+02  0.00000000000E+00 0. -1.
         11    1    3    3    0    0 -0.47729353299E+01 -0.59766623593E+01 -0.37646441365E+00  0.76578802770E+01  0.51100000000E-03 0. -1.
        -11    1    3    3    0    0 -0.24185126542E+02 -0.27273477302E+02  0.24429555568E+00  0.36453018950E+02  0.51100000000E-03 0.  1.
         12    1    3    3    0    0 -0.87349776516E+00 -0.44764881880E+00 -0.17785558341E+01  0.20314154340E+01  0.00000000000E+00 0. -1.
</event>
<event>
 7    1  0.2097247E-008  0.4614232E+02  0.7816164E-02  0.1320468E+00
        -11   -1    0    0    0    0  0.00000000000E+00  0.00000000000E+00  0.45593999997E+02  0.45594000000E+02  0.51100000000E-03 0.  1.
         11   -1    0    0    0    0 -0.00000000000E+00 -0.00000000000E+00 -0.45593999997E+02  0.45594000000E+02  0.51100000000E-03 0. -1.
    9900012    2    1    2    0    0 -0.40011487517E+00 -0.13571110690E+02  0.42950880228E+02  0.46142320411E+02  0.10000024162E+02 0.  0.
         12    1    1    2    0    0  0.40011487517E+00  0.13571110690E+02 -0.42950880228E+02  0.45045679589E+02  0.00000000000E+00 0. -1.
         11    1    3    3    0    0 -0.16418270165E+01 -0.36486018135E+01  0.14151662964E+02  0.14706374674E+02  0.51100000000E-03 0. -1.
        -11    1    3    3    0    0  0.33875132888E+01 -0.48043649645E+01  0.21363227931E+02  0.22157271423E+02  0.51100000000E-03 0.  1.
         12    1    3    3    0    0 -0.21458011474E+01 -0.51181439121E+01  0.74359893333E+01  0.92786743145E+01  0.00000000000E+00 0. -1.
</event>
<event>
 7    1  0.2097247E-008  0.4614232E+02  0.7816164E-02  0.1320468E+00
        -11   -1    0    0    0    0  0.00000000000E+00  0.00000000000E+00  0.45593999997E+02  0.45594000000E+02  0.51100000000E-03 0.  1.
         11   -1    0    0    0    0 -0.00000000000E+00 -0.00000000000E+00 -0.45593999997E+02  0.45594000000E+02  0.51100000000E-03 0. -1.
    9900012    2    1    2    0    0 -0.25017293380E+01 -0.15301959218E+02  0.42293080462E+02  0.46142320290E+02  0.10000023060E+02 0.  0.
         12    1    1    2    0    0  0.25017293380E+01  0.15301959218E+02 -0.42293080462E+02  0.45045679710E+02  0.00000000000E+00 0. -1.
         11    1    3    3    0    0 -0.21061054025E+01 -0.49441074023E+01  0.20768760361E+02  0.21452768706E+02  0.51100000000E-03 0. -1.
        -11    1    3    3    0    0 -0.29645549374E+01 -0.80443346645E+01  0.16441370466E+02  0.18542345300E+02  0.51100000000E-03 0.  1.
         12    1    3    3    0    0  0.25689310020E+01 -0.23135171515E+01  0.50829496352E+01  0.61472062839E+01  0.00000000000E+00 0. -1.
</event>
<event>
 7    1  0.2097247E-008  0.4614232E+02  0.7816164E-02  0.1320468E+00
        -11   -1    0    0    0    0  0.00000000000E+00  0.00000000000E+00  0.45593999997E+02  0.45594000000E+02  0.51100000000E-03 0. -1.
         11   -1    0    0    0    0 -0.00000000000E+00 -0.00000000000E+00 -0.45593999997E+02  0.45594000000E+02  0.51100000000E-03 0.  1.
    9900012    2    1    2    0    0 -0.29063565304E+02 -0.13714054145E+02 -0.31564970484E+02  0.46142317955E+02  0.10000001767E+02 0.  0.
         12    1    1    2    0    0  0.29063565304E+02  0.13714054145E+02  0.31564970484E+02  0.45045682045E+02  0.00000000000E+00 0. -1.
         11    1    3    3    0    0 -0.28401844260E+02 -0.12309692816E+02 -0.26620883304E+02  0.40827254655E+02  0.51100000000E-03 0. -1.
        -11    1    3    3    0    0 -0.31443564709E+00 -0.10791278154E+01 -0.17111142592E+01  0.20472661985E+01  0.51100000000E-03 0.  1.
         12    1    3    3    0    0 -0.34728539723E+00 -0.32523351362E+00 -0.32329729209E+01  0.32677971009E+01  0.00000000000E+00 0. -1.
</event>
<event>
 7    1  0.2097247E-008  0.4614232E+02  0.7816164E-02  0.1320468E+00
        -11   -1    0    0    0    0  0.00000000000E+00  0.00000000000E+00  0.45593999997E+02  0.45594000000E+02  0.51100000000E-03 0.  1.
         11   -1    0    0    0    0 -0.00000000000E+00 -0.00000000000E+00 -0.45593999997E+02  0.45594000000E+02  0.51100000000E-03 0. -1.
    9900012    2    1    2    0    0 -0.46416297475E+01  0.36595673940E+02  0.25851989539E+02  0.46142318287E+02  0.10000004798E+02 0.  0.
         12    1    1    2    0    0  0.46416297475E+01 -0.36595673940E+02 -0.25851989539E+02  0.45045681713E+02  0.00000000000E+00 0. -1.
         11    1    3    3    0    0 -0.15689815241E+01  0.64933057630E+01  0.39167893250E+01  0.77437692135E+01  0.51100000000E-03 0.  1.
        -11    1    3    3    0    0 -0.35567311091E+01  0.15509661492E+02  0.66071713773E+01  0.17229470382E+02  0.51100000000E-03 0. -1.
         12    1    3    3    0    0  0.48408288564E+00  0.14592706686E+02  0.15328028836E+02  0.21169078692E+02  0.00000000000E+00 0. -1.
</event>
<event>
 7    1  0.2097247E-008  0.4614232E+02  0.7816164E-02  0.1320468E+00
        -11   -1    0    0    0    0  0.00000000000E+00  0.00000000000E+00  0.45593999997E+02  0.45594000000E+02  0.51100000000E-03 0. -1.
         11   -1    0    0    0    0 -0.00000000000E+00 -0.00000000000E+00 -0.45593999997E+02  0.45594000000E+02  0.51100000000E-03 0.  1.
    9900012    2    1    2    0    0  0.21301479509E+02 -0.50910934169E+01 -0.39362942561E+02  0.46142317538E+02  0.99999979622E+01 0.  0.
         12    1    1    2    0    0 -0.21301479509E+02  0.50910934169E+01  0.39362942561E+02  0.45045682462E+02  0.00000000000E+00 0. -1.
         11    1    3    3    0    0  0.53952203400E+01 -0.57886445678E+00 -0.51996174755E+01  0.75152850065E+01  0.51100000000E-03 0. -1.
        -11    1    3    3    0    0  0.12418691528E+02 -0.13065243158E+00 -0.23084533533E+02  0.26213291629E+02  0.51100000000E-03 0.  1.
         12    1    3    3    0    0  0.34875676407E+01 -0.43815765285E+01 -0.11078791553E+02  0.12413740902E+02  0.00000000000E+00 0. -1.
</event>
<event>
 7    1  0.2097247E-008  0.4614232E+02  0.7816164E-02  0.1320468E+00
        -11   -1    0    0    0    0  0.00000000000E+00  0.00000000000E+00  0.45593999997E+02  0.45594000000E+02  0.51100000000E-03 0.  1.
         11   -1    0    0    0    0 -0.00000000000E+00 -0.00000000000E+00 -0.45593999997E+02  0.45594000000E+02  0.51100000000E-03 0. -1.
    9900012    2    1    2    0    0 -0.20883697848E+02 -0.60945626100E+01  0.39444150539E+02  0.46142317178E+02  0.99999946792E+01 0.  0.
         12    1    1    2    0    0  0.20883697848E+02  0.60945626100E+01 -0.39444150539E+02  0.45045682822E+02  0.00000000000E+00 0. -1.
         11    1    3    3    0    0 -0.11574049847E+02 -0.75223801706E+01  0.23436548376E+02  0.27199570462E+02  0.51100000000E-03 0.  1.
        -11    1    3    3    0    0 -0.17847569055E+01  0.10707387048E+01  0.14040799158E+01  0.25106332382E+01  0.51100000000E-03 0. -1.
        -12    1    3    3    0    0 -0.75248910959E+01  0.35707885587E+00  0.14603522247E+02  0.16432113478E+02  0.00000000000E+00 0.  1.
</event>
<event>
 7    1  0.2097247E-008  0.4614232E+02  0.7816164E-02  0.1320468E+00
        -11   -1    0    0    0    0  0.00000000000E+00  0.00000000000E+00  0.45593999997E+02  0.45594000000E+02  0.51100000000E-03 0. -1.
         11   -1    0    0    0    0 -0.00000000000E+00 -0.00000000000E+00 -0.45593999997E+02  0.45594000000E+02  0.51100000000E-03 0.  1.
    9900012    2    1    2    0    0 -0.17877528237E+02  0.37146688424E+02 -0.18155742880E+02  0.46142317896E+02  0.10000001228E+02 0.  0.
         12    1    1    2    0    0  0.17877528237E+02 -0.37146688424E+02  0.18155742880E+02  0.45045682104E+02  0.00000000000E+00 0. -1.
         11    1    3    3    0    0 -0.37829013241E+01  0.48706885433E+01 -0.39381842463E+01  0.73173249711E+01  0.51100000000E-03 0. -1.
        -11    1    3    3    0    0 -0.47460894349E+01  0.90371050124E+01 -0.39441942111E+00  0.10215194510E+02  0.51100000000E-03 0.  1.
        -12    1    3    3    0    0 -0.93485374782E+01  0.23238894868E+02 -0.13823139212E+02  0.28609798415E+02  0.00000000000E+00 0.  1.
</event>
<event>
 7    1  0.2097247E-008  0.4614232E+02  0.7816164E-02  0.1320468E+00
        -11   -1    0    0    0    0  0.00000000000E+00  0.00000000000E+00  0.45593999997E+02  0.45594000000E+02  0.51100000000E-03 0. -1.
         11   -1    0    0    0    0 -0.00000000000E+00 -0.00000000000E+00 -0.45593999997E+02  0.45594000000E+02  0.51100000000E-03 0.  1.
    9900012    2    1    2    0    0 -0.11352058158E+02  0.39764669986E+02 -0.17861001891E+02  0.46142316611E+02  0.99999895091E+01 0.  0.
         12    1    1    2    0    0  0.11352058158E+02 -0.39764669986E+02  0.17861001891E+02  0.45045683389E+02  0.00000000000E+00 0. -1.
         11    1    3    3    0    0 -0.12948428048E+01  0.13930141343E+02 -0.48329252610E+01  0.14801439881E+02  0.51100000000E-03 0. -1.
        -11    1    3    3    0    0 -0.97570504744E+01  0.24986898048E+02 -0.10761612607E+02  0.28902550306E+02  0.51100000000E-03 0.  1.
        -12    1    3    3    0    0 -0.30016487865E+00  0.84763059423E+00 -0.22664640229E+01  0.24383264231E+01  0.00000000000E+00 0.  1.
</event>
<event>
 7    1  0.2097247E-008  0.4614232E+02  0.7816164E-02  0.1320468E+00
        -11   -1    0    0    0    0  0.00000000000E+00  0.00000000000E+00  0.45593999997E+02  0.45594000000E+02  0.51100000000E-03 0. -1.
         11   -1    0    0    0    0 -0.00000000000E+00 -0.00000000000E+00 -0.45593999997E+02  0.45594000000E+02  0.51100000000E-03 0.  1.
    9900012    2    1    2    0    0 -0.44845616962E+02  0.41959436524E+01  0.61500772030E+00  0.46142317207E+02  0.99999949458E+01 0.  0.
         12    1    1    2    0    0  0.44845616962E+02 -0.41959436524E+01 -0.61500772030E+00  0.45045682793E+02  0.00000000000E+00 0. -1.
         11    1    3    3    0    0 -0.65640572235E+01  0.85475314342E+00 -0.32246329963E+01  0.73631316973E+01  0.51100000000E-03 0. -1.
        -11    1    3    3    0    0 -0.78390422700E+01 -0.11374343007E+00 -0.39590906379E+00  0.78498576756E+01  0.51100000000E-03 0.  1.
        -12    1    3    3    0    0 -0.30442517468E+02  0.34549339390E+01  0.42355497804E+01  0.30929327834E+02  0.00000000000E+00 0.  1.
</event>
<event>
 7    1  0.2097247E-008  0.4614232E+02  0.7816164E-02  0.1320468E+00
        -11   -1    0    0    0    0  0.00000000000E+00  0.00000000000E+00  0.45593999997E+02  0.45594000000E+02  0.51100000000E-03 0. -1.
         11   -1    0    0    0    0 -0.00000000000E+00 -0.00000000000E+00 -0.45593999997E+02  0.45594000000E+02  0.51100000000E-03 0.  1.
    9900012    2    1    2    0    0  0.12909012210E+01 -0.38530611656E+02 -0.23298906563E+02  0.46142317548E+02  0.99999980537E+01 0.  0.
         12    1    1    2    0    0 -0.12909012210E+01  0.38530611656E+02  0.23298906563E+02  0.45045682452E+02  0.00000000000E+00 0. -1.
         11    1    3    3    0    0 -0.30161014298E+01 -0.15367650699E+02 -0.98172930228E+01  0.18483527758E+02  0.51100000000E-03 0.  1.
        -11    1    3    3    0    0  0.44575296403E+01 -0.23273692911E+02 -0.13699526055E+02  0.27371725678E+02  0.51100000000E-03 0. -1.
         12    1    3    3    0    0 -0.15052698950E+00  0.11073195311E+00  0.21791251485E+00  0.28706411154E+00  0.00000000000E+00 0. -1.
</event>
<event>
 7    1  0.2097247E-008  0.4614232E+02  0.7816164E-02  0.1320468E+00
        -11   -1    0    0    0    0  0.00000000000E+00  0.00000000000E+00  0.45593999997E+02  0.45594000000E+02  0.51100000000E-03 0.  1.
         11   -1    0    0    0    0 -0.00000000000E+00 -0.00000000000E+00 -0.45593999997E+02  0.45594000000E+02  0.51100000000E-03 0. -1.
    9900012    2    1    2    0    0  0.44730352880E+01 -0.37065094999E+02  0.25204844638E+02  0.46142317574E+02  0.99999982964E+01 0.  0.
         12    1    1    2    0    0 -0.44730352880E+01  0.37065094999E+02 -0.25204844638E+02  0.45045682426E+02  0.00000000000E+00 0. -1.
         11    1    3    3    0    0 -0.21027017494E+01 -0.37298368445E+01  0.43212479334E+01  0.60832739126E+01  0.51100000000E-03 0. -1.
        -11    1    3    3    0    0  0.18128756497E+01 -0.13204598330E+02  0.10153382852E+02  0.16755271373E+02  0.51100000000E-03 0.  1.
        -12    1    3    3    0    0  0.47628613877E+01 -0.20130659824E+02  0.10730213853E+02  0.23303772289E+02  0.00000000000E+00 0.  1.
</event>
<event>
 7    1  0.2097247E-008  0.4614233E+02  0.7816164E-02  0.1320468E+00
        -11   -1    0    0    0    0  0.00000000000E+00  0.00000000000E+00  0.45593999997E+02  0.45594000000E+02  0.51100000000E-03 0.  1.
         11   -1    0    0    0    0 -0.00000000000E+00 -0.00000000000E+00 -0.45593999997E+02  0.45594000000E+02  0.51100000000E-03 0. -1.
    9900012    2    1    2    0    0 -0.23352707469E+02 -0.14498691115E+02  0.35686857437E+02  0.46142325581E+02  0.10000071307E+02 0.  0.
         12    1    1    2    0    0  0.23352707469E+02  0.14498691115E+02 -0.35686857437E+02  0.45045674419E+02  0.00000000000E+00 0. -1.
         11    1    3    3    0    0 -0.62182949416E+01 -0.19290265481E+01  0.10612342688E+02  0.12450307345E+02  0.51100000000E-03 0. -1.
        -11    1    3    3    0    0 -0.15117034611E+02 -0.76320396350E+01  0.16849206679E+02  0.23888669498E+02  0.51100000000E-03 0.  1.
         12    1    3    3    0    0 -0.20173779158E+01 -0.49376249319E+01  0.82253080700E+01  0.98033487376E+01  0.00000000000E+00 0. -1.
</event>
<event>
 7    1  0.2097247E-008  0.4614232E+02  0.7816164E-02  0.1320468E+00
        -11   -1    0    0    0    0  0.00000000000E+00  0.00000000000E+00  0.45593999997E+02  0.45594000000E+02  0.51100000000E-03 0.  1.
         11   -1    0    0    0    0 -0.00000000000E+00 -0.00000000000E+00 -0.45593999997E+02  0.45594000000E+02  0.51100000000E-03 0. -1.
    9900012    2    1    2    0    0 -0.99742734971E+01 -0.18777969224E+02  0.39711650845E+02  0.46142317934E+02  0.10000001579E+02 0.  0.
         12    1    1    2    0    0  0.99742734971E+01  0.18777969224E+02 -0.39711650845E+02  0.45045682066E+02  0.00000000000E+00 0. -1.
         11    1    3    3    0    0  0.12308596385E+01 -0.15859102948E+01  0.51086724707E+01  0.54889581513E+01  0.51100000000E-03 0. -1.
        -11    1    3    3    0    0 -0.59757462386E+01 -0.13940104864E+02  0.25255608802E+02  0.29459834401E+02  0.51100000000E-03 0.  1.
        -12    1    3    3    0    0 -0.52293868970E+01 -0.32519540647E+01  0.93473695722E+01  0.11193525382E+02  0.00000000000E+00 0.  1.
</event>
<event>
 7    1  0.2097247E-008  0.4614232E+02  0.7816164E-02  0.1320468E+00
        -11   -1    0    0    0    0  0.00000000000E+00  0.00000000000E+00  0.45593999997E+02  0.45594000000E+02  0.51100000000E-03 0. -1.
         11   -1    0    0    0    0 -0.00000000000E+00 -0.00000000000E+00 -0.45593999997E+02  0.45594000000E+02  0.51100000000E-03 0.  1.
    9900012    2    1    2    0    0  0.18953359223E+02  0.39085772967E+02  0.11924175634E+02  0.46142318311E+02  0.10000005016E+02 0.  0.
         12    1    1    2    0    0 -0.18953359223E+02 -0.39085772967E+02 -0.11924175634E+02  0.45045681689E+02  0.00000000000E+00 0. -1.
         11    1    3    3    0    0 -0.62257755532E-01  0.13489324874E+01 -0.29073572187E+00  0.13813118420E+01  0.51100000000E-03 0. -1.
        -11    1    3    3    0    0  0.86025307605E+01  0.21973630136E+02  0.31505894708E+01  0.23806935357E+02  0.51100000000E-03 0.  1.
        -12    1    3    3    0    0  0.10413086218E+02  0.15763210344E+02  0.90643218851E+01  0.20954071112E+02  0.00000000000E+00 0.  1.
</event>
<event>
 7    1  0.2097247E-008  0.4614232E+02  0.7816164E-02  0.1320468E+00
        -11   -1    0    0    0    0  0.00000000000E+00  0.00000000000E+00  0.45593999997E+02  0.45594000000E+02  0.51100000000E-03 0.  1.
         11   -1    0    0    0    0 -0.00000000000E+00 -0.00000000000E+00 -0.45593999997E+02  0.45594000000E+02  0.51100000000E-03 0. -1.
    9900012    2    1    2    0    0  0.16143631756E+02  0.23134112007E+02  0.35118506383E+02  0.46142317907E+02  0.10000001330E+02 0.  0.
         12    1    1    2    0    0 -0.16143631756E+02 -0.23134112007E+02 -0.35118506383E+02  0.45045682093E+02  0.00000000000E+00 0. -1.
         11    1    3    3    0    0 -0.27781249473E-01  0.27312237950E+01  0.59269286570E+01  0.65260124718E+01  0.51100000000E-03 0. -1.
        -11    1    3    3    0    0  0.14439014713E+02  0.19500048157E+02  0.24258597593E+02  0.34310589932E+02  0.51100000000E-03 0.  1.
        -12    1    3    3    0    0  0.17323982927E+01  0.90284005480E+00  0.49329801331E+01  0.53057155034E+01  0.00000000000E+00 0.  1.
</event>
<event>
 7    1  0.2976478E-008  0.4614232E+02  0.7816164E-02  0.1320468E+00
        -11   -1    0    0    0    0  0.00000000000E+00  0.00000000000E+00  0.45593999997E+02  0.45594000000E+02  0.51100000000E-03 0. -1.
         11   -1    0    0    0    0 -0.00000000000E+00 -0.00000000000E+00 -0.45593999997E+02  0.45594000000E+02  0.51100000000E-03 0.  1.
    9900012    2    1    2    0    0  0.14757237865E+02  0.23070583858E+02 -0.35764307450E+02  0.46142316563E+02  0.99999890744E+01 0.  0.
         12    1    1    2    0    0 -0.14757237865E+02 -0.23070583858E+02  0.35764307450E+02  0.45045683437E+02  0.00000000000E+00 0. -1.
         11    1    3    3    0    0  0.33647823669E+01  0.21506708427E+01 -0.20678793906E+01  0.44970291178E+01  0.51100000000E-03 0. -1.
        -11    1    3    3    0    0  0.58375785176E+01  0.54639934469E+01 -0.12337152130E+02  0.14701628150E+02  0.51100000000E-03 0.  1.
        -12    1    3    3    0    0  0.55548769802E+01  0.15455919569E+02 -0.21359275929E+02  0.26943659295E+02  0.00000000000E+00 0.  1.
</event>
<event>
 7    1  0.2097247E-008  0.4614232E+02  0.7816164E-02  0.1320468E+00
        -11   -1    0    0    0    0  0.00000000000E+00  0.00000000000E+00  0.45593999997E+02  0.45594000000E+02  0.51100000000E-03 0.  1.
         11   -1    0    0    0    0 -0.00000000000E+00 -0.00000000000E+00 -0.45593999997E+02  0.45594000000E+02  0.51100000000E-03 0. -1.
    9900012    2    1    2    0    0 -0.10925922261E-01  0.14408372909E+02  0.42679176374E+02  0.46142318462E+02  0.10000006394E+02 0.  0.
         12    1    1    2    0    0  0.10925922261E-01 -0.14408372909E+02 -0.42679176374E+02  0.45045681538E+02  0.00000000000E+00 0. -1.
         11    1    3    3    0    0  0.29334641451E+01  0.48437618669E+01  0.71618282911E+01  0.91301164093E+01  0.51100000000E-03 0. -1.
        -11    1    3    3    0    0 -0.33322293771E+01  0.68386801460E+01  0.24364144955E+02  0.25524162247E+02  0.51100000000E-03 0.  1.
         12    1    3    3    0    0  0.38783930971E+00  0.27259308963E+01  0.11153203127E+02  0.11488039806E+02  0.00000000000E+00 0. -1.
</event>
<event>
 7    1  0.2097247E-008  0.4614232E+02  0.7816164E-02  0.1320468E+00
        -11   -1    0    0    0    0  0.00000000000E+00  0.00000000000E+00  0.45593999997E+02  0.45594000000E+02  0.51100000000E-03 0.  1.
         11   -1    0    0    0    0 -0.00000000000E+00 -0.00000000000E+00 -0.45593999997E+02  0.45594000000E+02  0.51100000000E-03 0. -1.
    9900012    2    1    2    0    0 -0.19498723508E+02  0.20715449475E+02  0.34925398428E+02  0.46142317401E+02  0.99999967200E+01 0.  0.
         12    1    1    2    0    0  0.19498723508E+02 -0.20715449475E+02 -0.34925398428E+02  0.45045682599E+02  0.00000000000E+00 0. -1.
         11    1    3    3    0    0 -0.35894881226E+01  0.28138658833E+01  0.77174972328E+01  0.89644871571E+01  0.51100000000E-03 0. -1.
        -11    1    3    3    0    0 -0.48078481610E+01  0.46809836632E+01  0.13709638243E+02  0.15263721467E+02  0.51100000000E-03 0.  1.
         12    1    3    3    0    0 -0.11101387225E+02  0.13220599929E+02  0.13498262952E+02  0.21914108777E+02  0.00000000000E+00 0. -1.
</event>
<event>
 7    1  0.2097247E-008  0.4614232E+02  0.7816164E-02  0.1320468E+00
        -11   -1    0    0    0    0  0.00000000000E+00  0.00000000000E+00  0.45593999997E+02  0.45594000000E+02  0.51100000000E-03 0. -1.
         11   -1    0    0    0    0 -0.00000000000E+00 -0.00000000000E+00 -0.45593999997E+02  0.45594000000E+02  0.51100000000E-03 0.  1.
    9900012    2    1    2    0    0 -0.38622328196E+02  0.50268362751E+01 -0.22630954509E+02  0.46142318518E+02  0.10000006901E+02 0.  0.
         12    1    1    2    0    0  0.38622328196E+02 -0.50268362751E+01  0.22630954509E+02  0.45045681482E+02  0.00000000000E+00 0. -1.
         11    1    3    3    0    0 -0.16162432149E+02  0.45407172657E+01 -0.97732390099E+01  0.19425718192E+02  0.51100000000E-03 0. -1.
        -11    1    3    3    0    0 -0.20080999984E+02  0.25846330032E+01 -0.11160276777E+02  0.23118794651E+02  0.51100000000E-03 0.  1.
         12    1    3    3    0    0 -0.23788960621E+01 -0.20985139938E+01 -0.16974387226E+01  0.35978056748E+01  0.00000000000E+00 0. -1.
</event>
<event>
 7    1  0.2097247E-008  0.4614232E+02  0.7816164E-02  0.1320468E+00
        -11   -1    0    0    0    0  0.00000000000E+00  0.00000000000E+00  0.45593999997E+02  0.45594000000E+02  0.51100000000E-03 0. -1.
         11   -1    0    0    0    0 -0.00000000000E+00 -0.00000000000E+00 -0.45593999997E+02  0.45594000000E+02  0.51100000000E-03 0.  1.
    9900012    2    1    2    0    0 -0.69723048002E+01  0.42521533920E+02 -0.13130864496E+02  0.46142317815E+02  0.10000000490E+02 0.  0.
         12    1    1    2    0    0  0.69723048002E+01 -0.42521533920E+02  0.13130864496E+02  0.45045682185E+02  0.00000000000E+00 0. -1.
         11    1    3    3    0    0  0.50205785456E+00  0.96340672546E+01 -0.25340115023E+01  0.99743936412E+01  0.51100000000E-03 0. -1.
        -11    1    3    3    0    0  0.13528286583E+00  0.10116312645E+02 -0.58740302773E+01  0.11698816818E+02  0.51100000000E-03 0.  1.
        -12    1    3    3    0    0 -0.76096455206E+01  0.22771154020E+02 -0.47228227159E+01  0.24469107355E+02  0.00000000000E+00 0.  1.
</event>
<event>
 7    1  0.2097247E-008  0.4614231E+02  0.7816164E-02  0.1320468E+00
        -11   -1    0    0    0    0  0.00000000000E+00  0.00000000000E+00  0.45593999997E+02  0.45594000000E+02  0.51100000000E-03 0.  1.
         11   -1    0    0    0    0 -0.00000000000E+00 -0.00000000000E+00 -0.45593999997E+02  0.45594000000E+02  0.51100000000E-03 0. -1.
    9900012    2    1    2    0    0 -0.25449049629E+02 -0.44216132567E+01  0.36904051954E+02  0.46142313842E+02  0.99999642633E+01 0.  0.
         12    1    1    2    0    0  0.25449049629E+02  0.44216132567E+01 -0.36904051954E+02  0.45045686158E+02  0.00000000000E+00 0. -1.
         11    1    3    3    0    0 -0.68894546823E+01  0.11609981599E+01  0.10239989035E+02  0.12396365525E+02  0.51100000000E-03 0. -1.
        -11    1    3    3    0    0 -0.66475629771E+01 -0.17784725064E+01  0.42740178379E+01  0.81006349585E+01  0.51100000000E-03 0.  1.
        -12    1    3    3    0    0 -0.11912031969E+02 -0.38041389101E+01  0.22390045082E+02  0.25645313358E+02  0.00000000000E+00 0.  1.
</event>
<event>
 7    1  0.2097247E-008  0.4614232E+02  0.7816164E-02  0.1320468E+00
        -11   -1    0    0    0    0  0.00000000000E+00  0.00000000000E+00  0.45593999997E+02  0.45594000000E+02  0.51100000000E-03 0.  1.
         11   -1    0    0    0    0 -0.00000000000E+00 -0.00000000000E+00 -0.45593999997E+02  0.45594000000E+02  0.51100000000E-03 0. -1.
    9900012    2    1    2    0    0  0.22109567543E+02  0.38543018531E+02  0.73970418442E+01  0.46142317827E+02  0.10000000596E+02 0.  0.
         12    1    1    2    0    0 -0.22109567543E+02 -0.38543018531E+02 -0.73970418442E+01  0.45045682173E+02  0.00000000000E+00 0. -1.
         11    1    3    3    0    0  0.14285586623E+02  0.19184689788E+02  0.62663727826E+01  0.24726458209E+02  0.51100000000E-03 0. -1.
        -11    1    3    3    0    0  0.15768351979E+01  0.92158497347E+00 -0.46352842867E+00  0.18843001274E+01  0.51100000000E-03 0.  1.
        -12    1    3    3    0    0  0.62471457223E+01  0.18436743769E+02  0.15941974903E+01  0.19531559490E+02  0.00000000000E+00 0.  1.
</event>
<event>
 7    1  0.2097247E-008  0.4614231E+02  0.7816164E-02  0.1320468E+00
        -11   -1    0    0    0    0  0.00000000000E+00  0.00000000000E+00  0.45593999997E+02  0.45594000000E+02  0.51100000000E-03 0.  1.
         11   -1    0    0    0    0 -0.00000000000E+00 -0.00000000000E+00 -0.45593999997E+02  0.45594000000E+02  0.51100000000E-03 0. -1.
    9900012    2    1    2    0    0 -0.12779133945E+02  0.43066122210E+02 -0.33341732943E+01  0.46142313657E+02  0.99999625708E+01 0.  0.
         12    1    1    2    0    0  0.12779133945E+02 -0.43066122210E+02  0.33341732943E+01  0.45045686343E+02  0.00000000000E+00 0. -1.
         11    1    3    3    0    0 -0.44261895665E+01  0.46475446420E+01 -0.28578940494E+00  0.64243677605E+01  0.51100000000E-03 0. -1.
        -11    1    3    3    0    0 -0.31729333997E+01  0.14992349899E+02  0.11246435159E+01  0.15365639757E+02  0.51100000000E-03 0.  1.
        -12    1    3    3    0    0 -0.51800109793E+01  0.23426227669E+02 -0.41730274052E+01  0.24352306139E+02  0.00000000000E+00 0.  1.
</event>
<event>
 7    1  0.2097247E-008  0.4614232E+02  0.7816164E-02  0.1320468E+00
        -11   -1    0    0    0    0  0.00000000000E+00  0.00000000000E+00  0.45593999997E+02  0.45594000000E+02  0.51100000000E-03 0. -1.
         11   -1    0    0    0    0 -0.00000000000E+00 -0.00000000000E+00 -0.45593999997E+02  0.45594000000E+02  0.51100000000E-03 0.  1.
    9900012    2    1    2    0    0 -0.58602300033E+01 -0.19999863272E+02 -0.39934656310E+02  0.46142316508E+02  0.99999885766E+01 0.  0.
         12    1    1    2    0    0  0.58602300033E+01  0.19999863272E+02  0.39934656310E+02  0.45045683492E+02  0.00000000000E+00 0. -1.
         11    1    3    3    0    0 -0.13625858391E+01 -0.41258545217E+01 -0.48373102507E+01  0.65022216531E+01  0.51100000000E-03 0. -1.
        -11    1    3    3    0    0 -0.43874930491E+01 -0.37905371230E+01 -0.72458646111E+01  0.92801304495E+01  0.51100000000E-03 0.  1.
        -12    1    3    3    0    0 -0.11015111507E+00 -0.12083471628E+02 -0.27851481448E+02  0.30359964406E+02  0.00000000000E+00 0.  1.
</event>
<event>
 7    1  0.2097247E-008  0.4614232E+02  0.7816164E-02  0.1320468E+00
        -11   -1    0    0    0    0  0.00000000000E+00  0.00000000000E+00  0.45593999997E+02  0.45594000000E+02  0.51100000000E-03 0.  1.
         11   -1    0    0    0    0 -0.00000000000E+00 -0.00000000000E+00 -0.45593999997E+02  0.45594000000E+02  0.51100000000E-03 0. -1.
    9900012    2    1    2    0    0 -0.37191266927E+02  0.52075276694E-01  0.25414965097E+02  0.46142317650E+02  0.99999989888E+01 0.  0.
         12    1    1    2    0    0  0.37191266927E+02 -0.52075276694E-01 -0.25414965097E+02  0.45045682350E+02  0.00000000000E+00 0. -1.
         11    1    3    3    0    0 -0.12888239017E+02  0.35254266446E+01  0.90733009471E+01  0.16151164921E+02  0.51100000000E-03 0. -1.
        -11    1    3    3    0    0 -0.12932776616E+02  0.64875611105E+00  0.70824262072E+01  0.14759348113E+02  0.51100000000E-03 0.  1.
         12    1    3    3    0    0 -0.11370251294E+02 -0.41221074790E+01  0.92592379426E+01  0.15231804616E+02  0.00000000000E+00 0. -1.
</event>
<event>
 7    1  0.2097247E-008  0.4614232E+02  0.7816164E-02  0.1320468E+00
        -11   -1    0    0    0    0  0.00000000000E+00  0.00000000000E+00  0.45593999997E+02  0.45594000000E+02  0.51100000000E-03 0.  1.
         11   -1    0    0    0    0 -0.00000000000E+00 -0.00000000000E+00 -0.45593999997E+02  0.45594000000E+02  0.51100000000E-03 0. -1.
    9900012    2    1    2    0    0  0.45041613075E+02 -0.56891227225E+00 -0.20721848211E+00  0.46142317531E+02  0.99999979017E+01 0.  0.
         12    1    1    2    0    0 -0.45041613075E+02  0.56891227225E+00  0.20721848211E+00  0.45045682469E+02  0.00000000000E+00 0. -1.
         11    1    3    3    0    0  0.88684181233E+01  0.29585626696E+01  0.16136873025E+01  0.94871449894E+01  0.51100000000E-03 0. -1.
        -11    1    3    3    0    0  0.20494793813E+02 -0.16912620699E+01  0.11328562171E+01  0.20595637992E+02  0.51100000000E-03 0.  1.
         12    1    3    3    0    0  0.15678401139E+02 -0.18362128720E+01 -0.29537620017E+01  0.16059534550E+02  0.00000000000E+00 0. -1.
</event>
<event>
 7    1  0.2097247E-008  0.4614232E+02  0.7816164E-02  0.1320468E+00
        -11   -1    0    0    0    0  0.00000000000E+00  0.00000000000E+00  0.45593999997E+02  0.45594000000E+02  0.51100000000E-03 0. -1.
         11   -1    0    0    0    0 -0.00000000000E+00 -0.00000000000E+00 -0.45593999997E+02  0.45594000000E+02  0.51100000000E-03 0.  1.
    9900012    2    1    2    0    0 -0.75615075451E+01 -0.43583276220E+02 -0.85108791342E+01  0.46142318452E+02  0.10000006303E+02 0.  0.
         12    1    1    2    0    0  0.75615075451E+01  0.43583276220E+02  0.85108791342E+01  0.45045681548E+02  0.00000000000E+00 0. -1.
         11    1    3    3    0    0  0.78010540072E+00 -0.12051543134E+02 -0.99249547257E+00  0.12117479271E+02  0.51100000000E-03 0. -1.
        -11    1    3    3    0    0 -0.81924979005E+01 -0.30920155314E+02 -0.62260859437E+01  0.32587377509E+02  0.51100000000E-03 0.  1.
        -12    1    3    3    0    0 -0.14911504538E+00 -0.61157777229E+00 -0.12922977179E+01  0.14374616725E+01  0.00000000000E+00 0.  1.
</event>
<event>
 7    1  0.2097247E-008  0.4614232E+02  0.7816164E-02  0.1320468E+00
        -11   -1    0    0    0    0  0.00000000000E+00  0.00000000000E+00  0.45593999997E+02  0.45594000000E+02  0.51100000000E-03 0.  1.
         11   -1    0    0    0    0 -0.00000000000E+00 -0.00000000000E+00 -0.45593999997E+02  0.45594000000E+02  0.51100000000E-03 0. -1.
    9900012    2    1    2    0    0 -0.43785655087E+02  0.88382657870E+01 -0.58150556245E+01  0.46142318682E+02  0.10000008394E+02 0.  0.
         12    1    1    2    0    0  0.43785655087E+02 -0.88382657870E+01  0.58150556245E+01  0.45045681318E+02  0.00000000000E+00 0. -1.
         11    1    3    3    0    0 -0.28861228345E+02  0.30400496752E+01  0.75294991064E-01  0.29020993664E+02  0.51100000000E-03 0. -1.
        -11    1    3    3    0    0 -0.45769538844E+01  0.10798296776E+01 -0.16327672969E+01  0.49779984230E+01  0.51100000000E-03 0.  1.
         12    1    3    3    0    0 -0.10347472857E+02  0.47183864342E+01 -0.42575833186E+01  0.12143326595E+02  0.00000000000E+00 0. -1.
</event>
<event>
 7    1  0.2097247E-008  0.4614231E+02  0.7816164E-02  0.1320468E+00
        -11   -1    0    0    0    0  0.00000000000E+00  0.00000000000E+00  0.45593999997E+02  0.45594000000E+02  0.51100000000E-03 0. -1.
         11   -1    0    0    0    0 -0.00000000000E+00 -0.00000000000E+00 -0.45593999997E+02  0.45594000000E+02  0.51100000000E-03 0.  1.
    9900012    2    1    2    0    0  0.27461311828E+02  0.31653761940E+02  0.16523604458E+02  0.46142314340E+02  0.99999688060E+01 0.  0.
         12    1    1    2    0    0 -0.27461311828E+02 -0.31653761940E+02 -0.16523604458E+02  0.45045685660E+02  0.00000000000E+00 0. -1.
         11    1    3    3    0    0  0.31798743411E+01  0.75171981503E+01  0.62325449519E+01  0.10269590337E+02  0.51100000000E-03 0. -1.
        -11    1    3    3    0    0  0.11311571116E+02  0.13148578866E+02  0.45610619695E+01  0.17934326133E+02  0.51100000000E-03 0.  1.
         12    1    3    3    0    0  0.12969866371E+02  0.10987984924E+02  0.57299975371E+01  0.17938397870E+02  0.00000000000E+00 0. -1.
</event>
<event>
 7    1  0.2097247E-008  0.4614232E+02  0.7816164E-02  0.1320468E+00
        -11   -1    0    0    0    0  0.00000000000E+00  0.00000000000E+00  0.45593999997E+02  0.45594000000E+02  0.51100000000E-03 0. -1.
         11   -1    0    0    0    0 -0.00000000000E+00 -0.00000000000E+00 -0.45593999997E+02  0.45594000000E+02  0.51100000000E-03 0.  1.
    9900012    2    1    2    0    0  0.20794669044E+02 -0.12358434982E+02 -0.37999531062E+02  0.46142317224E+02  0.99999950999E+01 0.  0.
         12    1    1    2    0    0 -0.20794669044E+02  0.12358434982E+02  0.37999531062E+02  0.45045682776E+02  0.00000000000E+00 0. -1.
         11    1    3    3    0    0  0.11973418071E+02 -0.10460828501E+02 -0.18501516754E+02  0.24394626369E+02  0.51100000000E-03 0. -1.
        -11    1    3    3    0    0  0.61003963415E+01 -0.27228313836E+01 -0.15084894663E+02  0.16497960283E+02  0.51100000000E-03 0.  1.
        -12    1    3    3    0    0  0.27208546316E+01  0.82522490307E+00 -0.44131196454E+01  0.52497305713E+01  0.00000000000E+00 0.  1.
</event>
<event>
 7    1  0.2097247E-008  0.4614232E+02  0.7816164E-02  0.1320468E+00
        -11   -1    0    0    0    0  0.00000000000E+00  0.00000000000E+00  0.45593999997E+02  0.45594000000E+02  0.51100000000E-03 0.  1.
         11   -1    0    0    0    0 -0.00000000000E+00 -0.00000000000E+00 -0.45593999997E+02  0.45594000000E+02  0.51100000000E-03 0. -1.
    9900012    2    1    2    0    0  0.31602197834E+02 -0.65809426072E+01  0.31418239955E+02  0.46142317461E+02  0.99999972614E+01 0.  0.
         12    1    1    2    0    0 -0.31602197834E+02  0.65809426072E+01 -0.31418239955E+02  0.45045682539E+02  0.00000000000E+00 0. -1.
         11    1    3    3    0    0  0.14476383054E+02 -0.22054386359E+01  0.17995513892E+02  0.23200606596E+02  0.51100000000E-03 0.  1.
        -11    1    3    3    0    0  0.84750217065E+01 -0.51512465032E+01  0.69904703345E+01  0.12133754951E+02  0.51100000000E-03 0. -1.
         12    1    3    3    0    0  0.86507930731E+01  0.77574253192E+00  0.64322557288E+01  0.10807955914E+02  0.00000000000E+00 0. -1.
</event>
<event>
 7    1  0.2097247E-008  0.4614232E+02  0.7816164E-02  0.1320468E+00
        -11   -1    0    0    0    0  0.00000000000E+00  0.00000000000E+00  0.45593999997E+02  0.45594000000E+02  0.51100000000E-03 0. -1.
         11   -1    0    0    0    0 -0.00000000000E+00 -0.00000000000E+00 -0.45593999997E+02  0.45594000000E+02  0.51100000000E-03 0.  1.
    9900012    2    1    2    0    0  0.14920837775E+02  0.38261154196E+01 -0.42330166035E+02  0.46142317458E+02  0.99999972399E+01 0.  0.
         12    1    1    2    0    0 -0.14920837775E+02 -0.38261154196E+01  0.42330166035E+02  0.45045682542E+02  0.00000000000E+00 0. -1.
         11    1    3    3    0    0  0.18284648194E+01 -0.16266112647E+01 -0.20383589812E+01  0.31849733751E+01  0.51100000000E-03 0. -1.
        -11    1    3    3    0    0  0.38715920592E+01  0.15503761790E+01 -0.18664654866E+02  0.19124911318E+02  0.51100000000E-03 0.  1.
        -12    1    3    3    0    0  0.92207808965E+01  0.39023505054E+01 -0.21627152187E+02  0.23832432766E+02  0.00000000000E+00 0.  1.
</event>
<event>
 7    1  0.2097247E-008  0.4614232E+02  0.7816164E-02  0.1320468E+00
        -11   -1    0    0    0    0  0.00000000000E+00  0.00000000000E+00  0.45593999997E+02  0.45594000000E+02  0.51100000000E-03 0.  1.
         11   -1    0    0    0    0 -0.00000000000E+00 -0.00000000000E+00 -0.45593999997E+02  0.45594000000E+02  0.51100000000E-03 0. -1.
    9900012    2    1    2    0    0 -0.25173444973E+02 -0.18630551204E+02  0.32377670066E+02  0.46142319975E+02  0.10000020190E+02 0.  0.
         12    1    1    2    0    0  0.25173444973E+02  0.18630551204E+02 -0.32377670066E+02  0.45045680025E+02  0.00000000000E+00 0. -1.
         11    1    3    3    0    0 -0.99216902973E+01 -0.50641628495E+01  0.90628967566E+01  0.14360424144E+02  0.51100000000E-03 0. -1.
        -11    1    3    3    0    0 -0.15497784713E+02 -0.14104328729E+02  0.22253075720E+02  0.30566530702E+02  0.51100000000E-03 0.  1.
         12    1    3    3    0    0  0.24603003725E+00  0.53794037399E+00  0.10616975893E+01  0.12153651288E+01  0.00000000000E+00 0. -1.
</event>
<event>
 7    1  0.2097247E-008  0.4614232E+02  0.7816164E-02  0.1320468E+00
        -11   -1    0    0    0    0  0.00000000000E+00  0.00000000000E+00  0.45593999997E+02  0.45594000000E+02  0.51100000000E-03 0.  1.
         11   -1    0    0    0    0 -0.00000000000E+00 -0.00000000000E+00 -0.45593999997E+02  0.45594000000E+02  0.51100000000E-03 0. -1.
    9900012    2    1    2    0    0 -0.25044907975E+02 -0.30839330487E+02  0.21232094326E+02  0.46142317079E+02  0.99999937764E+01 0.  0.
         12    1    1    2    0    0  0.25044907975E+02  0.30839330487E+02 -0.21232094326E+02  0.45045682921E+02  0.00000000000E+00 0. -1.
         11    1    3    3    0    0 -0.28910812823E+01 -0.40283336827E+00  0.12978255599E+01  0.31945229923E+01  0.51100000000E-03 0. -1.
        -11    1    3    3    0    0 -0.55558079745E+01 -0.10183668146E+02  0.84654906562E+01  0.14361010809E+02  0.51100000000E-03 0.  1.
         12    1    3    3    0    0 -0.16598018718E+02 -0.20252828973E+02  0.11468778110E+02  0.28586783277E+02  0.00000000000E+00 0. -1.
</event>
<event>
 7    1  0.2097247E-008  0.4614232E+02  0.7816164E-02  0.1320468E+00
        -11   -1    0    0    0    0  0.00000000000E+00  0.00000000000E+00  0.45593999997E+02  0.45594000000E+02  0.51100000000E-03 0.  1.
         11   -1    0    0    0    0 -0.00000000000E+00 -0.00000000000E+00 -0.45593999997E+02  0.45594000000E+02  0.51100000000E-03 0. -1.
    9900012    2    1    2    0    0 -0.27969318540E+02 -0.33395123644E+02  0.11471550079E+02  0.46142317365E+02  0.99999963918E+01 0.  0.
         12    1    1    2    0    0  0.27969318540E+02  0.33395123644E+02 -0.11471550079E+02  0.45045682635E+02  0.00000000000E+00 0. -1.
         11    1    3    3    0    0 -0.81397951699E+01 -0.56340922274E+01  0.36989094918E+00  0.99063656408E+01  0.51100000000E-03 0. -1.
        -11    1    3    3    0    0 -0.15781233501E+01 -0.26227456578E+01 -0.44732707392E+00  0.30934398112E+01  0.51100000000E-03 0.  1.
        -12    1    3    3    0    0 -0.18251400020E+02 -0.25138285759E+02  0.11548986204E+02  0.33142511913E+02  0.00000000000E+00 0.  1.
</event>
<event>
 7    1  0.2097247E-008  0.4614231E+02  0.7816164E-02  0.1320468E+00
        -11   -1    0    0    0    0  0.00000000000E+00  0.00000000000E+00  0.45593999997E+02  0.45594000000E+02  0.51100000000E-03 0.  1.
         11   -1    0    0    0    0 -0.00000000000E+00 -0.00000000000E+00 -0.45593999997E+02  0.45594000000E+02  0.51100000000E-03 0. -1.
    9900012    2    1    2    0    0  0.15398379922E+02  0.28736963680E+02  0.31083606736E+02  0.46142314375E+02  0.99999691184E+01 0.  0.
         12    1    1    2    0    0 -0.15398379922E+02 -0.28736963680E+02 -0.31083606736E+02  0.45045685625E+02  0.00000000000E+00 0. -1.
         11    1    3    3    0    0  0.14039197713E+01  0.96318240438E+01  0.53247142097E+01  0.11094845957E+02  0.51100000000E-03 0. -1.
        -11    1    3    3    0    0  0.10912640741E+02  0.16093743303E+02  0.20646361965E+02  0.28361356880E+02  0.51100000000E-03 0.  1.
         12    1    3    3    0    0  0.30818194091E+01  0.30113963331E+01  0.51125305615E+01  0.66861115371E+01  0.00000000000E+00 0. -1.
</event>
<event>
 7    1  0.2097247E-008  0.4614232E+02  0.7816164E-02  0.1320468E+00
        -11   -1    0    0    0    0  0.00000000000E+00  0.00000000000E+00  0.45593999997E+02  0.45594000000E+02  0.51100000000E-03 0.  1.
         11   -1    0    0    0    0 -0.00000000000E+00 -0.00000000000E+00 -0.45593999997E+02  0.45594000000E+02  0.51100000000E-03 0. -1.
    9900012    2    1    2    0    0  0.28659789552E+02  0.20615171069E+02  0.27977575149E+02  0.46142317337E+02  0.99999961355E+01 0.  0.
         12    1    1    2    0    0 -0.28659789552E+02 -0.20615171069E+02 -0.27977575149E+02  0.45045682663E+02  0.00000000000E+00 0. -1.
         11    1    3    3    0    0  0.95658143590E+00  0.98539521430E+00 -0.46935634741E+00  0.14513260880E+01  0.51100000000E-03 0. -1.
        -11    1    3    3    0    0  0.71418514484E+01  0.64014832668E+01  0.11336804817E+02  0.14849517630E+02  0.51100000000E-03 0.  1.
         12    1    3    3    0    0  0.20561356668E+02  0.13228292588E+02  0.17110126679E+02  0.29841473619E+02  0.00000000000E+00 0. -1.
</event>
<event>
 7    1  0.2097247E-008  0.4614232E+02  0.7816164E-02  0.1320468E+00
        -11   -1    0    0    0    0  0.00000000000E+00  0.00000000000E+00  0.45593999997E+02  0.45594000000E+02  0.51100000000E-03 0.  1.
         11   -1    0    0    0    0 -0.00000000000E+00 -0.00000000000E+00 -0.45593999997E+02  0.45594000000E+02  0.51100000000E-03 0. -1.
    9900012    2    1    2    0    0  0.13017437025E+02  0.16817756966E+02  0.39709228707E+02  0.46142318070E+02  0.10000002815E+02 0.  0.
         12    1    1    2    0    0 -0.13017437025E+02 -0.16817756966E+02 -0.39709228707E+02  0.45045681930E+02  0.00000000000E+00 0. -1.
         11    1    3    3    0    0  0.48418590052E+00  0.10118267554E+00  0.42398540967E+01  0.42686106572E+01  0.51100000000E-03 0. -1.
        -11    1    3    3    0    0  0.13366220919E+02  0.15598147112E+02  0.34575767470E+02  0.40217430940E+02  0.51100000000E-03 0.  1.
        -12    1    3    3    0    0 -0.83296979541E+00  0.11184271783E+01  0.89360714048E+00  0.16562764729E+01  0.00000000000E+00 0.  1.
</event>
<event>
 7    1  0.2097247E-008  0.4614232E+02  0.7816164E-02  0.1320468E+00
        -11   -1    0    0    0    0  0.00000000000E+00  0.00000000000E+00  0.45593999997E+02  0.45594000000E+02  0.51100000000E-03 0.  1.
         11   -1    0    0    0    0 -0.00000000000E+00 -0.00000000000E+00 -0.45593999997E+02  0.45594000000E+02  0.51100000000E-03 0. -1.
    9900012    2    1    2    0    0 -0.39234752816E+02 -0.21657082298E+02 -0.45517559185E+01  0.46142317364E+02  0.99999963757E+01 0.  0.
         12    1    1    2    0    0  0.39234752816E+02  0.21657082298E+02  0.45517559185E+01  0.45045682636E+02  0.00000000000E+00 0. -1.
         11    1    3    3    0    0 -0.20532533826E+02 -0.70767929276E+01 -0.15002273229E+01  0.21769626219E+02  0.51100000000E-03 0.  1.
        -11    1    3    3    0    0 -0.79421673460E+01 -0.73426203581E+01 -0.35823180978E+01  0.11394081757E+02  0.51100000000E-03 0. -1.
         12    1    3    3    0    0 -0.10760051645E+02 -0.72376690125E+01  0.53078950223E+00  0.12978609387E+02  0.00000000000E+00 0. -1.
</event>
<event>
 7    1  0.2097247E-008  0.4614232E+02  0.7816164E-02  0.1320468E+00
        -11   -1    0    0    0    0  0.00000000000E+00  0.00000000000E+00  0.45593999997E+02  0.45594000000E+02  0.51100000000E-03 0. -1.
         11   -1    0    0    0    0 -0.00000000000E+00 -0.00000000000E+00 -0.45593999997E+02  0.45594000000E+02  0.51100000000E-03 0.  1.
    9900012    2    1    2    0    0  0.18495800766E+02 -0.27332627357E+02 -0.30658540467E+02  0.46142320209E+02  0.10000022326E+02 0.  0.
         12    1    1    2    0    0 -0.18495800766E+02  0.27332627357E+02  0.30658540467E+02  0.45045679791E+02  0.00000000000E+00 0. -1.
         11    1    3    3    0    0 -0.26983037967E+00 -0.13881959132E+00 -0.29661564895E+00  0.42433526491E+00  0.51100000000E-03 0. -1.
        -11    1    3    3    0    0  0.26699942708E+01 -0.20173618037E+01 -0.34681474255E+00  0.33643571124E+01  0.51100000000E-03 0.  1.
        -12    1    3    3    0    0  0.16095636875E+02 -0.25176445962E+02 -0.30015110076E+02  0.42353627832E+02  0.00000000000E+00 0.  1.
</event>
<event>
 7    1  0.2097247E-008  0.4614232E+02  0.7816164E-02  0.1320468E+00
        -11   -1    0    0    0    0  0.00000000000E+00  0.00000000000E+00  0.45593999997E+02  0.45594000000E+02  0.51100000000E-03 0.  1.
         11   -1    0    0    0    0 -0.00000000000E+00 -0.00000000000E+00 -0.45593999997E+02  0.45594000000E+02  0.51100000000E-03 0. -1.
    9900012    2    1    2    0    0  0.23076084126E+02  0.18289307951E+02  0.34089715149E+02  0.46142321818E+02  0.10000036995E+02 0.  0.
         12    1    1    2    0    0 -0.23076084126E+02 -0.18289307951E+02 -0.34089715149E+02  0.45045678182E+02  0.00000000000E+00 0. -1.
         11    1    3    3    0    0  0.68262621454E+00  0.26815020497E+01  0.92090254777E+00  0.29162464839E+01  0.51100000000E-03 0. -1.
        -11    1    3    3    0    0  0.73108676044E+01  0.79003325841E+01  0.13626572465E+02  0.17365123595E+02  0.51100000000E-03 0.  1.
         12    1    3    3    0    0  0.15082590308E+02  0.77074733170E+01  0.19542240137E+02  0.25860951739E+02  0.00000000000E+00 0. -1.
</event>
<event>
 7    1  0.2097247E-008  0.4614232E+02  0.7816164E-02  0.1320468E+00
        -11   -1    0    0    0    0  0.00000000000E+00  0.00000000000E+00  0.45593999997E+02  0.45594000000E+02  0.51100000000E-03 0.  1.
         11   -1    0    0    0    0 -0.00000000000E+00 -0.00000000000E+00 -0.45593999997E+02  0.45594000000E+02  0.51100000000E-03 0. -1.
    9900012    2    1    2    0    0  0.23647855092E+02 -0.35589215354E+02  0.14258337803E+02  0.46142317667E+02  0.99999991442E+01 0.  0.
         12    1    1    2    0    0 -0.23647855092E+02  0.35589215354E+02 -0.14258337803E+02  0.45045682333E+02  0.00000000000E+00 0. -1.
         11    1    3    3    0    0  0.72592914393E+00 -0.10858739241E+01  0.17621310650E+01  0.21934451104E+01  0.51100000000E-03 0. -1.
        -11    1    3    3    0    0  0.20648939824E+02 -0.29916707424E+02  0.13416634320E+02  0.38747828012E+02  0.51100000000E-03 0.  1.
        -12    1    3    3    0    0  0.22729861240E+01 -0.45866340055E+01 -0.92042758203E+00  0.52010445445E+01  0.00000000000E+00 0.  1.
</event>
<event>
 7    1  0.2097247E-008  0.4614232E+02  0.7816164E-02  0.1320468E+00
        -11   -1    0    0    0    0  0.00000000000E+00  0.00000000000E+00  0.45593999997E+02  0.45594000000E+02  0.51100000000E-03 0.  1.
         11   -1    0    0    0    0 -0.00000000000E+00 -0.00000000000E+00 -0.45593999997E+02  0.45594000000E+02  0.51100000000E-03 0. -1.
    9900012    2    1    2    0    0  0.27575351943E+01 -0.42449103802E+02  0.14818337887E+02  0.46142317059E+02  0.99999935948E+01 0.  0.
         12    1    1    2    0    0 -0.27575351943E+01  0.42449103802E+02 -0.14818337887E+02  0.45045682941E+02  0.00000000000E+00 0. -1.
         11    1    3    3    0    0  0.22023643695E+01 -0.13985142095E+02  0.56082326657E+01  0.15227832483E+02  0.51100000000E-03 0. -1.
        -11    1    3    3    0    0  0.67358586186E+00 -0.28827697791E+02  0.95770968073E+01  0.30384381865E+02  0.51100000000E-03 0.  1.
         12    1    3    3    0    0 -0.11841503697E+00  0.36373608366E+00 -0.36699158614E+00  0.53010271065E+00  0.00000000000E+00 0. -1.
</event>
<event>
 7    1  0.2097247E-008  0.4614232E+02  0.7816164E-02  0.1320468E+00
        -11   -1    0    0    0    0  0.00000000000E+00  0.00000000000E+00  0.45593999997E+02  0.45594000000E+02  0.51100000000E-03 0.  1.
         11   -1    0    0    0    0 -0.00000000000E+00 -0.00000000000E+00 -0.45593999997E+02  0.45594000000E+02  0.51100000000E-03 0. -1.
    9900012    2    1    2    0    0  0.41136088378E+02  0.70905112769E+01  0.16931042548E+02  0.46142319641E+02  0.10000017141E+02 0.  0.
         12    1    1    2    0    0 -0.41136088378E+02 -0.70905112769E+01 -0.16931042548E+02  0.45045680359E+02  0.00000000000E+00 0. -1.
         11    1    3    3    0    0  0.12187655017E+02 -0.60628599338E+00  0.14526564400E+01  0.12288886383E+02  0.51100000000E-03 0. -1.
        -11    1    3    3    0    0  0.24533325990E+02  0.55817680417E+01  0.12204803381E+02  0.27964217215E+02  0.51100000000E-03 0.  1.
         12    1    3    3    0    0  0.44151073706E+01  0.21150292286E+01  0.32735827275E+01  0.58892160434E+01  0.00000000000E+00 0. -1.
</event>
<event>
 7    1  0.2097247E-008  0.4614232E+02  0.7816164E-02  0.1320468E+00
        -11   -1    0    0    0    0  0.00000000000E+00  0.00000000000E+00  0.45593999997E+02  0.45594000000E+02  0.51100000000E-03 0.  1.
         11   -1    0    0    0    0 -0.00000000000E+00 -0.00000000000E+00 -0.45593999997E+02  0.45594000000E+02  0.51100000000E-03 0. -1.
    9900012    2    1    2    0    0 -0.10851718013E+02 -0.28510264910E+02  0.33143907089E+02  0.46142316898E+02  0.99999921263E+01 0.  0.
         12    1    1    2    0    0  0.10851718013E+02  0.28510264910E+02 -0.33143907089E+02  0.45045683102E+02  0.00000000000E+00 0. -1.
         11    1    3    3    0    0 -0.29783637106E+01 -0.77955180383E+01  0.12286198777E+02  0.14852320779E+02  0.51100000000E-03 0.  1.
        -11    1    3    3    0    0 -0.49810496786E+01 -0.13974199773E+02  0.90146872206E+01  0.17359542077E+02  0.51100000000E-03 0. -1.
         12    1    3    3    0    0 -0.28923046239E+01 -0.67405470984E+01  0.11843021091E+02  0.13930454041E+02  0.00000000000E+00 0. -1.
</event>
<event>
 7    1  0.2097247E-008  0.4614232E+02  0.7816164E-02  0.1320468E+00
        -11   -1    0    0    0    0  0.00000000000E+00  0.00000000000E+00  0.45593999997E+02  0.45594000000E+02  0.51100000000E-03 0.  1.
         11   -1    0    0    0    0 -0.00000000000E+00 -0.00000000000E+00 -0.45593999997E+02  0.45594000000E+02  0.51100000000E-03 0. -1.
    9900012    2    1    2    0    0  0.16105605237E+02 -0.74563944864E+01  0.41401995263E+02  0.46142317071E+02  0.99999937067E+01 0.  0.
         12    1    1    2    0    0 -0.16105605237E+02  0.74563944864E+01 -0.41401995263E+02  0.45045682929E+02  0.00000000000E+00 0. -1.
         11    1    3    3    0    0  0.42524795042E+01 -0.30844575255E+01  0.50908116889E+01  0.73153143523E+01  0.51100000000E-03 0. -1.
        -11    1    3    3    0    0  0.99097535692E+01 -0.50824914071E+01  0.25597854726E+02  0.27915678418E+02  0.51100000000E-03 0.  1.
         12    1    3    3    0    0  0.19433721638E+01  0.71055444615E+00  0.10713328848E+02  0.10911324300E+02  0.00000000000E+00 0. -1.
</event>
<event>
 7    1  0.2097247E-008  0.4614232E+02  0.7816164E-02  0.1320468E+00
        -11   -1    0    0    0    0  0.00000000000E+00  0.00000000000E+00  0.45593999997E+02  0.45594000000E+02  0.51100000000E-03 0.  1.
         11   -1    0    0    0    0 -0.00000000000E+00 -0.00000000000E+00 -0.45593999997E+02  0.45594000000E+02  0.51100000000E-03 0. -1.
    9900012    2    1    2    0    0  0.30229854645E+01 -0.42661176895E+02  0.14142105701E+02  0.46142316424E+02  0.99999878085E+01 0.  0.
         12    1    1    2    0    0 -0.30229854645E+01  0.42661176895E+02 -0.14142105701E+02  0.45045683576E+02  0.00000000000E+00 0. -1.
         11    1    3    3    0    0  0.16961906658E+01 -0.59963961973E+01  0.33102707930E+01  0.70563250431E+01  0.51100000000E-03 0. -1.
        -11    1    3    3    0    0  0.32682953823E+01 -0.30968377501E+02  0.11106091327E+02  0.33061570207E+02  0.51100000000E-03 0.  1.
        -12    1    3    3    0    0 -0.19415005837E+01 -0.56964031967E+01 -0.27425641958E+00  0.60244211738E+01  0.00000000000E+00 0.  1.
</event>
<event>
 7    1  0.2097247E-008  0.4614232E+02  0.7816164E-02  0.1320468E+00
        -11   -1    0    0    0    0  0.00000000000E+00  0.00000000000E+00  0.45593999997E+02  0.45594000000E+02  0.51100000000E-03 0.  1.
         11   -1    0    0    0    0 -0.00000000000E+00 -0.00000000000E+00 -0.45593999997E+02  0.45594000000E+02  0.51100000000E-03 0. -1.
    9900012    2    1    2    0    0  0.41362779272E+02  0.59166445166E+01 -0.16829357901E+02  0.46142317868E+02  0.10000000972E+02 0.  0.
         12    1    1    2    0    0 -0.41362779272E+02 -0.59166445166E+01  0.16829357901E+02  0.45045682132E+02  0.00000000000E+00 0. -1.
         11    1    3    3    0    0  0.50696174304E+01 -0.11114084448E+01 -0.21124589812E+01  0.56034572212E+01  0.51100000000E-03 0. -1.
        -11    1    3    3    0    0  0.21826982325E+02  0.80321881643E+01 -0.96044758477E+01  0.25163051498E+02  0.51100000000E-03 0.  1.
         12    1    3    3    0    0  0.14466179516E+02 -0.10041352028E+01 -0.51124230720E+01  0.15375809148E+02  0.00000000000E+00 0. -1.
</event>
<event>
 7    1  0.2097247E-008  0.4614232E+02  0.7816164E-02  0.1320468E+00
        -11   -1    0    0    0    0  0.00000000000E+00  0.00000000000E+00  0.45593999997E+02  0.45594000000E+02  0.51100000000E-03 0.  1.
         11   -1    0    0    0    0 -0.00000000000E+00 -0.00000000000E+00 -0.45593999997E+02  0.45594000000E+02  0.51100000000E-03 0. -1.
    9900012    2    1    2    0    0 -0.36415192778E+02  0.19618321519E+02 -0.17837283899E+02  0.46142317619E+02  0.99999987058E+01 0.  0.
         12    1    1    2    0    0  0.36415192778E+02 -0.19618321519E+02  0.17837283899E+02  0.45045682381E+02  0.00000000000E+00 0. -1.
         11    1    3    3    0    0 -0.34027716676E+01  0.21245249290E+01  0.31447854362E+00  0.40238486814E+01  0.51100000000E-03 0. -1.
        -11    1    3    3    0    0 -0.18306506916E+02  0.66803484590E+01 -0.68854671605E+01  0.20667968194E+02  0.51100000000E-03 0.  1.
        -12    1    3    3    0    0 -0.14705914195E+02  0.10813448131E+02 -0.11266295282E+02  0.21450500744E+02  0.00000000000E+00 0.  1.
</event>
<event>
 7    1  0.2097247E-008  0.4614232E+02  0.7816164E-02  0.1320468E+00
        -11   -1    0    0    0    0  0.00000000000E+00  0.00000000000E+00  0.45593999997E+02  0.45594000000E+02  0.51100000000E-03 0. -1.
         11   -1    0    0    0    0 -0.00000000000E+00 -0.00000000000E+00 -0.45593999997E+02  0.45594000000E+02  0.51100000000E-03 0.  1.
    9900012    2    1    2    0    0  0.42358432231E+02 -0.12651010461E+02 -0.86503575860E+01  0.46142317264E+02  0.99999954687E+01 0.  0.
         12    1    1    2    0    0 -0.42358432231E+02  0.12651010461E+02  0.86503575860E+01  0.45045682736E+02  0.00000000000E+00 0. -1.
         11    1    3    3    0    0  0.34690639565E+01 -0.25805797192E+01 -0.13817295101E+01  0.45390498038E+01  0.51100000000E-03 0. -1.
        -11    1    3    3    0    0  0.30762676594E+02 -0.73445523506E+01 -0.89478585164E+01  0.32868661256E+02  0.51100000000E-03 0.  1.
         12    1    3    3    0    0  0.81266916804E+01 -0.27258783906E+01  0.16792304405E+01  0.87346062041E+01  0.00000000000E+00 0. -1.
</event>
<event>
 7    1  0.2097247E-008  0.4614232E+02  0.7816164E-02  0.1320468E+00
        -11   -1    0    0    0    0  0.00000000000E+00  0.00000000000E+00  0.45593999997E+02  0.45594000000E+02  0.51100000000E-03 0.  1.
         11   -1    0    0    0    0 -0.00000000000E+00 -0.00000000000E+00 -0.45593999997E+02  0.45594000000E+02  0.51100000000E-03 0. -1.
    9900012    2    1    2    0    0  0.24802939314E+02 -0.17715126000E+02  0.33167785705E+02  0.46142317672E+02  0.99999991840E+01 0.  0.
         12    1    1    2    0    0 -0.24802939314E+02  0.17715126000E+02 -0.33167785705E+02  0.45045682328E+02  0.00000000000E+00 0. -1.
         11    1    3    3    0    0  0.28132379266E+01  0.13501239432E-01  0.63964834489E+01  0.69878101497E+01  0.51100000000E-03 0.  1.
        -11    1    3    3    0    0  0.28839294023E+01 -0.43605655623E+01  0.42704000550E+01  0.67503998186E+01  0.51100000000E-03 0. -1.
        -12    1    3    3    0    0  0.19105771986E+02 -0.13368061677E+02  0.22500902202E+02  0.32404107703E+02  0.00000000000E+00 0.  1.
</event>
<event>
 7    1  0.2097247E-008  0.4614232E+02  0.7816164E-02  0.1320468E+00
        -11   -1    0    0    0    0  0.00000000000E+00  0.00000000000E+00  0.45593999997E+02  0.45594000000E+02  0.51100000000E-03 0.  1.
         11   -1    0    0    0    0 -0.00000000000E+00 -0.00000000000E+00 -0.45593999997E+02  0.45594000000E+02  0.51100000000E-03 0. -1.
    9900012    2    1    2    0    0  0.27981056686E+01  0.43969791697E+02  0.93777160287E+01  0.46142317242E+02  0.99999952682E+01 0.  0.
         12    1    1    2    0    0 -0.27981056686E+01 -0.43969791697E+02 -0.93777160287E+01  0.45045682758E+02  0.00000000000E+00 0. -1.
         11    1    3    3    0    0  0.29310224457E+01  0.29492907464E+02  0.62593681076E+01  0.30291948974E+02  0.51100000000E-03 0. -1.
        -11    1    3    3    0    0 -0.23918406430E+01  0.85773233653E+01  0.33881207610E+01  0.95273679643E+01  0.51100000000E-03 0.  1.
         12    1    3    3    0    0  0.22589238659E+01  0.58995608678E+01 -0.26977283987E+00  0.63230003044E+01  0.00000000000E+00 0. -1.
</event>
<event>
 7    1  0.2097247E-008  0.4614232E+02  0.7816164E-02  0.1320468E+00
        -11   -1    0    0    0    0  0.00000000000E+00  0.00000000000E+00  0.45593999997E+02  0.45594000000E+02  0.51100000000E-03 0.  1.
         11   -1    0    0    0    0 -0.00000000000E+00 -0.00000000000E+00 -0.45593999997E+02  0.45594000000E+02  0.51100000000E-03 0. -1.
    9900012    2    1    2    0    0  0.18183573548E+02 -0.10309952187E+02  0.39902079859E+02  0.46142318319E+02  0.10000005084E+02 0.  0.
         12    1    1    2    0    0 -0.18183573548E+02  0.10309952187E+02 -0.39902079859E+02  0.45045681681E+02  0.00000000000E+00 0. -1.
         11    1    3    3    0    0  0.33936792753E+01 -0.20346036273E+01  0.11845325838E+02  0.12488731538E+02  0.51100000000E-03 0. -1.
        -11    1    3    3    0    0  0.87588912332E+01 -0.45711191554E+01  0.22764498931E+02  0.24816037512E+02  0.51100000000E-03 0.  1.
         12    1    3    3    0    0  0.60310030394E+01 -0.37042294047E+01  0.52922550892E+01  0.88375492685E+01  0.00000000000E+00 0. -1.
</event>
<event>
 7    1  0.2097247E-008  0.4614232E+02  0.7816164E-02  0.1320468E+00
        -11   -1    0    0    0    0  0.00000000000E+00  0.00000000000E+00  0.45593999997E+02  0.45594000000E+02  0.51100000000E-03 0. -1.
         11   -1    0    0    0    0 -0.00000000000E+00 -0.00000000000E+00 -0.45593999997E+02  0.45594000000E+02  0.51100000000E-03 0.  1.
    9900012    2    1    2    0    0  0.23778949068E+02 -0.31481141532E+02 -0.21739655060E+02  0.46142319929E+02  0.10000019766E+02 0.  0.
         12    1    1    2    0    0 -0.23778949068E+02  0.31481141532E+02  0.21739655060E+02  0.45045680071E+02  0.00000000000E+00 0. -1.
         11    1    3    3    0    0  0.62609785154E+01 -0.83491954825E+01 -0.31847283715E+01  0.10911068336E+02  0.51100000000E-03 0. -1.
        -11    1    3    3    0    0  0.84601607365E+01 -0.16982375591E+02 -0.11026135608E+02  0.21944271852E+02  0.51100000000E-03 0.  1.
         12    1    3    3    0    0  0.90578098160E+01 -0.61495704583E+01 -0.75287910810E+01  0.13286979741E+02  0.00000000000E+00 0. -1.
</event>
<event>
 7    1  0.2097247E-008  0.4614232E+02  0.7816164E-02  0.1320468E+00
        -11   -1    0    0    0    0  0.00000000000E+00  0.00000000000E+00  0.45593999997E+02  0.45594000000E+02  0.51100000000E-03 0. -1.
         11   -1    0    0    0    0 -0.00000000000E+00 -0.00000000000E+00 -0.45593999997E+02  0.45594000000E+02  0.51100000000E-03 0.  1.
    9900012    2    1    2    0    0  0.45031880745E+02 -0.62410328872E+00 -0.92400626747E+00  0.46142316789E+02  0.99999911343E+01 0.  0.
         12    1    1    2    0    0 -0.45031880745E+02  0.62410328872E+00  0.92400626747E+00  0.45045683211E+02  0.00000000000E+00 0. -1.
         11    1    3    3    0    0  0.98455001952E+01 -0.22937099903E+01  0.47455367829E+00  0.10120285622E+02  0.51100000000E-03 0. -1.
        -11    1    3    3    0    0  0.35121327254E+02  0.12398117679E+01 -0.64150901698E+00  0.35149058244E+02  0.51100000000E-03 0.  1.
         12    1    3    3    0    0  0.65053295728E-01  0.42979493365E+00 -0.75705092879E+00  0.87297292344E+00  0.00000000000E+00 0. -1.
</event>
<event>
 7    1  0.2097247E-008  0.4614232E+02  0.7816164E-02  0.1320468E+00
        -11   -1    0    0    0    0  0.00000000000E+00  0.00000000000E+00  0.45593999997E+02  0.45594000000E+02  0.51100000000E-03 0. -1.
         11   -1    0    0    0    0 -0.00000000000E+00 -0.00000000000E+00 -0.45593999997E+02  0.45594000000E+02  0.51100000000E-03 0.  1.
    9900012    2    1    2    0    0 -0.37356941970E+02  0.43603424328E+01  0.24790318008E+02  0.46142316895E+02  0.99999921028E+01 0.  0.
         12    1    1    2    0    0  0.37356941970E+02 -0.43603424328E+01 -0.24790318008E+02  0.45045683105E+02  0.00000000000E+00 0. -1.
         11    1    3    3    0    0 -0.28744139808E+00 -0.68945558248E+00  0.77143804586E-01  0.75094805763E+00  0.51100000000E-03 0. -1.
        -11    1    3    3    0    0 -0.10406560540E+02  0.12279974508E+01  0.10902078305E+02  0.15121500972E+02  0.51100000000E-03 0.  1.
        -12    1    3    3    0    0 -0.26662940032E+02  0.38218005645E+01  0.13811095898E+02  0.30269867866E+02  0.00000000000E+00 0.  1.
</event>
<event>
 7    1  0.2097247E-008  0.4614232E+02  0.7816164E-02  0.1320468E+00
        -11   -1    0    0    0    0  0.00000000000E+00  0.00000000000E+00  0.45593999997E+02  0.45594000000E+02  0.51100000000E-03 0.  1.
         11   -1    0    0    0    0 -0.00000000000E+00 -0.00000000000E+00 -0.45593999997E+02  0.45594000000E+02  0.51100000000E-03 0. -1.
    9900012    2    1    2    0    0 -0.50885500858E+01 -0.29144242913E+02  0.33968122697E+02  0.46142316561E+02  0.99999890530E+01 0.  0.
         12    1    1    2    0    0  0.50885500858E+01  0.29144242913E+02 -0.33968122697E+02  0.45045683439E+02  0.00000000000E+00 0. -1.
         11    1    3    3    0    0 -0.11265731361E+01 -0.10094501383E+02  0.59077022787E+01  0.11750279643E+02  0.51100000000E-03 0. -1.
        -11    1    3    3    0    0  0.26425473268E+00 -0.22974641383E-02  0.71224565937E-01  0.27369516254E+00  0.51100000000E-03 0.  1.
        -12    1    3    3    0    0 -0.42262316824E+01 -0.19047444066E+02  0.27989195852E+02  0.34118341755E+02  0.00000000000E+00 0.  1.
</event>
<event>
 7    1  0.2097247E-008  0.4614232E+02  0.7816164E-02  0.1320468E+00
        -11   -1    0    0    0    0  0.00000000000E+00  0.00000000000E+00  0.45593999997E+02  0.45594000000E+02  0.51100000000E-03 0.  1.
         11   -1    0    0    0    0 -0.00000000000E+00 -0.00000000000E+00 -0.45593999997E+02  0.45594000000E+02  0.51100000000E-03 0. -1.
    9900012    2    1    2    0    0  0.75223018463E+01  0.15013295508E+02  0.41798676944E+02  0.46142318061E+02  0.10000002733E+02 0.  0.
         12    1    1    2    0    0 -0.75223018463E+01 -0.15013295508E+02 -0.41798676944E+02  0.45045681939E+02  0.00000000000E+00 0. -1.
         11    1    3    3    0    0  0.57682264603E-01  0.48794610862E+01  0.42421876048E+01  0.64659588362E+01  0.51100000000E-03 0. -1.
        -11    1    3    3    0    0  0.17587409138E+01  0.99238624524E+00  0.59193674650E+01  0.62543514059E+01  0.51100000000E-03 0.  1.
         12    1    3    3    0    0  0.57058786679E+01  0.91414481764E+01  0.31637121874E+02  0.33422007819E+02  0.00000000000E+00 0. -1.
</event>
<event>
 7    1  0.2097247E-008  0.4614232E+02  0.7816164E-02  0.1320468E+00
        -11   -1    0    0    0    0  0.00000000000E+00  0.00000000000E+00  0.45593999997E+02  0.45594000000E+02  0.51100000000E-03 0.  1.
         11   -1    0    0    0    0 -0.00000000000E+00 -0.00000000000E+00 -0.45593999997E+02  0.45594000000E+02  0.51100000000E-03 0. -1.
    9900012    2    1    2    0    0  0.28867644930E+02 -0.25905268819E+02  0.22906103179E+02  0.46142318306E+02  0.10000004968E+02 0.  0.
         12    1    1    2    0    0 -0.28867644930E+02  0.25905268819E+02 -0.22906103179E+02  0.45045681694E+02  0.00000000000E+00 0. -1.
         11    1    3    3    0    0  0.33156607866E+01 -0.35802338893E+01  0.18692593181E+01  0.52254963222E+01  0.51100000000E-03 0. -1.
        -11    1    3    3    0    0  0.14883464165E+02 -0.18035563147E+02  0.16173650149E+02  0.28432129765E+02  0.51100000000E-03 0.  1.
         12    1    3    3    0    0  0.10668519979E+02 -0.42894717831E+01  0.48631937125E+01  0.12484692219E+02  0.00000000000E+00 0. -1.
</event>
<event>
 7    1  0.2097247E-008  0.4614232E+02  0.7816164E-02  0.1320468E+00
        -11   -1    0    0    0    0  0.00000000000E+00  0.00000000000E+00  0.45593999997E+02  0.45594000000E+02  0.51100000000E-03 0.  1.
         11   -1    0    0    0    0 -0.00000000000E+00 -0.00000000000E+00 -0.45593999997E+02  0.45594000000E+02  0.51100000000E-03 0. -1.
    9900012    2    1    2    0    0  0.30709352528E+02  0.61324620447E+01  0.32379655823E+02  0.46142317248E+02  0.99999953166E+01 0.  0.
         12    1    1    2    0    0 -0.30709352528E+02 -0.61324620447E+01 -0.32379655823E+02  0.45045682752E+02  0.00000000000E+00 0. -1.
         11    1    3    3    0    0  0.16061622142E+02 -0.23456747274E+00  0.13173779929E+02  0.20774484485E+02  0.51100000000E-03 0. -1.
        -11    1    3    3    0    0  0.56102178586E+01  0.76562812663E+00  0.89785288529E+01  0.10614834501E+02  0.51100000000E-03 0.  1.
         12    1    3    3    0    0  0.90375125273E+01  0.56014013909E+01  0.10227347041E+02  0.14752998262E+02  0.00000000000E+00 0. -1.
</event>
<event>
 7    1  0.2097247E-008  0.4614232E+02  0.7816164E-02  0.1320468E+00
        -11   -1    0    0    0    0  0.00000000000E+00  0.00000000000E+00  0.45593999997E+02  0.45594000000E+02  0.51100000000E-03 0.  1.
         11   -1    0    0    0    0 -0.00000000000E+00 -0.00000000000E+00 -0.45593999997E+02  0.45594000000E+02  0.51100000000E-03 0. -1.
    9900012    2    1    2    0    0 -0.14265677507E+02  0.79642742791E+01  0.41978258110E+02  0.46142319037E+02  0.10000011631E+02 0.  0.
         12    1    1    2    0    0  0.14265677507E+02 -0.79642742791E+01 -0.41978258110E+02  0.45045680963E+02  0.00000000000E+00 0. -1.
         11    1    3    3    0    0 -0.70532992533E+00  0.17666349600E+01  0.21944740053E+01  0.29041704163E+01  0.51100000000E-03 0. -1.
        -11    1    3    3    0    0 -0.89609081709E+00  0.39556906942E+01  0.10404689886E+02  0.11167275384E+02  0.51100000000E-03 0.  1.
         12    1    3    3    0    0 -0.12664256764E+02  0.22419486249E+01  0.29379094218E+02  0.32070873236E+02  0.00000000000E+00 0. -1.
</event>
<event>
 7    1  0.2097247E-008  0.4614232E+02  0.7816164E-02  0.1320468E+00
        -11   -1    0    0    0    0  0.00000000000E+00  0.00000000000E+00  0.45593999997E+02  0.45594000000E+02  0.51100000000E-03 0. -1.
         11   -1    0    0    0    0 -0.00000000000E+00 -0.00000000000E+00 -0.45593999997E+02  0.45594000000E+02  0.51100000000E-03 0.  1.
    9900012    2    1    2    0    0 -0.24585731812E+02 -0.93238352364E+01 -0.36574870452E+02  0.46142320287E+02  0.10000023032E+02 0.  0.
         12    1    1    2    0    0  0.24585731812E+02  0.93238352364E+01  0.36574870452E+02  0.45045679713E+02  0.00000000000E+00 0. -1.
         11    1    3    3    0    0 -0.52060868056E+01 -0.62794136838E+01 -0.12386757778E+02  0.14831255663E+02  0.51100000000E-03 0. -1.
        -11    1    3    3    0    0 -0.79790133846E+01 -0.23622063558E+01 -0.12055368266E+02  0.14648432604E+02  0.51100000000E-03 0.  1.
        -12    1    3    3    0    0 -0.11400631622E+02 -0.68221519678E+00 -0.12132744407E+02  0.16662632019E+02  0.00000000000E+00 0.  1.
</event>
<event>
 7    1  0.2097247E-008  0.4614232E+02  0.7816164E-02  0.1320468E+00
        -11   -1    0    0    0    0  0.00000000000E+00  0.00000000000E+00  0.45593999997E+02  0.45594000000E+02  0.51100000000E-03 0. -1.
         11   -1    0    0    0    0 -0.00000000000E+00 -0.00000000000E+00 -0.45593999997E+02  0.45594000000E+02  0.51100000000E-03 0.  1.
    9900012    2    1    2    0    0  0.33415684265E+02 -0.36424865183E+01 -0.29987294009E+02  0.46142318021E+02  0.10000002373E+02 0.  0.
         12    1    1    2    0    0 -0.33415684265E+02  0.36424865183E+01  0.29987294009E+02  0.45045681979E+02  0.00000000000E+00 0. -1.
         11    1    3    3    0    0  0.15530482740E+02  0.19992885326E+01 -0.14859535994E+02  0.21587006716E+02  0.51100000000E-03 0. -1.
        -11    1    3    3    0    0  0.58085529656E+01 -0.38960953442E+01 -0.40941633601E+01  0.81043827875E+01  0.51100000000E-03 0.  1.
         12    1    3    3    0    0  0.12076648560E+02 -0.17456797068E+01 -0.11033594655E+02  0.16450928517E+02  0.00000000000E+00 0. -1.
</event>
<event>
 7    1  0.2097247E-008  0.4614232E+02  0.7816164E-02  0.1320468E+00
        -11   -1    0    0    0    0  0.00000000000E+00  0.00000000000E+00  0.45593999997E+02  0.45594000000E+02  0.51100000000E-03 0. -1.
         11   -1    0    0    0    0 -0.00000000000E+00 -0.00000000000E+00 -0.45593999997E+02  0.45594000000E+02  0.51100000000E-03 0.  1.
    9900012    2    1    2    0    0  0.43111664377E+02  0.12303961589E+02 -0.43715572058E+01  0.46142316649E+02  0.99999898617E+01 0.  0.
         12    1    1    2    0    0 -0.43111664377E+02 -0.12303961589E+02  0.43715572058E+01  0.45045683351E+02  0.00000000000E+00 0. -1.
         11    1    3    3    0    0  0.54547806350E+01  0.65828891545E+00  0.69153548093E+00  0.55377068950E+01  0.51100000000E-03 0. -1.
        -11    1    3    3    0    0  0.30966535820E+02  0.70871667033E+01 -0.63826690295E+01  0.32402048342E+02  0.51100000000E-03 0.  1.
        -12    1    3    3    0    0  0.66903479222E+01  0.45585059700E+01  0.13195763428E+01  0.82025614123E+01  0.00000000000E+00 0.  1.
</event>
<event>
 7    1  0.2097247E-008  0.4614232E+02  0.7816164E-02  0.1320468E+00
        -11   -1    0    0    0    0  0.00000000000E+00  0.00000000000E+00  0.45593999997E+02  0.45594000000E+02  0.51100000000E-03 0.  1.
         11   -1    0    0    0    0 -0.00000000000E+00 -0.00000000000E+00 -0.45593999997E+02  0.45594000000E+02  0.51100000000E-03 0. -1.
    9900012    2    1    2    0    0 -0.37776851028E+02 -0.73253284856E+01  0.23417141834E+02  0.46142318268E+02  0.10000004623E+02 0.  0.
         12    1    1    2    0    0  0.37776851028E+02  0.73253284856E+01 -0.23417141834E+02  0.45045681732E+02  0.00000000000E+00 0. -1.
         11    1    3    3    0    0 -0.88004193663E+01 -0.53823341835E+01  0.63965324029E+01  0.12138061185E+02  0.51100000000E-03 0. -1.
        -11    1    3    3    0    0 -0.24886720067E+02 -0.32237392369E+01  0.13761942630E+02  0.28620489087E+02  0.51100000000E-03 0.  1.
        -12    1    3    3    0    0 -0.40897115946E+01  0.12807449348E+01  0.32586668018E+01  0.53837679966E+01  0.00000000000E+00 0.  1.
</event>
<event>
 7    1  0.2097247E-008  0.4614232E+02  0.7816164E-02  0.1320468E+00
        -11   -1    0    0    0    0  0.00000000000E+00  0.00000000000E+00  0.45593999997E+02  0.45594000000E+02  0.51100000000E-03 0.  1.
         11   -1    0    0    0    0 -0.00000000000E+00 -0.00000000000E+00 -0.45593999997E+02  0.45594000000E+02  0.51100000000E-03 0. -1.
    9900012    2    1    2    0    0  0.25679560776E+02  0.29172987269E+02  0.22773020506E+02  0.46142317734E+02  0.99999997546E+01 0.  0.
         12    1    1    2    0    0 -0.25679560776E+02 -0.29172987269E+02 -0.22773020506E+02  0.45045682266E+02  0.00000000000E+00 0. -1.
         11    1    3    3    0    0  0.40400028465E+01  0.20160875064E+01  0.33635395255E+01  0.56302424667E+01  0.51100000000E-03 0. -1.
        -11    1    3    3    0    0  0.17727583205E+02  0.16760910698E+02  0.14375365759E+02  0.28316893803E+02  0.51100000000E-03 0.  1.
         12    1    3    3    0    0  0.39119747242E+01  0.10395989065E+02  0.50341152217E+01  0.12195181464E+02  0.00000000000E+00 0. -1.
</event>
<event>
 7    1  0.2097247E-008  0.4614232E+02  0.7816164E-02  0.1320468E+00
        -11   -1    0    0    0    0  0.00000000000E+00  0.00000000000E+00  0.45593999997E+02  0.45594000000E+02  0.51100000000E-03 0. -1.
         11   -1    0    0    0    0 -0.00000000000E+00 -0.00000000000E+00 -0.45593999997E+02  0.45594000000E+02  0.51100000000E-03 0.  1.
    9900012    2    1    2    0    0  0.32521755366E+02  0.24934359604E+02 -0.18700978211E+02  0.46142318220E+02  0.10000004185E+02 0.  0.
         12    1    1    2    0    0 -0.32521755366E+02 -0.24934359604E+02  0.18700978211E+02  0.45045681780E+02  0.00000000000E+00 0. -1.
         11    1    3    3    0    0  0.47965417819E+01  0.28505757636E+01 -0.33225649036E+01  0.64939997728E+01  0.51100000000E-03 0. -1.
        -11    1    3    3    0    0  0.32945325352E+01  0.25811139542E+01  0.10767181669E+01  0.43215062354E+01  0.51100000000E-03 0.  1.
        -12    1    3    3    0    0  0.24430681049E+02  0.19502669886E+02 -0.16455131474E+02  0.35326812212E+02  0.00000000000E+00 0.  1.
</event>
<event>
 7    1  0.2097247E-008  0.4614232E+02  0.7816164E-02  0.1320468E+00
        -11   -1    0    0    0    0  0.00000000000E+00  0.00000000000E+00  0.45593999997E+02  0.45594000000E+02  0.51100000000E-03 0.  1.
         11   -1    0    0    0    0 -0.00000000000E+00 -0.00000000000E+00 -0.45593999997E+02  0.45594000000E+02  0.51100000000E-03 0. -1.
    9900012    2    1    2    0    0  0.42422515910E+02 -0.55869819128E+01  0.14079391555E+02  0.46142317747E+02  0.99999998752E+01 0.  0.
         12    1    1    2    0    0 -0.42422515910E+02  0.55869819128E+01 -0.14079391555E+02  0.45045682253E+02  0.00000000000E+00 0. -1.
         11    1    3    3    0    0  0.18356278042E+02 -0.10296940474E+00  0.63594557945E+01  0.19426945836E+02  0.51100000000E-03 0.  1.
        -11    1    3    3    0    0  0.14464773736E+02 -0.27206236579E+01  0.11620476963E+01  0.14764207647E+02  0.51100000000E-03 0. -1.
         12    1    3    3    0    0  0.96014641320E+01 -0.27633888502E+01  0.65578880647E+01  0.11951164265E+02  0.00000000000E+00 0. -1.
</event>
<event>
 7    1  0.2097247E-008  0.4614231E+02  0.7816164E-02  0.1320468E+00
        -11   -1    0    0    0    0  0.00000000000E+00  0.00000000000E+00  0.45593999997E+02  0.45594000000E+02  0.51100000000E-03 0.  1.
         11   -1    0    0    0    0 -0.00000000000E+00 -0.00000000000E+00 -0.45593999997E+02  0.45594000000E+02  0.51100000000E-03 0. -1.
    9900012    2    1    2    0    0  0.15846396338E+02 -0.34157367157E+02  0.24724071951E+02  0.46142314948E+02  0.99999743465E+01 0.  0.
         12    1    1    2    0    0 -0.15846396338E+02  0.34157367157E+02 -0.24724071951E+02  0.45045685052E+02  0.00000000000E+00 0. -1.
         11    1    3    3    0    0  0.71948514771E+01 -0.13220854697E+02  0.69676161641E+01  0.16586276314E+02  0.51100000000E-03 0. -1.
        -11    1    3    3    0    0  0.23665339890E+01 -0.18002846205E+01  0.46416543814E+00  0.30094779699E+01  0.51100000000E-03 0.  1.
         12    1    3    3    0    0  0.62850108715E+01 -0.19136227839E+02  0.17292290349E+02  0.26546560664E+02  0.00000000000E+00 0. -1.
</event>
<event>
 7    1  0.2097247E-008  0.4614232E+02  0.7816164E-02  0.1320468E+00
        -11   -1    0    0    0    0  0.00000000000E+00  0.00000000000E+00  0.45593999997E+02  0.45594000000E+02  0.51100000000E-03 0.  1.
         11   -1    0    0    0    0 -0.00000000000E+00 -0.00000000000E+00 -0.45593999997E+02  0.45594000000E+02  0.51100000000E-03 0. -1.
    9900012    2    1    2    0    0 -0.40300056739E+02 -0.48214416883E+01  0.19539000743E+02  0.46142318485E+02  0.10000006604E+02 0.  0.
         12    1    1    2    0    0  0.40300056739E+02  0.48214416883E+01 -0.19539000743E+02  0.45045681515E+02  0.00000000000E+00 0. -1.
         11    1    3    3    0    0 -0.88120655837E+01 -0.18119012105E+01  0.88773145790E+01  0.12638916102E+02  0.51100000000E-03 0. -1.
        -11    1    3    3    0    0 -0.27031157448E+01  0.51887569956E+00  0.11502595202E+01  0.29831466518E+01  0.51100000000E-03 0.  1.
        -12    1    3    3    0    0 -0.28784875410E+02 -0.35284161774E+01  0.95114266437E+01  0.30520255731E+02  0.00000000000E+00 0.  1.
</event>
<event>
 7    1  0.2097247E-008  0.4614232E+02  0.7816164E-02  0.1320468E+00
        -11   -1    0    0    0    0  0.00000000000E+00  0.00000000000E+00  0.45593999997E+02  0.45594000000E+02  0.51100000000E-03 0.  1.
         11   -1    0    0    0    0 -0.00000000000E+00 -0.00000000000E+00 -0.45593999997E+02  0.45594000000E+02  0.51100000000E-03 0. -1.
    9900012    2    1    2    0    0  0.10514586724E+02 -0.11538709110E+02  0.42254173588E+02  0.46142317327E+02  0.99999960391E+01 0.  0.
         12    1    1    2    0    0 -0.10514586724E+02  0.11538709110E+02 -0.42254173588E+02  0.45045682673E+02  0.00000000000E+00 0. -1.
         11    1    3    3    0    0 -0.40798781078E+00 -0.17195150971E+01  0.11793270731E+02  0.11924949519E+02  0.51100000000E-03 0. -1.
        -11    1    3    3    0    0  0.16081778127E+01 -0.46683477227E+01  0.10095256525E+02  0.11238056367E+02  0.51100000000E-03 0.  1.
         12    1    3    3    0    0  0.93143967224E+01 -0.51508462905E+01  0.20365646332E+02  0.22979311441E+02  0.00000000000E+00 0. -1.
</event>
<event>
 7    1  0.2097247E-008  0.4614232E+02  0.7816164E-02  0.1320468E+00
        -11   -1    0    0    0    0  0.00000000000E+00  0.00000000000E+00  0.45593999997E+02  0.45594000000E+02  0.51100000000E-03 0.  1.
         11   -1    0    0    0    0 -0.00000000000E+00 -0.00000000000E+00 -0.45593999997E+02  0.45594000000E+02  0.51100000000E-03 0. -1.
    9900012    2    1    2    0    0 -0.36075321329E+02  0.23177672181E+02  0.13801458162E+02  0.46142317142E+02  0.99999943572E+01 0.  0.
         12    1    1    2    0    0  0.36075321329E+02 -0.23177672181E+02 -0.13801458162E+02  0.45045682858E+02  0.00000000000E+00 0. -1.
         11    1    3    3    0    0 -0.64879752468E+01  0.13556749442E+01  0.19439027575E+01  0.69072741041E+01  0.51100000000E-03 0. -1.
        -11    1    3    3    0    0 -0.74231856202E+01  0.90991026846E+01  0.50847838664E+01  0.12796576950E+02  0.51100000000E-03 0.  1.
        -12    1    3    3    0    0 -0.22164160462E+02  0.12722894552E+02  0.67727715382E+01  0.26438466088E+02  0.00000000000E+00 0.  1.
</event>
<event>
 7    1  0.2097247E-008  0.4614232E+02  0.7816164E-02  0.1320468E+00
        -11   -1    0    0    0    0  0.00000000000E+00  0.00000000000E+00  0.45593999997E+02  0.45594000000E+02  0.51100000000E-03 0.  1.
         11   -1    0    0    0    0 -0.00000000000E+00 -0.00000000000E+00 -0.45593999997E+02  0.45594000000E+02  0.51100000000E-03 0. -1.
    9900012    2    1    2    0    0  0.12920444583E+02  0.22928917972E+02  0.36557356765E+02  0.46142317618E+02  0.99999986949E+01 0.  0.
         12    1    1    2    0    0 -0.12920444583E+02 -0.22928917972E+02 -0.36557356765E+02  0.45045682382E+02  0.00000000000E+00 0. -1.
         11    1    3    3    0    0  0.62624977487E+01  0.33796778565E+01  0.90897310906E+01  0.11544016287E+02  0.51100000000E-03 0. -1.
        -11    1    3    3    0    0 -0.13126364861E-02  0.13035122343E+01  0.57417990345E+00  0.14243695766E+01  0.51100000000E-03 0.  1.
        -12    1    3    3    0    0  0.66592594709E+01  0.18245727881E+02  0.26893445771E+02  0.33173931755E+02  0.00000000000E+00 0.  1.
</event>
<event>
 7    1  0.2097247E-008  0.4614232E+02  0.7816164E-02  0.1320468E+00
        -11   -1    0    0    0    0  0.00000000000E+00  0.00000000000E+00  0.45593999997E+02  0.45594000000E+02  0.51100000000E-03 0.  1.
         11   -1    0    0    0    0 -0.00000000000E+00 -0.00000000000E+00 -0.45593999997E+02  0.45594000000E+02  0.51100000000E-03 0. -1.
    9900012    2    1    2    0    0 -0.10121398327E+02  0.27064571636E+02  0.34556906523E+02  0.46142317295E+02  0.99999957532E+01 0.  0.
         12    1    1    2    0    0  0.10121398327E+02 -0.27064571636E+02 -0.34556906523E+02  0.45045682705E+02  0.00000000000E+00 0. -1.
         11    1    3    3    0    0 -0.87344843473E+01  0.12937428420E+02  0.16623717627E+02  0.22803865000E+02  0.51100000000E-03 0. -1.
        -11    1    3    3    0    0 -0.21726227697E+01  0.10477161603E+02  0.10353595811E+02  0.14889195795E+02  0.51100000000E-03 0.  1.
         12    1    3    3    0    0  0.78570879027E+00  0.36499816130E+01  0.75795930843E+01  0.84492564999E+01  0.00000000000E+00 0. -1.
</event>
<event>
 7    1  0.2097247E-008  0.4614232E+02  0.7816164E-02  0.1320468E+00
        -11   -1    0    0    0    0  0.00000000000E+00  0.00000000000E+00  0.45593999997E+02  0.45594000000E+02  0.51100000000E-03 0. -1.
         11   -1    0    0    0    0 -0.00000000000E+00 -0.00000000000E+00 -0.45593999997E+02  0.45594000000E+02  0.51100000000E-03 0.  1.
    9900012    2    1    2    0    0  0.18277196849E+02  0.81957132525E+01 -0.40347091747E+02  0.46142318156E+02  0.10000003596E+02 0.  0.
         12    1    1    2    0    0 -0.18277196849E+02 -0.81957132525E+01  0.40347091747E+02  0.45045681844E+02  0.00000000000E+00 0. -1.
         11    1    3    3    0    0  0.14762811762E+02  0.50928165561E+01 -0.31409169618E+02  0.35077248010E+02  0.51100000000E-03 0. -1.
        -11    1    3    3    0    0  0.28092943748E+01  0.26117848479E+01 -0.93543117790E+01  0.10110227698E+02  0.51100000000E-03 0.  1.
         12    1    3    3    0    0  0.70509071237E+00  0.49111184853E+00  0.41638964973E+00  0.95484244817E+00  0.00000000000E+00 0. -1.
</event>
<event>
 7    1  0.2097247E-008  0.4614232E+02  0.7816164E-02  0.1320468E+00
        -11   -1    0    0    0    0  0.00000000000E+00  0.00000000000E+00  0.45593999997E+02  0.45594000000E+02  0.51100000000E-03 0. -1.
         11   -1    0    0    0    0 -0.00000000000E+00 -0.00000000000E+00 -0.45593999997E+02  0.45594000000E+02  0.51100000000E-03 0.  1.
    9900012    2    1    2    0    0  0.21291648543E+02 -0.37044585048E+02 -0.14264567534E+02  0.46142318009E+02  0.10000002260E+02 0.  0.
         12    1    1    2    0    0 -0.21291648543E+02  0.37044585048E+02  0.14264567534E+02  0.45045681991E+02  0.00000000000E+00 0. -1.
         11    1    3    3    0    0  0.52564958995E+00 -0.22950526326E+01  0.73400614065E+00  0.24662399221E+01  0.51100000000E-03 0. -1.
        -11    1    3    3    0    0  0.19325007712E+02 -0.30083483268E+02 -0.11136137547E+02  0.37449772340E+02  0.51100000000E-03 0.  1.
        -12    1    3    3    0    0  0.14409912412E+01 -0.46660491482E+01 -0.38624361281E+01  0.62263057469E+01  0.00000000000E+00 0.  1.
</event>
<event>
 7    1  0.2097247E-008  0.4614232E+02  0.7816164E-02  0.1320468E+00
        -11   -1    0    0    0    0  0.00000000000E+00  0.00000000000E+00  0.45593999997E+02  0.45594000000E+02  0.51100000000E-03 0. -1.
         11   -1    0    0    0    0 -0.00000000000E+00 -0.00000000000E+00 -0.45593999997E+02  0.45594000000E+02  0.51100000000E-03 0.  1.
    9900012    2    1    2    0    0  0.16119382791E+02  0.26209836545E+02 -0.32898687697E+02  0.46142315573E+02  0.99999800514E+01 0.  0.
         12    1    1    2    0    0 -0.16119382791E+02 -0.26209836545E+02  0.32898687697E+02  0.45045684427E+02  0.00000000000E+00 0. -1.
         11    1    3    3    0    0  0.58462254808E+01  0.14575656836E+02 -0.13367238606E+02  0.20623074281E+02  0.51100000000E-03 0. -1.
        -11    1    3    3    0    0  0.38196584707E+01  0.60170866492E+01 -0.51784978095E+01  0.88097651729E+01  0.51100000000E-03 0.  1.
         12    1    3    3    0    0  0.64534988395E+01  0.56170930592E+01 -0.14352951282E+02  0.16709476120E+02  0.00000000000E+00 0. -1.
</event>
<event>
 7    1  0.2097247E-008  0.4614232E+02  0.7816164E-02  0.1320468E+00
        -11   -1    0    0    0    0  0.00000000000E+00  0.00000000000E+00  0.45593999997E+02  0.45594000000E+02  0.51100000000E-03 0.  1.
         11   -1    0    0    0    0 -0.00000000000E+00 -0.00000000000E+00 -0.45593999997E+02  0.45594000000E+02  0.51100000000E-03 0. -1.
    9900012    2    1    2    0    0  0.26516255283E+02  0.62602181067E+01  0.35872149735E+02  0.46142320389E+02  0.10000023965E+02 0.  0.
         12    1    1    2    0    0 -0.26516255283E+02 -0.62602181067E+01 -0.35872149735E+02  0.45045679611E+02  0.00000000000E+00 0. -1.
         11    1    3    3    0    0  0.16283499126E+01  0.15261775719E+01  0.51304307822E+01  0.55948245451E+01  0.51100000000E-03 0. -1.
        -11    1    3    3    0    0  0.23956073220E+02  0.45329374389E+01  0.31109951516E+02  0.39525561976E+02  0.51100000000E-03 0.  1.
         12    1    3    3    0    0  0.93183214958E+00  0.20110309583E+00 -0.36823256247E+00  0.10219338678E+01  0.00000000000E+00 0. -1.
</event>
<event>
 7    1  0.2097247E-008  0.4614232E+02  0.7816164E-02  0.1320468E+00
        -11   -1    0    0    0    0  0.00000000000E+00  0.00000000000E+00  0.45593999997E+02  0.45594000000E+02  0.51100000000E-03 0.  1.
         11   -1    0    0    0    0 -0.00000000000E+00 -0.00000000000E+00 -0.45593999997E+02  0.45594000000E+02  0.51100000000E-03 0. -1.
    9900012    2    1    2    0    0 -0.99861602871E+01 -0.16443060772E+02  0.40731018663E+02  0.46142317342E+02  0.99999961768E+01 0.  0.
         12    1    1    2    0    0  0.99861602871E+01  0.16443060772E+02 -0.40731018663E+02  0.45045682658E+02  0.00000000000E+00 0. -1.
         11    1    3    3    0    0 -0.73607059252E+00 -0.11132550157E+01 -0.70377473878E-01  0.13364467431E+01  0.51100000000E-03 0.  1.
        -11    1    3    3    0    0 -0.90794123214E+00 -0.56257500916E+01  0.11632152301E+02  0.12953006940E+02  0.51100000000E-03 0. -1.
        -12    1    3    3    0    0 -0.83421484624E+01 -0.97040556642E+01  0.29169243836E+02  0.31852863659E+02  0.00000000000E+00 0.  1.
</event>
<event>
 7    1  0.2097247E-008  0.4614232E+02  0.7816164E-02  0.1320468E+00
        -11   -1    0    0    0    0  0.00000000000E+00  0.00000000000E+00  0.45593999997E+02  0.45594000000E+02  0.51100000000E-03 0. -1.
         11   -1    0    0    0    0 -0.00000000000E+00 -0.00000000000E+00 -0.45593999997E+02  0.45594000000E+02  0.51100000000E-03 0.  1.
    9900012    2    1    2    0    0  0.44049670679E+02 -0.83670431342E+01  0.43281362362E+01  0.46142315845E+02  0.99999825273E+01 0.  0.
         12    1    1    2    0    0 -0.44049670679E+02  0.83670431342E+01 -0.43281362362E+01  0.45045684155E+02  0.00000000000E+00 0. -1.
         11    1    3    3    0    0  0.87743284109E+01 -0.72345280632E+00  0.25102870576E+01  0.91549857673E+01  0.51100000000E-03 0. -1.
        -11    1    3    3    0    0  0.25460083373E+01 -0.33380081147E+00 -0.19727341102E+01  0.32380953608E+01  0.51100000000E-03 0.  1.
         12    1    3    3    0    0  0.32729333930E+02 -0.73097895164E+01  0.37905832888E+01  0.33749234717E+02  0.00000000000E+00 0. -1.
</event>
<event>
 7    1  0.2097247E-008  0.4614232E+02  0.7816164E-02  0.1320468E+00
        -11   -1    0    0    0    0  0.00000000000E+00  0.00000000000E+00  0.45593999997E+02  0.45594000000E+02  0.51100000000E-03 0.  1.
         11   -1    0    0    0    0 -0.00000000000E+00 -0.00000000000E+00 -0.45593999997E+02  0.45594000000E+02  0.51100000000E-03 0. -1.
    9900012    2    1    2    0    0  0.18962196244E+02 -0.21621491147E+02  0.34670731203E+02  0.46142319097E+02  0.10000012186E+02 0.  0.
         12    1    1    2    0    0 -0.18962196244E+02  0.21621491147E+02 -0.34670731203E+02  0.45045680903E+02  0.00000000000E+00 0. -1.
         11    1    3    3    0    0  0.17785554492E+01 -0.43614958353E+01  0.82638086869E+01  0.95119104118E+01  0.51100000000E-03 0. -1.
        -11    1    3    3    0    0  0.25078712316E+01 -0.55106424172E+01  0.99398577349E+01  0.11638615468E+02  0.51100000000E-03 0.  1.
         12    1    3    3    0    0  0.14675769563E+02 -0.11749352895E+02  0.16467064781E+02  0.24991793217E+02  0.00000000000E+00 0. -1.
</event>
<event>
 7    1  0.2097247E-008  0.4614232E+02  0.7816164E-02  0.1320468E+00
        -11   -1    0    0    0    0  0.00000000000E+00  0.00000000000E+00  0.45593999997E+02  0.45594000000E+02  0.51100000000E-03 0. -1.
         11   -1    0    0    0    0 -0.00000000000E+00 -0.00000000000E+00 -0.45593999997E+02  0.45594000000E+02  0.51100000000E-03 0.  1.
    9900012    2    1    2    0    0  0.98277649504E+01  0.28477922924E+02  0.33489348323E+02  0.46142317531E+02  0.99999979022E+01 0.  0.
         12    1    1    2    0    0 -0.98277649504E+01 -0.28477922924E+02 -0.33489348323E+02  0.45045682469E+02  0.00000000000E+00 0. -1.
         11    1    3    3    0    0  0.29483583483E+01  0.46495595660E+01  0.11230929013E+02  0.12507797083E+02  0.51100000000E-03 0. -1.
        -11    1    3    3    0    0  0.12705370094E+01  0.21519914122E+01  0.80565422996E+00  0.26257209162E+01  0.51100000000E-03 0.  1.
        -12    1    3    3    0    0  0.56088695927E+01  0.21676371945E+02  0.21452765081E+02  0.31008799532E+02  0.00000000000E+00 0.  1.
</event>
<event>
 7    1  0.2097247E-008  0.4614232E+02  0.7816164E-02  0.1320468E+00
        -11   -1    0    0    0    0  0.00000000000E+00  0.00000000000E+00  0.45593999997E+02  0.45594000000E+02  0.51100000000E-03 0.  1.
         11   -1    0    0    0    0 -0.00000000000E+00 -0.00000000000E+00 -0.45593999997E+02  0.45594000000E+02  0.51100000000E-03 0. -1.
    9900012    2    1    2    0    0 -0.13244965325E+02  0.30858861543E+02  0.30023578641E+02  0.46142315228E+02  0.99999768995E+01 0.  0.
         12    1    1    2    0    0  0.13244965325E+02 -0.30858861543E+02 -0.30023578641E+02  0.45045684772E+02  0.00000000000E+00 0. -1.
         11    1    3    3    0    0 -0.42106009477E+01  0.95432830868E+01  0.14226801383E+02  0.17641011600E+02  0.51100000000E-03 0. -1.
        -11    1    3    3    0    0 -0.13634052907E+01  0.83225365637E+01  0.74788856593E+01  0.11271966102E+02  0.51100000000E-03 0.  1.
         12    1    3    3    0    0 -0.76709590867E+01  0.12993041893E+02  0.83178915982E+01  0.17229337526E+02  0.00000000000E+00 0. -1.
</event>
<event>
 7    1  0.2097247E-008  0.4614232E+02  0.7816164E-02  0.1320468E+00
        -11   -1    0    0    0    0  0.00000000000E+00  0.00000000000E+00  0.45593999997E+02  0.45594000000E+02  0.51100000000E-03 0.  1.
         11   -1    0    0    0    0 -0.00000000000E+00 -0.00000000000E+00 -0.45593999997E+02  0.45594000000E+02  0.51100000000E-03 0. -1.
    9900012    2    1    2    0    0 -0.21892776363E+02  0.26573405400E+02  0.29046067735E+02  0.46142316718E+02  0.99999904918E+01 0.  0.
         12    1    1    2    0    0  0.21892776363E+02 -0.26573405400E+02 -0.29046067735E+02  0.45045683282E+02  0.00000000000E+00 0. -1.
         11    1    3    3    0    0 -0.55715320780E+01  0.30644928325E+01  0.27284189782E+01  0.69193465297E+01  0.51100000000E-03 0. -1.
        -11    1    3    3    0    0 -0.79149559475E+01  0.15761775952E+02  0.15373731546E+02  0.23397259042E+02  0.51100000000E-03 0.  1.
         12    1    3    3    0    0 -0.84062883377E+01  0.77471366160E+01  0.10943917211E+02  0.15825711146E+02  0.00000000000E+00 0. -1.
</event>
<event>
 7    1  0.2097247E-008  0.4614232E+02  0.7816164E-02  0.1320468E+00
        -11   -1    0    0    0    0  0.00000000000E+00  0.00000000000E+00  0.45593999997E+02  0.45594000000E+02  0.51100000000E-03 0.  1.
         11   -1    0    0    0    0 -0.00000000000E+00 -0.00000000000E+00 -0.45593999997E+02  0.45594000000E+02  0.51100000000E-03 0. -1.
    9900012    2    1    2    0    0  0.15081930348E+02 -0.26456070739E+02  0.33192245150E+02  0.46142318297E+02  0.10000004891E+02 0.  0.
         12    1    1    2    0    0 -0.15081930348E+02  0.26456070739E+02 -0.33192245150E+02  0.45045681703E+02  0.00000000000E+00 0. -1.
         11    1    3    3    0    0  0.40804203897E+01 -0.17395933948E+01  0.61061950889E+01  0.75472931877E+01  0.51100000000E-03 0. -1.
        -11    1    3    3    0    0  0.14337082924E+01 -0.77897652433E+00  0.96587879569E+00  0.18961133938E+01  0.51100000000E-03 0.  1.
        -12    1    3    3    0    0  0.95678016660E+01 -0.23937500820E+02  0.26120171265E+02  0.36698911716E+02  0.00000000000E+00 0.  1.
</event>
<event>
 7    1  0.2097247E-008  0.4614232E+02  0.7816164E-02  0.1320468E+00
        -11   -1    0    0    0    0  0.00000000000E+00  0.00000000000E+00  0.45593999997E+02  0.45594000000E+02  0.51100000000E-03 0. -1.
         11   -1    0    0    0    0 -0.00000000000E+00 -0.00000000000E+00 -0.45593999997E+02  0.45594000000E+02  0.51100000000E-03 0.  1.
    9900012    2    1    2    0    0  0.36132414232E+02 -0.39224349796E+01  0.26611586889E+02  0.46142318618E+02  0.10000007816E+02 0.  0.
         12    1    1    2    0    0 -0.36132414232E+02  0.39224349796E+01 -0.26611586889E+02  0.45045681382E+02  0.00000000000E+00 0. -1.
         11    1    3    3    0    0  0.22780772319E+01  0.86011461874E+00  0.20004746723E+01  0.31514016259E+01  0.51100000000E-03 0. -1.
        -11    1    3    3    0    0  0.20969756562E+02  0.80805970742E+00  0.17057698512E+02  0.27043460015E+02  0.51100000000E-03 0.  1.
         12    1    3    3    0    0  0.12884580437E+02 -0.55906093057E+01  0.75534137049E+01  0.15947456978E+02  0.00000000000E+00 0. -1.
</event>
<event>
 7    1  0.2097247E-008  0.4614232E+02  0.7816164E-02  0.1320468E+00
        -11   -1    0    0    0    0  0.00000000000E+00  0.00000000000E+00  0.45593999997E+02  0.45594000000E+02  0.51100000000E-03 0.  1.
         11   -1    0    0    0    0 -0.00000000000E+00 -0.00000000000E+00 -0.45593999997E+02  0.45594000000E+02  0.51100000000E-03 0. -1.
    9900012    2    1    2    0    0  0.10769713453E+02  0.36126629100E+02  0.24657522898E+02  0.46142317704E+02  0.99999994823E+01 0.  0.
         12    1    1    2    0    0 -0.10769713453E+02 -0.36126629100E+02 -0.24657522898E+02  0.45045682296E+02  0.00000000000E+00 0. -1.
         11    1    3    3    0    0  0.82190101494E+01  0.22062705494E+02  0.17194478002E+02  0.29154162234E+02  0.51100000000E-03 0. -1.
        -11    1    3    3    0    0  0.36469734040E+01  0.13577280004E+02  0.67830426998E+01  0.15609375895E+02  0.51100000000E-03 0.  1.
         12    1    3    3    0    0 -0.10962701003E+01  0.48664360200E+00  0.68000219628E+00  0.13787795745E+01  0.00000000000E+00 0. -1.
</event>
<event>
 7    1  0.2097247E-008  0.4614232E+02  0.7816164E-02  0.1320468E+00
        -11   -1    0    0    0    0  0.00000000000E+00  0.00000000000E+00  0.45593999997E+02  0.45594000000E+02  0.51100000000E-03 0.  1.
         11   -1    0    0    0    0 -0.00000000000E+00 -0.00000000000E+00 -0.45593999997E+02  0.45594000000E+02  0.51100000000E-03 0. -1.
    9900012    2    1    2    0    0  0.13440356176E+02 -0.42148700337E+02  0.84827693533E+01  0.46142317742E+02  0.99999998218E+01 0.  0.
         12    1    1    2    0    0 -0.13440356176E+02  0.42148700337E+02 -0.84827693533E+01  0.45045682258E+02  0.00000000000E+00 0. -1.
         11    1    3    3    0    0  0.20408463623E+01 -0.23334677782E+01  0.11289386319E+01  0.32991860272E+01  0.51100000000E-03 0. -1.
        -11    1    3    3    0    0  0.10551486668E+02 -0.25186982334E+02  0.69789679391E+01  0.28185527204E+02  0.51100000000E-03 0.  1.
         12    1    3    3    0    0  0.84802314660E+00 -0.14628250224E+02  0.37486278232E+00  0.14657604511E+02  0.00000000000E+00 0. -1.
</event>
<event>
 7    1  0.2097247E-008  0.4614232E+02  0.7816164E-02  0.1320468E+00
        -11   -1    0    0    0    0  0.00000000000E+00  0.00000000000E+00  0.45593999997E+02  0.45594000000E+02  0.51100000000E-03 0.  1.
         11   -1    0    0    0    0 -0.00000000000E+00 -0.00000000000E+00 -0.45593999997E+02  0.45594000000E+02  0.51100000000E-03 0. -1.
    9900012    2    1    2    0    0 -0.17049215966E+02 -0.21602312123E+02  0.35661993751E+02  0.46142318161E+02  0.10000003642E+02 0.  0.
         12    1    1    2    0    0  0.17049215966E+02  0.21602312123E+02 -0.35661993751E+02  0.45045681839E+02  0.00000000000E+00 0. -1.
         11    1    3    3    0    0 -0.10702298185E+02 -0.17407740273E+02  0.21857640619E+02  0.29921982914E+02  0.51100000000E-03 0. -1.
        -11    1    3    3    0    0 -0.60015364385E+01 -0.39122659722E+01  0.14005162773E+02  0.15731142654E+02  0.51100000000E-03 0.  1.
        -12    1    3    3    0    0 -0.34538134255E+00 -0.28230587754E+00 -0.20080964050E+00  0.48919259193E+00  0.00000000000E+00 0.  1.
</event>
<event>
 7    1  0.2097247E-008  0.4614232E+02  0.7816164E-02  0.1320468E+00
        -11   -1    0    0    0    0  0.00000000000E+00  0.00000000000E+00  0.45593999997E+02  0.45594000000E+02  0.51100000000E-03 0.  1.
         11   -1    0    0    0    0 -0.00000000000E+00 -0.00000000000E+00 -0.45593999997E+02  0.45594000000E+02  0.51100000000E-03 0. -1.
    9900012    2    1    2    0    0  0.39508891539E+02 -0.21586283922E+02  0.14809757121E+01  0.46142318151E+02  0.10000003555E+02 0.  0.
         12    1    1    2    0    0 -0.39508891539E+02  0.21586283922E+02 -0.14809757121E+01  0.45045681849E+02  0.00000000000E+00 0. -1.
         11    1    3    3    0    0  0.12731526169E+01 -0.55123417493E+00  0.13384374330E+01  0.19277426500E+01  0.51100000000E-03 0. -1.
        -11    1    3    3    0    0  0.35671562190E+02 -0.21410423968E+02 -0.17207748670E+00  0.41604040843E+02  0.51100000000E-03 0.  1.
        -12    1    3    3    0    0  0.25641767319E+01  0.37537422104E+00  0.31461576585E+00  0.26105346576E+01  0.00000000000E+00 0.  1.
</event>
<event>
 7    1  0.2097247E-008  0.4614232E+02  0.7816164E-02  0.1320468E+00
        -11   -1    0    0    0    0  0.00000000000E+00  0.00000000000E+00  0.45593999997E+02  0.45594000000E+02  0.51100000000E-03 0.  1.
         11   -1    0    0    0    0 -0.00000000000E+00 -0.00000000000E+00 -0.45593999997E+02  0.45594000000E+02  0.51100000000E-03 0. -1.
    9900012    2    1    2    0    0 -0.21277780263E+01  0.29480737867E+02  0.33992236107E+02  0.46142318075E+02  0.10000002866E+02 0.  0.
         12    1    1    2    0    0  0.21277780263E+01 -0.29480737867E+02 -0.33992236107E+02  0.45045681925E+02  0.00000000000E+00 0. -1.
         11    1    3    3    0    0 -0.17147627202E+01  0.11419423038E+02  0.10478367740E+02  0.15592941495E+02  0.51100000000E-03 0. -1.
        -11    1    3    3    0    0 -0.34280695115E+01  0.13593975360E+02  0.18275743262E+02  0.23033684436E+02  0.51100000000E-03 0.  1.
         12    1    3    3    0    0  0.30150542055E+01  0.44673394689E+01  0.52381251047E+01  0.75156921441E+01  0.00000000000E+00 0. -1.
</event>
<event>
 7    1  0.2097247E-008  0.4614232E+02  0.7816164E-02  0.1320468E+00
        -11   -1    0    0    0    0  0.00000000000E+00  0.00000000000E+00  0.45593999997E+02  0.45594000000E+02  0.51100000000E-03 0.  1.
         11   -1    0    0    0    0 -0.00000000000E+00 -0.00000000000E+00 -0.45593999997E+02  0.45594000000E+02  0.51100000000E-03 0. -1.
    9900012    2    1    2    0    0  0.11726135810E+02 -0.53350670529E+01  0.43164202675E+02  0.46142316587E+02  0.99999892970E+01 0.  0.
         12    1    1    2    0    0 -0.11726135810E+02  0.53350670529E+01 -0.43164202675E+02  0.45045683413E+02  0.00000000000E+00 0. -1.
         11    1    3    3    0    0  0.38273572989E+01  0.25622285132E+01  0.10269730154E+02  0.11255267058E+02  0.51100000000E-03 0. -1.
        -11    1    3    3    0    0  0.55322477833E+01 -0.52065868065E+01  0.17444131512E+02  0.19026613892E+02  0.51100000000E-03 0.  1.
         12    1    3    3    0    0  0.23665307281E+01 -0.26907087597E+01  0.15450341009E+02  0.15860435638E+02  0.00000000000E+00 0. -1.
</event>
<event>
 7    1  0.2097247E-008  0.4614232E+02  0.7816164E-02  0.1320468E+00
        -11   -1    0    0    0    0  0.00000000000E+00  0.00000000000E+00  0.45593999997E+02  0.45594000000E+02  0.51100000000E-03 0. -1.
         11   -1    0    0    0    0 -0.00000000000E+00 -0.00000000000E+00 -0.45593999997E+02  0.45594000000E+02  0.51100000000E-03 0.  1.
    9900012    2    1    2    0    0 -0.90721530581E+01  0.35156204462E+01 -0.43982384000E+02  0.46142315961E+02  0.99999835862E+01 0.  0.
         12    1    1    2    0    0  0.90721530581E+01 -0.35156204462E+01  0.43982384000E+02  0.45045684039E+02  0.00000000000E+00 0. -1.
         11    1    3    3    0    0 -0.11789957586E+01 -0.24309167939E+01 -0.14522345895E+02  0.14771523890E+02  0.51100000000E-03 0. -1.
        -11    1    3    3    0    0 -0.34795787343E+01  0.17640954472E+00 -0.84404977067E+01  0.91312972952E+01  0.51100000000E-03 0.  1.
         12    1    3    3    0    0 -0.44135785652E+01  0.57701276954E+01 -0.21019540398E+02  0.22239494776E+02  0.00000000000E+00 0. -1.
</event>
<event>
 7    1  0.2097247E-008  0.4614232E+02  0.7816164E-02  0.1320468E+00
        -11   -1    0    0    0    0  0.00000000000E+00  0.00000000000E+00  0.45593999997E+02  0.45594000000E+02  0.51100000000E-03 0.  1.
         11   -1    0    0    0    0 -0.00000000000E+00 -0.00000000000E+00 -0.45593999997E+02  0.45594000000E+02  0.51100000000E-03 0. -1.
    9900012    2    1    2    0    0  0.18652068231E+02  0.30971256266E+02  0.26869965098E+02  0.46142318871E+02  0.10000010122E+02 0.  0.
         12    1    1    2    0    0 -0.18652068231E+02 -0.30971256266E+02 -0.26869965098E+02  0.45045681129E+02  0.00000000000E+00 0. -1.
         11    1    3    3    0    0  0.34995814531E+00  0.25793589972E+01  0.24148479557E+01  0.35506414139E+01  0.51100000000E-03 0. -1.
        -11    1    3    3    0    0  0.13674103847E+02  0.22419597853E+02  0.22975475503E+02  0.34892577417E+02  0.51100000000E-03 0.  1.
        -12    1    3    3    0    0  0.46280062383E+01  0.59722994157E+01  0.14796416393E+01  0.76991000405E+01  0.00000000000E+00 0.  1.
</event>
<event>
 7    1  0.2097247E-008  0.4614232E+02  0.7816164E-02  0.1320468E+00
        -11   -1    0    0    0    0  0.00000000000E+00  0.00000000000E+00  0.45593999997E+02  0.45594000000E+02  0.51100000000E-03 0.  1.
         11   -1    0    0    0    0 -0.00000000000E+00 -0.00000000000E+00 -0.45593999997E+02  0.45594000000E+02  0.51100000000E-03 0. -1.
    9900012    2    1    2    0    0 -0.20741124615E+02 -0.32180254491E+02  0.23735009564E+02  0.46142315319E+02  0.99999777313E+01 0.  0.
         12    1    1    2    0    0  0.20741124615E+02  0.32180254491E+02 -0.23735009564E+02  0.45045684681E+02  0.00000000000E+00 0. -1.
         11    1    3    3    0    0 -0.21244909198E+01 -0.45446651407E+01  0.79449571816E-01  0.50173454540E+01  0.51100000000E-03 0. -1.
        -11    1    3    3    0    0 -0.80115921329E+01 -0.91686410626E+01  0.10620187519E+02  0.16156669541E+02  0.51100000000E-03 0.  1.
         12    1    3    3    0    0 -0.10605041562E+02 -0.18466948287E+02  0.13035372473E+02  0.24968300325E+02  0.00000000000E+00 0. -1.
</event>
<event>
 7    1  0.2097247E-008  0.4614232E+02  0.7816164E-02  0.1320468E+00
        -11   -1    0    0    0    0  0.00000000000E+00  0.00000000000E+00  0.45593999997E+02  0.45594000000E+02  0.51100000000E-03 0.  1.
         11   -1    0    0    0    0 -0.00000000000E+00 -0.00000000000E+00 -0.45593999997E+02  0.45594000000E+02  0.51100000000E-03 0. -1.
    9900012    2    1    2    0    0  0.97347669635E+01  0.24938549812E+02  0.36227290683E+02  0.46142317135E+02  0.99999942914E+01 0.  0.
         12    1    1    2    0    0 -0.97347669635E+01 -0.24938549812E+02 -0.36227290683E+02  0.45045682865E+02  0.00000000000E+00 0. -1.
         11    1    3    3    0    0  0.27974678175E+01  0.26879565189E+01  0.61342575922E+01  0.72581025693E+01  0.51100000000E-03 0. -1.
        -11    1    3    3    0    0  0.18511320107E+00  0.45368577042E+00  0.47766625854E+01  0.48017292085E+01  0.51100000000E-03 0.  1.
        -12    1    3    3    0    0  0.67521859449E+01  0.21796907522E+02  0.25316370505E+02  0.34082485357E+02  0.00000000000E+00 0.  1.
</event>
<event>
 7    1  0.2097247E-008  0.4614232E+02  0.7816164E-02  0.1320468E+00
        -11   -1    0    0    0    0  0.00000000000E+00  0.00000000000E+00  0.45593999997E+02  0.45594000000E+02  0.51100000000E-03 0. -1.
         11   -1    0    0    0    0 -0.00000000000E+00 -0.00000000000E+00 -0.45593999997E+02  0.45594000000E+02  0.51100000000E-03 0.  1.
    9900012    2    1    2    0    0  0.19063340342E+02 -0.42094995978E+00 -0.40810848413E+02  0.46142317720E+02  0.99999996254E+01 0.  0.
         12    1    1    2    0    0 -0.19063340342E+02  0.42094995978E+00  0.40810848413E+02  0.45045682280E+02  0.00000000000E+00 0. -1.
         11    1    3    3    0    0  0.87391102425E+01  0.31379915791E-01 -0.23707056537E+02  0.25266530479E+02  0.51100000000E-03 0. -1.
        -11    1    3    3    0    0  0.81704264264E+01  0.43728535216E+00 -0.16577544565E+02  0.18486808014E+02  0.51100000000E-03 0.  1.
         12    1    3    3    0    0  0.21538036735E+01 -0.88961522773E+00 -0.52624731108E+00  0.23889792276E+01  0.00000000000E+00 0. -1.
</event>
<event>
 7    1  0.2097247E-008  0.4614232E+02  0.7816164E-02  0.1320468E+00
        -11   -1    0    0    0    0  0.00000000000E+00  0.00000000000E+00  0.45593999997E+02  0.45594000000E+02  0.51100000000E-03 0. -1.
         11   -1    0    0    0    0 -0.00000000000E+00 -0.00000000000E+00 -0.45593999997E+02  0.45594000000E+02  0.51100000000E-03 0.  1.
    9900012    2    1    2    0    0  0.12405637067E+02  0.33974133525E+02 -0.26850920084E+02  0.46142317752E+02  0.99999999176E+01 0.  0.
         12    1    1    2    0    0 -0.12405637067E+02 -0.33974133525E+02  0.26850920084E+02  0.45045682248E+02  0.00000000000E+00 0. -1.
         11    1    3    3    0    0  0.25238708400E+01  0.81099066738E+01 -0.30628970226E+01  0.90289450495E+01  0.51100000000E-03 0. -1.
        -11    1    3    3    0    0  0.36112518532E+01  0.17356788647E+02 -0.16935971402E+02  0.24517878776E+02  0.51100000000E-03 0.  1.
         12    1    3    3    0    0  0.62705143735E+01  0.85074382044E+01 -0.68520516594E+01  0.12595493927E+02  0.00000000000E+00 0. -1.
</event>
<event>
 7    1  0.2097247E-008  0.4614232E+02  0.7816164E-02  0.1320468E+00
        -11   -1    0    0    0    0  0.00000000000E+00  0.00000000000E+00  0.45593999997E+02  0.45594000000E+02  0.51100000000E-03 0. -1.
         11   -1    0    0    0    0 -0.00000000000E+00 -0.00000000000E+00 -0.45593999997E+02  0.45594000000E+02  0.51100000000E-03 0.  1.
    9900012    2    1    2    0    0  0.22198994095E+02 -0.36838010746E+02  0.13389515195E+02  0.46142317724E+02  0.99999996640E+01 0.  0.
         12    1    1    2    0    0 -0.22198994095E+02  0.36838010746E+02 -0.13389515195E+02  0.45045682276E+02  0.00000000000E+00 0. -1.
         11    1    3    3    0    0  0.11388965802E+02 -0.18152994939E+02  0.91427442154E+01  0.23298702525E+02  0.51100000000E-03 0. -1.
        -11    1    3    3    0    0  0.11332031985E+02 -0.17277097428E+02  0.48532167970E+01  0.21224202176E+02  0.51100000000E-03 0.  1.
        -12    1    3    3    0    0 -0.52200369119E+00 -0.14079183778E+01 -0.60644581712E+00  0.16194130237E+01  0.00000000000E+00 0.  1.
</event>
<event>
 7    1  0.2097247E-008  0.4614232E+02  0.7816164E-02  0.1320468E+00
        -11   -1    0    0    0    0  0.00000000000E+00  0.00000000000E+00  0.45593999997E+02  0.45594000000E+02  0.51100000000E-03 0. -1.
         11   -1    0    0    0    0 -0.00000000000E+00 -0.00000000000E+00 -0.45593999997E+02  0.45594000000E+02  0.51100000000E-03 0.  1.
    9900012    2    1    2    0    0  0.10373961113E+02  0.43397485595E+02  0.61767858342E+01  0.46142317539E+02  0.99999979738E+01 0.  0.
         12    1    1    2    0    0 -0.10373961113E+02 -0.43397485595E+02 -0.61767858342E+01  0.45045682461E+02  0.00000000000E+00 0. -1.
         11    1    3    3    0    0  0.13670748120E+01  0.65424164340E+01  0.41969291104E+01  0.78921683051E+01  0.51100000000E-03 0. -1.
        -11    1    3    3    0    0  0.60875277793E+01  0.24913226670E+02 -0.75020172911E+00  0.25657156125E+02  0.51100000000E-03 0.  1.
        -12    1    3    3    0    0  0.29193585220E+01  0.11941842491E+02  0.27300584529E+01  0.12592993108E+02  0.00000000000E+00 0.  1.
</event>
<event>
 7    1  0.2097247E-008  0.4614232E+02  0.7816164E-02  0.1320468E+00
        -11   -1    0    0    0    0  0.00000000000E+00  0.00000000000E+00  0.45593999997E+02  0.45594000000E+02  0.51100000000E-03 0. -1.
         11   -1    0    0    0    0 -0.00000000000E+00 -0.00000000000E+00 -0.45593999997E+02  0.45594000000E+02  0.51100000000E-03 0.  1.
    9900012    2    1    2    0    0  0.13375076650E+02 -0.29799527652E+02 -0.31019493487E+02  0.46142317634E+02  0.99999988412E+01 0.  0.
         12    1    1    2    0    0 -0.13375076650E+02  0.29799527652E+02  0.31019493487E+02  0.45045682366E+02  0.00000000000E+00 0. -1.
         11    1    3    3    0    0  0.21386224314E+01 -0.40061647604E+01 -0.55785903433E+01  0.71933116485E+01  0.51100000000E-03 0. -1.
        -11    1    3    3    0    0  0.12377079118E+02 -0.19645240976E+02 -0.20619387439E+02  0.31052966349E+02  0.51100000000E-03 0.  1.
         12    1    3    3    0    0 -0.11406248994E+01 -0.61481219152E+01 -0.48215157048E+01  0.78960396363E+01  0.00000000000E+00 0. -1.
</event>
<event>
 7    1  0.2097247E-008  0.4614233E+02  0.7816164E-02  0.1320468E+00
        -11   -1    0    0    0    0  0.00000000000E+00  0.00000000000E+00  0.45593999997E+02  0.45594000000E+02  0.51100000000E-03 0.  1.
         11   -1    0    0    0    0 -0.00000000000E+00 -0.00000000000E+00 -0.45593999997E+02  0.45594000000E+02  0.51100000000E-03 0. -1.
    9900012    2    1    2    0    0 -0.12031234098E+02  0.42013047348E+02  0.10920900917E+02  0.46142325200E+02  0.10000067829E+02 0.  0.
         12    1    1    2    0    0  0.12031234098E+02 -0.42013047348E+02 -0.10920900917E+02  0.45045674800E+02  0.00000000000E+00 0. -1.
         11    1    3    3    0    0 -0.25038265022E+01  0.76683063091E+01  0.50896293985E+01  0.95381547733E+01  0.51100000000E-03 0. -1.
        -11    1    3    3    0    0 -0.55366238184E+01  0.98336980530E+01  0.12919843532E+01  0.11358919162E+02  0.51100000000E-03 0.  1.
        -12    1    3    3    0    0 -0.39907837773E+01  0.24511042986E+02  0.45392871653E+01  0.25245251264E+02  0.00000000000E+00 0.  1.
</event>
<event>
 7    1  0.2097247E-008  0.4614232E+02  0.7816164E-02  0.1320468E+00
        -11   -1    0    0    0    0  0.00000000000E+00  0.00000000000E+00  0.45593999997E+02  0.45594000000E+02  0.51100000000E-03 0.  1.
         11   -1    0    0    0    0 -0.00000000000E+00 -0.00000000000E+00 -0.45593999997E+02  0.45594000000E+02  0.51100000000E-03 0. -1.
    9900012    2    1    2    0    0  0.28243593082E+02  0.26173299603E+02  0.23374586371E+02  0.46142318184E+02  0.10000003852E+02 0.  0.
         12    1    1    2    0    0 -0.28243593082E+02 -0.26173299603E+02 -0.23374586371E+02  0.45045681816E+02  0.00000000000E+00 0. -1.
         11    1    3    3    0    0  0.14536451684E+02  0.97863098741E+01  0.10082607063E+02  0.20217300858E+02  0.51100000000E-03 0. -1.
        -11    1    3    3    0    0  0.10149500788E+02  0.12900015680E+02  0.12993545349E+02  0.20934540639E+02  0.51100000000E-03 0.  1.
         12    1    3    3    0    0  0.35576406103E+01  0.34869740491E+01  0.29843395844E+00  0.49904766865E+01  0.00000000000E+00 0. -1.
</event>
<event>
 7    1  0.2097247E-008  0.4614232E+02  0.7816164E-02  0.1320468E+00
        -11   -1    0    0    0    0  0.00000000000E+00  0.00000000000E+00  0.45593999997E+02  0.45594000000E+02  0.51100000000E-03 0.  1.
         11   -1    0    0    0    0 -0.00000000000E+00 -0.00000000000E+00 -0.45593999997E+02  0.45594000000E+02  0.51100000000E-03 0. -1.
    9900012    2    1    2    0    0  0.53835263391E+01 -0.46377797404E+01  0.44481705136E+02  0.46142318202E+02  0.10000004024E+02 0.  0.
         12    1    1    2    0    0 -0.53835263391E+01  0.46377797404E+01 -0.44481705136E+02  0.45045681798E+02  0.00000000000E+00 0. -1.
         11    1    3    3    0    0 -0.86854899109E+00 -0.13738240327E+01  0.11295776217E+02  0.11412113320E+02  0.51100000000E-03 0. -1.
        -11    1    3    3    0    0  0.32340602676E+01 -0.53773676747E+01  0.24588554200E+02  0.25376607867E+02  0.51100000000E-03 0.  1.
         12    1    3    3    0    0  0.30180150626E+01  0.21134119671E+01  0.85973747194E+01  0.93535970154E+01  0.00000000000E+00 0. -1.
</event>
<event>
 7    1  0.2097247E-008  0.4614232E+02  0.7816164E-02  0.1320468E+00
        -11   -1    0    0    0    0  0.00000000000E+00  0.00000000000E+00  0.45593999997E+02  0.45594000000E+02  0.51100000000E-03 0.  1.
         11   -1    0    0    0    0 -0.00000000000E+00 -0.00000000000E+00 -0.45593999997E+02  0.45594000000E+02  0.51100000000E-03 0. -1.
    9900012    2    1    2    0    0 -0.13496712388E+01  0.17597122277E+02  0.41444337895E+02  0.46142317982E+02  0.10000002014E+02 0.  0.
         12    1    1    2    0    0  0.13496712388E+01 -0.17597122277E+02 -0.41444337895E+02  0.45045682018E+02  0.00000000000E+00 0. -1.
         11    1    3    3    0    0  0.27104112645E+00  0.80927344215E+01  0.14875530138E+02  0.16936564317E+02  0.51100000000E-03 0. -1.
        -11    1    3    3    0    0  0.53815044444E+00  0.60766593194E+01  0.23038142704E+02  0.23832150845E+02  0.51100000000E-03 0.  1.
         12    1    3    3    0    0 -0.21588628097E+01  0.34277285364E+01  0.35306650527E+01  0.53736028197E+01  0.00000000000E+00 0. -1.
</event>
<event>
 7    1  0.2097247E-008  0.4614232E+02  0.7816164E-02  0.1320468E+00
        -11   -1    0    0    0    0  0.00000000000E+00  0.00000000000E+00  0.45593999997E+02  0.45594000000E+02  0.51100000000E-03 0.  1.
         11   -1    0    0    0    0 -0.00000000000E+00 -0.00000000000E+00 -0.45593999997E+02  0.45594000000E+02  0.51100000000E-03 0. -1.
    9900012    2    1    2    0    0  0.77259387585E+01  0.40635552342E+02 -0.17837462712E+02  0.46142319632E+02  0.10000017057E+02 0.  0.
         12    1    1    2    0    0 -0.77259387585E+01 -0.40635552342E+02  0.17837462712E+02  0.45045680368E+02  0.00000000000E+00 0. -1.
         11    1    3    3    0    0  0.23115496747E+01  0.19339341887E+01 -0.26591665768E+01  0.40192698950E+01  0.51100000000E-03 0. -1.
        -11    1    3    3    0    0  0.41368755809E+01  0.29634127444E+02 -0.97103331226E+01  0.31457682982E+02  0.51100000000E-03 0.  1.
        -12    1    3    3    0    0  0.12775135029E+01  0.90674907090E+01 -0.54679630127E+01  0.10665366755E+02  0.00000000000E+00 0.  1.
</event>
<event>
 7    1  0.2097247E-008  0.4614232E+02  0.7816164E-02  0.1320468E+00
        -11   -1    0    0    0    0  0.00000000000E+00  0.00000000000E+00  0.45593999997E+02  0.45594000000E+02  0.51100000000E-03 0. -1.
         11   -1    0    0    0    0 -0.00000000000E+00 -0.00000000000E+00 -0.45593999997E+02  0.45594000000E+02  0.51100000000E-03 0.  1.
    9900012    2    1    2    0    0  0.33056017035E+02 -0.18776258757E+02 -0.24163306032E+02  0.46142317482E+02  0.99999974508E+01 0.  0.
         12    1    1    2    0    0 -0.33056017035E+02  0.18776258757E+02  0.24163306032E+02  0.45045682518E+02  0.00000000000E+00 0. -1.
         11    1    3    3    0    0  0.22137972613E+02 -0.98925632669E+01 -0.12814296962E+02  0.27425514512E+02  0.51100000000E-03 0. -1.
        -11    1    3    3    0    0  0.91108925275E+01 -0.68867260702E+01 -0.11235750161E+02  0.16021156031E+02  0.51100000000E-03 0.  1.
        -12    1    3    3    0    0  0.18071518951E+01 -0.19969694203E+01 -0.11325890946E+00  0.26956469387E+01  0.00000000000E+00 0.  1.
</event>
<event>
 7    1  0.2097247E-008  0.4614232E+02  0.7816164E-02  0.1320468E+00
        -11   -1    0    0    0    0  0.00000000000E+00  0.00000000000E+00  0.45593999997E+02  0.45594000000E+02  0.51100000000E-03 0.  1.
         11   -1    0    0    0    0 -0.00000000000E+00 -0.00000000000E+00 -0.45593999997E+02  0.45594000000E+02  0.51100000000E-03 0. -1.
    9900012    2    1    2    0    0  0.34011715283E+02 -0.13604028535E+00  0.29534692148E+02  0.46142319588E+02  0.10000016663E+02 0.  0.
         12    1    1    2    0    0 -0.34011715283E+02  0.13604028535E+00 -0.29534692148E+02  0.45045680412E+02  0.00000000000E+00 0. -1.
         11    1    3    3    0    0  0.93156040331E+01 -0.39650431748E+01  0.65380612714E+01  0.12051899905E+02  0.51100000000E-03 0. -1.
        -11    1    3    3    0    0  0.15281610172E+02  0.13434046599E+01  0.12660802257E+02  0.19890406219E+02  0.51100000000E-03 0.  1.
         12    1    3    3    0    0  0.94145010784E+01  0.24855982295E+01  0.10335828620E+02  0.14200013464E+02  0.00000000000E+00 0. -1.
</event>
<event>
 7    1  0.2097247E-008  0.4614232E+02  0.7816164E-02  0.1320468E+00
        -11   -1    0    0    0    0  0.00000000000E+00  0.00000000000E+00  0.45593999997E+02  0.45594000000E+02  0.51100000000E-03 0.  1.
         11   -1    0    0    0    0 -0.00000000000E+00 -0.00000000000E+00 -0.45593999997E+02  0.45594000000E+02  0.51100000000E-03 0. -1.
    9900012    2    1    2    0    0  0.53117631621E+01  0.29485936475E+02  0.33637452882E+02  0.46142317476E+02  0.99999974019E+01 0.  0.
         12    1    1    2    0    0 -0.53117631621E+01 -0.29485936475E+02 -0.33637452882E+02  0.45045682524E+02  0.00000000000E+00 0. -1.
         11    1    3    3    0    0 -0.11538834020E+01  0.77295200875E+00  0.15490813005E+01  0.20805179283E+01  0.51100000000E-03 0. -1.
        -11    1    3    3    0    0 -0.65282479674E+00  0.10798799429E+02  0.98411600326E+01  0.14624933517E+02  0.51100000000E-03 0.  1.
         12    1    3    3    0    0  0.71184713608E+01  0.17914185037E+02  0.22247211548E+02  0.29436866031E+02  0.00000000000E+00 0. -1.
</event>
<event>
 7    1  0.2097247E-008  0.4614232E+02  0.7816164E-02  0.1320468E+00
        -11   -1    0    0    0    0  0.00000000000E+00  0.00000000000E+00  0.45593999997E+02  0.45594000000E+02  0.51100000000E-03 0.  1.
         11   -1    0    0    0    0 -0.00000000000E+00 -0.00000000000E+00 -0.45593999997E+02  0.45594000000E+02  0.51100000000E-03 0. -1.
    9900012    2    1    2    0    0  0.40146340820E+02 -0.28103552522E+01  0.20235776918E+02  0.46142318239E+02  0.10000004356E+02 0.  0.
         12    1    1    2    0    0 -0.40146340820E+02  0.28103552522E+01 -0.20235776918E+02  0.45045681761E+02  0.00000000000E+00 0. -1.
         11    1    3    3    0    0  0.49197658310E+01  0.23554314778E+01  0.62098540391E+00  0.54897883758E+01  0.51100000000E-03 0. -1.
        -11    1    3    3    0    0  0.22706268876E+02 -0.34106853845E+01  0.12929369745E+02  0.26351015603E+02  0.51100000000E-03 0.  1.
         12    1    3    3    0    0  0.12520306113E+02 -0.17551013455E+01  0.66854217689E+01  0.14301514260E+02  0.00000000000E+00 0. -1.
</event>
<event>
 7    1  0.2097247E-008  0.4614232E+02  0.7816164E-02  0.1320468E+00
        -11   -1    0    0    0    0  0.00000000000E+00  0.00000000000E+00  0.45593999997E+02  0.45594000000E+02  0.51100000000E-03 0. -1.
         11   -1    0    0    0    0 -0.00000000000E+00 -0.00000000000E+00 -0.45593999997E+02  0.45594000000E+02  0.51100000000E-03 0.  1.
    9900012    2    1    2    0    0  0.26750241766E+02 -0.10823672516E+02 -0.34588808755E+02  0.46142323044E+02  0.10000048176E+02 0.  0.
         12    1    1    2    0    0 -0.26750241766E+02  0.10823672516E+02  0.34588808755E+02  0.45045676956E+02  0.00000000000E+00 0. -1.
         11    1    3    3    0    0 -0.31380998574E-01  0.13709759474E+00 -0.18476697405E+01  0.18530149078E+01  0.51100000000E-03 0. -1.
        -11    1    3    3    0    0  0.25783677423E+02 -0.92620498694E+01 -0.28090167884E+02  0.39238260936E+02  0.51100000000E-03 0.  1.
        -12    1    3    3    0    0  0.99794534131E+00 -0.16987202417E+01 -0.46509711309E+01  0.50510472008E+01  0.00000000000E+00 0.  1.
</event>
<event>
 7    1  0.2097247E-008  0.4614232E+02  0.7816164E-02  0.1320468E+00
        -11   -1    0    0    0    0  0.00000000000E+00  0.00000000000E+00  0.45593999997E+02  0.45594000000E+02  0.51100000000E-03 0.  1.
         11   -1    0    0    0    0 -0.00000000000E+00 -0.00000000000E+00 -0.45593999997E+02  0.45594000000E+02  0.51100000000E-03 0. -1.
    9900012    2    1    2    0    0 -0.16273171154E+02  0.40599614452E+02  0.10768872947E+02  0.46142318547E+02  0.10000007166E+02 0.  0.
         12    1    1    2    0    0  0.16273171154E+02 -0.40599614452E+02 -0.10768872947E+02  0.45045681453E+02  0.00000000000E+00 0. -1.
         11    1    3    3    0    0 -0.14692291110E+01  0.45899233994E+01  0.13531560405E+01  0.50057030000E+01  0.51100000000E-03 0.  1.
        -11    1    3    3    0    0 -0.12621518942E+02  0.29412395903E+02  0.38565118072E+01  0.32237624862E+02  0.51100000000E-03 0. -1.
         12    1    3    3    0    0 -0.21824231013E+01  0.65972951493E+01  0.55592050992E+01  0.88989906852E+01  0.00000000000E+00 0. -1.
</event>
<event>
 7    1  0.2097247E-008  0.4614232E+02  0.7816164E-02  0.1320468E+00
        -11   -1    0    0    0    0  0.00000000000E+00  0.00000000000E+00  0.45593999997E+02  0.45594000000E+02  0.51100000000E-03 0.  1.
         11   -1    0    0    0    0 -0.00000000000E+00 -0.00000000000E+00 -0.45593999997E+02  0.45594000000E+02  0.51100000000E-03 0. -1.
    9900012    2    1    2    0    0 -0.78250104148E+01 -0.35267622724E+02  0.26908690224E+02  0.46142316410E+02  0.99999876768E+01 0.  0.
         12    1    1    2    0    0  0.78250104148E+01  0.35267622724E+02 -0.26908690224E+02  0.45045683590E+02  0.00000000000E+00 0. -1.
         11    1    3    3    0    0 -0.43345605252E+01 -0.18221117967E+02  0.17340392305E+02  0.25524238685E+02  0.51100000000E-03 0.  1.
        -11    1    3    3    0    0 -0.42844465405E+01 -0.74915429888E+01  0.38086811686E+01  0.94332259072E+01  0.51100000000E-03 0. -1.
        -12    1    3    3    0    0  0.79399665079E+00 -0.95549617681E+01  0.57596167504E+01  0.11184851818E+02  0.00000000000E+00 0.  1.
</event>
<event>
 7    1  0.2097247E-008  0.4614232E+02  0.7816164E-02  0.1320468E+00
        -11   -1    0    0    0    0  0.00000000000E+00  0.00000000000E+00  0.45593999997E+02  0.45594000000E+02  0.51100000000E-03 0.  1.
         11   -1    0    0    0    0 -0.00000000000E+00 -0.00000000000E+00 -0.45593999997E+02  0.45594000000E+02  0.51100000000E-03 0. -1.
    9900012    2    1    2    0    0  0.35727454625E+02  0.24608459129E+02  0.12127911190E+02  0.46142317582E+02  0.99999983696E+01 0.  0.
         12    1    1    2    0    0 -0.35727454625E+02 -0.24608459129E+02 -0.12127911190E+02  0.45045682418E+02  0.00000000000E+00 0. -1.
         11    1    3    3    0    0  0.17541121763E+02  0.12075595816E+02  0.42786682038E+01  0.21721371247E+02  0.51100000000E-03 0. -1.
        -11    1    3    3    0    0  0.18458684780E+02  0.13004779998E+02  0.76877814768E+01  0.23852658781E+02  0.51100000000E-03 0.  1.
         12    1    3    3    0    0 -0.27235191764E+00 -0.47191668595E+00  0.16146150911E+00  0.56828755436E+00  0.00000000000E+00 0. -1.
</event>
<event>
 7    1  0.2097247E-008  0.4614232E+02  0.7816164E-02  0.1320468E+00
        -11   -1    0    0    0    0  0.00000000000E+00  0.00000000000E+00  0.45593999997E+02  0.45594000000E+02  0.51100000000E-03 0.  1.
         11   -1    0    0    0    0 -0.00000000000E+00 -0.00000000000E+00 -0.45593999997E+02  0.45594000000E+02  0.51100000000E-03 0. -1.
    9900012    2    1    2    0    0 -0.13141019141E+02  0.38781804627E+02  0.18772286055E+02  0.46142317877E+02  0.10000001059E+02 0.  0.
         12    1    1    2    0    0  0.13141019141E+02 -0.38781804627E+02 -0.18772286055E+02  0.45045682123E+02  0.00000000000E+00 0. -1.
         11    1    3    3    0    0 -0.51063376513E+00  0.15366776302E+02  0.82007766313E+01  0.17425593200E+02  0.51100000000E-03 0. -1.
        -11    1    3    3    0    0 -0.35725800356E+01  0.74327950083E+01  0.22425675910E+01  0.85462786877E+01  0.51100000000E-03 0.  1.
        -12    1    3    3    0    0 -0.90578053402E+01  0.15982233317E+02  0.83289418323E+01  0.20170445990E+02  0.00000000000E+00 0.  1.
</event>
<event>
 7    1  0.2097247E-008  0.4614232E+02  0.7816164E-02  0.1320468E+00
        -11   -1    0    0    0    0  0.00000000000E+00  0.00000000000E+00  0.45593999997E+02  0.45594000000E+02  0.51100000000E-03 0.  1.
         11   -1    0    0    0    0 -0.00000000000E+00 -0.00000000000E+00 -0.45593999997E+02  0.45594000000E+02  0.51100000000E-03 0. -1.
    9900012    2    1    2    0    0 -0.12348975881E+02  0.19739313513E+02  0.38561325213E+02  0.46142317572E+02  0.99999982719E+01 0.  0.
         12    1    1    2    0    0  0.12348975881E+02 -0.19739313513E+02 -0.38561325213E+02  0.45045682428E+02  0.00000000000E+00 0. -1.
         11    1    3    3    0    0  0.17200110123E+01  0.18496180790E+01  0.44078815050E+01  0.50802504411E+01  0.51100000000E-03 0. -1.
        -11    1    3    3    0    0 -0.16565654207E+01  0.19534634525E+01  0.45977497303E+01  0.52630344191E+01  0.51100000000E-03 0.  1.
        -12    1    3    3    0    0 -0.12412421473E+02  0.15936231982E+02  0.29555693977E+02  0.35799032711E+02  0.00000000000E+00 0.  1.
</event>
<event>
 7    1  0.2097247E-008  0.4614232E+02  0.7816164E-02  0.1320468E+00
        -11   -1    0    0    0    0  0.00000000000E+00  0.00000000000E+00  0.45593999997E+02  0.45594000000E+02  0.51100000000E-03 0. -1.
         11   -1    0    0    0    0 -0.00000000000E+00 -0.00000000000E+00 -0.45593999997E+02  0.45594000000E+02  0.51100000000E-03 0.  1.
    9900012    2    1    2    0    0 -0.10273745682E+02  0.16018080855E+02 -0.40828723927E+02  0.46142318052E+02  0.10000002655E+02 0.  0.
         12    1    1    2    0    0  0.10273745682E+02 -0.16018080855E+02  0.40828723927E+02  0.45045681948E+02  0.00000000000E+00 0. -1.
         11    1    3    3    0    0 -0.10161006268E+01  0.53265846867E+01 -0.17220389083E+02  0.18053995828E+02  0.51100000000E-03 0. -1.
        -11    1    3    3    0    0 -0.85157596533E+01  0.10924568148E+02 -0.19571310875E+02  0.23977084087E+02  0.51100000000E-03 0.  1.
         12    1    3    3    0    0 -0.74188540142E+00 -0.23307197948E+00 -0.40370239688E+01  0.41112381372E+01  0.00000000000E+00 0. -1.
</event>
<event>
 7    1  0.2097247E-008  0.4614232E+02  0.7816164E-02  0.1320468E+00
        -11   -1    0    0    0    0  0.00000000000E+00  0.00000000000E+00  0.45593999997E+02  0.45594000000E+02  0.51100000000E-03 0.  1.
         11   -1    0    0    0    0 -0.00000000000E+00 -0.00000000000E+00 -0.45593999997E+02  0.45594000000E+02  0.51100000000E-03 0. -1.
    9900012    2    1    2    0    0  0.24524952270E+02 -0.66953053553E+01  0.37186195072E+02  0.46142317614E+02  0.99999986586E+01 0.  0.
         12    1    1    2    0    0 -0.24524952270E+02  0.66953053553E+01 -0.37186195072E+02  0.45045682386E+02  0.00000000000E+00 0. -1.
         11    1    3    3    0    0  0.48325602245E+01 -0.23025204799E+01  0.80131791590E+01  0.96367151758E+01  0.51100000000E-03 0. -1.
        -11    1    3    3    0    0  0.49417124592E+00  0.86216630352E+00 -0.20980548879E+00  0.10156547442E+01  0.51100000000E-03 0.  1.
        -12    1    3    3    0    0  0.19198220800E+02 -0.52549511789E+01  0.29382821402E+02  0.35489947694E+02  0.00000000000E+00 0.  1.
</event>
<event>
 7    1  0.2097247E-008  0.4614232E+02  0.7816164E-02  0.1320468E+00
        -11   -1    0    0    0    0  0.00000000000E+00  0.00000000000E+00  0.45593999997E+02  0.45594000000E+02  0.51100000000E-03 0.  1.
         11   -1    0    0    0    0 -0.00000000000E+00 -0.00000000000E+00 -0.45593999997E+02  0.45594000000E+02  0.51100000000E-03 0. -1.
    9900012    2    1    2    0    0  0.38144566554E+02 -0.77085551467E+01  0.22686641261E+02  0.46142317946E+02  0.10000001685E+02 0.  0.
         12    1    1    2    0    0 -0.38144566554E+02  0.77085551467E+01 -0.22686641261E+02  0.45045682054E+02  0.00000000000E+00 0. -1.
         11    1    3    3    0    0  0.30535655329E+01  0.11304825624E+01  0.60524856265E+00  0.33118845649E+01  0.51100000000E-03 0. -1.
        -11    1    3    3    0    0  0.29788696230E+02 -0.66271364574E+01  0.15971910652E+02  0.34443973215E+02  0.51100000000E-03 0.  1.
         12    1    3    3    0    0  0.53023047914E+01 -0.22119012517E+01  0.61094820461E+01  0.83864601662E+01  0.00000000000E+00 0. -1.
</event>
<event>
 7    1  0.2097247E-008  0.4614232E+02  0.7816164E-02  0.1320468E+00
        -11   -1    0    0    0    0  0.00000000000E+00  0.00000000000E+00  0.45593999997E+02  0.45594000000E+02  0.51100000000E-03 0. -1.
         11   -1    0    0    0    0 -0.00000000000E+00 -0.00000000000E+00 -0.45593999997E+02  0.45594000000E+02  0.51100000000E-03 0.  1.
    9900012    2    1    2    0    0  0.36890502374E+02 -0.19884708247E+02  0.16516739708E+02  0.46142317875E+02  0.10000001043E+02 0.  0.
         12    1    1    2    0    0 -0.36890502374E+02  0.19884708247E+02 -0.16516739708E+02  0.45045682125E+02  0.00000000000E+00 0. -1.
         11    1    3    3    0    0  0.36300207375E+01  0.80564489459E+00  0.22737821093E+01  0.43584629851E+01  0.51100000000E-03 0.  1.
        -11    1    3    3    0    0  0.50629513088E+01 -0.29474951944E+01  0.10519212047E+01  0.59521208286E+01  0.51100000000E-03 0. -1.
        -12    1    3    3    0    0  0.28197530328E+02 -0.17742857947E+02  0.13191036394E+02  0.35831734062E+02  0.00000000000E+00 0.  1.
</event>
<event>
 7    1  0.2097247E-008  0.4614232E+02  0.7816164E-02  0.1320468E+00
        -11   -1    0    0    0    0  0.00000000000E+00  0.00000000000E+00  0.45593999997E+02  0.45594000000E+02  0.51100000000E-03 0.  1.
         11   -1    0    0    0    0 -0.00000000000E+00 -0.00000000000E+00 -0.45593999997E+02  0.45594000000E+02  0.51100000000E-03 0. -1.
    9900012    2    1    2    0    0 -0.30665684456E+02  0.17159937336E+02  0.28182722950E+02  0.46142317350E+02  0.99999962517E+01 0.  0.
         12    1    1    2    0    0  0.30665684456E+02 -0.17159937336E+02 -0.28182722950E+02  0.45045682650E+02  0.00000000000E+00 0. -1.
         11    1    3    3    0    0 -0.60353142805E+00  0.16701106866E+01  0.36644196803E+01  0.40720377877E+01  0.51100000000E-03 0. -1.
        -11    1    3    3    0    0 -0.16194915339E+02  0.69847832006E+01  0.15442788455E+02  0.23442316326E+02  0.51100000000E-03 0.  1.
        -12    1    3    3    0    0 -0.13867237689E+02  0.85050434488E+01  0.90755148145E+01  0.18627963236E+02  0.00000000000E+00 0.  1.
</event>
<event>
 7    1  0.2097247E-008  0.4614232E+02  0.7816164E-02  0.1320468E+00
        -11   -1    0    0    0    0  0.00000000000E+00  0.00000000000E+00  0.45593999997E+02  0.45594000000E+02  0.51100000000E-03 0. -1.
         11   -1    0    0    0    0 -0.00000000000E+00 -0.00000000000E+00 -0.45593999997E+02  0.45594000000E+02  0.51100000000E-03 0.  1.
    9900012    2    1    2    0    0 -0.41924669951E+02  0.31494618374E+01 -0.16171472428E+02  0.46142316734E+02  0.99999906339E+01 0.  0.
         12    1    1    2    0    0  0.41924669951E+02 -0.31494618374E+01  0.16171472428E+02  0.45045683266E+02  0.00000000000E+00 0. -1.
         11    1    3    3    0    0 -0.11552116276E+02 -0.12896688598E+01 -0.62606252133E+01  0.13202653694E+02  0.51100000000E-03 0. -1.
        -11    1    3    3    0    0 -0.21444380787E+02  0.19991653930E+00 -0.78970087533E+01  0.22853100041E+02  0.51100000000E-03 0.  1.
         12    1    3    3    0    0 -0.89281728876E+01  0.42392141580E+01 -0.20138384619E+01  0.10086562999E+02  0.00000000000E+00 0. -1.
</event>
<event>
 7    1  0.2097247E-008  0.4614231E+02  0.7816164E-02  0.1320468E+00
        -11   -1    0    0    0    0  0.00000000000E+00  0.00000000000E+00  0.45593999997E+02  0.45594000000E+02  0.51100000000E-03 0. -1.
         11   -1    0    0    0    0 -0.00000000000E+00 -0.00000000000E+00 -0.45593999997E+02  0.45594000000E+02  0.51100000000E-03 0.  1.
    9900012    2    1    2    0    0 -0.38686469404E+01 -0.36596427649E+02 -0.25977868476E+02  0.46142305462E+02  0.99998878504E+01 0.  0.
         12    1    1    2    0    0  0.38686469404E+01  0.36596427649E+02  0.25977868476E+02  0.45045694538E+02  0.00000000000E+00 0. -1.
         11    1    3    3    0    0  0.30922374232E+01 -0.88915344997E+01 -0.68858885673E+01  0.11663480598E+02  0.51100000000E-03 0. -1.
        -11    1    3    3    0    0 -0.99257094869E+00 -0.13220563659E+01 -0.91797367736E+00  0.18909537425E+01  0.51100000000E-03 0.  1.
        -12    1    3    3    0    0 -0.59683134149E+01 -0.26382836784E+02 -0.18174006231E+02  0.32587871122E+02  0.00000000000E+00 0.  1.
</event>
<event>
 7    1  0.2097247E-008  0.4614232E+02  0.7816164E-02  0.1320468E+00
        -11   -1    0    0    0    0  0.00000000000E+00  0.00000000000E+00  0.45593999997E+02  0.45594000000E+02  0.51100000000E-03 0. -1.
         11   -1    0    0    0    0 -0.00000000000E+00 -0.00000000000E+00 -0.45593999997E+02  0.45594000000E+02  0.51100000000E-03 0.  1.
    9900012    2    1    2    0    0 -0.28901758062E+02  0.34425898103E+02 -0.29426980880E+01  0.46142317062E+02  0.99999936261E+01 0.  0.
         12    1    1    2    0    0  0.28901758062E+02 -0.34425898103E+02  0.29426980880E+01  0.45045682938E+02  0.00000000000E+00 0. -1.
         11    1    3    3    0    0 -0.56329799819E+01  0.67957702320E+01 -0.27901554112E+01  0.92573173221E+01  0.51100000000E-03 0. -1.
        -11    1    3    3    0    0 -0.21377227672E+02  0.21206952720E+02 -0.10447043757E+01  0.30129920579E+02  0.51100000000E-03 0.  1.
         12    1    3    3    0    0 -0.18915504081E+01  0.64231751517E+01  0.89216169886E+00  0.67550791611E+01  0.00000000000E+00 0. -1.
</event>
<event>
 7    1  0.2097247E-008  0.4614232E+02  0.7816164E-02  0.1320468E+00
        -11   -1    0    0    0    0  0.00000000000E+00  0.00000000000E+00  0.45593999997E+02  0.45594000000E+02  0.51100000000E-03 0. -1.
         11   -1    0    0    0    0 -0.00000000000E+00 -0.00000000000E+00 -0.45593999997E+02  0.45594000000E+02  0.51100000000E-03 0.  1.
    9900012    2    1    2    0    0 -0.44179130835E+02  0.34750949404E+01  0.80772257487E+01  0.46142318054E+02  0.10000002673E+02 0.  0.
         12    1    1    2    0    0  0.44179130835E+02 -0.34750949404E+01 -0.80772257487E+01  0.45045681946E+02  0.00000000000E+00 0. -1.
         11    1    3    3    0    0 -0.71021615467E+01  0.12569899439E+01  0.47279168772E+01  0.86240315753E+01  0.51100000000E-03 0. -1.
        -11    1    3    3    0    0 -0.33353013856E+02  0.19253360178E+01  0.42444577875E+01  0.33677082329E+02  0.51100000000E-03 0.  1.
        -12    1    3    3    0    0 -0.37239554322E+01  0.29276897871E+00 -0.89514891591E+00  0.38412041495E+01  0.00000000000E+00 0.  1.
</event>
<event>
 7    1  0.2097247E-008  0.4614232E+02  0.7816164E-02  0.1320468E+00
        -11   -1    0    0    0    0  0.00000000000E+00  0.00000000000E+00  0.45593999997E+02  0.45594000000E+02  0.51100000000E-03 0.  1.
         11   -1    0    0    0    0 -0.00000000000E+00 -0.00000000000E+00 -0.45593999997E+02  0.45594000000E+02  0.51100000000E-03 0. -1.
    9900012    2    1    2    0    0  0.71725434542E+01 -0.32144017495E+02  0.30731583775E+02  0.46142317835E+02  0.10000000677E+02 0.  0.
         12    1    1    2    0    0 -0.71725434542E+01  0.32144017495E+02 -0.30731583775E+02  0.45045682165E+02  0.00000000000E+00 0. -1.
         11    1    3    3    0    0 -0.14133783751E+01 -0.22940816407E+01  0.45051791467E+01  0.52494845852E+01  0.51100000000E-03 0. -1.
        -11    1    3    3    0    0  0.61558514880E+00 -0.62938459856E+01  0.71881816728E+01  0.95739959467E+01  0.51100000000E-03 0.  1.
         12    1    3    3    0    0  0.79703366805E+01 -0.23556089869E+02  0.19038222956E+02  0.31318837303E+02  0.00000000000E+00 0. -1.
</event>
<event>
 7    1  0.2097247E-008  0.4614232E+02  0.7816164E-02  0.1320468E+00
        -11   -1    0    0    0    0  0.00000000000E+00  0.00000000000E+00  0.45593999997E+02  0.45594000000E+02  0.51100000000E-03 0. -1.
         11   -1    0    0    0    0 -0.00000000000E+00 -0.00000000000E+00 -0.45593999997E+02  0.45594000000E+02  0.51100000000E-03 0.  1.
    9900012    2    1    2    0    0 -0.35343353169E+02  0.18531065397E+02 -0.20894025824E+02  0.46142319706E+02  0.10000017739E+02 0.  0.
         12    1    1    2    0    0  0.35343353169E+02 -0.18531065397E+02  0.20894025824E+02  0.45045680294E+02  0.00000000000E+00 0. -1.
         11    1    3    3    0    0 -0.91659763739E+01  0.32158271011E+01 -0.15758592214E+01  0.98407316485E+01  0.51100000000E-03 0. -1.
        -11    1    3    3    0    0 -0.15221744830E+02  0.60489478761E+01 -0.10658026057E+02  0.19541873139E+02  0.51100000000E-03 0.  1.
         12    1    3    3    0    0 -0.10955631965E+02  0.92662904198E+01 -0.86601405456E+01  0.16759714919E+02  0.00000000000E+00 0. -1.
</event>
<event>
 7    1  0.2097247E-008  0.4614232E+02  0.7816164E-02  0.1320468E+00
        -11   -1    0    0    0    0  0.00000000000E+00  0.00000000000E+00  0.45593999997E+02  0.45594000000E+02  0.51100000000E-03 0. -1.
         11   -1    0    0    0    0 -0.00000000000E+00 -0.00000000000E+00 -0.45593999997E+02  0.45594000000E+02  0.51100000000E-03 0.  1.
    9900012    2    1    2    0    0  0.26068767219E+02  0.43884299507E+01 -0.36472929205E+02  0.46142317559E+02  0.99999981571E+01 0.  0.
         12    1    1    2    0    0 -0.26068767219E+02 -0.43884299507E+01  0.36472929205E+02  0.45045682441E+02  0.00000000000E+00 0. -1.
         11    1    3    3    0    0  0.10528970025E+02  0.18510590683E+01 -0.11912283999E+02  0.16005878289E+02  0.51100000000E-03 0. -1.
        -11    1    3    3    0    0  0.45530904085E+01  0.40762777386E+01 -0.63526349556E+01  0.88149103008E+01  0.51100000000E-03 0.  1.
         12    1    3    3    0    0  0.10986706785E+02 -0.15389068562E+01 -0.18208010250E+02  0.21321528969E+02  0.00000000000E+00 0. -1.
</event>
<event>
 7    1  0.2097247E-008  0.4614233E+02  0.7816164E-02  0.1320468E+00
        -11   -1    0    0    0    0  0.00000000000E+00  0.00000000000E+00  0.45593999997E+02  0.45594000000E+02  0.51100000000E-03 0.  1.
         11   -1    0    0    0    0 -0.00000000000E+00 -0.00000000000E+00 -0.45593999997E+02  0.45594000000E+02  0.51100000000E-03 0. -1.
    9900012    2    1    2    0    0 -0.42256537389E+02 -0.11302536491E+02  0.10758741358E+02  0.46142325415E+02  0.10000069795E+02 0.  0.
         12    1    1    2    0    0  0.42256537389E+02  0.11302536491E+02 -0.10758741358E+02  0.45045674585E+02  0.00000000000E+00 0. -1.
         11    1    3    3    0    0 -0.74972658683E+01 -0.20560649402E+00 -0.27468291661E-01  0.75001349520E+01  0.51100000000E-03 0. -1.
        -11    1    3    3    0    0 -0.14506776695E+02 -0.75148454895E+01  0.27826955789E+01  0.16572955914E+02  0.51100000000E-03 0.  1.
        -12    1    3    3    0    0 -0.20252494826E+02 -0.35820845076E+01  0.80035140703E+01  0.22069234549E+02  0.00000000000E+00 0.  1.
</event>
<event>
 7    1  0.2097247E-008  0.4614232E+02  0.7816164E-02  0.1320468E+00
        -11   -1    0    0    0    0  0.00000000000E+00  0.00000000000E+00  0.45593999997E+02  0.45594000000E+02  0.51100000000E-03 0.  1.
         11   -1    0    0    0    0 -0.00000000000E+00 -0.00000000000E+00 -0.45593999997E+02  0.45594000000E+02  0.51100000000E-03 0. -1.
    9900012    2    1    2    0    0 -0.12781154281E+01 -0.29435384411E+01  0.44931230674E+02  0.46142317771E+02  0.10000000088E+02 0.  0.
         12    1    1    2    0    0  0.12781154281E+01  0.29435384411E+01 -0.44931230674E+02  0.45045682229E+02  0.00000000000E+00 0. -1.
         11    1    3    3    0    0  0.29255337102E+00  0.15073037989E+01  0.24536514564E+01  0.28944702361E+01  0.51100000000E-03 0. -1.
        -11    1    3    3    0    0  0.20146437222E+01 -0.38359802038E+01  0.27215465195E+02  0.27558212560E+02  0.51100000000E-03 0.  1.
         12    1    3    3    0    0 -0.35853125214E+01 -0.61486203624E+00  0.15262114023E+02  0.15689634975E+02  0.00000000000E+00 0. -1.
</event>
<event>
 7    1  0.2097247E-008  0.4614232E+02  0.7816164E-02  0.1320468E+00
        -11   -1    0    0    0    0  0.00000000000E+00  0.00000000000E+00  0.45593999997E+02  0.45594000000E+02  0.51100000000E-03 0.  1.
         11   -1    0    0    0    0 -0.00000000000E+00 -0.00000000000E+00 -0.45593999997E+02  0.45594000000E+02  0.51100000000E-03 0. -1.
    9900012    2    1    2    0    0  0.59224674091E+01  0.71207397571E+01  0.44083249801E+02  0.46142317988E+02  0.10000002067E+02 0.  0.
         12    1    1    2    0    0 -0.59224674091E+01 -0.71207397571E+01 -0.44083249801E+02  0.45045682012E+02  0.00000000000E+00 0. -1.
         11    1    3    3    0    0  0.30818180591E+01 -0.10473015932E+00  0.82863198258E+01  0.88414742816E+01  0.51100000000E-03 0. -1.
        -11    1    3    3    0    0 -0.22838461145E+01  0.17965550374E+01  0.77334285340E+01  0.82613243629E+01  0.51100000000E-03 0.  1.
        -12    1    3    3    0    0  0.51244954646E+01  0.54289148790E+01  0.28063501442E+02  0.29039519343E+02  0.00000000000E+00 0.  1.
</event>
<event>
 7    1  0.2097247E-008  0.4614232E+02  0.7816164E-02  0.1320468E+00
        -11   -1    0    0    0    0  0.00000000000E+00  0.00000000000E+00  0.45593999997E+02  0.45594000000E+02  0.51100000000E-03 0. -1.
         11   -1    0    0    0    0 -0.00000000000E+00 -0.00000000000E+00 -0.45593999997E+02  0.45594000000E+02  0.51100000000E-03 0.  1.
    9900012    2    1    2    0    0  0.12193363641E+02  0.43138110614E+02 -0.44202604269E+01  0.46142318670E+02  0.10000008292E+02 0.  0.
         12    1    1    2    0    0 -0.12193363641E+02 -0.43138110614E+02  0.44202604269E+01  0.45045681330E+02  0.00000000000E+00 0. -1.
         11    1    3    3    0    0  0.12246218839E+01  0.16826194216E+02 -0.86922364458E+00  0.16893077297E+02  0.51100000000E-03 0. -1.
        -11    1    3    3    0    0  0.88248632813E+01  0.24285945895E+02 -0.43264807374E+01  0.26199309452E+02  0.51100000000E-03 0.  1.
         12    1    3    3    0    0  0.21438784754E+01  0.20259705025E+01  0.77544395512E+00  0.30499319209E+01  0.00000000000E+00 0. -1.
</event>
<event>
 7    1  0.2097247E-008  0.4614232E+02  0.7816164E-02  0.1320468E+00
        -11   -1    0    0    0    0  0.00000000000E+00  0.00000000000E+00  0.45593999997E+02  0.45594000000E+02  0.51100000000E-03 0. -1.
         11   -1    0    0    0    0 -0.00000000000E+00 -0.00000000000E+00 -0.45593999997E+02  0.45594000000E+02  0.51100000000E-03 0.  1.
    9900012    2    1    2    0    0  0.24704594592E+02 -0.36103371807E+02 -0.10739787395E+02  0.46142317820E+02  0.10000000534E+02 0.  0.
         12    1    1    2    0    0 -0.24704594592E+02  0.36103371807E+02  0.10739787395E+02  0.45045682180E+02  0.00000000000E+00 0. -1.
         11    1    3    3    0    0  0.83373465828E+01 -0.97211585130E+01 -0.25638942355E+01  0.13060850845E+02  0.51100000000E-03 0. -1.
        -11    1    3    3    0    0  0.16708835997E+02 -0.23450630045E+02 -0.59953884904E+01  0.29411935218E+02  0.51100000000E-03 0.  1.
         12    1    3    3    0    0 -0.34158798764E+00 -0.29315832492E+01 -0.21805046690E+01  0.36695317565E+01  0.00000000000E+00 0. -1.
</event>
<event>
 7    1  0.2097247E-008  0.4614232E+02  0.7816164E-02  0.1320468E+00
        -11   -1    0    0    0    0  0.00000000000E+00  0.00000000000E+00  0.45593999997E+02  0.45594000000E+02  0.51100000000E-03 0.  1.
         11   -1    0    0    0    0 -0.00000000000E+00 -0.00000000000E+00 -0.45593999997E+02  0.45594000000E+02  0.51100000000E-03 0. -1.
    9900012    2    1    2    0    0 -0.18664513525E+02 -0.32059540297E+02  0.25552598353E+02  0.46142317945E+02  0.10000001679E+02 0.  0.
         12    1    1    2    0    0  0.18664513525E+02  0.32059540297E+02 -0.25552598353E+02  0.45045682055E+02  0.00000000000E+00 0. -1.
         11    1    3    3    0    0 -0.20257419721E+01 -0.13172067918E+01  0.21266518828E+01  0.32188993090E+01  0.51100000000E-03 0. -1.
        -11    1    3    3    0    0 -0.14622462832E+02 -0.22905081826E+02  0.14234026075E+02  0.30676810318E+02  0.51100000000E-03 0.  1.
        -12    1    3    3    0    0 -0.20163087211E+01 -0.78372516785E+01  0.91919203959E+01  0.12246608318E+02  0.00000000000E+00 0.  1.
</event>
<event>
 7    1  0.2097247E-008  0.4614232E+02  0.7816164E-02  0.1320468E+00
        -11   -1    0    0    0    0  0.00000000000E+00  0.00000000000E+00  0.45593999997E+02  0.45594000000E+02  0.51100000000E-03 0.  1.
         11   -1    0    0    0    0 -0.00000000000E+00 -0.00000000000E+00 -0.45593999997E+02  0.45594000000E+02  0.51100000000E-03 0. -1.
    9900012    2    1    2    0    0  0.25272902734E+01 -0.16766053010E+02  0.41732790004E+02  0.46142317730E+02  0.99999997185E+01 0.  0.
         12    1    1    2    0    0 -0.25272902734E+01  0.16766053010E+02 -0.41732790004E+02  0.45045682270E+02  0.00000000000E+00 0. -1.
         11    1    3    3    0    0  0.13038962255E+01 -0.91056208242E+00  0.80285115864E+01  0.81845138662E+01  0.51100000000E-03 0. -1.
        -11    1    3    3    0    0 -0.24356076915E+01 -0.30180342837E+01  0.52415583937E+01  0.65203259443E+01  0.51100000000E-03 0.  1.
        -12    1    3    3    0    0  0.36590017394E+01 -0.12837456644E+02  0.28462720023E+02  0.31437477920E+02  0.00000000000E+00 0.  1.
</event>
<event>
 7    1  0.2097247E-008  0.4614232E+02  0.7816164E-02  0.1320468E+00
        -11   -1    0    0    0    0  0.00000000000E+00  0.00000000000E+00  0.45593999997E+02  0.45594000000E+02  0.51100000000E-03 0.  1.
         11   -1    0    0    0    0 -0.00000000000E+00 -0.00000000000E+00 -0.45593999997E+02  0.45594000000E+02  0.51100000000E-03 0. -1.
    9900012    2    1    2    0    0 -0.39757995586E+01  0.32594906374E+02  0.30836318255E+02  0.46142318440E+02  0.10000006191E+02 0.  0.
         12    1    1    2    0    0  0.39757995586E+01 -0.32594906374E+02 -0.30836318255E+02  0.45045681560E+02  0.00000000000E+00 0. -1.
         11    1    3    3    0    0 -0.23719358755E+01  0.24068425680E+01  0.64200501458E+01  0.72550682341E+01  0.51100000000E-03 0. -1.
        -11    1    3    3    0    0 -0.13122913065E+01  0.11382614941E+02  0.93833485412E+01  0.14809904168E+02  0.51100000000E-03 0.  1.
        -12    1    3    3    0    0 -0.29157237662E+00  0.18805448865E+02  0.15032919568E+02  0.24077346038E+02  0.00000000000E+00 0.  1.
</event>
<event>
 7    1  0.2097247E-008  0.4614232E+02  0.7816164E-02  0.1320468E+00
        -11   -1    0    0    0    0  0.00000000000E+00  0.00000000000E+00  0.45593999997E+02  0.45594000000E+02  0.51100000000E-03 0.  1.
         11   -1    0    0    0    0 -0.00000000000E+00 -0.00000000000E+00 -0.45593999997E+02  0.45594000000E+02  0.51100000000E-03 0. -1.
    9900012    2    1    2    0    0 -0.34525012804E+02 -0.27613501605E+02  0.86389508414E+01  0.46142318169E+02  0.10000003716E+02 0.  0.
         12    1    1    2    0    0  0.34525012804E+02  0.27613501605E+02 -0.86389508414E+01  0.45045681831E+02  0.00000000000E+00 0. -1.
         11    1    3    3    0    0 -0.16524275120E+02 -0.10858656086E+02  0.50512083301E+01  0.20407762888E+02  0.51100000000E-03 0.  1.
        -11    1    3    3    0    0 -0.10196381860E+02 -0.12066161124E+02  0.48910478453E+01  0.16537254808E+02  0.51100000000E-03 0. -1.
         12    1    3    3    0    0 -0.78043558247E+01 -0.46886843944E+01 -0.13033053341E+01  0.91973004726E+01  0.00000000000E+00 0. -1.
</event>
<event>
 7    1  0.2097247E-008  0.4614232E+02  0.7816164E-02  0.1320468E+00
        -11   -1    0    0    0    0  0.00000000000E+00  0.00000000000E+00  0.45593999997E+02  0.45594000000E+02  0.51100000000E-03 0. -1.
         11   -1    0    0    0    0 -0.00000000000E+00 -0.00000000000E+00 -0.45593999997E+02  0.45594000000E+02  0.51100000000E-03 0.  1.
    9900012    2    1    2    0    0 -0.45031286501E+02 -0.11336838421E+01 -0.10718029185E+00  0.46142317736E+02  0.99999997722E+01 0.  0.
         12    1    1    2    0    0  0.45031286501E+02  0.11336838421E+01  0.10718029185E+00  0.45045682264E+02  0.00000000000E+00 0. -1.
         11    1    3    3    0    0 -0.10244806094E+02  0.32866373435E+01  0.86800869636E+00  0.10794048188E+02  0.51100000000E-03 0. -1.
        -11    1    3    3    0    0 -0.16906984521E+02 -0.73760119652E-04 -0.45810902682E-01  0.16907046593E+02  0.51100000000E-03 0.  1.
        -12    1    3    3    0    0 -0.17879495886E+02 -0.44202474255E+01 -0.92937808553E+00  0.18441222955E+02  0.00000000000E+00 0.  1.
</event>
<event>
 7    1  0.2097247E-008  0.4614232E+02  0.7816164E-02  0.1320468E+00
        -11   -1    0    0    0    0  0.00000000000E+00  0.00000000000E+00  0.45593999997E+02  0.45594000000E+02  0.51100000000E-03 0.  1.
         11   -1    0    0    0    0 -0.00000000000E+00 -0.00000000000E+00 -0.45593999997E+02  0.45594000000E+02  0.51100000000E-03 0. -1.
    9900012    2    1    2    0    0 -0.51165998577E+01 -0.39643205095E+02  0.20768969688E+02  0.46142318673E+02  0.10000008313E+02 0.  0.
         12    1    1    2    0    0  0.51165998577E+01  0.39643205095E+02 -0.20768969688E+02  0.45045681327E+02  0.00000000000E+00 0. -1.
         11    1    3    3    0    0  0.24683917863E+01 -0.80548918626E+01  0.50367881442E+01  0.98154712572E+01  0.51100000000E-03 0. -1.
        -11    1    3    3    0    0 -0.26499623824E+01 -0.51606908117E+01  0.19849439473E+01  0.61314788605E+01  0.51100000000E-03 0.  1.
        -12    1    3    3    0    0 -0.49350292615E+01 -0.26427622421E+02  0.13747237596E+02  0.30195368555E+02  0.00000000000E+00 0.  1.
</event>
<event>
 7    1  0.2097247E-008  0.4614232E+02  0.7816164E-02  0.1320468E+00
        -11   -1    0    0    0    0  0.00000000000E+00  0.00000000000E+00  0.45593999997E+02  0.45594000000E+02  0.51100000000E-03 0.  1.
         11   -1    0    0    0    0 -0.00000000000E+00 -0.00000000000E+00 -0.45593999997E+02  0.45594000000E+02  0.51100000000E-03 0. -1.
    9900012    2    1    2    0    0  0.36067736232E+02  0.26984329566E+02  0.27905618849E+00  0.46142317505E+02  0.99999976684E+01 0.  0.
         12    1    1    2    0    0 -0.36067736232E+02 -0.26984329566E+02 -0.27905618849E+00  0.45045682495E+02  0.00000000000E+00 0. -1.
         11    1    3    3    0    0  0.79406074975E+00  0.75496778632E+00 -0.16015251167E+01  0.19404617474E+01  0.51100000000E-03 0. -1.
        -11    1    3    3    0    0  0.18663285139E+02  0.16123824514E+02  0.21488530305E+01  0.24757089868E+02  0.51100000000E-03 0.  1.
        -12    1    3    3    0    0  0.16610390343E+02  0.10105537266E+02 -0.26827172525E+00  0.19444765890E+02  0.00000000000E+00 0.  1.
</event>
<event>
 7    1  0.2097247E-008  0.4614232E+02  0.7816164E-02  0.1320468E+00
        -11   -1    0    0    0    0  0.00000000000E+00  0.00000000000E+00  0.45593999997E+02  0.45594000000E+02  0.51100000000E-03 0.  1.
         11   -1    0    0    0    0 -0.00000000000E+00 -0.00000000000E+00 -0.45593999997E+02  0.45594000000E+02  0.51100000000E-03 0. -1.
    9900012    2    1    2    0    0 -0.98753660474E+01  0.14733150775E+02  0.41406820891E+02  0.46142318713E+02  0.10000008681E+02 0.  0.
         12    1    1    2    0    0  0.98753660474E+01 -0.14733150775E+02 -0.41406820891E+02  0.45045681287E+02  0.00000000000E+00 0. -1.
         11    1    3    3    0    0 -0.28367445237E+01  0.30376251404E+01  0.35892654288E+01  0.54915491955E+01  0.51100000000E-03 0. -1.
        -11    1    3    3    0    0 -0.66384214019E+01  0.91130523466E+01  0.23118599155E+02  0.25721313904E+02  0.51100000000E-03 0.  1.
         12    1    3    3    0    0 -0.40020012181E+00  0.25824732880E+01  0.14698956307E+02  0.14929455614E+02  0.00000000000E+00 0. -1.
</event>
<event>
 7    1  0.2097247E-008  0.4614232E+02  0.7816164E-02  0.1320468E+00
        -11   -1    0    0    0    0  0.00000000000E+00  0.00000000000E+00  0.45593999997E+02  0.45594000000E+02  0.51100000000E-03 0.  1.
         11   -1    0    0    0    0 -0.00000000000E+00 -0.00000000000E+00 -0.45593999997E+02  0.45594000000E+02  0.51100000000E-03 0. -1.
    9900012    2    1    2    0    0 -0.23408542250E+02  0.13640603292E+02  0.35987324187E+02  0.46142318625E+02  0.10000007875E+02 0.  0.
         12    1    1    2    0    0  0.23408542250E+02 -0.13640603292E+02 -0.35987324187E+02  0.45045681375E+02  0.00000000000E+00 0. -1.
         11    1    3    3    0    0  0.19618049094E+00  0.58210135121E+00  0.28710763820E+01  0.29360532387E+01  0.51100000000E-03 0. -1.
        -11    1    3    3    0    0 -0.20752320644E+02  0.13004167630E+02  0.31588636463E+02  0.39970103098E+02  0.51100000000E-03 0.  1.
         12    1    3    3    0    0 -0.28524020966E+01  0.54334310424E-01  0.15276113424E+01  0.32361622876E+01  0.00000000000E+00 0. -1.
</event>
<event>
 7    1  0.2097247E-008  0.4614232E+02  0.7816164E-02  0.1320468E+00
        -11   -1    0    0    0    0  0.00000000000E+00  0.00000000000E+00  0.45593999997E+02  0.45594000000E+02  0.51100000000E-03 0. -1.
         11   -1    0    0    0    0 -0.00000000000E+00 -0.00000000000E+00 -0.45593999997E+02  0.45594000000E+02  0.51100000000E-03 0.  1.
    9900012    2    1    2    0    0 -0.34159042348E+02  0.43846402285E+00 -0.29361215970E+02  0.46142318431E+02  0.10000006108E+02 0.  0.
         12    1    1    2    0    0  0.34159042348E+02 -0.43846402285E+00  0.29361215970E+02  0.45045681569E+02  0.00000000000E+00 0. -1.
         11    1    3    3    0    0 -0.18631550978E+01 -0.79115745161E+00 -0.36280785772E+01  0.41545434713E+01  0.51100000000E-03 0. -1.
        -11    1    3    3    0    0 -0.13001127901E+02  0.23306688231E+01 -0.14584121304E+02  0.19676329392E+02  0.51100000000E-03 0.  1.
        -12    1    3    3    0    0 -0.19294759348E+02 -0.11010473486E+01 -0.11149016089E+02  0.22311445568E+02  0.00000000000E+00 0.  1.
</event>
<event>
 7    1  0.2097247E-008  0.4614232E+02  0.7816164E-02  0.1320468E+00
        -11   -1    0    0    0    0  0.00000000000E+00  0.00000000000E+00  0.45593999997E+02  0.45594000000E+02  0.51100000000E-03 0.  1.
         11   -1    0    0    0    0 -0.00000000000E+00 -0.00000000000E+00 -0.45593999997E+02  0.45594000000E+02  0.51100000000E-03 0. -1.
    9900012    2    1    2    0    0  0.32447827556E+02  0.11819779946E+01  0.31222666442E+02  0.46142317800E+02  0.10000000352E+02 0.  0.
         12    1    1    2    0    0 -0.32447827556E+02 -0.11819779946E+01 -0.31222666442E+02  0.45045682200E+02  0.00000000000E+00 0. -1.
         11    1    3    3    0    0  0.12011795173E+02  0.21703581690E+01  0.81453100118E+01  0.14674459217E+02  0.51100000000E-03 0.  1.
        -11    1    3    3    0    0  0.10058751339E+02 -0.32498228959E+01  0.93575364326E+01  0.14117482626E+02  0.51100000000E-03 0. -1.
        -12    1    3    3    0    0  0.10377281045E+02  0.22614427215E+01  0.13719819998E+02  0.17350375957E+02  0.00000000000E+00 0.  1.
</event>
<event>
 7    1  0.2099566E-008  0.4614232E+02  0.7816164E-02  0.1320468E+00
        -11   -1    0    0    0    0  0.00000000000E+00  0.00000000000E+00  0.45593999997E+02  0.45594000000E+02  0.51100000000E-03 0. -1.
         11   -1    0    0    0    0 -0.00000000000E+00 -0.00000000000E+00 -0.45593999997E+02  0.45594000000E+02  0.51100000000E-03 0.  1.
    9900012    2    1    2    0    0  0.26703004282E+02  0.29698577481E+02 -0.20834048261E+02  0.46142317531E+02  0.99999979048E+01 0.  0.
         12    1    1    2    0    0 -0.26703004282E+02 -0.29698577481E+02  0.20834048261E+02  0.45045682469E+02  0.00000000000E+00 0. -1.
         11    1    3    3    0    0  0.17609469371E+01  0.29759638725E+01 -0.45394450324E+01  0.57064749670E+01  0.51100000000E-03 0. -1.
        -11    1    3    3    0    0  0.59268152977E+01  0.99350348823E+01 -0.62967787441E+01  0.13171236863E+02  0.51100000000E-03 0.  1.
        -12    1    3    3    0    0  0.19015242048E+02  0.16787578726E+02 -0.99978244849E+01  0.27264605701E+02  0.00000000000E+00 0.  1.
</event>
<event>
 7    1  0.2097247E-008  0.4614231E+02  0.7816164E-02  0.1320468E+00
        -11   -1    0    0    0    0  0.00000000000E+00  0.00000000000E+00  0.45593999997E+02  0.45594000000E+02  0.51100000000E-03 0.  1.
         11   -1    0    0    0    0 -0.00000000000E+00 -0.00000000000E+00 -0.45593999997E+02  0.45594000000E+02  0.51100000000E-03 0. -1.
    9900012    2    1    2    0    0 -0.31994454760E+02 -0.27552536924E+02  0.15694790211E+02  0.46142313568E+02  0.99999617663E+01 0.  0.
         12    1    1    2    0    0  0.31994454760E+02  0.27552536924E+02 -0.15694790211E+02  0.45045686432E+02  0.00000000000E+00 0. -1.
         11    1    3    3    0    0 -0.62137130639E+01 -0.95366900943E+01  0.19177763458E+01  0.11542813971E+02  0.51100000000E-03 0. -1.
        -11    1    3    3    0    0 -0.20738798824E+01 -0.17881274691E+01  0.25903559119E+01  0.37693927394E+01  0.51100000000E-03 0.  1.
        -12    1    3    3    0    0 -0.23706861814E+02 -0.16227719360E+02  0.11186657953E+02  0.30830106858E+02  0.00000000000E+00 0.  1.
</event>
<event>
 7    1  0.2097247E-008  0.4614232E+02  0.7816164E-02  0.1320468E+00
        -11   -1    0    0    0    0  0.00000000000E+00  0.00000000000E+00  0.45593999997E+02  0.45594000000E+02  0.51100000000E-03 0.  1.
         11   -1    0    0    0    0 -0.00000000000E+00 -0.00000000000E+00 -0.45593999997E+02  0.45594000000E+02  0.51100000000E-03 0. -1.
    9900012    2    1    2    0    0 -0.13705791873E+02 -0.15617749490E+02  0.39966869317E+02  0.46142317932E+02  0.10000001556E+02 0.  0.
         12    1    1    2    0    0  0.13705791873E+02  0.15617749490E+02 -0.39966869317E+02  0.45045682068E+02  0.00000000000E+00 0. -1.
         11    1    3    3    0    0 -0.16938354132E+01 -0.65350251958E+01  0.16584779032E+02  0.17906158955E+02  0.51100000000E-03 0. -1.
        -11    1    3    3    0    0 -0.32641256726E+01 -0.40026930165E+01  0.46622728958E+01  0.69579347947E+01  0.51100000000E-03 0.  1.
         12    1    3    3    0    0 -0.87478307877E+01 -0.50800312772E+01  0.18719817389E+02  0.21278224182E+02  0.00000000000E+00 0. -1.
</event>
<event>
 7    1  0.2097247E-008  0.4614232E+02  0.7816164E-02  0.1320468E+00
        -11   -1    0    0    0    0  0.00000000000E+00  0.00000000000E+00  0.45593999997E+02  0.45594000000E+02  0.51100000000E-03 0.  1.
         11   -1    0    0    0    0 -0.00000000000E+00 -0.00000000000E+00 -0.45593999997E+02  0.45594000000E+02  0.51100000000E-03 0. -1.
    9900012    2    1    2    0    0 -0.11318758856E+01  0.33249096765E+02  0.30369885071E+02  0.46142317655E+02  0.99999990286E+01 0.  0.
         12    1    1    2    0    0  0.11318758856E+01 -0.33249096765E+02 -0.30369885071E+02  0.45045682345E+02  0.00000000000E+00 0. -1.
         11    1    3    3    0    0  0.18042311354E+01  0.92120345719E+01  0.56488830294E+01  0.10955670253E+02  0.51100000000E-03 0. -1.
        -11    1    3    3    0    0 -0.35924644946E+01  0.96798536724E+01  0.75292654352E+01  0.12778701285E+02  0.51100000000E-03 0.  1.
        -12    1    3    3    0    0  0.65635747370E+00  0.14357208521E+02  0.17191736607E+02  0.22407946117E+02  0.00000000000E+00 0.  1.
</event>
<event>
 7    1  0.2097247E-008  0.4614232E+02  0.7816164E-02  0.1320468E+00
        -11   -1    0    0    0    0  0.00000000000E+00  0.00000000000E+00  0.45593999997E+02  0.45594000000E+02  0.51100000000E-03 0.  1.
         11   -1    0    0    0    0 -0.00000000000E+00 -0.00000000000E+00 -0.45593999997E+02  0.45594000000E+02  0.51100000000E-03 0. -1.
    9900012    2    1    2    0    0  0.13554775255E+02  0.48950120200E+01  0.42678102568E+02  0.46142317480E+02  0.99999974346E+01 0.  0.
         12    1    1    2    0    0 -0.13554775255E+02 -0.48950120200E+01 -0.42678102568E+02  0.45045682520E+02  0.00000000000E+00 0. -1.
         11    1    3    3    0    0  0.61686214752E+01  0.24568505893E+01  0.21524466554E+02  0.22525333880E+02  0.51100000000E-03 0. -1.
        -11    1    3    3    0    0  0.58337925982E+01  0.36591609326E+01  0.20351982735E+02  0.21485478731E+02  0.51100000000E-03 0.  1.
         12    1    3    3    0    0  0.15523611820E+01 -0.12209995019E+01  0.80165327913E+00  0.21315048682E+01  0.00000000000E+00 0. -1.
</event>
<event>
 7    1  0.2097247E-008  0.4614232E+02  0.7816164E-02  0.1320468E+00
        -11   -1    0    0    0    0  0.00000000000E+00  0.00000000000E+00  0.45593999997E+02  0.45594000000E+02  0.51100000000E-03 0. -1.
         11   -1    0    0    0    0 -0.00000000000E+00 -0.00000000000E+00 -0.45593999997E+02  0.45594000000E+02  0.51100000000E-03 0.  1.
    9900012    2    1    2    0    0 -0.12970724408E+02 -0.29899825403E+02 -0.31094602367E+02  0.46142317108E+02  0.99999940484E+01 0.  0.
         12    1    1    2    0    0  0.12970724408E+02  0.29899825403E+02  0.31094602367E+02  0.45045682892E+02  0.00000000000E+00 0. -1.
         11    1    3    3    0    0 -0.39381433779E+01 -0.39312990577E+01 -0.89839983936E+01  0.10567701403E+02  0.51100000000E-03 0. -1.
        -11    1    3    3    0    0 -0.83695901875E+01 -0.23497422826E+02 -0.21531858412E+02  0.32951477149E+02  0.51100000000E-03 0.  1.
        -12    1    3    3    0    0 -0.66299084278E+00 -0.24711035194E+01 -0.57874556139E+00  0.26231385564E+01  0.00000000000E+00 0.  1.
</event>
<event>
 7    1  0.2097247E-008  0.4614232E+02  0.7816164E-02  0.1320468E+00
        -11   -1    0    0    0    0  0.00000000000E+00  0.00000000000E+00  0.45593999997E+02  0.45594000000E+02  0.51100000000E-03 0. -1.
         11   -1    0    0    0    0 -0.00000000000E+00 -0.00000000000E+00 -0.45593999997E+02  0.45594000000E+02  0.51100000000E-03 0.  1.
    9900012    2    1    2    0    0  0.29254824553E+02  0.30486050652E+02 -0.15616319530E+02  0.46142317858E+02  0.10000000880E+02 0.  0.
         12    1    1    2    0    0 -0.29254824553E+02 -0.30486050652E+02  0.15616319530E+02  0.45045682142E+02  0.00000000000E+00 0. -1.
         11    1    3    3    0    0  0.10249558946E+02  0.47310233334E+01 -0.51854415880E+01  0.12422755133E+02  0.51100000000E-03 0. -1.
        -11    1    3    3    0    0  0.69623470514E+01  0.10954004820E+02 -0.39367666940E+01  0.13563282432E+02  0.51100000000E-03 0.  1.
        -12    1    3    3    0    0  0.12042918556E+02  0.14801022498E+02 -0.64941112479E+01  0.20156280293E+02  0.00000000000E+00 0.  1.
</event>
<event>
 7    1  0.2097247E-008  0.4614232E+02  0.7816164E-02  0.1320468E+00
        -11   -1    0    0    0    0  0.00000000000E+00  0.00000000000E+00  0.45593999997E+02  0.45594000000E+02  0.51100000000E-03 0.  1.
         11   -1    0    0    0    0 -0.00000000000E+00 -0.00000000000E+00 -0.45593999997E+02  0.45594000000E+02  0.51100000000E-03 0. -1.
    9900012    2    1    2    0    0 -0.40408409583E+02  0.14325670794E+02  0.13822050385E+02  0.46142317792E+02  0.10000000285E+02 0.  0.
         12    1    1    2    0    0  0.40408409583E+02 -0.14325670794E+02 -0.13822050385E+02  0.45045682208E+02  0.00000000000E+00 0. -1.
         11    1    3    3    0    0 -0.15900220259E+02  0.14583836287E+01  0.55785299335E+01  0.16913423177E+02  0.51100000000E-03 0.  1.
        -11    1    3    3    0    0 -0.76117559671E+01  0.63283400803E+01  0.35154403073E+01  0.10504524639E+02  0.51100000000E-03 0. -1.
         12    1    3    3    0    0 -0.16896433357E+02  0.65389470846E+01  0.47280801442E+01  0.18724369976E+02  0.00000000000E+00 0. -1.
</event>
<event>
 7    1  0.2097247E-008  0.4614232E+02  0.7816164E-02  0.1320468E+00
        -11   -1    0    0    0    0  0.00000000000E+00  0.00000000000E+00  0.45593999997E+02  0.45594000000E+02  0.51100000000E-03 0.  1.
         11   -1    0    0    0    0 -0.00000000000E+00 -0.00000000000E+00 -0.45593999997E+02  0.45594000000E+02  0.51100000000E-03 0. -1.
    9900012    2    1    2    0    0 -0.39027343524E+02 -0.21015206740E+02  0.80212903503E+01  0.46142317013E+02  0.99999931781E+01 0.  0.
         12    1    1    2    0    0  0.39027343524E+02  0.21015206740E+02 -0.80212903503E+01  0.45045682987E+02  0.00000000000E+00 0. -1.
         11    1    3    3    0    0 -0.93462497898E+01 -0.22968666532E+01  0.13805544073E+01  0.97228551511E+01  0.51100000000E-03 0. -1.
        -11    1    3    3    0    0 -0.18348029114E+02 -0.81314948749E+01  0.16920826734E+01  0.20140370535E+02  0.51100000000E-03 0.  1.
        -12    1    3    3    0    0 -0.11333064620E+02 -0.10586845212E+02  0.49486532696E+01  0.16279091327E+02  0.00000000000E+00 0.  1.
</event>
<event>
 7    1  0.2097247E-008  0.4614232E+02  0.7816164E-02  0.1320468E+00
        -11   -1    0    0    0    0  0.00000000000E+00  0.00000000000E+00  0.45593999997E+02  0.45594000000E+02  0.51100000000E-03 0.  1.
         11   -1    0    0    0    0 -0.00000000000E+00 -0.00000000000E+00 -0.45593999997E+02  0.45594000000E+02  0.51100000000E-03 0. -1.
    9900012    2    1    2    0    0 -0.56658654118E+01  0.34300898414E+02  0.28643669554E+02  0.46142317983E+02  0.10000002025E+02 0.  0.
         12    1    1    2    0    0  0.56658654118E+01 -0.34300898414E+02 -0.28643669554E+02  0.45045682017E+02  0.00000000000E+00 0. -1.
         11    1    3    3    0    0 -0.10430626093E+01  0.80634467175E+01  0.22390537522E+01  0.84332979634E+01  0.51100000000E-03 0. -1.
        -11    1    3    3    0    0 -0.47899669720E+01  0.20174113626E+02  0.21860362522E+02  0.30129953436E+02  0.51100000000E-03 0.  1.
         12    1    3    3    0    0  0.16716416952E+00  0.60633380705E+01  0.45442532790E+01  0.75790665837E+01  0.00000000000E+00 0. -1.
</event>
<event>
 7    1  0.2097247E-008  0.4614232E+02  0.7816164E-02  0.1320468E+00
        -11   -1    0    0    0    0  0.00000000000E+00  0.00000000000E+00  0.45593999997E+02  0.45594000000E+02  0.51100000000E-03 0.  1.
         11   -1    0    0    0    0 -0.00000000000E+00 -0.00000000000E+00 -0.45593999997E+02  0.45594000000E+02  0.51100000000E-03 0. -1.
    9900012    2    1    2    0    0  0.22524547816E+01 -0.44250772466E+02  0.81184187022E+01  0.46142321643E+02  0.10000035400E+02 0.  0.
         12    1    1    2    0    0 -0.22524547816E+01  0.44250772466E+02 -0.81184187022E+01  0.45045678357E+02  0.00000000000E+00 0. -1.
         11    1    3    3    0    0 -0.16547947022E+01 -0.31507517366E+01 -0.16978754232E+00  0.35629215656E+01  0.51100000000E-03 0. -1.
        -11    1    3    3    0    0 -0.16500146990E+00 -0.45394968968E+01 -0.97163719088E+00  0.46452488257E+01  0.51100000000E-03 0.  1.
        -12    1    3    3    0    0  0.40722509537E+01 -0.36560523833E+02  0.92598434354E+01  0.37934151252E+02  0.00000000000E+00 0.  1.
</event>
<event>
 7    1  0.2097247E-008  0.4614232E+02  0.7816164E-02  0.1320468E+00
        -11   -1    0    0    0    0  0.00000000000E+00  0.00000000000E+00  0.45593999997E+02  0.45594000000E+02  0.51100000000E-03 0. -1.
         11   -1    0    0    0    0 -0.00000000000E+00 -0.00000000000E+00 -0.45593999997E+02  0.45594000000E+02  0.51100000000E-03 0.  1.
    9900012    2    1    2    0    0 -0.43392176092E+02 -0.11524575337E+02 -0.36628766602E+01  0.46142318208E+02  0.10000004074E+02 0.  0.
         12    1    1    2    0    0  0.43392176092E+02  0.11524575337E+02  0.36628766602E+01  0.45045681792E+02  0.00000000000E+00 0. -1.
         11    1    3    3    0    0 -0.22783754733E+01  0.12421494318E+01 -0.11348910558E+01  0.28322972969E+01  0.51100000000E-03 0. -1.
        -11    1    3    3    0    0 -0.26012212312E+02 -0.89204611865E+01  0.13976975749E+00  0.27499624598E+02  0.51100000000E-03 0.  1.
        -12    1    3    3    0    0 -0.15101588306E+02 -0.38462635826E+01 -0.26677553619E+01  0.15810396313E+02  0.00000000000E+00 0.  1.
</event>
<event>
 7    1  0.2097247E-008  0.4614232E+02  0.7816164E-02  0.1320468E+00
        -11   -1    0    0    0    0  0.00000000000E+00  0.00000000000E+00  0.45593999997E+02  0.45594000000E+02  0.51100000000E-03 0. -1.
         11   -1    0    0    0    0 -0.00000000000E+00 -0.00000000000E+00 -0.45593999997E+02  0.45594000000E+02  0.51100000000E-03 0.  1.
    9900012    2    1    2    0    0 -0.43148637837E+02 -0.10800876666E+02  0.71168516659E+01  0.46142318058E+02  0.10000002708E+02 0.  0.
         12    1    1    2    0    0  0.43148637837E+02  0.10800876666E+02 -0.71168516659E+01  0.45045681942E+02  0.00000000000E+00 0. -1.
         11    1    3    3    0    0 -0.72432752195E+01 -0.34587093353E+01 -0.13219344349E+01  0.81348151229E+01  0.51100000000E-03 0. -1.
        -11    1    3    3    0    0 -0.38818675352E+01  0.55080331216E+00 -0.15708869907E+00  0.39238956370E+01  0.51100000000E-03 0.  1.
        -12    1    3    3    0    0 -0.32023495083E+02 -0.78929706426E+01  0.85958747999E+01  0.34083607298E+02  0.00000000000E+00 0.  1.
</event>
<event>
 7    1  0.2097247E-008  0.4614232E+02  0.7816164E-02  0.1320468E+00
        -11   -1    0    0    0    0  0.00000000000E+00  0.00000000000E+00  0.45593999997E+02  0.45594000000E+02  0.51100000000E-03 0. -1.
         11   -1    0    0    0    0 -0.00000000000E+00 -0.00000000000E+00 -0.45593999997E+02  0.45594000000E+02  0.51100000000E-03 0.  1.
    9900012    2    1    2    0    0 -0.44141125132E+02  0.73525105512E+01 -0.51589877022E+01  0.46142317705E+02  0.99999994910E+01 0.  0.
         12    1    1    2    0    0  0.44141125132E+02 -0.73525105512E+01  0.51589877022E+01  0.45045682295E+02  0.00000000000E+00 0. -1.
         11    1    3    3    0    0 -0.55409086832E+01  0.99880450665E+00  0.10396547177E+01  0.57253962021E+01  0.51100000000E-03 0. -1.
        -11    1    3    3    0    0 -0.29337873020E+02  0.60403736474E+01 -0.14128846633E+01  0.29986549492E+02  0.51100000000E-03 0.  1.
         12    1    3    3    0    0 -0.92623434288E+01  0.31333239724E+00 -0.47857577566E+01  0.10430372011E+02  0.00000000000E+00 0. -1.
</event>
<event>
 7    1  0.2097247E-008  0.4614232E+02  0.7816164E-02  0.1320468E+00
        -11   -1    0    0    0    0  0.00000000000E+00  0.00000000000E+00  0.45593999997E+02  0.45594000000E+02  0.51100000000E-03 0.  1.
         11   -1    0    0    0    0 -0.00000000000E+00 -0.00000000000E+00 -0.45593999997E+02  0.45594000000E+02  0.51100000000E-03 0. -1.
    9900012    2    1    2    0    0  0.33205209142E+02 -0.20121359513E+02  0.22839842237E+02  0.46142318562E+02  0.10000007302E+02 0.  0.
         12    1    1    2    0    0 -0.33205209142E+02  0.20121359513E+02 -0.22839842237E+02  0.45045681438E+02  0.00000000000E+00 0. -1.
         11    1    3    3    0    0  0.12591897978E+02 -0.11971325042E+02  0.85448068468E+01  0.19361876000E+02  0.51100000000E-03 0.  1.
        -11    1    3    3    0    0  0.36036002186E+01 -0.25965501047E+00  0.39973045767E+01  0.53881164984E+01  0.51100000000E-03 0. -1.
        -12    1    3    3    0    0  0.17009710946E+02 -0.78903794612E+01  0.10297730813E+02  0.21392326063E+02  0.00000000000E+00 0.  1.
</event>
<event>
 7    1  0.2097247E-008  0.4614232E+02  0.7816164E-02  0.1320468E+00
        -11   -1    0    0    0    0  0.00000000000E+00  0.00000000000E+00  0.45593999997E+02  0.45594000000E+02  0.51100000000E-03 0. -1.
         11   -1    0    0    0    0 -0.00000000000E+00 -0.00000000000E+00 -0.45593999997E+02  0.45594000000E+02  0.51100000000E-03 0.  1.
    9900012    2    1    2    0    0  0.28481073084E+02 -0.29768812779E+02 -0.18214273146E+02  0.46142317804E+02  0.10000000390E+02 0.  0.
         12    1    1    2    0    0 -0.28481073084E+02  0.29768812779E+02  0.18214273146E+02  0.45045682196E+02  0.00000000000E+00 0. -1.
         11    1    3    3    0    0  0.10896307572E+02 -0.16161630892E+02 -0.73841712251E+01  0.20843555760E+02  0.51100000000E-03 0. -1.
        -11    1    3    3    0    0  0.46113584204E+01 -0.56915523780E+01 -0.56207248930E+01  0.92331437515E+01  0.51100000000E-03 0.  1.
        -12    1    3    3    0    0  0.12973407092E+02 -0.79156295090E+01 -0.52093770278E+01  0.16065618292E+02  0.00000000000E+00 0.  1.
</event>
<event>
 7    1  0.2097247E-008  0.4614232E+02  0.7816164E-02  0.1320468E+00
        -11   -1    0    0    0    0  0.00000000000E+00  0.00000000000E+00  0.45593999997E+02  0.45594000000E+02  0.51100000000E-03 0.  1.
         11   -1    0    0    0    0 -0.00000000000E+00 -0.00000000000E+00 -0.45593999997E+02  0.45594000000E+02  0.51100000000E-03 0. -1.
    9900012    2    1    2    0    0 -0.21051643270E+02  0.26737484786E+02  0.29513533182E+02  0.46142318543E+02  0.10000007127E+02 0.  0.
         12    1    1    2    0    0  0.21051643270E+02 -0.26737484786E+02 -0.29513533182E+02  0.45045681457E+02  0.00000000000E+00 0. -1.
         11    1    3    3    0    0 -0.47859617270E+00  0.46344969801E+00 -0.34499427827E+00  0.75024078286E+00  0.51100000000E-03 0. -1.
        -11    1    3    3    0    0 -0.23503795214E+01  0.62319275343E+01  0.90382302577E+01  0.11227235240E+02  0.51100000000E-03 0.  1.
        -12    1    3    3    0    0 -0.18222667576E+02  0.20042107553E+02  0.20820297203E+02  0.34164842520E+02  0.00000000000E+00 0.  1.
</event>
<event>
 7    1  0.2097247E-008  0.4614232E+02  0.7816164E-02  0.1320468E+00
        -11   -1    0    0    0    0  0.00000000000E+00  0.00000000000E+00  0.45593999997E+02  0.45594000000E+02  0.51100000000E-03 0.  1.
         11   -1    0    0    0    0 -0.00000000000E+00 -0.00000000000E+00 -0.45593999997E+02  0.45594000000E+02  0.51100000000E-03 0. -1.
    9900012    2    1    2    0    0  0.19499334595E+02  0.40511781341E+02 -0.27721950902E+01  0.46142317158E+02  0.99999945010E+01 0.  0.
         12    1    1    2    0    0 -0.19499334595E+02 -0.40511781341E+02  0.27721950902E+01  0.45045682842E+02  0.00000000000E+00 0. -1.
         11    1    3    3    0    0  0.10034183932E+02  0.14567683921E+02 -0.41064804699E+01  0.18159445039E+02  0.51100000000E-03 0. -1.
        -11    1    3    3    0    0  0.39060708608E+01  0.55135667527E+01 -0.13826563700E+00  0.67583966703E+01  0.51100000000E-03 0.  1.
        -12    1    3    3    0    0  0.55590798030E+01  0.20430530667E+02  0.14725510168E+01  0.21224475449E+02  0.00000000000E+00 0.  1.
</event>
<event>
 7    1  0.2097247E-008  0.4614232E+02  0.7816164E-02  0.1320468E+00
        -11   -1    0    0    0    0  0.00000000000E+00  0.00000000000E+00  0.45593999997E+02  0.45594000000E+02  0.51100000000E-03 0.  1.
         11   -1    0    0    0    0 -0.00000000000E+00 -0.00000000000E+00 -0.45593999997E+02  0.45594000000E+02  0.51100000000E-03 0. -1.
    9900012    2    1    2    0    0  0.19882657469E+02 -0.30156513022E+02 -0.26914273259E+02  0.46142318179E+02  0.10000003808E+02 0.  0.
         12    1    1    2    0    0 -0.19882657469E+02  0.30156513022E+02  0.26914273259E+02  0.45045681821E+02  0.00000000000E+00 0. -1.
         11    1    3    3    0    0  0.36915225583E+01 -0.52932255855E+01 -0.97040234221E+00  0.65258912698E+01  0.51100000000E-03 0. -1.
        -11    1    3    3    0    0  0.76125101339E+01 -0.15275641334E+02 -0.14371790031E+02  0.22312415326E+02  0.51100000000E-03 0.  1.
         12    1    3    3    0    0  0.85786247766E+01 -0.95876461018E+01 -0.11572080886E+02  0.17304011583E+02  0.00000000000E+00 0. -1.
</event>
<event>
 7    1  0.2097247E-008  0.4614231E+02  0.7816164E-02  0.1320468E+00
        -11   -1    0    0    0    0  0.00000000000E+00  0.00000000000E+00  0.45593999997E+02  0.45594000000E+02  0.51100000000E-03 0. -1.
         11   -1    0    0    0    0 -0.00000000000E+00 -0.00000000000E+00 -0.45593999997E+02  0.45594000000E+02  0.51100000000E-03 0.  1.
    9900012    2    1    2    0    0  0.25352439749E+02  0.13504050173E+02 -0.34698821804E+02  0.46142314226E+02  0.99999677667E+01 0.  0.
         12    1    1    2    0    0 -0.25352439749E+02 -0.13504050173E+02  0.34698821804E+02  0.45045685774E+02  0.00000000000E+00 0. -1.
         11    1    3    3    0    0  0.26064076040E+01 -0.10410298363E+01 -0.19566284157E+01  0.34213299660E+01  0.51100000000E-03 0. -1.
        -11    1    3    3    0    0  0.15212720496E+02  0.10011108335E+02 -0.25469606467E+02  0.31310541497E+02  0.51100000000E-03 0.  1.
        -12    1    3    3    0    0  0.75333116489E+01  0.45339716741E+01 -0.72725869210E+01  0.11410442764E+02  0.00000000000E+00 0.  1.
</event>
<event>
 7    1  0.2097247E-008  0.4614232E+02  0.7816164E-02  0.1320468E+00
        -11   -1    0    0    0    0  0.00000000000E+00  0.00000000000E+00  0.45593999997E+02  0.45594000000E+02  0.51100000000E-03 0.  1.
         11   -1    0    0    0    0 -0.00000000000E+00 -0.00000000000E+00 -0.45593999997E+02  0.45594000000E+02  0.51100000000E-03 0. -1.
    9900012    2    1    2    0    0 -0.57831637110E+01 -0.29435039592E+02  0.33604270645E+02  0.46142317145E+02  0.99999943787E+01 0.  0.
         12    1    1    2    0    0  0.57831637110E+01  0.29435039592E+02 -0.33604270645E+02  0.45045682855E+02  0.00000000000E+00 0. -1.
         11    1    3    3    0    0 -0.12890307851E+01 -0.10375295224E+01  0.17865458836E+01  0.24351210094E+01  0.51100000000E-03 0. -1.
        -11    1    3    3    0    0 -0.27525134839E+00  0.47002277564E+00  0.79192274122E-02  0.54474552747E+00  0.51100000000E-03 0.  1.
        -12    1    3    3    0    0 -0.42188815776E+01 -0.28867532845E+02  0.31809805534E+02  0.43162450608E+02  0.00000000000E+00 0.  1.
</event>
<event>
 7    1  0.2097247E-008  0.4614232E+02  0.7816164E-02  0.1320468E+00
        -11   -1    0    0    0    0  0.00000000000E+00  0.00000000000E+00  0.45593999997E+02  0.45594000000E+02  0.51100000000E-03 0. -1.
         11   -1    0    0    0    0 -0.00000000000E+00 -0.00000000000E+00 -0.45593999997E+02  0.45594000000E+02  0.51100000000E-03 0.  1.
    9900012    2    1    2    0    0 -0.18614965937E+02 -0.10553244028E+02 -0.39638689157E+02  0.46142316584E+02  0.99999892668E+01 0.  0.
         12    1    1    2    0    0  0.18614965937E+02  0.10553244028E+02  0.39638689157E+02  0.45045683416E+02  0.00000000000E+00 0. -1.
         11    1    3    3    0    0 -0.13023651449E+02 -0.58512211846E+01 -0.21318208712E+02  0.25657714422E+02  0.51100000000E-03 0. -1.
        -11    1    3    3    0    0 -0.38762610847E+00 -0.64574529606E+00  0.23664671985E+00  0.78945735698E+00  0.51100000000E-03 0.  1.
        -12    1    3    3    0    0 -0.52036883800E+01 -0.40562775472E+01 -0.18557127165E+02  0.19695144806E+02  0.00000000000E+00 0.  1.
</event>
<event>
 7    1  0.2097247E-008  0.4614232E+02  0.7816164E-02  0.1320468E+00
        -11   -1    0    0    0    0  0.00000000000E+00  0.00000000000E+00  0.45593999997E+02  0.45594000000E+02  0.51100000000E-03 0. -1.
         11   -1    0    0    0    0 -0.00000000000E+00 -0.00000000000E+00 -0.45593999997E+02  0.45594000000E+02  0.51100000000E-03 0.  1.
    9900012    2    1    2    0    0  0.21366666580E+02  0.37747550238E+02 -0.12153250995E+02  0.46142317638E+02  0.99999988747E+01 0.  0.
         12    1    1    2    0    0 -0.21366666580E+02 -0.37747550238E+02  0.12153250995E+02  0.45045682362E+02  0.00000000000E+00 0. -1.
         11    1    3    3    0    0  0.41812356365E+01  0.11418479428E+02 -0.10208785416E+00  0.12160379356E+02  0.51100000000E-03 0. -1.
        -11    1    3    3    0    0  0.14057644576E+02  0.23575283684E+02 -0.92683693245E+01  0.28970917175E+02  0.51100000000E-03 0.  1.
         12    1    3    3    0    0  0.31277863682E+01  0.27537871268E+01 -0.27827938167E+01  0.50110211066E+01  0.00000000000E+00 0. -1.
</event>
<event>
 7    1  0.2097247E-008  0.4614232E+02  0.7816164E-02  0.1320468E+00
        -11   -1    0    0    0    0  0.00000000000E+00  0.00000000000E+00  0.45593999997E+02  0.45594000000E+02  0.51100000000E-03 0.  1.
         11   -1    0    0    0    0 -0.00000000000E+00 -0.00000000000E+00 -0.45593999997E+02  0.45594000000E+02  0.51100000000E-03 0. -1.
    9900012    2    1    2    0    0  0.52352020578E+01  0.33433002792E+02  0.29731138369E+02  0.46142316467E+02  0.99999881974E+01 0.  0.
         12    1    1    2    0    0 -0.52352020578E+01 -0.33433002792E+02 -0.29731138369E+02  0.45045683533E+02  0.00000000000E+00 0. -1.
         11    1    3    3    0    0  0.24519680339E+00  0.66104268772E+01  0.36645974570E+01  0.75622179124E+01  0.51100000000E-03 0. -1.
        -11    1    3    3    0    0 -0.80046555123E+00  0.14468306336E+02  0.10587865470E+02  0.17946462849E+02  0.51100000000E-03 0.  1.
         12    1    3    3    0    0  0.57904708057E+01  0.12354269579E+02  0.15478675443E+02  0.20633635706E+02  0.00000000000E+00 0. -1.
</event>
<event>
 7    1  0.2097247E-008  0.4614232E+02  0.7816164E-02  0.1320468E+00
        -11   -1    0    0    0    0  0.00000000000E+00  0.00000000000E+00  0.45593999997E+02  0.45594000000E+02  0.51100000000E-03 0.  1.
         11   -1    0    0    0    0 -0.00000000000E+00 -0.00000000000E+00 -0.45593999997E+02  0.45594000000E+02  0.51100000000E-03 0. -1.
    9900012    2    1    2    0    0  0.28611734295E+02 -0.13851940892E+02  0.31915606250E+02  0.46142317319E+02  0.99999959714E+01 0.  0.
         12    1    1    2    0    0 -0.28611734295E+02  0.13851940892E+02 -0.31915606250E+02  0.45045682681E+02  0.00000000000E+00 0. -1.
         11    1    3    3    0    0  0.10421731511E+02 -0.43842643367E+01  0.13926565160E+02  0.17938324305E+02  0.51100000000E-03 0. -1.
        -11    1    3    3    0    0  0.16191780062E+02 -0.97784050338E+01  0.18098055420E+02  0.26178818859E+02  0.51100000000E-03 0.  1.
         12    1    3    3    0    0  0.19982227226E+01  0.31072847902E+00 -0.10901432986E+00  0.20251741557E+01  0.00000000000E+00 0. -1.
</event>
<event>
 7    1  0.2097247E-008  0.4614232E+02  0.7816164E-02  0.1320468E+00
        -11   -1    0    0    0    0  0.00000000000E+00  0.00000000000E+00  0.45593999997E+02  0.45594000000E+02  0.51100000000E-03 0.  1.
         11   -1    0    0    0    0 -0.00000000000E+00 -0.00000000000E+00 -0.45593999997E+02  0.45594000000E+02  0.51100000000E-03 0. -1.
    9900012    2    1    2    0    0  0.35325408087E+02  0.18801150447E+02  0.20682016932E+02  0.46142317199E+02  0.99999948741E+01 0.  0.
         12    1    1    2    0    0 -0.35325408087E+02 -0.18801150447E+02 -0.20682016932E+02  0.45045682801E+02  0.00000000000E+00 0. -1.
         11    1    3    3    0    0  0.14374490289E+02  0.83513424613E+01  0.11595304721E+02  0.20268744012E+02  0.51100000000E-03 0. -1.
        -11    1    3    3    0    0  0.63424723408E+01  0.65075513164E+01  0.37188206733E+01  0.98185949601E+01  0.51100000000E-03 0.  1.
         12    1    3    3    0    0  0.14608445457E+02  0.39422566696E+01  0.53678915378E+01  0.16054978227E+02  0.00000000000E+00 0. -1.
</event>
<event>
 7    1  0.2097247E-008  0.4614232E+02  0.7816164E-02  0.1320468E+00
        -11   -1    0    0    0    0  0.00000000000E+00  0.00000000000E+00  0.45593999997E+02  0.45594000000E+02  0.51100000000E-03 0.  1.
         11   -1    0    0    0    0 -0.00000000000E+00 -0.00000000000E+00 -0.45593999997E+02  0.45594000000E+02  0.51100000000E-03 0. -1.
    9900012    2    1    2    0    0  0.12092680719E+02 -0.40175751494E+02  0.16394794296E+02  0.46142320795E+02  0.10000027661E+02 0.  0.
         12    1    1    2    0    0 -0.12092680719E+02  0.40175751494E+02 -0.16394794296E+02  0.45045679205E+02  0.00000000000E+00 0. -1.
         11    1    3    3    0    0  0.20225905812E+01 -0.22806001670E+01  0.33419431156E+00  0.30665446156E+01  0.51100000000E-03 0. -1.
        -11    1    3    3    0    0  0.62530641901E+01 -0.12942507407E+02  0.86140971117E+01  0.16757445481E+02  0.51100000000E-03 0.  1.
        -12    1    3    3    0    0  0.38170259482E+01 -0.24952643920E+02  0.74465028730E+01  0.26318330698E+02  0.00000000000E+00 0.  1.
</event>
<event>
 7    1  0.2097247E-008  0.4614232E+02  0.7816164E-02  0.1320468E+00
        -11   -1    0    0    0    0  0.00000000000E+00  0.00000000000E+00  0.45593999997E+02  0.45594000000E+02  0.51100000000E-03 0.  1.
         11   -1    0    0    0    0 -0.00000000000E+00 -0.00000000000E+00 -0.45593999997E+02  0.45594000000E+02  0.51100000000E-03 0. -1.
    9900012    2    1    2    0    0  0.40773708930E+02 -0.32579413246E+01  0.18868073463E+02  0.46142315214E+02  0.99999767775E+01 0.  0.
         12    1    1    2    0    0 -0.40773708930E+02  0.32579413246E+01 -0.18868073463E+02  0.45045684786E+02  0.00000000000E+00 0. -1.
         11    1    3    3    0    0  0.15647456940E+02  0.13107475972E+01  0.46668378097E+01  0.16381097135E+02  0.51100000000E-03 0. -1.
        -11    1    3    3    0    0 -0.51693755264E-01 -0.64100375123E+00  0.14550197553E+00  0.65933992707E+00  0.51100000000E-03 0.  1.
        -12    1    3    3    0    0  0.25177945745E+02 -0.39276851706E+01  0.14055733678E+02  0.29101878152E+02  0.00000000000E+00 0.  1.
</event>
<event>
 7    1  0.2097247E-008  0.4614232E+02  0.7816164E-02  0.1320468E+00
        -11   -1    0    0    0    0  0.00000000000E+00  0.00000000000E+00  0.45593999997E+02  0.45594000000E+02  0.51100000000E-03 0.  1.
         11   -1    0    0    0    0 -0.00000000000E+00 -0.00000000000E+00 -0.45593999997E+02  0.45594000000E+02  0.51100000000E-03 0. -1.
    9900012    2    1    2    0    0  0.83407864207E+01 -0.19158727703E+02  0.39905980736E+02  0.46142324694E+02  0.10000063220E+02 0.  0.
         12    1    1    2    0    0 -0.83407864207E+01  0.19158727703E+02 -0.39905980736E+02  0.45045675306E+02  0.00000000000E+00 0. -1.
         11    1    3    3    0    0  0.29984937394E+01 -0.96128229532E+01  0.19762320685E+02  0.22179870355E+02  0.51100000000E-03 0. -1.
        -11    1    3    3    0    0  0.40014663911E+01 -0.94710794360E+01  0.12423032491E+02  0.16125905106E+02  0.51100000000E-03 0.  1.
         12    1    3    3    0    0  0.13408262903E+01 -0.74825313333E-01  0.77206275596E+01  0.78365492331E+01  0.00000000000E+00 0. -1.
</event>
<event>
 7    1  0.2097247E-008  0.4614231E+02  0.7816164E-02  0.1320468E+00
        -11   -1    0    0    0    0  0.00000000000E+00  0.00000000000E+00  0.45593999997E+02  0.45594000000E+02  0.51100000000E-03 0.  1.
         11   -1    0    0    0    0 -0.00000000000E+00 -0.00000000000E+00 -0.45593999997E+02  0.45594000000E+02  0.51100000000E-03 0. -1.
    9900012    2    1    2    0    0  0.16042707189E+02 -0.22964190198E+02  0.35275931533E+02  0.46142313959E+02  0.99999653321E+01 0.  0.
         12    1    1    2    0    0 -0.16042707189E+02  0.22964190198E+02 -0.35275931533E+02  0.45045686041E+02  0.00000000000E+00 0. -1.
         11    1    3    3    0    0 -0.21499653519E+00 -0.49379827650E+01  0.47536406718E+01  0.68576232905E+01  0.51100000000E-03 0. -1.
        -11    1    3    3    0    0  0.55051828844E+01 -0.44382556029E+01  0.60945948561E+01  0.93353756276E+01  0.51100000000E-03 0.  1.
         12    1    3    3    0    0  0.10752520839E+02 -0.13587951830E+02  0.24427696005E+02  0.29949315041E+02  0.00000000000E+00 0. -1.
</event>
<event>
 7    1  0.2097247E-008  0.4614232E+02  0.7816164E-02  0.1320468E+00
        -11   -1    0    0    0    0  0.00000000000E+00  0.00000000000E+00  0.45593999997E+02  0.45594000000E+02  0.51100000000E-03 0.  1.
         11   -1    0    0    0    0 -0.00000000000E+00 -0.00000000000E+00 -0.45593999997E+02  0.45594000000E+02  0.51100000000E-03 0. -1.
    9900012    2    1    2    0    0 -0.17636190404E+02 -0.24015598909E+02  0.33783565534E+02  0.46142317598E+02  0.99999985098E+01 0.  0.
         12    1    1    2    0    0  0.17636190404E+02  0.24015598909E+02 -0.33783565534E+02  0.45045682402E+02  0.00000000000E+00 0. -1.
         11    1    3    3    0    0 -0.19621431039E+01 -0.35077706282E+01  0.43382521402E+01  0.59139574088E+01  0.51100000000E-03 0. -1.
        -11    1    3    3    0    0 -0.62300340507E+01 -0.15035802303E+02  0.15087168227E+02  0.22192596075E+02  0.51100000000E-03 0.  1.
         12    1    3    3    0    0 -0.94440132497E+01 -0.54720259776E+01  0.14358145167E+02  0.18035764114E+02  0.00000000000E+00 0. -1.
</event>
<event>
 7    1  0.2097247E-008  0.4614232E+02  0.7816164E-02  0.1320468E+00
        -11   -1    0    0    0    0  0.00000000000E+00  0.00000000000E+00  0.45593999997E+02  0.45594000000E+02  0.51100000000E-03 0.  1.
         11   -1    0    0    0    0 -0.00000000000E+00 -0.00000000000E+00 -0.45593999997E+02  0.45594000000E+02  0.51100000000E-03 0. -1.
    9900012    2    1    2    0    0  0.14341021241E+02 -0.19277958028E+02  0.38102610113E+02  0.46142318150E+02  0.10000003544E+02 0.  0.
         12    1    1    2    0    0 -0.14341021241E+02  0.19277958028E+02 -0.38102610113E+02  0.45045681850E+02  0.00000000000E+00 0. -1.
         11    1    3    3    0    0  0.89206617345E+00 -0.50247950842E+01  0.88459407074E+01  0.10212493082E+02  0.51100000000E-03 0. -1.
        -11    1    3    3    0    0  0.52082259287E+01 -0.26787009022E+01  0.13485115665E+02  0.14702020290E+02  0.51100000000E-03 0.  1.
         12    1    3    3    0    0  0.82407291391E+01 -0.11574462041E+02  0.15771553740E+02  0.21227804777E+02  0.00000000000E+00 0. -1.
</event>
<event>
 7    1  0.2097247E-008  0.4614232E+02  0.7816164E-02  0.1320468E+00
        -11   -1    0    0    0    0  0.00000000000E+00  0.00000000000E+00  0.45593999997E+02  0.45594000000E+02  0.51100000000E-03 0.  1.
         11   -1    0    0    0    0 -0.00000000000E+00 -0.00000000000E+00 -0.45593999997E+02  0.45594000000E+02  0.51100000000E-03 0. -1.
    9900012    2    1    2    0    0 -0.14181363625E+02  0.22590404762E+02  0.36299807080E+02  0.46142318125E+02  0.10000003321E+02 0.  0.
         12    1    1    2    0    0  0.14181363625E+02 -0.22590404762E+02 -0.36299807080E+02  0.45045681875E+02  0.00000000000E+00 0. -1.
         11    1    3    3    0    0 -0.41208666956E+01  0.38137887622E+01  0.97460587449E+01  0.11247763705E+02  0.51100000000E-03 0. -1.
        -11    1    3    3    0    0 -0.71419958655E+01  0.11210547702E+02  0.21688314216E+02  0.25437520683E+02  0.51100000000E-03 0.  1.
         12    1    3    3    0    0 -0.29185010635E+01  0.75660682975E+01  0.48654341190E+01  0.94570337373E+01  0.00000000000E+00 0. -1.
</event>
<event>
 7    1  0.2097247E-008  0.4614232E+02  0.7816164E-02  0.1320468E+00
        -11   -1    0    0    0    0  0.00000000000E+00  0.00000000000E+00  0.45593999997E+02  0.45594000000E+02  0.51100000000E-03 0.  1.
         11   -1    0    0    0    0 -0.00000000000E+00 -0.00000000000E+00 -0.45593999997E+02  0.45594000000E+02  0.51100000000E-03 0. -1.
    9900012    2    1    2    0    0  0.10346998033E+02 -0.36232771541E+02  0.24682775506E+02  0.46142317538E+02  0.99999979639E+01 0.  0.
         12    1    1    2    0    0 -0.10346998033E+02  0.36232771541E+02 -0.24682775506E+02  0.45045682462E+02  0.00000000000E+00 0. -1.
         11    1    3    3    0    0  0.61926974885E+01 -0.11231788811E+02  0.11667945986E+02  0.17339075693E+02  0.51100000000E-03 0. -1.
        -11    1    3    3    0    0  0.34614722324E+01 -0.19013622319E+02  0.11833567625E+02  0.22661265338E+02  0.51100000000E-03 0.  1.
         12    1    3    3    0    0  0.69282831229E+00 -0.59873604100E+01  0.11812618944E+01  0.61419765070E+01  0.00000000000E+00 0. -1.
</event>
<event>
 7    1  0.2097247E-008  0.4614232E+02  0.7816164E-02  0.1320468E+00
        -11   -1    0    0    0    0  0.00000000000E+00  0.00000000000E+00  0.45593999997E+02  0.45594000000E+02  0.51100000000E-03 0.  1.
         11   -1    0    0    0    0 -0.00000000000E+00 -0.00000000000E+00 -0.45593999997E+02  0.45594000000E+02  0.51100000000E-03 0. -1.
    9900012    2    1    2    0    0 -0.22150513331E+02  0.38438379186E+02  0.78076413503E+01  0.46142317646E+02  0.99999989496E+01 0.  0.
         12    1    1    2    0    0  0.22150513331E+02 -0.38438379186E+02 -0.78076413503E+01  0.45045682354E+02  0.00000000000E+00 0. -1.
         11    1    3    3    0    0 -0.14607653650E+01  0.13095785862E+00  0.94259647782E+00  0.17434086708E+01  0.51100000000E-03 0. -1.
        -11    1    3    3    0    0 -0.55871292708E+01  0.12916693928E+02  0.19220681415E-01  0.14073285516E+02  0.51100000000E-03 0.  1.
        -12    1    3    3    0    0 -0.15102618695E+02  0.25390727400E+02  0.68458241911E+01  0.30325623460E+02  0.00000000000E+00 0.  1.
</event>
<event>
 7    1  0.2097247E-008  0.4614232E+02  0.7816164E-02  0.1320468E+00
        -11   -1    0    0    0    0  0.00000000000E+00  0.00000000000E+00  0.45593999997E+02  0.45594000000E+02  0.51100000000E-03 0.  1.
         11   -1    0    0    0    0 -0.00000000000E+00 -0.00000000000E+00 -0.45593999997E+02  0.45594000000E+02  0.51100000000E-03 0. -1.
    9900012    2    1    2    0    0  0.24661295855E+02  0.35598223033E+02  0.12397595994E+02  0.46142318933E+02  0.10000010690E+02 0.  0.
         12    1    1    2    0    0 -0.24661295855E+02 -0.35598223033E+02 -0.12397595994E+02  0.45045681067E+02  0.00000000000E+00 0. -1.
         11    1    3    3    0    0  0.88415388601E+01  0.95239595694E+01  0.15033575502E+01  0.13081999063E+02  0.51100000000E-03 0.  1.
        -11    1    3    3    0    0  0.49031800608E+00  0.55367772380E+01  0.14154579506E+01  0.57358378117E+01  0.51100000000E-03 0. -1.
         12    1    3    3    0    0  0.15329438989E+02  0.20537486225E+02  0.94787804928E+01  0.27324482059E+02  0.00000000000E+00 0. -1.
</event>
<event>
 7    1  0.2097247E-008  0.4614232E+02  0.7816164E-02  0.1320468E+00
        -11   -1    0    0    0    0  0.00000000000E+00  0.00000000000E+00  0.45593999997E+02  0.45594000000E+02  0.51100000000E-03 0.  1.
         11   -1    0    0    0    0 -0.00000000000E+00 -0.00000000000E+00 -0.45593999997E+02  0.45594000000E+02  0.51100000000E-03 0. -1.
    9900012    2    1    2    0    0  0.26198798925E+02 -0.12778789675E+02  0.34342958594E+02  0.46142319456E+02  0.10000015454E+02 0.  0.
         12    1    1    2    0    0 -0.26198798925E+02  0.12778789675E+02 -0.34342958594E+02  0.45045680544E+02  0.00000000000E+00 0. -1.
         11    1    3    3    0    0  0.11545765736E+02 -0.93234880945E+01  0.12126492733E+02  0.19164654000E+02  0.51100000000E-03 0. -1.
        -11    1    3    3    0    0  0.10864794867E+02 -0.37671687958E+01  0.16958660065E+02  0.20489789645E+02  0.51100000000E-03 0.  1.
         12    1    3    3    0    0  0.37882383218E+01  0.31186721487E+00  0.52578057957E+01  0.64878758102E+01  0.00000000000E+00 0. -1.
</event>
<event>
 7    1  0.2097247E-008  0.4614232E+02  0.7816164E-02  0.1320468E+00
        -11   -1    0    0    0    0  0.00000000000E+00  0.00000000000E+00  0.45593999997E+02  0.45594000000E+02  0.51100000000E-03 0.  1.
         11   -1    0    0    0    0 -0.00000000000E+00 -0.00000000000E+00 -0.45593999997E+02  0.45594000000E+02  0.51100000000E-03 0. -1.
    9900012    2    1    2    0    0 -0.16208823559E+02  0.20337589137E+02  0.36780021129E+02  0.46142318217E+02  0.10000004156E+02 0.  0.
         12    1    1    2    0    0  0.16208823559E+02 -0.20337589137E+02 -0.36780021129E+02  0.45045681783E+02  0.00000000000E+00 0. -1.
         11    1    3    3    0    0 -0.89909799772E+01  0.69981306587E+01  0.10811546667E+02  0.15706721340E+02  0.51100000000E-03 0. -1.
        -11    1    3    3    0    0  0.42078410476E+00 -0.94649633155E-02  0.12899305537E+01  0.13568603255E+01  0.51100000000E-03 0.  1.
        -12    1    3    3    0    0 -0.76386276866E+01  0.13348923442E+02  0.24678543908E+02  0.29078736551E+02  0.00000000000E+00 0.  1.
</event>
<event>
 7    1  0.2097247E-008  0.4614232E+02  0.7816164E-02  0.1320468E+00
        -11   -1    0    0    0    0  0.00000000000E+00  0.00000000000E+00  0.45593999997E+02  0.45594000000E+02  0.51100000000E-03 0.  1.
         11   -1    0    0    0    0 -0.00000000000E+00 -0.00000000000E+00 -0.45593999997E+02  0.45594000000E+02  0.51100000000E-03 0. -1.
    9900012    2    1    2    0    0  0.30089048529E+02 -0.24295977031E+02  0.23096927905E+02  0.46142318521E+02  0.10000006931E+02 0.  0.
         12    1    1    2    0    0 -0.30089048529E+02  0.24295977031E+02 -0.23096927905E+02  0.45045681479E+02  0.00000000000E+00 0. -1.
         11    1    3    3    0    0  0.16919609243E+02 -0.16529556643E+02  0.95419100095E+01  0.25505832012E+02  0.51100000000E-03 0. -1.
        -11    1    3    3    0    0  0.98996794963E+00 -0.10663092239E+01  0.42680958062E+00  0.15163174409E+01  0.51100000000E-03 0.  1.
         12    1    3    3    0    0  0.12179471336E+02 -0.67001111642E+01  0.13128208314E+02  0.19120169068E+02  0.00000000000E+00 0. -1.
</event>
<event>
 7    1  0.2097247E-008  0.4614232E+02  0.7816164E-02  0.1320468E+00
        -11   -1    0    0    0    0  0.00000000000E+00  0.00000000000E+00  0.45593999997E+02  0.45594000000E+02  0.51100000000E-03 0.  1.
         11   -1    0    0    0    0 -0.00000000000E+00 -0.00000000000E+00 -0.45593999997E+02  0.45594000000E+02  0.51100000000E-03 0. -1.
    9900012    2    1    2    0    0 -0.29003678797E+02  0.34464433046E+02 -0.32020084824E+00  0.46142322543E+02  0.10000043606E+02 0.  0.
         12    1    1    2    0    0  0.29003678797E+02 -0.34464433046E+02  0.32020084824E+00  0.45045677457E+02  0.00000000000E+00 0. -1.
         11    1    3    3    0    0 -0.38264824195E+01  0.16689520873E+01  0.13328180281E+01  0.43822109640E+01  0.51100000000E-03 0. -1.
        -11    1    3    3    0    0 -0.57854655623E+01  0.11144459205E+02  0.86012152678E+00  0.12586119022E+02  0.51100000000E-03 0.  1.
        -12    1    3    3    0    0 -0.19391730816E+02  0.21651021754E+02 -0.25131404031E+01  0.29173992557E+02  0.00000000000E+00 0.  1.
</event>
<event>
 7    1  0.2097247E-008  0.4614232E+02  0.7816164E-02  0.1320468E+00
        -11   -1    0    0    0    0  0.00000000000E+00  0.00000000000E+00  0.45593999997E+02  0.45594000000E+02  0.51100000000E-03 0.  1.
         11   -1    0    0    0    0 -0.00000000000E+00 -0.00000000000E+00 -0.45593999997E+02  0.45594000000E+02  0.51100000000E-03 0. -1.
    9900012    2    1    2    0    0  0.44645235316E+00  0.43986386600E+02  0.97011301486E+01  0.46142318165E+02  0.10000003682E+02 0.  0.
         12    1    1    2    0    0 -0.44645235316E+00 -0.43986386600E+02 -0.97011301486E+01  0.45045681835E+02  0.00000000000E+00 0. -1.
         11    1    3    3    0    0 -0.94705914162E+00  0.86353402432E+01 -0.17514669414E+01  0.88619218480E+01  0.51100000000E-03 0. -1.
        -11    1    3    3    0    0  0.21406855967E+01  0.25848055694E+02  0.80049376565E+01  0.27143757019E+02  0.51100000000E-03 0.  1.
        -12    1    3    3    0    0 -0.74717410193E+00  0.95029906629E+01  0.34476594335E+01  0.10136639298E+02  0.00000000000E+00 0.  1.
</event>
<event>
 7    1  0.2097247E-008  0.4614232E+02  0.7816164E-02  0.1320468E+00
        -11   -1    0    0    0    0  0.00000000000E+00  0.00000000000E+00  0.45593999997E+02  0.45594000000E+02  0.51100000000E-03 0.  1.
         11   -1    0    0    0    0 -0.00000000000E+00 -0.00000000000E+00 -0.45593999997E+02  0.45594000000E+02  0.51100000000E-03 0. -1.
    9900012    2    1    2    0    0 -0.36157756165E+02  0.83228282485E+01  0.25543311224E+02  0.46142317085E+02  0.99999938372E+01 0.  0.
         12    1    1    2    0    0  0.36157756165E+02 -0.83228282485E+01 -0.25543311224E+02  0.45045682915E+02  0.00000000000E+00 0. -1.
         11    1    3    3    0    0 -0.46329245984E+01  0.86820392132E-01  0.27011222076E+01  0.53635426312E+01  0.51100000000E-03 0. -1.
        -11    1    3    3    0    0 -0.16896735341E+02  0.10409283291E+01  0.15293878083E+02  0.22814160165E+02  0.51100000000E-03 0.  1.
         12    1    3    3    0    0 -0.14628096226E+02  0.71950795272E+01  0.75483109337E+01  0.17964614289E+02  0.00000000000E+00 0. -1.
</event>
<event>
 7    1  0.2097247E-008  0.4614232E+02  0.7816164E-02  0.1320468E+00
        -11   -1    0    0    0    0  0.00000000000E+00  0.00000000000E+00  0.45593999997E+02  0.45594000000E+02  0.51100000000E-03 0.  1.
         11   -1    0    0    0    0 -0.00000000000E+00 -0.00000000000E+00 -0.45593999997E+02  0.45594000000E+02  0.51100000000E-03 0. -1.
    9900012    2    1    2    0    0  0.12692535953E+01  0.58260084772E+01  0.44649301247E+02  0.46142317839E+02  0.10000000713E+02 0.  0.
         12    1    1    2    0    0 -0.12692535953E+01 -0.58260084772E+01 -0.44649301247E+02  0.45045682161E+02  0.00000000000E+00 0. -1.
         11    1    3    3    0    0  0.32774541586E+01  0.48631938089E+01  0.25892144798E+02  0.26547985278E+02  0.51100000000E-03 0. -1.
        -11    1    3    3    0    0  0.14114530125E+01  0.15660053931E+01  0.55077180285E+01  0.58974172856E+01  0.51100000000E-03 0.  1.
         12    1    3    3    0    0 -0.34196535758E+01 -0.60319072480E+00  0.13249438420E+02  0.13696915276E+02  0.00000000000E+00 0. -1.
</event>
<event>
 7    1  0.2097247E-008  0.4614231E+02  0.7816164E-02  0.1320468E+00
        -11   -1    0    0    0    0  0.00000000000E+00  0.00000000000E+00  0.45593999997E+02  0.45594000000E+02  0.51100000000E-03 0. -1.
         11   -1    0    0    0    0 -0.00000000000E+00 -0.00000000000E+00 -0.45593999997E+02  0.45594000000E+02  0.51100000000E-03 0.  1.
    9900012    2    1    2    0    0  0.23021275384E+02 -0.37332177405E+02  0.10268555304E+02  0.46142314100E+02  0.99999666192E+01 0.  0.
         12    1    1    2    0    0 -0.23021275384E+02  0.37332177405E+02 -0.10268555304E+02  0.45045685900E+02  0.00000000000E+00 0. -1.
         11    1    3    3    0    0  0.20599987324E+01 -0.64255951727E+01 -0.14140251577E+01  0.68942973179E+01  0.51100000000E-03 0. -1.
        -11    1    3    3    0    0  0.65692179566E+01 -0.11923594337E+02  0.50501284600E+01  0.14520004277E+02  0.51100000000E-03 0.  1.
         12    1    3    3    0    0  0.14392058695E+02 -0.18982987895E+02  0.66324520021E+01  0.24728012506E+02  0.00000000000E+00 0. -1.
</event>
<event>
 7    1  0.2097247E-008  0.4614232E+02  0.7816164E-02  0.1320468E+00
        -11   -1    0    0    0    0  0.00000000000E+00  0.00000000000E+00  0.45593999997E+02  0.45594000000E+02  0.51100000000E-03 0.  1.
         11   -1    0    0    0    0 -0.00000000000E+00 -0.00000000000E+00 -0.45593999997E+02  0.45594000000E+02  0.51100000000E-03 0. -1.
    9900012    2    1    2    0    0  0.85747119591E+01  0.31708644071E+02  0.30824499913E+02  0.46142316646E+02  0.99999898303E+01 0.  0.
         12    1    1    2    0    0 -0.85747119591E+01 -0.31708644071E+02 -0.30824499913E+02  0.45045683354E+02  0.00000000000E+00 0. -1.
         11    1    3    3    0    0  0.11490110618E+01  0.88087189282E-01  0.89547150916E+00  0.14594023633E+01  0.51100000000E-03 0. -1.
        -11    1    3    3    0    0  0.81084280409E+01  0.31401975699E+02  0.29533942592E+02  0.43864387017E+02  0.51100000000E-03 0.  1.
        -12    1    3    3    0    0 -0.68272714359E+00  0.21858118224E+00  0.39508581114E+00  0.81852726527E+00  0.00000000000E+00 0.  1.
</event>
<event>
 7    1  0.2097247E-008  0.4614232E+02  0.7816164E-02  0.1320468E+00
        -11   -1    0    0    0    0  0.00000000000E+00  0.00000000000E+00  0.45593999997E+02  0.45594000000E+02  0.51100000000E-03 0. -1.
         11   -1    0    0    0    0 -0.00000000000E+00 -0.00000000000E+00 -0.45593999997E+02  0.45594000000E+02  0.51100000000E-03 0.  1.
    9900012    2    1    2    0    0 -0.26433589642E+02  0.18655269173E+02 -0.31342619254E+02  0.46142317510E+02  0.99999977073E+01 0.  0.
         12    1    1    2    0    0  0.26433589642E+02 -0.18655269173E+02  0.31342619254E+02  0.45045682490E+02  0.00000000000E+00 0. -1.
         11    1    3    3    0    0 -0.16550018890E+00 -0.44340140756E+00  0.27220198963E+00  0.54597555351E+00  0.51100000000E-03 0. -1.
        -11    1    3    3    0    0 -0.22266839648E+02  0.13942110628E+02 -0.26370107986E+02  0.37223342033E+02  0.51100000000E-03 0.  1.
         12    1    3    3    0    0 -0.40012498059E+01  0.51565599528E+01 -0.52447132576E+01  0.83729999230E+01  0.00000000000E+00 0. -1.
</event>
<event>
 7    1  0.2097247E-008  0.4614233E+02  0.7816164E-02  0.1320468E+00
        -11   -1    0    0    0    0  0.00000000000E+00  0.00000000000E+00  0.45593999997E+02  0.45594000000E+02  0.51100000000E-03 0. -1.
         11   -1    0    0    0    0 -0.00000000000E+00 -0.00000000000E+00 -0.45593999997E+02  0.45594000000E+02  0.51100000000E-03 0.  1.
    9900012    2    1    2    0    0  0.12676468905E+02  0.72340997665E+01 -0.42615575814E+02  0.46142330227E+02  0.10000113675E+02 0.  0.
         12    1    1    2    0    0 -0.12676468905E+02 -0.72340997665E+01  0.42615575814E+02  0.45045669773E+02  0.00000000000E+00 0. -1.
         11    1    3    3    0    0  0.63770947721E+01  0.47805855403E+01 -0.11244279512E+02  0.13782422060E+02  0.51100000000E-03 0. -1.
        -11    1    3    3    0    0  0.63189603820E+01  0.12606909528E+01 -0.22357122293E+02  0.23267133890E+02  0.51100000000E-03 0.  1.
        -12    1    3    3    0    0 -0.19586249046E-01  0.11928232734E+01 -0.90141740094E+01  0.90927742771E+01  0.00000000000E+00 0.  1.
</event>
<event>
 7    1  0.2097247E-008  0.4614232E+02  0.7816164E-02  0.1320468E+00
        -11   -1    0    0    0    0  0.00000000000E+00  0.00000000000E+00  0.45593999997E+02  0.45594000000E+02  0.51100000000E-03 0. -1.
         11   -1    0    0    0    0 -0.00000000000E+00 -0.00000000000E+00 -0.45593999997E+02  0.45594000000E+02  0.51100000000E-03 0.  1.
    9900012    2    1    2    0    0 -0.43581652082E+02  0.53483220573E+00 -0.11378369127E+02  0.46142315105E+02  0.99999757756E+01 0.  0.
         12    1    1    2    0    0  0.43581652082E+02 -0.53483220573E+00  0.11378369127E+02  0.45045684895E+02  0.00000000000E+00 0. -1.
         11    1    3    3    0    0 -0.16760126890E+02  0.16535959974E+01 -0.12447714484E+01  0.16887441763E+02  0.51100000000E-03 0. -1.
        -11    1    3    3    0    0 -0.16463497751E+02 -0.14664359468E+01 -0.33397916112E+01  0.16862722225E+02  0.51100000000E-03 0.  1.
        -12    1    3    3    0    0 -0.10358027442E+02  0.34767215508E+00 -0.67938060669E+01  0.12392151116E+02  0.00000000000E+00 0.  1.
</event>
<event>
 7    1  0.2097247E-008  0.4614231E+02  0.7816164E-02  0.1320468E+00
        -11   -1    0    0    0    0  0.00000000000E+00  0.00000000000E+00  0.45593999997E+02  0.45594000000E+02  0.51100000000E-03 0. -1.
         11   -1    0    0    0    0 -0.00000000000E+00 -0.00000000000E+00 -0.45593999997E+02  0.45594000000E+02  0.51100000000E-03 0.  1.
    9900012    2    1    2    0    0 -0.43260577554E+02 -0.11870580723E+02 -0.40896996454E+01  0.46142313190E+02  0.99999583150E+01 0.  0.
         12    1    1    2    0    0  0.43260577554E+02  0.11870580723E+02  0.40896996454E+01  0.45045686810E+02  0.00000000000E+00 0. -1.
         11    1    3    3    0    0 -0.12990059820E+01  0.51847077619E+00  0.45471242382E+00  0.14707114389E+01  0.51100000000E-03 0.  1.
        -11    1    3    3    0    0 -0.85518036795E+01 -0.54693395544E+01  0.59125624047E+00  0.10168412144E+02  0.51100000000E-03 0. -1.
         12    1    3    3    0    0 -0.33409767893E+02 -0.69197119444E+01 -0.51356683097E+01  0.34503189607E+02  0.00000000000E+00 0. -1.
</event>
<event>
 7    1  0.2097247E-008  0.4614232E+02  0.7816164E-02  0.1320468E+00
        -11   -1    0    0    0    0  0.00000000000E+00  0.00000000000E+00  0.45593999997E+02  0.45594000000E+02  0.51100000000E-03 0.  1.
         11   -1    0    0    0    0 -0.00000000000E+00 -0.00000000000E+00 -0.45593999997E+02  0.45594000000E+02  0.51100000000E-03 0. -1.
    9900012    2    1    2    0    0 -0.11611830776E+01 -0.14015969968E+02  0.42793897959E+02  0.46142318044E+02  0.10000002584E+02 0.  0.
         12    1    1    2    0    0  0.11611830776E+01  0.14015969968E+02 -0.42793897959E+02  0.45045681956E+02  0.00000000000E+00 0. -1.
         11    1    3    3    0    0 -0.58743596030E+00 -0.17298965667E+01  0.12156580132E+01  0.21944128612E+01  0.51100000000E-03 0. -1.
        -11    1    3    3    0    0  0.23271000969E+00 -0.86281666987E+01  0.37189629222E+02  0.38178108079E+02  0.51100000000E-03 0.  1.
        -12    1    3    3    0    0 -0.80645712702E+00 -0.36579067022E+01  0.43886107239E+01  0.57697971043E+01  0.00000000000E+00 0.  1.
</event>
<event>
 7    1  0.2867239E-008  0.4614232E+02  0.7816164E-02  0.1320468E+00
        -11   -1    0    0    0    0  0.00000000000E+00  0.00000000000E+00  0.45593999997E+02  0.45594000000E+02  0.51100000000E-03 0.  1.
         11   -1    0    0    0    0 -0.00000000000E+00 -0.00000000000E+00 -0.45593999997E+02  0.45594000000E+02  0.51100000000E-03 0. -1.
    9900012    2    1    2    0    0 -0.13233127551E+02  0.39038485385E+02 -0.18165750760E+02  0.46142317559E+02  0.99999981536E+01 0.  0.
         12    1    1    2    0    0  0.13233127551E+02 -0.39038485385E+02  0.18165750760E+02  0.45045682441E+02  0.00000000000E+00 0. -1.
         11    1    3    3    0    0  0.43060589222E+00  0.36911336669E+00  0.39911932165E+00  0.69351467606E+00  0.51100000000E-03 0. -1.
        -11    1    3    3    0    0 -0.23363060465E+01  0.61861509067E+01 -0.56674042974E+01  0.87089758706E+01  0.51100000000E-03 0.  1.
        -12    1    3    3    0    0 -0.11327427397E+02  0.32483221112E+02 -0.12897465784E+02  0.36739827012E+02  0.00000000000E+00 0.  1.
</event>
<event>
 7    1  0.2097247E-008  0.4614232E+02  0.7816164E-02  0.1320468E+00
        -11   -1    0    0    0    0  0.00000000000E+00  0.00000000000E+00  0.45593999997E+02  0.45594000000E+02  0.51100000000E-03 0.  1.
         11   -1    0    0    0    0 -0.00000000000E+00 -0.00000000000E+00 -0.45593999997E+02  0.45594000000E+02  0.51100000000E-03 0. -1.
    9900012    2    1    2    0    0 -0.30921004547E+02 -0.29841451907E+02  0.13508988962E+02  0.46142317000E+02  0.99999930641E+01 0.  0.
         12    1    1    2    0    0  0.30921004547E+02  0.29841451907E+02 -0.13508988962E+02  0.45045683000E+02  0.00000000000E+00 0. -1.
         11    1    3    3    0    0 -0.29833657900E+00 -0.34767945737E+00  0.82611939310E+00  0.94464767624E+00  0.51100000000E-03 0. -1.
        -11    1    3    3    0    0 -0.19305858141E+01 -0.56745726552E+01  0.28234008093E+01  0.66256719505E+01  0.51100000000E-03 0.  1.
        -12    1    3    3    0    0 -0.28692082154E+02 -0.23819199794E+02  0.98594687595E+01  0.38571997374E+02  0.00000000000E+00 0.  1.
</event>
<event>
 7    1  0.2097247E-008  0.4614232E+02  0.7816164E-02  0.1320468E+00
        -11   -1    0    0    0    0  0.00000000000E+00  0.00000000000E+00  0.45593999997E+02  0.45594000000E+02  0.51100000000E-03 0.  1.
         11   -1    0    0    0    0 -0.00000000000E+00 -0.00000000000E+00 -0.45593999997E+02  0.45594000000E+02  0.51100000000E-03 0. -1.
    9900012    2    1    2    0    0 -0.34780518769E+01 -0.44116811434E+01  0.44693999768E+02  0.46142318846E+02  0.10000009892E+02 0.  0.
         12    1    1    2    0    0  0.34780518769E+01  0.44116811434E+01 -0.44693999768E+02  0.45045681154E+02  0.00000000000E+00 0. -1.
         11    1    3    3    0    0 -0.70653956323E+00 -0.12859399835E+01  0.80928147087E+01  0.82247486263E+01  0.51100000000E-03 0. -1.
        -11    1    3    3    0    0 -0.20727131165E+01 -0.36595708131E+01  0.36780434491E+02  0.37020115610E+02  0.51100000000E-03 0.  1.
         12    1    3    3    0    0 -0.69879919717E+00  0.53382965322E+00 -0.17924943165E+00  0.89745460908E+00  0.00000000000E+00 0. -1.
</event>
<event>
 7    1  0.2097247E-008  0.4614232E+02  0.7816164E-02  0.1320468E+00
        -11   -1    0    0    0    0  0.00000000000E+00  0.00000000000E+00  0.45593999997E+02  0.45594000000E+02  0.51100000000E-03 0. -1.
         11   -1    0    0    0    0 -0.00000000000E+00 -0.00000000000E+00 -0.45593999997E+02  0.45594000000E+02  0.51100000000E-03 0.  1.
    9900012    2    1    2    0    0 -0.29026404432E+02  0.33869835511E+02 -0.62781852608E+01  0.46142317388E+02  0.99999965992E+01 0.  0.
         12    1    1    2    0    0  0.29026404432E+02 -0.33869835511E+02  0.62781852608E+01  0.45045682612E+02  0.00000000000E+00 0. -1.
         11    1    3    3    0    0 -0.19134584946E+01  0.37896568564E+01  0.18776185191E+01  0.46420118552E+01  0.51100000000E-03 0. -1.
        -11    1    3    3    0    0 -0.13240189727E+02  0.16781119675E+02 -0.57303571389E+01  0.22130196446E+02  0.51100000000E-03 0.  1.
         12    1    3    3    0    0 -0.13872756211E+02  0.13299058980E+02 -0.24254466409E+01  0.19370109087E+02  0.00000000000E+00 0. -1.
</event>
<event>
 7    1  0.2097247E-008  0.4614232E+02  0.7816164E-02  0.1320468E+00
        -11   -1    0    0    0    0  0.00000000000E+00  0.00000000000E+00  0.45593999997E+02  0.45594000000E+02  0.51100000000E-03 0.  1.
         11   -1    0    0    0    0 -0.00000000000E+00 -0.00000000000E+00 -0.45593999997E+02  0.45594000000E+02  0.51100000000E-03 0. -1.
    9900012    2    1    2    0    0  0.39800942595E+02 -0.21064507032E+02  0.11335383564E+01  0.46142318774E+02  0.10000009235E+02 0.  0.
         12    1    1    2    0    0 -0.39800942595E+02  0.21064507032E+02 -0.11335383564E+01  0.45045681226E+02  0.00000000000E+00 0. -1.
         11    1    3    3    0    0  0.52167704755E-01 -0.10688406623E+00 -0.94108987070E+00  0.94857581610E+00  0.51100000000E-03 0. -1.
        -11    1    3    3    0    0  0.23740772260E+02 -0.12857274088E+02 -0.87064035578E+00  0.27012807691E+02  0.51100000000E-03 0.  1.
        -12    1    3    3    0    0  0.16008002630E+02 -0.81003488775E+01  0.29452685829E+01  0.18180935267E+02  0.00000000000E+00 0.  1.
</event>
<event>
 7    1  0.2097247E-008  0.4614232E+02  0.7816164E-02  0.1320468E+00
        -11   -1    0    0    0    0  0.00000000000E+00  0.00000000000E+00  0.45593999997E+02  0.45594000000E+02  0.51100000000E-03 0. -1.
         11   -1    0    0    0    0 -0.00000000000E+00 -0.00000000000E+00 -0.45593999997E+02  0.45594000000E+02  0.51100000000E-03 0.  1.
    9900012    2    1    2    0    0  0.35710551220E+02 -0.13028325731E+00 -0.27456384731E+02  0.46142317580E+02  0.99999983512E+01 0.  0.
         12    1    1    2    0    0 -0.35710551220E+02  0.13028325731E+00  0.27456384731E+02  0.45045682420E+02  0.00000000000E+00 0. -1.
         11    1    3    3    0    0  0.23178888191E+02 -0.10266999349E+01 -0.19235530611E+02  0.30138357763E+02  0.51100000000E-03 0.  1.
        -11    1    3    3    0    0  0.34542421848E+01 -0.95896817394E-01  0.35887073447E+00  0.34741579895E+01  0.51100000000E-03 0. -1.
        -12    1    3    3    0    0  0.90774208439E+01  0.99231349501E+00 -0.85797248548E+01  0.12529801827E+02  0.00000000000E+00 0.  1.
</event>
<event>
 7    1  0.2097247E-008  0.4614232E+02  0.7816164E-02  0.1320468E+00
        -11   -1    0    0    0    0  0.00000000000E+00  0.00000000000E+00  0.45593999997E+02  0.45594000000E+02  0.51100000000E-03 0.  1.
         11   -1    0    0    0    0 -0.00000000000E+00 -0.00000000000E+00 -0.45593999997E+02  0.45594000000E+02  0.51100000000E-03 0. -1.
    9900012    2    1    2    0    0 -0.21022193121E+02 -0.24002450630E+02  0.31797222478E+02  0.46142316553E+02  0.99999889878E+01 0.  0.
         12    1    1    2    0    0  0.21022193121E+02  0.24002450630E+02 -0.31797222478E+02  0.45045683447E+02  0.00000000000E+00 0. -1.
         11    1    3    3    0    0 -0.12833476865E+02 -0.13793305588E+02  0.16462648663E+02  0.25019436620E+02  0.51100000000E-03 0. -1.
        -11    1    3    3    0    0 -0.68394918208E+01 -0.43385573067E+01  0.62854986744E+01  0.10252278855E+02  0.51100000000E-03 0.  1.
         12    1    3    3    0    0 -0.13492244357E+01 -0.58705877353E+01  0.90490751397E+01  0.10870601079E+02  0.00000000000E+00 0. -1.
</event>
<event>
 7    1  0.2097247E-008  0.4614232E+02  0.7816164E-02  0.1320468E+00
        -11   -1    0    0    0    0  0.00000000000E+00  0.00000000000E+00  0.45593999997E+02  0.45594000000E+02  0.51100000000E-03 0. -1.
         11   -1    0    0    0    0 -0.00000000000E+00 -0.00000000000E+00 -0.45593999997E+02  0.45594000000E+02  0.51100000000E-03 0.  1.
    9900012    2    1    2    0    0  0.35198241339E+02 -0.19370492178E+02  0.20371093441E+02  0.46142316427E+02  0.99999878352E+01 0.  0.
         12    1    1    2    0    0 -0.35198241339E+02  0.19370492178E+02 -0.20371093441E+02  0.45045683573E+02  0.00000000000E+00 0. -1.
         11    1    3    3    0    0  0.22409064456E+02 -0.94101823987E+01  0.84479419154E+01  0.25731020684E+02  0.51100000000E-03 0. -1.
        -11    1    3    3    0    0  0.65073430682E+01 -0.31781553983E+01  0.42473928862E+01  0.83956257739E+01  0.51100000000E-03 0.  1.
         12    1    3    3    0    0  0.62818338147E+01 -0.67821543808E+01  0.76757586390E+01  0.12015669969E+02  0.00000000000E+00 0. -1.
</event>
<event>
 7    1  0.2097247E-008  0.4614232E+02  0.7816164E-02  0.1320468E+00
        -11   -1    0    0    0    0  0.00000000000E+00  0.00000000000E+00  0.45593999997E+02  0.45594000000E+02  0.51100000000E-03 0.  1.
         11   -1    0    0    0    0 -0.00000000000E+00 -0.00000000000E+00 -0.45593999997E+02  0.45594000000E+02  0.51100000000E-03 0. -1.
    9900012    2    1    2    0    0  0.49575229123E+01 -0.26829621510E+02  0.35842822045E+02  0.46142317455E+02  0.99999972091E+01 0.  0.
         12    1    1    2    0    0 -0.49575229123E+01  0.26829621510E+02 -0.35842822045E+02  0.45045682545E+02  0.00000000000E+00 0. -1.
         11    1    3    3    0    0  0.58592413606E-01 -0.55646600215E+01  0.10956348082E+02  0.12288630428E+02  0.51100000000E-03 0. -1.
        -11    1    3    3    0    0  0.35555723293E+01 -0.21204813469E+02  0.22547175176E+02  0.31155438009E+02  0.51100000000E-03 0.  1.
         12    1    3    3    0    0  0.13433581694E+01 -0.60148020154E-01  0.23392987863E+01  0.26982490188E+01  0.00000000000E+00 0. -1.
</event>
<event>
 7    1  0.2097247E-008  0.4614233E+02  0.7816164E-02  0.1320468E+00
        -11   -1    0    0    0    0  0.00000000000E+00  0.00000000000E+00  0.45593999997E+02  0.45594000000E+02  0.51100000000E-03 0. -1.
         11   -1    0    0    0    0 -0.00000000000E+00 -0.00000000000E+00 -0.45593999997E+02  0.45594000000E+02  0.51100000000E-03 0.  1.
    9900012    2    1    2    0    0  0.17771395082E+02  0.21027543225E+02 -0.35652948751E+02  0.46142325270E+02  0.10000068470E+02 0.  0.
         12    1    1    2    0    0 -0.17771395082E+02 -0.21027543225E+02  0.35652948751E+02  0.45045674730E+02  0.00000000000E+00 0. -1.
         11    1    3    3    0    0  0.77279904563E+01  0.60111267712E+01 -0.11537334673E+02  0.15131608413E+02  0.51100000000E-03 0.  1.
        -11    1    3    3    0    0  0.91139708400E+01  0.86450932769E+01 -0.12450791325E+02  0.17686839942E+02  0.51100000000E-03 0. -1.
        -12    1    3    3    0    0  0.92943378582E+00  0.63713231769E+01 -0.11664822753E+02  0.13323876915E+02  0.00000000000E+00 0.  1.
</event>
<event>
 7    1  0.2097247E-008  0.4614232E+02  0.7816164E-02  0.1320468E+00
        -11   -1    0    0    0    0  0.00000000000E+00  0.00000000000E+00  0.45593999997E+02  0.45594000000E+02  0.51100000000E-03 0.  1.
         11   -1    0    0    0    0 -0.00000000000E+00 -0.00000000000E+00 -0.45593999997E+02  0.45594000000E+02  0.51100000000E-03 0. -1.
    9900012    2    1    2    0    0 -0.38613533876E+02  0.29413384079E+00  0.23195301369E+02  0.46142317424E+02  0.99999969271E+01 0.  0.
         12    1    1    2    0    0  0.38613533876E+02 -0.29413384079E+00 -0.23195301369E+02  0.45045682576E+02  0.00000000000E+00 0. -1.
         11    1    3    3    0    0 -0.22886276506E+02  0.66361813920E+00  0.13046558638E+02  0.26352129590E+02  0.51100000000E-03 0. -1.
        -11    1    3    3    0    0 -0.88535151501E+01  0.21716871164E+01  0.31177974537E+01  0.96343975768E+01  0.51100000000E-03 0.  1.
         12    1    3    3    0    0 -0.68737422198E+01 -0.25411714148E+01  0.70309452773E+01  0.10155790258E+02  0.00000000000E+00 0. -1.
</event>
<event>
 7    1  0.2097247E-008  0.4614231E+02  0.7816164E-02  0.1320468E+00
        -11   -1    0    0    0    0  0.00000000000E+00  0.00000000000E+00  0.45593999997E+02  0.45594000000E+02  0.51100000000E-03 0.  1.
         11   -1    0    0    0    0 -0.00000000000E+00 -0.00000000000E+00 -0.45593999997E+02  0.45594000000E+02  0.51100000000E-03 0. -1.
    9900012    2    1    2    0    0 -0.23525594213E+02  0.10966700387E+02  0.36815650542E+02  0.46142309582E+02  0.99999254163E+01 0.  0.
         12    1    1    2    0    0  0.23525594213E+02 -0.10966700387E+02 -0.36815650542E+02  0.45045690418E+02  0.00000000000E+00 0. -1.
         11    1    3    3    0    0 -0.80792514196E+01  0.20738716831E+01  0.10640489603E+02  0.13520179973E+02  0.51100000000E-03 0. -1.
        -11    1    3    3    0    0  0.59435326101E-01  0.20224634565E+01  0.56225916221E+01  0.59755692450E+01  0.51100000000E-03 0.  1.
        -12    1    3    3    0    0 -0.15505778119E+02  0.68703652472E+01  0.20552569317E+02  0.26646560364E+02  0.00000000000E+00 0.  1.
</event>
<event>
 7    1  0.2097247E-008  0.4614232E+02  0.7816164E-02  0.1320468E+00
        -11   -1    0    0    0    0  0.00000000000E+00  0.00000000000E+00  0.45593999997E+02  0.45594000000E+02  0.51100000000E-03 0. -1.
         11   -1    0    0    0    0 -0.00000000000E+00 -0.00000000000E+00 -0.45593999997E+02  0.45594000000E+02  0.51100000000E-03 0.  1.
    9900012    2    1    2    0    0 -0.14297814600E+02  0.35162019838E+02 -0.24255273583E+02  0.46142318320E+02  0.10000005098E+02 0.  0.
         12    1    1    2    0    0  0.14297814600E+02 -0.35162019838E+02  0.24255273583E+02  0.45045681680E+02  0.00000000000E+00 0. -1.
         11    1    3    3    0    0 -0.58889720348E+01  0.10643972350E+02 -0.93347052887E+01  0.15333325214E+02  0.51100000000E-03 0. -1.
        -11    1    3    3    0    0 -0.16359150176E+01  0.18468831078E+01  0.56460299268E+00  0.25310021649E+01  0.51100000000E-03 0.  1.
        -12    1    3    3    0    0 -0.67729275477E+01  0.22671164380E+02 -0.15485171287E+02  0.28277990942E+02  0.00000000000E+00 0.  1.
</event>
<event>
 7    1  0.2097247E-008  0.4614232E+02  0.7816164E-02  0.1320468E+00
        -11   -1    0    0    0    0  0.00000000000E+00  0.00000000000E+00  0.45593999997E+02  0.45594000000E+02  0.51100000000E-03 0. -1.
         11   -1    0    0    0    0 -0.00000000000E+00 -0.00000000000E+00 -0.45593999997E+02  0.45594000000E+02  0.51100000000E-03 0.  1.
    9900012    2    1    2    0    0 -0.41446696531E+02 -0.12431662125E+02 -0.12519530145E+02  0.46142317504E+02  0.99999976528E+01 0.  0.
         12    1    1    2    0    0  0.41446696531E+02  0.12431662125E+02  0.12519530145E+02  0.45045682496E+02  0.00000000000E+00 0. -1.
         11    1    3    3    0    0 -0.16462658249E+01 -0.16247067512E+01 -0.13858451538E+01  0.26963735359E+01  0.51100000000E-03 0. -1.
        -11    1    3    3    0    0 -0.88813108870E+01 -0.13345293992E+01 -0.57480542150E+01  0.10662962970E+02  0.51100000000E-03 0.  1.
        -12    1    3    3    0    0 -0.30919119819E+02 -0.94724259743E+01 -0.53856307761E+01  0.32782980997E+02  0.00000000000E+00 0.  1.
</event>
<event>
 7    1  0.2140639E-008  0.4614232E+02  0.7816164E-02  0.1320468E+00
        -11   -1    0    0    0    0  0.00000000000E+00  0.00000000000E+00  0.45593999997E+02  0.45594000000E+02  0.51100000000E-03 0. -1.
         11   -1    0    0    0    0 -0.00000000000E+00 -0.00000000000E+00 -0.45593999997E+02  0.45594000000E+02  0.51100000000E-03 0.  1.
    9900012    2    1    2    0    0  0.36623408166E+02 -0.21027244377E+02 -0.15674642862E+02  0.46142318069E+02  0.10000002807E+02 0.  0.
         12    1    1    2    0    0 -0.36623408166E+02  0.21027244377E+02  0.15674642862E+02  0.45045681931E+02  0.00000000000E+00 0. -1.
         11    1    3    3    0    0  0.74034844782E+00 -0.26766870527E+01 -0.10862236211E+01  0.29820548986E+01  0.51100000000E-03 0. -1.
        -11    1    3    3    0    0  0.57307107348E+01 -0.45026055199E+01 -0.40981882914E+01  0.83611990484E+01  0.51100000000E-03 0.  1.
        -12    1    3    3    0    0  0.30152348983E+02 -0.13847951804E+02 -0.10490230950E+02  0.34799064122E+02  0.00000000000E+00 0.  1.
</event>
<event>
 7    1  0.2097247E-008  0.4614232E+02  0.7816164E-02  0.1320468E+00
        -11   -1    0    0    0    0  0.00000000000E+00  0.00000000000E+00  0.45593999997E+02  0.45594000000E+02  0.51100000000E-03 0.  1.
         11   -1    0    0    0    0 -0.00000000000E+00 -0.00000000000E+00 -0.45593999997E+02  0.45594000000E+02  0.51100000000E-03 0. -1.
    9900012    2    1    2    0    0 -0.80855884859E+01  0.32667290037E+02  0.29943024851E+02  0.46142319666E+02  0.10000017371E+02 0.  0.
         12    1    1    2    0    0  0.80855884859E+01 -0.32667290037E+02 -0.29943024851E+02  0.45045680334E+02  0.00000000000E+00 0. -1.
         11    1    3    3    0    0 -0.81511894490E+01  0.18061827581E+02  0.15103743694E+02  0.24915749614E+02  0.51100000000E-03 0.  1.
        -11    1    3    3    0    0  0.66974300553E+00  0.33793195517E+01  0.14353675441E+01  0.37321088641E+01  0.51100000000E-03 0. -1.
        -12    1    3    3    0    0 -0.60414204240E+00  0.11226142905E+02  0.13403913613E+02  0.17494461188E+02  0.00000000000E+00 0.  1.
</event>
<event>
 7    1  0.2097247E-008  0.4614232E+02  0.7816164E-02  0.1320468E+00
        -11   -1    0    0    0    0  0.00000000000E+00  0.00000000000E+00  0.45593999997E+02  0.45594000000E+02  0.51100000000E-03 0. -1.
         11   -1    0    0    0    0 -0.00000000000E+00 -0.00000000000E+00 -0.45593999997E+02  0.45594000000E+02  0.51100000000E-03 0.  1.
    9900012    2    1    2    0    0 -0.32841706909E+02  0.20591443353E+02 -0.22946202080E+02  0.46142318276E+02  0.10000004698E+02 0.  0.
         12    1    1    2    0    0  0.32841706909E+02 -0.20591443353E+02  0.22946202080E+02  0.45045681724E+02  0.00000000000E+00 0. -1.
         11    1    3    3    0    0 -0.75604182909E-01  0.16488619030E+01 -0.10116721462E+01  0.19359603199E+01  0.51100000000E-03 0. -1.
        -11    1    3    3    0    0 -0.13954018581E+02  0.52835084635E+01 -0.63361797981E+01  0.16210406255E+02  0.51100000000E-03 0.  1.
        -12    1    3    3    0    0 -0.18812084145E+02  0.13659072986E+02 -0.15598350136E+02  0.27995951702E+02  0.00000000000E+00 0.  1.
</event>
<event>
 7    1  0.2097247E-008  0.4614232E+02  0.7816164E-02  0.1320468E+00
        -11   -1    0    0    0    0  0.00000000000E+00  0.00000000000E+00  0.45593999997E+02  0.45594000000E+02  0.51100000000E-03 0.  1.
         11   -1    0    0    0    0 -0.00000000000E+00 -0.00000000000E+00 -0.45593999997E+02  0.45594000000E+02  0.51100000000E-03 0. -1.
    9900012    2    1    2    0    0  0.55943876195E+00 -0.26155834775E+02  0.36669778483E+02  0.46142319646E+02  0.10000017191E+02 0.  0.
         12    1    1    2    0    0 -0.55943876195E+00  0.26155834775E+02 -0.36669778483E+02  0.45045680354E+02  0.00000000000E+00 0. -1.
         11    1    3    3    0    0  0.95510252328E+00  0.20048641877E+00  0.39373355318E+00  0.10523507049E+01  0.51100000000E-03 0. -1.
        -11    1    3    3    0    0  0.16064210833E+01 -0.20154460365E+02  0.26288429211E+02  0.33164203171E+02  0.51100000000E-03 0.  1.
         12    1    3    3    0    0 -0.20020848447E+01 -0.62018608288E+01  0.99876157190E+01  0.11925765771E+02  0.00000000000E+00 0. -1.
</event>
<event>
 7    1  0.2097247E-008  0.4614232E+02  0.7816164E-02  0.1320468E+00
        -11   -1    0    0    0    0  0.00000000000E+00  0.00000000000E+00  0.45593999997E+02  0.45594000000E+02  0.51100000000E-03 0.  1.
         11   -1    0    0    0    0 -0.00000000000E+00 -0.00000000000E+00 -0.45593999997E+02  0.45594000000E+02  0.51100000000E-03 0. -1.
    9900012    2    1    2    0    0 -0.62890229637E+01  0.14161274031E+02  0.42296808886E+02  0.46142317255E+02  0.99999953844E+01 0.  0.
         12    1    1    2    0    0  0.62890229637E+01 -0.14161274031E+02 -0.42296808886E+02  0.45045682745E+02  0.00000000000E+00 0. -1.
         11    1    3    3    0    0 -0.19280621784E+01 -0.47214022629E-02  0.11026180634E+02  0.11193484967E+02  0.51100000000E-03 0. -1.
        -11    1    3    3    0    0 -0.15143531214E+01  0.78396820407E+00  0.19316023124E+01  0.25766177977E+01  0.51100000000E-03 0.  1.
        -12    1    3    3    0    0 -0.28466076639E+01  0.13382027229E+02  0.29339025939E+02  0.32372214491E+02  0.00000000000E+00 0.  1.
</event>
<event>
 7    1  0.2097247E-008  0.4614232E+02  0.7816164E-02  0.1320468E+00
        -11   -1    0    0    0    0  0.00000000000E+00  0.00000000000E+00  0.45593999997E+02  0.45594000000E+02  0.51100000000E-03 0.  1.
         11   -1    0    0    0    0 -0.00000000000E+00 -0.00000000000E+00 -0.45593999997E+02  0.45594000000E+02  0.51100000000E-03 0. -1.
    9900012    2    1    2    0    0 -0.90843926850E+01  0.17620433511E+02  0.40448828913E+02  0.46142316212E+02  0.99999858711E+01 0.  0.
         12    1    1    2    0    0  0.90843926850E+01 -0.17620433511E+02 -0.40448828913E+02  0.45045683788E+02  0.00000000000E+00 0. -1.
         11    1    3    3    0    0 -0.41052867088E+01  0.12940591337E+01  0.78415915383E+01  0.89453074915E+01  0.51100000000E-03 0. -1.
        -11    1    3    3    0    0 -0.52435269854E+01  0.81622845674E+01  0.16633722202E+02  0.19256120564E+02  0.51100000000E-03 0.  1.
         12    1    3    3    0    0  0.26442100922E+00  0.81640898094E+01  0.15973515172E+02  0.17940888156E+02  0.00000000000E+00 0. -1.
</event>
<event>
 7    1  0.2097247E-008  0.4614232E+02  0.7816164E-02  0.1320468E+00
        -11   -1    0    0    0    0  0.00000000000E+00  0.00000000000E+00  0.45593999997E+02  0.45594000000E+02  0.51100000000E-03 0.  1.
         11   -1    0    0    0    0 -0.00000000000E+00 -0.00000000000E+00 -0.45593999997E+02  0.45594000000E+02  0.51100000000E-03 0. -1.
    9900012    2    1    2    0    0  0.38004890684E+02 -0.17398634729E+02  0.16793727164E+02  0.46142317872E+02  0.10000001013E+02 0.  0.
         12    1    1    2    0    0 -0.38004890684E+02  0.17398634729E+02 -0.16793727164E+02  0.45045682128E+02  0.00000000000E+00 0. -1.
         11    1    3    3    0    0  0.24094622659E+01 -0.36443121959E+01  0.22708539566E+01  0.49237483430E+01  0.51100000000E-03 0. -1.
        -11    1    3    3    0    0  0.25489452102E+02 -0.11547666412E+02  0.12635583735E+02  0.30703725257E+02  0.51100000000E-03 0.  1.
        -12    1    3    3    0    0  0.10105976316E+02 -0.22066561202E+01  0.18872894721E+01  0.10514844273E+02  0.00000000000E+00 0.  1.
</event>
<event>
 7    1  0.2097247E-008  0.4614232E+02  0.7816164E-02  0.1320468E+00
        -11   -1    0    0    0    0  0.00000000000E+00  0.00000000000E+00  0.45593999997E+02  0.45594000000E+02  0.51100000000E-03 0. -1.
         11   -1    0    0    0    0 -0.00000000000E+00 -0.00000000000E+00 -0.45593999997E+02  0.45594000000E+02  0.51100000000E-03 0.  1.
    9900012    2    1    2    0    0 -0.61872844587E+01 -0.43577206390E+02  0.95842625748E+01  0.46142317690E+02  0.99999993495E+01 0.  0.
         12    1    1    2    0    0  0.61872844587E+01  0.43577206390E+02 -0.95842625748E+01  0.45045682310E+02  0.00000000000E+00 0. -1.
         11    1    3    3    0    0  0.25630920557E+00 -0.10569768227E+02  0.34379188645E+00  0.10578463400E+02  0.51100000000E-03 0. -1.
        -11    1    3    3    0    0 -0.97691736169E+00 -0.13353765850E+02  0.58050165197E+00  0.13402030158E+02  0.51100000000E-03 0.  1.
         12    1    3    3    0    0 -0.54666763026E+01 -0.19653672312E+02  0.86599690364E+01  0.22161824132E+02  0.00000000000E+00 0. -1.
</event>
<event>
 7    1  0.2097247E-008  0.4614232E+02  0.7816164E-02  0.1320468E+00
        -11   -1    0    0    0    0  0.00000000000E+00  0.00000000000E+00  0.45593999997E+02  0.45594000000E+02  0.51100000000E-03 0.  1.
         11   -1    0    0    0    0 -0.00000000000E+00 -0.00000000000E+00 -0.45593999997E+02  0.45594000000E+02  0.51100000000E-03 0. -1.
    9900012    2    1    2    0    0 -0.12298961750E+02 -0.11473030458E+02  0.41787780189E+02  0.46142318063E+02  0.10000002755E+02 0.  0.
         12    1    1    2    0    0  0.12298961750E+02  0.11473030458E+02 -0.41787780189E+02  0.45045681937E+02  0.00000000000E+00 0. -1.
         11    1    3    3    0    0 -0.59715064220E+01 -0.46880621915E+00  0.90478615535E+01  0.10850920107E+02  0.51100000000E-03 0. -1.
        -11    1    3    3    0    0  0.52797719814E-01  0.18473162095E+00  0.13569085304E+00  0.23521402959E+00  0.51100000000E-03 0.  1.
        -12    1    3    3    0    0 -0.63802530474E+01 -0.11188955860E+02  0.32604227783E+02  0.35056183926E+02  0.00000000000E+00 0.  1.
</event>
<event>
 7    1  0.2097247E-008  0.4614232E+02  0.7816164E-02  0.1320468E+00
        -11   -1    0    0    0    0  0.00000000000E+00  0.00000000000E+00  0.45593999997E+02  0.45594000000E+02  0.51100000000E-03 0.  1.
         11   -1    0    0    0    0 -0.00000000000E+00 -0.00000000000E+00 -0.45593999997E+02  0.45594000000E+02  0.51100000000E-03 0. -1.
    9900012    2    1    2    0    0 -0.20598743473E+02  0.16647670519E+02  0.36437072713E+02  0.46142318362E+02  0.10000005477E+02 0.  0.
         12    1    1    2    0    0  0.20598743473E+02 -0.16647670519E+02 -0.36437072713E+02  0.45045681638E+02  0.00000000000E+00 0. -1.
         11    1    3    3    0    0 -0.11665052926E+02  0.57674243245E+01  0.20020838733E+02  0.23878245893E+02  0.51100000000E-03 0. -1.
        -11    1    3    3    0    0 -0.42169706436E+01  0.14872040076E+01  0.58153595059E+01  0.73357360648E+01  0.51100000000E-03 0.  1.
         12    1    3    3    0    0 -0.47167199032E+01  0.93930421864E+01  0.10600874474E+02  0.14928336404E+02  0.00000000000E+00 0. -1.
</event>
<event>
 7    1  0.2097247E-008  0.4614232E+02  0.7816164E-02  0.1320468E+00
        -11   -1    0    0    0    0  0.00000000000E+00  0.00000000000E+00  0.45593999997E+02  0.45594000000E+02  0.51100000000E-03 0.  1.
         11   -1    0    0    0    0 -0.00000000000E+00 -0.00000000000E+00 -0.45593999997E+02  0.45594000000E+02  0.51100000000E-03 0. -1.
    9900012    2    1    2    0    0  0.22314325412E+02 -0.23041840465E+02  0.31626854446E+02  0.46142318157E+02  0.10000003608E+02 0.  0.
         12    1    1    2    0    0 -0.22314325412E+02  0.23041840465E+02 -0.31626854446E+02  0.45045681843E+02  0.00000000000E+00 0. -1.
         11    1    3    3    0    0  0.25143984746E+01 -0.68951254389E+00  0.44599133994E+01  0.51660870133E+01  0.51100000000E-03 0. -1.
        -11    1    3    3    0    0  0.85259573805E+01 -0.95077707031E+01  0.16365175437E+02  0.20758338574E+02  0.51100000000E-03 0.  1.
         12    1    3    3    0    0  0.11273969556E+02 -0.12844557218E+02  0.10801765610E+02  0.20217892570E+02  0.00000000000E+00 0. -1.
</event>
<event>
 7    1  0.2097247E-008  0.4614232E+02  0.7816164E-02  0.1320468E+00
        -11   -1    0    0    0    0  0.00000000000E+00  0.00000000000E+00  0.45593999997E+02  0.45594000000E+02  0.51100000000E-03 0.  1.
         11   -1    0    0    0    0 -0.00000000000E+00 -0.00000000000E+00 -0.45593999997E+02  0.45594000000E+02  0.51100000000E-03 0. -1.
    9900012    2    1    2    0    0  0.22985367432E+02 -0.27158886992E+02  0.27625734570E+02  0.46142317974E+02  0.10000001942E+02 0.  0.
         12    1    1    2    0    0 -0.22985367432E+02  0.27158886992E+02 -0.27625734570E+02  0.45045682026E+02  0.00000000000E+00 0. -1.
         11    1    3    3    0    0 -0.83460679796E+00 -0.20805853319E+01  0.17938989155E+01  0.28711456617E+01  0.51100000000E-03 0. -1.
        -11    1    3    3    0    0  0.94997288780E+01 -0.11636427993E+02  0.10022229556E+02  0.18058139182E+02  0.51100000000E-03 0.  1.
         12    1    3    3    0    0  0.14320245352E+02 -0.13441873667E+02  0.15809606099E+02  0.25213033130E+02  0.00000000000E+00 0. -1.
</event>
<event>
 7    1  0.2097247E-008  0.4614232E+02  0.7816164E-02  0.1320468E+00
        -11   -1    0    0    0    0  0.00000000000E+00  0.00000000000E+00  0.45593999997E+02  0.45594000000E+02  0.51100000000E-03 0.  1.
         11   -1    0    0    0    0 -0.00000000000E+00 -0.00000000000E+00 -0.45593999997E+02  0.45594000000E+02  0.51100000000E-03 0. -1.
    9900012    2    1    2    0    0  0.41109603509E+02 -0.11762709151E+02  0.14168720003E+02  0.46142318145E+02  0.10000003501E+02 0.  0.
         12    1    1    2    0    0 -0.41109603509E+02  0.11762709151E+02 -0.14168720003E+02  0.45045681855E+02  0.00000000000E+00 0. -1.
         11    1    3    3    0    0  0.18741320405E+02 -0.27702524884E+01  0.10545760847E+02  0.21682353688E+02  0.51100000000E-03 0. -1.
        -11    1    3    3    0    0  0.10889394442E+02 -0.46970434005E+01  0.27421041455E+01  0.12172110065E+02  0.51100000000E-03 0.  1.
        -12    1    3    3    0    0  0.11478888662E+02 -0.42954132620E+01  0.88085501094E+00  0.12287854392E+02  0.00000000000E+00 0.  1.
</event>
<event>
 7    1  0.2097247E-008  0.4614232E+02  0.7816164E-02  0.1320468E+00
        -11   -1    0    0    0    0  0.00000000000E+00  0.00000000000E+00  0.45593999997E+02  0.45594000000E+02  0.51100000000E-03 0.  1.
         11   -1    0    0    0    0 -0.00000000000E+00 -0.00000000000E+00 -0.45593999997E+02  0.45594000000E+02  0.51100000000E-03 0. -1.
    9900012    2    1    2    0    0 -0.19519670203E+02 -0.28753721035E+02  0.28658671772E+02  0.46142318010E+02  0.10000002274E+02 0.  0.
         12    1    1    2    0    0  0.19519670203E+02  0.28753721035E+02 -0.28658671772E+02  0.45045681990E+02  0.00000000000E+00 0. -1.
         11    1    3    3    0    0 -0.38123815616E+01 -0.41424484447E+01  0.47855823455E+01  0.73889059362E+01  0.51100000000E-03 0. -1.
        -11    1    3    3    0    0 -0.16703829041E+02 -0.23759151545E+02  0.23578922708E+02  0.37409634897E+02  0.51100000000E-03 0.  1.
         12    1    3    3    0    0  0.99654039986E+00 -0.85212104547E+00  0.29416671805E+00  0.13437771775E+01  0.00000000000E+00 0. -1.
</event>
<event>
 7    1  0.2097247E-008  0.4614232E+02  0.7816164E-02  0.1320468E+00
        -11   -1    0    0    0    0  0.00000000000E+00  0.00000000000E+00  0.45593999997E+02  0.45594000000E+02  0.51100000000E-03 0. -1.
         11   -1    0    0    0    0 -0.00000000000E+00 -0.00000000000E+00 -0.45593999997E+02  0.45594000000E+02  0.51100000000E-03 0.  1.
    9900012    2    1    2    0    0  0.15489483808E+02 -0.32721444460E+02 -0.26804785308E+02  0.46142317059E+02  0.99999936017E+01 0.  0.
         12    1    1    2    0    0 -0.15489483808E+02  0.32721444460E+02  0.26804785308E+02  0.45045682941E+02  0.00000000000E+00 0. -1.
         11    1    3    3    0    0  0.37937742900E+01 -0.38718655802E+01 -0.31696159394E+01  0.62793735275E+01  0.51100000000E-03 0. -1.
        -11    1    3    3    0    0  0.27557904889E+01 -0.53229714961E+01 -0.88020839877E+01  0.10649182577E+02  0.51100000000E-03 0.  1.
        -12    1    3    3    0    0  0.89399190292E+01 -0.23526607383E+02 -0.14833085381E+02  0.29213760955E+02  0.00000000000E+00 0.  1.
</event>
<event>
 7    1  0.2097247E-008  0.4614232E+02  0.7816164E-02  0.1320468E+00
        -11   -1    0    0    0    0  0.00000000000E+00  0.00000000000E+00  0.45593999997E+02  0.45594000000E+02  0.51100000000E-03 0.  1.
         11   -1    0    0    0    0 -0.00000000000E+00 -0.00000000000E+00 -0.45593999997E+02  0.45594000000E+02  0.51100000000E-03 0. -1.
    9900012    2    1    2    0    0  0.40423243235E+02 -0.19249644768E+02  0.49523729410E+01  0.46142318575E+02  0.10000007421E+02 0.  0.
         12    1    1    2    0    0 -0.40423243235E+02  0.19249644768E+02 -0.49523729410E+01  0.45045681425E+02  0.00000000000E+00 0. -1.
         11    1    3    3    0    0  0.37379797034E+01 -0.22186261037E+01 -0.13299975902E+01  0.45457329334E+01  0.51100000000E-03 0. -1.
        -11    1    3    3    0    0  0.52979434200E+01 -0.27323081652E+01 -0.16908290441E+01  0.61961774917E+01  0.51100000000E-03 0.  1.
        -12    1    3    3    0    0  0.31387320111E+02 -0.14298710499E+02  0.79731995752E+01  0.35400408150E+02  0.00000000000E+00 0.  1.
</event>
<event>
 7    1  0.2097247E-008  0.4614232E+02  0.7816164E-02  0.1320468E+00
        -11   -1    0    0    0    0  0.00000000000E+00  0.00000000000E+00  0.45593999997E+02  0.45594000000E+02  0.51100000000E-03 0.  1.
         11   -1    0    0    0    0 -0.00000000000E+00 -0.00000000000E+00 -0.45593999997E+02  0.45594000000E+02  0.51100000000E-03 0. -1.
    9900012    2    1    2    0    0  0.93459266061E+01 -0.41669749117E+02  0.14331752392E+02  0.46142318051E+02  0.10000002644E+02 0.  0.
         12    1    1    2    0    0 -0.93459266061E+01  0.41669749117E+02 -0.14331752392E+02  0.45045681949E+02  0.00000000000E+00 0. -1.
         11    1    3    3    0    0  0.24676616705E+01 -0.92798960079E+01  0.66282549691E+01  0.11667887051E+02  0.51100000000E-03 0. -1.
        -11    1    3    3    0    0  0.32877668427E+01 -0.19657032930E+02  0.73441621355E+01  0.21240175898E+02  0.51100000000E-03 0.  1.
        -12    1    3    3    0    0  0.35904980929E+01 -0.12732820179E+02  0.35933528750E+00  0.13234255102E+02  0.00000000000E+00 0.  1.
</event>
<event>
 7    1  0.2097247E-008  0.4614232E+02  0.7816164E-02  0.1320468E+00
        -11   -1    0    0    0    0  0.00000000000E+00  0.00000000000E+00  0.45593999997E+02  0.45594000000E+02  0.51100000000E-03 0.  1.
         11   -1    0    0    0    0 -0.00000000000E+00 -0.00000000000E+00 -0.45593999997E+02  0.45594000000E+02  0.51100000000E-03 0. -1.
    9900012    2    1    2    0    0 -0.16143687949E+02 -0.79778986460E+01  0.41289805624E+02  0.46142316790E+02  0.99999911459E+01 0.  0.
         12    1    1    2    0    0  0.16143687949E+02  0.79778986460E+01 -0.41289805624E+02  0.45045683210E+02  0.00000000000E+00 0. -1.
         11    1    3    3    0    0 -0.94862781382E+00  0.13779276395E+01  0.15800002045E+01  0.23010824010E+01  0.51100000000E-03 0. -1.
        -11    1    3    3    0    0 -0.12591118039E+01  0.10939162420E-02  0.87305783177E+00  0.15321860102E+01  0.51100000000E-03 0.  1.
        -12    1    3    3    0    0 -0.13935948331E+02 -0.93569202018E+01  0.38836747588E+02  0.42309048379E+02  0.00000000000E+00 0.  1.
</event>
<event>
 7    1  0.2097247E-008  0.4614232E+02  0.7816164E-02  0.1320468E+00
        -11   -1    0    0    0    0  0.00000000000E+00  0.00000000000E+00  0.45593999997E+02  0.45594000000E+02  0.51100000000E-03 0.  1.
         11   -1    0    0    0    0 -0.00000000000E+00 -0.00000000000E+00 -0.45593999997E+02  0.45594000000E+02  0.51100000000E-03 0. -1.
    9900012    2    1    2    0    0 -0.23659567975E+02 -0.17592055691E+02  0.34056687354E+02  0.46142317258E+02  0.99999954090E+01 0.  0.
         12    1    1    2    0    0  0.23659567975E+02  0.17592055691E+02 -0.34056687354E+02  0.45045682742E+02  0.00000000000E+00 0. -1.
         11    1    3    3    0    0 -0.10436043283E+02 -0.44592323236E+01  0.16098768750E+02  0.19696855278E+02  0.51100000000E-03 0. -1.
        -11    1    3    3    0    0 -0.10398251430E+02 -0.80603239059E+01  0.96782029220E+01  0.16332791137E+02  0.51100000000E-03 0.  1.
        -12    1    3    3    0    0 -0.28252732621E+01 -0.50724994613E+01  0.82797156820E+01  0.10112670842E+02  0.00000000000E+00 0.  1.
</event>
<event>
 7    1  0.2097247E-008  0.4614232E+02  0.7816164E-02  0.1320468E+00
        -11   -1    0    0    0    0  0.00000000000E+00  0.00000000000E+00  0.45593999997E+02  0.45594000000E+02  0.51100000000E-03 0. -1.
         11   -1    0    0    0    0 -0.00000000000E+00 -0.00000000000E+00 -0.45593999997E+02  0.45594000000E+02  0.51100000000E-03 0.  1.
    9900012    2    1    2    0    0 -0.34383097994E+02 -0.18007875483E+02 -0.22861154672E+02  0.46142318742E+02  0.10000008944E+02 0.  0.
         12    1    1    2    0    0  0.34383097994E+02  0.18007875483E+02  0.22861154672E+02  0.45045681258E+02  0.00000000000E+00 0. -1.
         11    1    3    3    0    0 -0.81170854935E+01 -0.55292423787E+00 -0.46856356930E+01  0.93887157924E+01  0.51100000000E-03 0. -1.
        -11    1    3    3    0    0 -0.73673491529E+01 -0.26755689660E+01 -0.58549791041E+01  0.97835210126E+01  0.51100000000E-03 0.  1.
         12    1    3    3    0    0 -0.18898663347E+02 -0.14779382279E+02 -0.12320539875E+02  0.26970081937E+02  0.00000000000E+00 0. -1.
</event>
<event>
 7    1  0.2097247E-008  0.4614232E+02  0.7816164E-02  0.1320468E+00
        -11   -1    0    0    0    0  0.00000000000E+00  0.00000000000E+00  0.45593999997E+02  0.45594000000E+02  0.51100000000E-03 0.  1.
         11   -1    0    0    0    0 -0.00000000000E+00 -0.00000000000E+00 -0.45593999997E+02  0.45594000000E+02  0.51100000000E-03 0. -1.
    9900012    2    1    2    0    0 -0.44260904334E+02  0.49417706896E+01 -0.67575682223E+01  0.46142317873E+02  0.10000001024E+02 0.  0.
         12    1    1    2    0    0  0.44260904334E+02 -0.49417706896E+01  0.67575682223E+01  0.45045682127E+02  0.00000000000E+00 0. -1.
         11    1    3    3    0    0 -0.40287008856E+00 -0.10114413876E+01 -0.12109412316E+00  0.10954369158E+01  0.51100000000E-03 0. -1.
        -11    1    3    3    0    0 -0.22306040069E+02  0.45721736370E+00 -0.30667588953E+01  0.22520512465E+02  0.51100000000E-03 0.  1.
        -12    1    3    3    0    0 -0.21551994176E+02  0.54959947135E+01 -0.35697152039E+01  0.22526368493E+02  0.00000000000E+00 0.  1.
</event>
<event>
 7    1  0.2097247E-008  0.4614232E+02  0.7816164E-02  0.1320468E+00
        -11   -1    0    0    0    0  0.00000000000E+00  0.00000000000E+00  0.45593999997E+02  0.45594000000E+02  0.51100000000E-03 0.  1.
         11   -1    0    0    0    0 -0.00000000000E+00 -0.00000000000E+00 -0.45593999997E+02  0.45594000000E+02  0.51100000000E-03 0. -1.
    9900012    2    1    2    0    0  0.28625126972E+02  0.30064491311E+02  0.17488340702E+02  0.46142316606E+02  0.99999894648E+01 0.  0.
         12    1    1    2    0    0 -0.28625126972E+02 -0.30064491311E+02 -0.17488340702E+02  0.45045683394E+02  0.00000000000E+00 0. -1.
         11    1    3    3    0    0  0.18533513566E+02  0.15289262451E+02  0.11168601831E+02  0.26495100274E+02  0.51100000000E-03 0. -1.
        -11    1    3    3    0    0  0.74171020132E+01  0.64588595147E+01  0.39217829022E+01  0.10588231670E+02  0.51100000000E-03 0.  1.
         12    1    3    3    0    0  0.26745113927E+01  0.83163693454E+01  0.23979559683E+01  0.90589846619E+01  0.00000000000E+00 0. -1.
</event>
<event>
 7    1  0.2097247E-008  0.4614232E+02  0.7816164E-02  0.1320468E+00
        -11   -1    0    0    0    0  0.00000000000E+00  0.00000000000E+00  0.45593999997E+02  0.45594000000E+02  0.51100000000E-03 0. -1.
         11   -1    0    0    0    0 -0.00000000000E+00 -0.00000000000E+00 -0.45593999997E+02  0.45594000000E+02  0.51100000000E-03 0.  1.
    9900012    2    1    2    0    0 -0.33387073302E+02  0.14851228561E+02 -0.26341181847E+02  0.46142317470E+02  0.99999973470E+01 0.  0.
         12    1    1    2    0    0  0.33387073302E+02 -0.14851228561E+02  0.26341181847E+02  0.45045682530E+02  0.00000000000E+00 0. -1.
         11    1    3    3    0    0 -0.83029166031E+01  0.51532011521E+01 -0.36660377922E+01  0.10437132728E+02  0.51100000000E-03 0. -1.
        -11    1    3    3    0    0 -0.10257583554E+02  0.56124276485E+01 -0.64669464660E+01  0.13361839744E+02  0.51100000000E-03 0.  1.
         12    1    3    3    0    0 -0.14826573145E+02  0.40855997608E+01 -0.16208197589E+02  0.22343344998E+02  0.00000000000E+00 0. -1.
</event>
<event>
 7    1  0.2097247E-008  0.4614232E+02  0.7816164E-02  0.1320468E+00
        -11   -1    0    0    0    0  0.00000000000E+00  0.00000000000E+00  0.45593999997E+02  0.45594000000E+02  0.51100000000E-03 0. -1.
         11   -1    0    0    0    0 -0.00000000000E+00 -0.00000000000E+00 -0.45593999997E+02  0.45594000000E+02  0.51100000000E-03 0.  1.
    9900012    2    1    2    0    0  0.19818230585E+01 -0.95576312007E+01 -0.43975419481E+02  0.46142318128E+02  0.10000003345E+02 0.  0.
         12    1    1    2    0    0 -0.19818230585E+01  0.95576312007E+01  0.43975419481E+02  0.45045681872E+02  0.00000000000E+00 0. -1.
         11    1    3    3    0    0 -0.45718570932E+00  0.26252587793E+00 -0.99288276428E-01  0.53646717732E+00  0.51100000000E-03 0. -1.
        -11    1    3    3    0    0  0.59467220352E+00  0.54274572303E+00 -0.45009049194E+00  0.92238260042E+00  0.51100000000E-03 0.  1.
        -12    1    3    3    0    0  0.18443365643E+01 -0.10362902802E+02 -0.43426040712E+02  0.44683468350E+02  0.00000000000E+00 0.  1.
</event>
<event>
 7    1  0.2097247E-008  0.4614232E+02  0.7816164E-02  0.1320468E+00
        -11   -1    0    0    0    0  0.00000000000E+00  0.00000000000E+00  0.45593999997E+02  0.45594000000E+02  0.51100000000E-03 0.  1.
         11   -1    0    0    0    0 -0.00000000000E+00 -0.00000000000E+00 -0.45593999997E+02  0.45594000000E+02  0.51100000000E-03 0. -1.
    9900012    2    1    2    0    0 -0.27204666382E+02  0.20036124944E+02  0.29792162882E+02  0.46142321573E+02  0.10000034762E+02 0.  0.
         12    1    1    2    0    0  0.27204666382E+02 -0.20036124944E+02 -0.29792162882E+02  0.45045678427E+02  0.00000000000E+00 0. -1.
         11    1    3    3    0    0 -0.36001692462E+01  0.32356882929E+01  0.17528038345E+01  0.51481277056E+01  0.51100000000E-03 0.  1.
        -11    1    3    3    0    0 -0.53766442112E+01  0.21734870721E+01  0.23302923600E+01  0.62500089417E+01  0.51100000000E-03 0. -1.
        -12    1    3    3    0    0 -0.18227852925E+02  0.14626949579E+02  0.25709066687E+02  0.34744184926E+02  0.00000000000E+00 0.  1.
</event>
<event>
 7    1  0.2097247E-008  0.4614232E+02  0.7816164E-02  0.1320468E+00
        -11   -1    0    0    0    0  0.00000000000E+00  0.00000000000E+00  0.45593999997E+02  0.45594000000E+02  0.51100000000E-03 0.  1.
         11   -1    0    0    0    0 -0.00000000000E+00 -0.00000000000E+00 -0.45593999997E+02  0.45594000000E+02  0.51100000000E-03 0. -1.
    9900012    2    1    2    0    0 -0.10831679327E+02 -0.20107109587E+02  0.38826438636E+02  0.46142317963E+02  0.10000001842E+02 0.  0.
         12    1    1    2    0    0  0.10831679327E+02  0.20107109587E+02 -0.38826438636E+02  0.45045682037E+02  0.00000000000E+00 0. -1.
         11    1    3    3    0    0 -0.48372616612E+01 -0.85012004547E+01  0.16319648366E+02  0.19026308959E+02  0.51100000000E-03 0. -1.
        -11    1    3    3    0    0 -0.44234124149E+01 -0.12515769324E+02  0.20350977497E+02  0.24297599562E+02  0.51100000000E-03 0.  1.
         12    1    3    3    0    0 -0.15710052513E+01  0.90986019157E+00  0.21558127739E+01  0.28184094422E+01  0.00000000000E+00 0. -1.
</event>
<event>
 7    1  0.2097247E-008  0.4614232E+02  0.7816164E-02  0.1320468E+00
        -11   -1    0    0    0    0  0.00000000000E+00  0.00000000000E+00  0.45593999997E+02  0.45594000000E+02  0.51100000000E-03 0.  1.
         11   -1    0    0    0    0 -0.00000000000E+00 -0.00000000000E+00 -0.45593999997E+02  0.45594000000E+02  0.51100000000E-03 0. -1.
    9900012    2    1    2    0    0 -0.11680672777E+02  0.42473380594E+02  0.94173943864E+01  0.46142317714E+02  0.99999995714E+01 0.  0.
         12    1    1    2    0    0  0.11680672777E+02 -0.42473380594E+02 -0.94173943864E+01  0.45045682286E+02  0.00000000000E+00 0. -1.
         11    1    3    3    0    0 -0.64036576683E+01  0.20561108010E+02  0.41851874289E+00  0.21539293218E+02  0.51100000000E-03 0. -1.
        -11    1    3    3    0    0 -0.21958939294E+01  0.10180963164E+02  0.20192471896E+01  0.10609020717E+02  0.51100000000E-03 0.  1.
         12    1    3    3    0    0 -0.30811211794E+01  0.11731309419E+02  0.69796284539E+01  0.13994003779E+02  0.00000000000E+00 0. -1.
</event>
<event>
 7    1  0.2097247E-008  0.4614232E+02  0.7816164E-02  0.1320468E+00
        -11   -1    0    0    0    0  0.00000000000E+00  0.00000000000E+00  0.45593999997E+02  0.45594000000E+02  0.51100000000E-03 0.  1.
         11   -1    0    0    0    0 -0.00000000000E+00 -0.00000000000E+00 -0.45593999997E+02  0.45594000000E+02  0.51100000000E-03 0. -1.
    9900012    2    1    2    0    0 -0.31618597655E+02  0.79014980910E+01  0.31095725107E+02  0.46142317525E+02  0.99999978449E+01 0.  0.
         12    1    1    2    0    0  0.31618597655E+02 -0.79014980910E+01 -0.31095725107E+02  0.45045682475E+02  0.00000000000E+00 0. -1.
         11    1    3    3    0    0 -0.21921004573E+02  0.18735707160E+01  0.17172941785E+02  0.27909687181E+02  0.51100000000E-03 0.  1.
        -11    1    3    3    0    0 -0.47488267784E+01  0.15386183391E+01  0.71364517083E+01  0.87090553684E+01  0.51100000000E-03 0. -1.
        -12    1    3    3    0    0 -0.49487663035E+01  0.44893090359E+01  0.67863316138E+01  0.95235749757E+01  0.00000000000E+00 0.  1.
</event>
<event>
 7    1  0.2097247E-008  0.4614232E+02  0.7816164E-02  0.1320468E+00
        -11   -1    0    0    0    0  0.00000000000E+00  0.00000000000E+00  0.45593999997E+02  0.45594000000E+02  0.51100000000E-03 0.  1.
         11   -1    0    0    0    0 -0.00000000000E+00 -0.00000000000E+00 -0.45593999997E+02  0.45594000000E+02  0.51100000000E-03 0. -1.
    9900012    2    1    2    0    0  0.32133669040E+02 -0.20971312519E+02  0.23595439907E+02  0.46142318529E+02  0.10000007006E+02 0.  0.
         12    1    1    2    0    0 -0.32133669040E+02  0.20971312519E+02 -0.23595439907E+02  0.45045681471E+02  0.00000000000E+00 0. -1.
         11    1    3    3    0    0  0.53832715494E+01 -0.54599625590E+01  0.35331115200E+01  0.84423741326E+01  0.51100000000E-03 0. -1.
        -11    1    3    3    0    0  0.25053585484E+02 -0.11630690109E+02  0.18162183487E+02  0.33057828230E+02  0.51100000000E-03 0.  1.
        -12    1    3    3    0    0  0.16968120071E+01 -0.38806598510E+01  0.19001448997E+01  0.46421161668E+01  0.00000000000E+00 0.  1.
</event>
<event>
 7    1  0.2097247E-008  0.4614232E+02  0.7816164E-02  0.1320468E+00
        -11   -1    0    0    0    0  0.00000000000E+00  0.00000000000E+00  0.45593999997E+02  0.45594000000E+02  0.51100000000E-03 0.  1.
         11   -1    0    0    0    0 -0.00000000000E+00 -0.00000000000E+00 -0.45593999997E+02  0.45594000000E+02  0.51100000000E-03 0. -1.
    9900012    2    1    2    0    0  0.19202786653E+02 -0.38803751700E+02  0.12435243659E+02  0.46142318231E+02  0.10000004281E+02 0.  0.
         12    1    1    2    0    0 -0.19202786653E+02  0.38803751700E+02 -0.12435243659E+02  0.45045681769E+02  0.00000000000E+00 0. -1.
         11    1    3    3    0    0 -0.22423720502E+00 -0.12096724260E+01  0.30879336156E+00  0.12684412890E+01  0.51100000000E-03 0. -1.
        -11    1    3    3    0    0  0.11708343269E+00 -0.26915821334E+01 -0.10116914489E+01  0.28778190979E+01  0.51100000000E-03 0.  1.
        -12    1    3    3    0    0  0.19309940425E+02 -0.34902497140E+02  0.13138141747E+02  0.41996057844E+02  0.00000000000E+00 0.  1.
</event>
<event>
 7    1  0.2097247E-008  0.4614232E+02  0.7816164E-02  0.1320468E+00
        -11   -1    0    0    0    0  0.00000000000E+00  0.00000000000E+00  0.45593999997E+02  0.45594000000E+02  0.51100000000E-03 0.  1.
         11   -1    0    0    0    0 -0.00000000000E+00 -0.00000000000E+00 -0.45593999997E+02  0.45594000000E+02  0.51100000000E-03 0. -1.
    9900012    2    1    2    0    0  0.33633564484E+02 -0.24474795630E+02  0.17288181553E+02  0.46142317605E+02  0.99999985727E+01 0.  0.
         12    1    1    2    0    0 -0.33633564484E+02  0.24474795630E+02 -0.17288181553E+02  0.45045682395E+02  0.00000000000E+00 0. -1.
         11    1    3    3    0    0  0.11526880322E+02 -0.11249509063E+02  0.23993206144E+01  0.16284261230E+02  0.51100000000E-03 0. -1.
        -11    1    3    3    0    0  0.52088363908E+01 -0.41927497439E+01  0.31921815233E+01  0.74095310310E+01  0.51100000000E-03 0.  1.
         12    1    3    3    0    0  0.16897847771E+02 -0.90325368227E+01  0.11696679416E+02  0.22448525344E+02  0.00000000000E+00 0. -1.
</event>
<event>
 7    1  0.2097247E-008  0.4614232E+02  0.7816164E-02  0.1320468E+00
        -11   -1    0    0    0    0  0.00000000000E+00  0.00000000000E+00  0.45593999997E+02  0.45594000000E+02  0.51100000000E-03 0.  1.
         11   -1    0    0    0    0 -0.00000000000E+00 -0.00000000000E+00 -0.45593999997E+02  0.45594000000E+02  0.51100000000E-03 0. -1.
    9900012    2    1    2    0    0  0.37892885161E+01 -0.25820937442E+02  0.36715581476E+02  0.46142318288E+02  0.10000004804E+02 0.  0.
         12    1    1    2    0    0 -0.37892885161E+01  0.25820937442E+02 -0.36715581476E+02  0.45045681712E+02  0.00000000000E+00 0. -1.
         11    1    3    3    0    0 -0.17463102879E+01 -0.36984255305E+01  0.52452297033E+01  0.66513446707E+01  0.51100000000E-03 0. -1.
        -11    1    3    3    0    0  0.34241067907E+01 -0.55550949632E+01  0.13277623668E+02  0.14794555684E+02  0.51100000000E-03 0.  1.
        -12    1    3    3    0    0  0.21114920134E+01 -0.16567416948E+02  0.18192728104E+02  0.24696417933E+02  0.00000000000E+00 0.  1.
</event>
<event>
 7    1  0.2097247E-008  0.4614232E+02  0.7816164E-02  0.1320468E+00
        -11   -1    0    0    0    0  0.00000000000E+00  0.00000000000E+00  0.45593999997E+02  0.45594000000E+02  0.51100000000E-03 0.  1.
         11   -1    0    0    0    0 -0.00000000000E+00 -0.00000000000E+00 -0.45593999997E+02  0.45594000000E+02  0.51100000000E-03 0. -1.
    9900012    2    1    2    0    0 -0.94826180444E+01 -0.86043688100E+01  0.43187480808E+02  0.46142315344E+02  0.99999779567E+01 0.  0.
         12    1    1    2    0    0  0.94826180444E+01  0.86043688100E+01 -0.43187480808E+02  0.45045684656E+02  0.00000000000E+00 0. -1.
         11    1    3    3    0    0 -0.67380674365E+00 -0.26369323356E+01  0.42461790391E+01  0.50435567176E+01  0.51100000000E-03 0. -1.
        -11    1    3    3    0    0 -0.44804260259E+01  0.10379161040E+01  0.99652596518E+01  0.10975330856E+02  0.51100000000E-03 0.  1.
        -12    1    3    3    0    0 -0.43283852748E+01 -0.70053525785E+01  0.28976042117E+02  0.30123427770E+02  0.00000000000E+00 0.  1.
</event>
<event>
 7    1  0.2097247E-008  0.4614232E+02  0.7816164E-02  0.1320468E+00
        -11   -1    0    0    0    0  0.00000000000E+00  0.00000000000E+00  0.45593999997E+02  0.45594000000E+02  0.51100000000E-03 0.  1.
         11   -1    0    0    0    0 -0.00000000000E+00 -0.00000000000E+00 -0.45593999997E+02  0.45594000000E+02  0.51100000000E-03 0. -1.
    9900012    2    1    2    0    0  0.32791120375E+02 -0.30847745128E+02  0.15074784097E+01  0.46142318231E+02  0.10000004282E+02 0.  0.
         12    1    1    2    0    0 -0.32791120375E+02  0.30847745128E+02 -0.15074784097E+01  0.45045681769E+02  0.00000000000E+00 0. -1.
         11    1    3    3    0    0  0.11328974273E+02 -0.77419961780E+01  0.23270821155E+01  0.13917595854E+02  0.51100000000E-03 0. -1.
        -11    1    3    3    0    0  0.11608663395E+02 -0.12803888957E+02  0.28210329203E+01  0.17511677968E+02  0.51100000000E-03 0.  1.
         12    1    3    3    0    0  0.98534827059E+01 -0.10301859993E+02 -0.36406366261E+01  0.14713044410E+02  0.00000000000E+00 0. -1.
</event>
<event>
 7    1  0.2097247E-008  0.4614232E+02  0.7816164E-02  0.1320468E+00
        -11   -1    0    0    0    0  0.00000000000E+00  0.00000000000E+00  0.45593999997E+02  0.45594000000E+02  0.51100000000E-03 0.  1.
         11   -1    0    0    0    0 -0.00000000000E+00 -0.00000000000E+00 -0.45593999997E+02  0.45594000000E+02  0.51100000000E-03 0. -1.
    9900012    2    1    2    0    0  0.37407227920E+02 -0.14551176151E+02  0.20446894005E+02  0.46142324264E+02  0.10000059302E+02 0.  0.
         12    1    1    2    0    0 -0.37407227920E+02  0.14551176151E+02 -0.20446894005E+02  0.45045675736E+02  0.00000000000E+00 0. -1.
         11    1    3    3    0    0  0.96871962735E-01  0.47039689622E+00  0.35714356714E+00  0.59850581101E+00  0.51100000000E-03 0. -1.
        -11    1    3    3    0    0  0.22017443342E+02 -0.11165315236E+02  0.15373086750E+02  0.29082019739E+02  0.51100000000E-03 0.  1.
         12    1    3    3    0    0  0.15292912615E+02 -0.38562578112E+01  0.47166636880E+01  0.16461798714E+02  0.00000000000E+00 0. -1.
</event>
<event>
 7    1  0.2097247E-008  0.4614232E+02  0.7816164E-02  0.1320468E+00
        -11   -1    0    0    0    0  0.00000000000E+00  0.00000000000E+00  0.45593999997E+02  0.45594000000E+02  0.51100000000E-03 0.  1.
         11   -1    0    0    0    0 -0.00000000000E+00 -0.00000000000E+00 -0.45593999997E+02  0.45594000000E+02  0.51100000000E-03 0. -1.
    9900012    2    1    2    0    0  0.22090502802E+02 -0.97954331721E+01  0.38015427203E+02  0.46142317293E+02  0.99999957342E+01 0.  0.
         12    1    1    2    0    0 -0.22090502802E+02  0.97954331721E+01 -0.38015427203E+02  0.45045682707E+02  0.00000000000E+00 0. -1.
         11    1    3    3    0    0  0.53496809016E+01 -0.24614607751E+01  0.30397133911E+01  0.66270455452E+01  0.51100000000E-03 0. -1.
        -11    1    3    3    0    0  0.69373992824E+01 -0.23868790254E+01  0.12328740454E+02  0.14346516711E+02  0.51100000000E-03 0.  1.
        -12    1    3    3    0    0  0.98034226175E+01 -0.49470933716E+01  0.22646973358E+02  0.25168755037E+02  0.00000000000E+00 0.  1.
</event>
<event>
 7    1  0.2097247E-008  0.4614232E+02  0.7816164E-02  0.1320468E+00
        -11   -1    0    0    0    0  0.00000000000E+00  0.00000000000E+00  0.45593999997E+02  0.45594000000E+02  0.51100000000E-03 0.  1.
         11   -1    0    0    0    0 -0.00000000000E+00 -0.00000000000E+00 -0.45593999997E+02  0.45594000000E+02  0.51100000000E-03 0. -1.
    9900012    2    1    2    0    0 -0.31529996569E+02 -0.14486116610E+02  0.28724992908E+02  0.46142317902E+02  0.10000001288E+02 0.  0.
         12    1    1    2    0    0  0.31529996569E+02  0.14486116610E+02 -0.28724992908E+02  0.45045682098E+02  0.00000000000E+00 0. -1.
         11    1    3    3    0    0 -0.57342074019E+01 -0.54831629456E+01  0.54532041023E+01  0.96272345800E+01  0.51100000000E-03 0. -1.
        -11    1    3    3    0    0 -0.19516470501E+02 -0.71201820297E+01  0.21095951280E+02  0.29607917414E+02  0.51100000000E-03 0.  1.
        -12    1    3    3    0    0 -0.62793186667E+01 -0.18827716350E+01  0.21758375254E+01  0.69071659083E+01  0.00000000000E+00 0.  1.
</event>
<event>
 7    1  0.2097247E-008  0.4614232E+02  0.7816164E-02  0.1320468E+00
        -11   -1    0    0    0    0  0.00000000000E+00  0.00000000000E+00  0.45593999997E+02  0.45594000000E+02  0.51100000000E-03 0. -1.
         11   -1    0    0    0    0 -0.00000000000E+00 -0.00000000000E+00 -0.45593999997E+02  0.45594000000E+02  0.51100000000E-03 0.  1.
    9900012    2    1    2    0    0  0.12651866886E+02  0.41922356878E+02 -0.10562180277E+02  0.46142318807E+02  0.10000009540E+02 0.  0.
         12    1    1    2    0    0 -0.12651866886E+02 -0.41922356878E+02  0.10562180277E+02  0.45045681193E+02  0.00000000000E+00 0. -1.
         11    1    3    3    0    0 -0.47201139299E+00  0.46547164241E+01 -0.11011987615E+01  0.48064351361E+01  0.51100000000E-03 0. -1.
        -11    1    3    3    0    0  0.85293641634E+01  0.32414992042E+02 -0.85477816821E+01  0.34591130858E+02  0.51100000000E-03 0.  1.
         12    1    3    3    0    0  0.45945141159E+01  0.48526484120E+01 -0.91319983358E+00  0.67447528129E+01  0.00000000000E+00 0. -1.
</event>
<event>
 7    1  0.2097247E-008  0.4614232E+02  0.7816164E-02  0.1320468E+00
        -11   -1    0    0    0    0  0.00000000000E+00  0.00000000000E+00  0.45593999997E+02  0.45594000000E+02  0.51100000000E-03 0. -1.
         11   -1    0    0    0    0 -0.00000000000E+00 -0.00000000000E+00 -0.45593999997E+02  0.45594000000E+02  0.51100000000E-03 0.  1.
    9900012    2    1    2    0    0  0.90491045913E+01 -0.21425465841E+02 -0.38576890257E+02  0.46142319383E+02  0.10000014788E+02 0.  0.
         12    1    1    2    0    0 -0.90491045913E+01  0.21425465841E+02  0.38576890257E+02  0.45045680617E+02  0.00000000000E+00 0. -1.
         11    1    3    3    0    0  0.23957188042E+01 -0.56745219087E+01 -0.17605236038E+02  0.18651648820E+02  0.51100000000E-03 0. -1.
        -11    1    3    3    0    0  0.53947608929E+01 -0.11354759793E+02 -0.18277086553E+02  0.22183009449E+02  0.51100000000E-03 0.  1.
        -12    1    3    3    0    0  0.12586248942E+01 -0.43961841384E+01 -0.26945676656E+01  0.53076611146E+01  0.00000000000E+00 0.  1.
</event>
<event>
 7    1  0.2097247E-008  0.4614233E+02  0.7816164E-02  0.1320468E+00
        -11   -1    0    0    0    0  0.00000000000E+00  0.00000000000E+00  0.45593999997E+02  0.45594000000E+02  0.51100000000E-03 0.  1.
         11   -1    0    0    0    0 -0.00000000000E+00 -0.00000000000E+00 -0.45593999997E+02  0.45594000000E+02  0.51100000000E-03 0. -1.
    9900012    2    1    2    0    0  0.96907964327E+01 -0.68426604143E+01  0.43455486122E+02  0.46142325278E+02  0.10000068545E+02 0.  0.
         12    1    1    2    0    0 -0.96907964327E+01  0.68426604143E+01 -0.43455486122E+02  0.45045674722E+02  0.00000000000E+00 0. -1.
         11    1    3    3    0    0 -0.70724648442E+00  0.15064042496E+01  0.29247342127E+01  0.33650441050E+01  0.51100000000E-03 0. -1.
        -11    1    3    3    0    0  0.67474173784E+01 -0.43486759138E+01  0.27960684724E+02  0.29090178995E+02  0.51100000000E-03 0.  1.
         12    1    3    3    0    0  0.36506255387E+01 -0.40003887501E+01  0.12570067185E+02  0.13687102178E+02  0.00000000000E+00 0. -1.
</event>
<event>
 7    1  0.2097247E-008  0.4614232E+02  0.7816164E-02  0.1320468E+00
        -11   -1    0    0    0    0  0.00000000000E+00  0.00000000000E+00  0.45593999997E+02  0.45594000000E+02  0.51100000000E-03 0.  1.
         11   -1    0    0    0    0 -0.00000000000E+00 -0.00000000000E+00 -0.45593999997E+02  0.45594000000E+02  0.51100000000E-03 0. -1.
    9900012    2    1    2    0    0  0.12734067776E+02  0.22528094476E+02  0.36870602729E+02  0.46142324643E+02  0.10000062751E+02 0.  0.
         12    1    1    2    0    0 -0.12734067776E+02 -0.22528094476E+02 -0.36870602729E+02  0.45045675357E+02  0.00000000000E+00 0. -1.
         11    1    3    3    0    0  0.95724546465E+00  0.37120921643E+01  0.10451430052E+02  0.11132310520E+02  0.51100000000E-03 0. -1.
        -11    1    3    3    0    0  0.11810594392E+02  0.18369376187E+02  0.26690508703E+02  0.34486336084E+02  0.51100000000E-03 0.  1.
        -12    1    3    3    0    0 -0.33772080434E-01  0.44662612420E+00 -0.27133602720E+00  0.52367803839E+00  0.00000000000E+00 0.  1.
</event>
<event>
 7    1  0.2097247E-008  0.4614232E+02  0.7816164E-02  0.1320468E+00
        -11   -1    0    0    0    0  0.00000000000E+00  0.00000000000E+00  0.45593999997E+02  0.45594000000E+02  0.51100000000E-03 0.  1.
         11   -1    0    0    0    0 -0.00000000000E+00 -0.00000000000E+00 -0.45593999997E+02  0.45594000000E+02  0.51100000000E-03 0. -1.
    9900012    2    1    2    0    0  0.30282527325E+02  0.12042096995E+02  0.31097741518E+02  0.46142322197E+02  0.10000040447E+02 0.  0.
         12    1    1    2    0    0 -0.30282527325E+02 -0.12042096995E+02 -0.31097741518E+02  0.45045677803E+02  0.00000000000E+00 0. -1.
         11    1    3    3    0    0  0.15851545121E+02  0.27190792587E+01  0.14708763081E+02  0.21794783467E+02  0.51100000000E-03 0. -1.
        -11    1    3    3    0    0  0.83919439329E+01  0.68003402368E+01  0.68885613901E+01  0.12810996394E+02  0.51100000000E-03 0.  1.
         12    1    3    3    0    0  0.60390382709E+01  0.25226774998E+01  0.95004170467E+01  0.11536542336E+02  0.00000000000E+00 0. -1.
</event>
<event>
 7    1  0.2097247E-008  0.4614232E+02  0.7816164E-02  0.1320468E+00
        -11   -1    0    0    0    0  0.00000000000E+00  0.00000000000E+00  0.45593999997E+02  0.45594000000E+02  0.51100000000E-03 0. -1.
         11   -1    0    0    0    0 -0.00000000000E+00 -0.00000000000E+00 -0.45593999997E+02  0.45594000000E+02  0.51100000000E-03 0.  1.
    9900012    2    1    2    0    0 -0.33378187985E+01 -0.41119627352E+02 -0.18087252607E+02  0.46142317690E+02  0.99999993514E+01 0.  0.
         12    1    1    2    0    0  0.33378187985E+01  0.41119627352E+02  0.18087252607E+02  0.45045682310E+02  0.00000000000E+00 0. -1.
         11    1    3    3    0    0  0.77563536754E+00 -0.80407824412E+01 -0.35130025371E+01  0.88089147786E+01  0.51100000000E-03 0. -1.
        -11    1    3    3    0    0 -0.13046428233E+01 -0.30084597747E+02 -0.13925936418E+02  0.33177052610E+02  0.51100000000E-03 0.  1.
         12    1    3    3    0    0 -0.28088113427E+01 -0.29942471638E+01 -0.64831365154E+00  0.41563503013E+01  0.00000000000E+00 0. -1.
</event>
<event>
 7    1  0.2097247E-008  0.4614232E+02  0.7816164E-02  0.1320468E+00
        -11   -1    0    0    0    0  0.00000000000E+00  0.00000000000E+00  0.45593999997E+02  0.45594000000E+02  0.51100000000E-03 0. -1.
         11   -1    0    0    0    0 -0.00000000000E+00 -0.00000000000E+00 -0.45593999997E+02  0.45594000000E+02  0.51100000000E-03 0.  1.
    9900012    2    1    2    0    0  0.31444387349E+02  0.14348806203E+02 -0.28887293415E+02  0.46142318120E+02  0.10000003269E+02 0.  0.
         12    1    1    2    0    0 -0.31444387349E+02 -0.14348806203E+02  0.28887293415E+02  0.45045681880E+02  0.00000000000E+00 0. -1.
         11    1    3    3    0    0  0.93180137779E+01  0.82371283973E+00 -0.69174240409E+01  0.11634201272E+02  0.51100000000E-03 0. -1.
        -11    1    3    3    0    0  0.24056299379E+01  0.20920543740E+00 -0.40678380199E+01  0.47305526876E+01  0.51100000000E-03 0.  1.
        -12    1    3    3    0    0  0.19720743633E+02  0.13315887926E+02 -0.17902031354E+02  0.29777564160E+02  0.00000000000E+00 0.  1.
</event>
<event>
 7    1  0.2097247E-008  0.4614231E+02  0.7816164E-02  0.1320468E+00
        -11   -1    0    0    0    0  0.00000000000E+00  0.00000000000E+00  0.45593999997E+02  0.45594000000E+02  0.51100000000E-03 0. -1.
         11   -1    0    0    0    0 -0.00000000000E+00 -0.00000000000E+00 -0.45593999997E+02  0.45594000000E+02  0.51100000000E-03 0.  1.
    9900012    2    1    2    0    0  0.22833446510E+02  0.49980518200E+01 -0.38506724327E+02  0.46142305201E+02  0.99998854645E+01 0.  0.
         12    1    1    2    0    0 -0.22833446510E+02 -0.49980518200E+01  0.38506724327E+02  0.45045694799E+02  0.00000000000E+00 0. -1.
         11    1    3    3    0    0  0.14353118556E+02 -0.35223887919E+00 -0.20275681041E+02  0.24844301690E+02  0.51100000000E-03 0. -1.
        -11    1    3    3    0    0  0.32520140333E+01  0.33633584336E+01 -0.45866468835E+01  0.65517253545E+01  0.51100000000E-03 0.  1.
         12    1    3    3    0    0  0.52283139214E+01  0.19869322656E+01 -0.13644396402E+02  0.14746278157E+02  0.00000000000E+00 0. -1.
</event>
<event>
 7    1  0.2097247E-008  0.4614232E+02  0.7816164E-02  0.1320468E+00
        -11   -1    0    0    0    0  0.00000000000E+00  0.00000000000E+00  0.45593999997E+02  0.45594000000E+02  0.51100000000E-03 0. -1.
         11   -1    0    0    0    0 -0.00000000000E+00 -0.00000000000E+00 -0.45593999997E+02  0.45594000000E+02  0.51100000000E-03 0.  1.
    9900012    2    1    2    0    0 -0.32969655648E+02 -0.27580098984E+02  0.13470465217E+02  0.46142317780E+02  0.10000000168E+02 0.  0.
         12    1    1    2    0    0  0.32969655648E+02  0.27580098984E+02 -0.13470465217E+02  0.45045682220E+02  0.00000000000E+00 0. -1.
         11    1    3    3    0    0 -0.76853342842E+00 -0.32887367910E+01 -0.46378876037E+00  0.34090370468E+01  0.51100000000E-03 0. -1.
        -11    1    3    3    0    0 -0.38338419121E+01 -0.23163759804E+01  0.99495383315E+00  0.45884501611E+01  0.51100000000E-03 0.  1.
         12    1    3    3    0    0 -0.28367280308E+02 -0.21974986213E+02  0.12939300145E+02  0.38144830572E+02  0.00000000000E+00 0. -1.
</event>
<event>
 7    1  0.2097247E-008  0.4614232E+02  0.7816164E-02  0.1320468E+00
        -11   -1    0    0    0    0  0.00000000000E+00  0.00000000000E+00  0.45593999997E+02  0.45594000000E+02  0.51100000000E-03 0.  1.
         11   -1    0    0    0    0 -0.00000000000E+00 -0.00000000000E+00 -0.45593999997E+02  0.45594000000E+02  0.51100000000E-03 0. -1.
    9900012    2    1    2    0    0 -0.25395171659E+02  0.14602279518E+02  0.34219470613E+02  0.46142317857E+02  0.10000000871E+02 0.  0.
         12    1    1    2    0    0  0.25395171659E+02 -0.14602279518E+02 -0.34219470613E+02  0.45045682143E+02  0.00000000000E+00 0. -1.
         11    1    3    3    0    0 -0.41319531053E+01  0.47314150411E+01  0.79918405733E+01  0.10165079477E+02  0.51100000000E-03 0. -1.
        -11    1    3    3    0    0 -0.17384835038E+02  0.10843533723E+02  0.20429340943E+02  0.28933936554E+02  0.51100000000E-03 0.  1.
         12    1    3    3    0    0 -0.38783835160E+01 -0.97266924624E+00  0.57982890971E+01  0.70433018260E+01  0.00000000000E+00 0. -1.
</event>
<event>
 7    1  0.2589678E-008  0.4614231E+02  0.7816164E-02  0.1320468E+00
        -11   -1    0    0    0    0  0.00000000000E+00  0.00000000000E+00  0.45593999997E+02  0.45594000000E+02  0.51100000000E-03 0. -1.
         11   -1    0    0    0    0 -0.00000000000E+00 -0.00000000000E+00 -0.45593999997E+02  0.45594000000E+02  0.51100000000E-03 0.  1.
    9900012    2    1    2    0    0 -0.22326891452E+02  0.21833078907E+02 -0.32464451750E+02  0.46142311595E+02  0.99999437709E+01 0.  0.
         12    1    1    2    0    0  0.22326891452E+02 -0.21833078907E+02  0.32464451750E+02  0.45045688405E+02  0.00000000000E+00 0. -1.
         11    1    3    3    0    0 -0.11258485802E+01  0.13923796117E+01  0.20346264950E+00  0.18021246681E+01  0.51100000000E-03 0. -1.
        -11    1    3    3    0    0 -0.16055329337E+01  0.42256456941E+01 -0.42864355589E+01  0.62295543657E+01  0.51100000000E-03 0.  1.
        -12    1    3    3    0    0 -0.19595509939E+02  0.16215053601E+02 -0.28381478841E+02  0.38110632561E+02  0.00000000000E+00 0.  1.
</event>
<event>
 7    1  0.2097247E-008  0.4614232E+02  0.7816164E-02  0.1320468E+00
        -11   -1    0    0    0    0  0.00000000000E+00  0.00000000000E+00  0.45593999997E+02  0.45594000000E+02  0.51100000000E-03 0.  1.
         11   -1    0    0    0    0 -0.00000000000E+00 -0.00000000000E+00 -0.45593999997E+02  0.45594000000E+02  0.51100000000E-03 0. -1.
    9900012    2    1    2    0    0 -0.26765013385E+02  0.31288588369E+02  0.18269420510E+02  0.46142318416E+02  0.10000005975E+02 0.  0.
         12    1    1    2    0    0  0.26765013385E+02 -0.31288588369E+02 -0.18269420510E+02  0.45045681584E+02  0.00000000000E+00 0. -1.
         11    1    3    3    0    0 -0.21525201594E+01  0.45328491204E+00 -0.19760222805E-01  0.21998183960E+01  0.51100000000E-03 0. -1.
        -11    1    3    3    0    0 -0.63310199508E+01  0.74938430152E+01  0.16622981738E+01  0.99500116700E+01  0.51100000000E-03 0.  1.
        -12    1    3    3    0    0 -0.18281473275E+02  0.23341460441E+02  0.16626882559E+02  0.33992488350E+02  0.00000000000E+00 0.  1.
</event>
<event>
 7    1  0.2097247E-008  0.4614232E+02  0.7816164E-02  0.1320468E+00
        -11   -1    0    0    0    0  0.00000000000E+00  0.00000000000E+00  0.45593999997E+02  0.45594000000E+02  0.51100000000E-03 0.  1.
         11   -1    0    0    0    0 -0.00000000000E+00 -0.00000000000E+00 -0.45593999997E+02  0.45594000000E+02  0.51100000000E-03 0. -1.
    9900012    2    1    2    0    0 -0.68381700409E+01  0.42668307371E+02 -0.12718813747E+02  0.46142320445E+02  0.10000024478E+02 0.  0.
         12    1    1    2    0    0  0.68381700409E+01 -0.42668307371E+02  0.12718813747E+02  0.45045679555E+02  0.00000000000E+00 0. -1.
         11    1    3    3    0    0  0.12518501038E+00  0.27507816890E+01  0.12848941088E+01  0.30386550182E+01  0.51100000000E-03 0. -1.
        -11    1    3    3    0    0  0.60109074878E+00  0.48101273703E+01 -0.14520782170E+01  0.50603524399E+01  0.51100000000E-03 0.  1.
        -12    1    3    3    0    0 -0.75644458000E+01  0.35107398312E+02 -0.12551629639E+02  0.38043312987E+02  0.00000000000E+00 0.  1.
</event>
<event>
 7    1  0.2097247E-008  0.4614232E+02  0.7816164E-02  0.1320468E+00
        -11   -1    0    0    0    0  0.00000000000E+00  0.00000000000E+00  0.45593999997E+02  0.45594000000E+02  0.51100000000E-03 0.  1.
         11   -1    0    0    0    0 -0.00000000000E+00 -0.00000000000E+00 -0.45593999997E+02  0.45594000000E+02  0.51100000000E-03 0. -1.
    9900012    2    1    2    0    0 -0.16010596483E+02 -0.16657695966E+02  0.38669050941E+02  0.46142317240E+02  0.99999952495E+01 0.  0.
         12    1    1    2    0    0  0.16010596483E+02  0.16657695966E+02 -0.38669050941E+02  0.45045682760E+02  0.00000000000E+00 0. -1.
         11    1    3    3    0    0 -0.51073270455E+01 -0.32456339904E+00  0.62100808848E+01  0.80470638003E+01  0.51100000000E-03 0. -1.
        -11    1    3    3    0    0 -0.84169064642E+01 -0.10546434547E+02  0.19867428968E+02  0.24016376291E+02  0.51100000000E-03 0.  1.
        -12    1    3    3    0    0 -0.24863629737E+01 -0.57866980204E+01  0.12591541088E+02  0.14078877149E+02  0.00000000000E+00 0.  1.
</event>
<event>
 7    1  0.2097247E-008  0.4614232E+02  0.7816164E-02  0.1320468E+00
        -11   -1    0    0    0    0  0.00000000000E+00  0.00000000000E+00  0.45593999997E+02  0.45594000000E+02  0.51100000000E-03 0.  1.
         11   -1    0    0    0    0 -0.00000000000E+00 -0.00000000000E+00 -0.45593999997E+02  0.45594000000E+02  0.51100000000E-03 0. -1.
    9900012    2    1    2    0    0 -0.19150697118E+02  0.27496168157E+02  0.30105231985E+02  0.46142318117E+02  0.10000003244E+02 0.  0.
         12    1    1    2    0    0  0.19150697118E+02 -0.27496168157E+02 -0.30105231985E+02  0.45045681883E+02  0.00000000000E+00 0. -1.
         11    1    3    3    0    0 -0.67416457970E+00  0.14561509568E+01  0.43503780760E-01  0.16052309272E+01  0.51100000000E-03 0. -1.
        -11    1    3    3    0    0 -0.15984894951E+02  0.18045385008E+02  0.19179697057E+02  0.30806063788E+02  0.51100000000E-03 0.  1.
        -12    1    3    3    0    0 -0.24916375881E+01  0.79946321927E+01  0.10882031148E+02  0.13731023402E+02  0.00000000000E+00 0.  1.
</event>
<event>
 7    1  0.2097247E-008  0.4614232E+02  0.7816164E-02  0.1320468E+00
        -11   -1    0    0    0    0  0.00000000000E+00  0.00000000000E+00  0.45593999997E+02  0.45594000000E+02  0.51100000000E-03 0. -1.
         11   -1    0    0    0    0 -0.00000000000E+00 -0.00000000000E+00 -0.45593999997E+02  0.45594000000E+02  0.51100000000E-03 0.  1.
    9900012    2    1    2    0    0 -0.42573052779E+02 -0.92289874998E+00 -0.14690029128E+02  0.46142317402E+02  0.99999967211E+01 0.  0.
         12    1    1    2    0    0  0.42573052779E+02  0.92289874998E+00  0.14690029128E+02  0.45045682598E+02  0.00000000000E+00 0. -1.
         11    1    3    3    0    0 -0.33800643399E+02  0.12869548531E+01 -0.10525418311E+02  0.35424909003E+02  0.51100000000E-03 0.  1.
        -11    1    3    3    0    0 -0.15154998879E+00 -0.11334639855E+01 -0.82392535568E+00  0.14094542413E+01  0.51100000000E-03 0. -1.
         12    1    3    3    0    0 -0.86208593904E+01 -0.10763896175E+01 -0.33406854617E+01  0.93079541571E+01  0.00000000000E+00 0. -1.
</event>
<event>
 7    1  0.2097247E-008  0.4614232E+02  0.7816164E-02  0.1320468E+00
        -11   -1    0    0    0    0  0.00000000000E+00  0.00000000000E+00  0.45593999997E+02  0.45594000000E+02  0.51100000000E-03 0.  1.
         11   -1    0    0    0    0 -0.00000000000E+00 -0.00000000000E+00 -0.45593999997E+02  0.45594000000E+02  0.51100000000E-03 0. -1.
    9900012    2    1    2    0    0  0.31673793248E+02  0.30985134575E+02  0.81120630979E+01  0.46142319730E+02  0.10000017951E+02 0.  0.
         12    1    1    2    0    0 -0.31673793248E+02 -0.30985134575E+02 -0.81120630979E+01  0.45045680270E+02  0.00000000000E+00 0. -1.
         11    1    3    3    0    0  0.25197858761E+02  0.20819297943E+02  0.87186126055E+01  0.33828825859E+02  0.51100000000E-03 0. -1.
        -11    1    3    3    0    0  0.34111591310E+01  0.36227111436E+01 -0.10080240247E+01  0.50770222909E+01  0.51100000000E-03 0.  1.
         12    1    3    3    0    0  0.30647753554E+01  0.65431254880E+01  0.40147451712E+00  0.72364715793E+01  0.00000000000E+00 0. -1.
</event>
<event>
 7    1  0.2097247E-008  0.4614232E+02  0.7816164E-02  0.1320468E+00
        -11   -1    0    0    0    0  0.00000000000E+00  0.00000000000E+00  0.45593999997E+02  0.45594000000E+02  0.51100000000E-03 0.  1.
         11   -1    0    0    0    0 -0.00000000000E+00 -0.00000000000E+00 -0.45593999997E+02  0.45594000000E+02  0.51100000000E-03 0. -1.
    9900012    2    1    2    0    0 -0.28043079026E+02  0.95693703969E+01  0.33928253817E+02  0.46142317209E+02  0.99999949659E+01 0.  0.
         12    1    1    2    0    0  0.28043079026E+02 -0.95693703969E+01 -0.33928253817E+02  0.45045682791E+02  0.00000000000E+00 0. -1.
         11    1    3    3    0    0 -0.18394161379E+02  0.66805957034E+01  0.16840963042E+02  0.25818473391E+02  0.51100000000E-03 0.  1.
        -11    1    3    3    0    0 -0.43615398664E+01  0.35529552021E+01  0.97336242326E+01  0.11242329013E+02  0.51100000000E-03 0. -1.
         12    1    3    3    0    0 -0.52873777799E+01 -0.66418050862E+00  0.73536665426E+01  0.90815148051E+01  0.00000000000E+00 0. -1.
</event>
<event>
 7    1  0.2097247E-008  0.4614232E+02  0.7816164E-02  0.1320468E+00
        -11   -1    0    0    0    0  0.00000000000E+00  0.00000000000E+00  0.45593999997E+02  0.45594000000E+02  0.51100000000E-03 0. -1.
         11   -1    0    0    0    0 -0.00000000000E+00 -0.00000000000E+00 -0.45593999997E+02  0.45594000000E+02  0.51100000000E-03 0.  1.
    9900012    2    1    2    0    0 -0.30468437381E+02  0.32674269911E+02 -0.57602004386E+01  0.46142317635E+02  0.99999988500E+01 0.  0.
         12    1    1    2    0    0  0.30468437381E+02 -0.32674269911E+02  0.57602004386E+01  0.45045682365E+02  0.00000000000E+00 0. -1.
         11    1    3    3    0    0 -0.40301205319E+01  0.84427263666E+01 -0.27366377290E+01  0.97473425263E+01  0.51100000000E-03 0. -1.
        -11    1    3    3    0    0 -0.19087815826E+02  0.14901708906E+02 -0.34066710657E+00  0.24218210001E+02  0.51100000000E-03 0.  1.
         12    1    3    3    0    0 -0.73505010231E+01  0.93298346382E+01 -0.26828956031E+01  0.12176765108E+02  0.00000000000E+00 0. -1.
</event>
<event>
 7    1  0.2097247E-008  0.4614232E+02  0.7816164E-02  0.1320468E+00
        -11   -1    0    0    0    0  0.00000000000E+00  0.00000000000E+00  0.45593999997E+02  0.45594000000E+02  0.51100000000E-03 0.  1.
         11   -1    0    0    0    0 -0.00000000000E+00 -0.00000000000E+00 -0.45593999997E+02  0.45594000000E+02  0.51100000000E-03 0. -1.
    9900012    2    1    2    0    0  0.43793878709E+02 -0.75223242603E+00  0.10518741886E+02  0.46142316557E+02  0.99999890167E+01 0.  0.
         12    1    1    2    0    0 -0.43793878709E+02  0.75223242603E+00 -0.10518741886E+02  0.45045683443E+02  0.00000000000E+00 0. -1.
         11    1    3    3    0    0  0.19435448113E+02 -0.44483915782E+01  0.31132086334E+01  0.20179615934E+02  0.51100000000E-03 0. -1.
        -11    1    3    3    0    0  0.48467843973E+00  0.61277736647E+00  0.46871151005E+00  0.91109825571E+00  0.51100000000E-03 0.  1.
        -12    1    3    3    0    0  0.23873752156E+02  0.30833817857E+01  0.69368217430E+01  0.25051602367E+02  0.00000000000E+00 0.  1.
</event>
<event>
 7    1  0.2097247E-008  0.4614232E+02  0.7816164E-02  0.1320468E+00
        -11   -1    0    0    0    0  0.00000000000E+00  0.00000000000E+00  0.45593999997E+02  0.45594000000E+02  0.51100000000E-03 0.  1.
         11   -1    0    0    0    0 -0.00000000000E+00 -0.00000000000E+00 -0.45593999997E+02  0.45594000000E+02  0.51100000000E-03 0. -1.
    9900012    2    1    2    0    0  0.13967114170E+02 -0.37213431027E+02  0.21194186426E+02  0.46142320237E+02  0.10000022580E+02 0.  0.
         12    1    1    2    0    0 -0.13967114170E+02  0.37213431027E+02 -0.21194186426E+02  0.45045679763E+02  0.00000000000E+00 0. -1.
         11    1    3    3    0    0 -0.40064999784E+00 -0.30389592733E+01  0.12998513338E+01  0.33294755799E+01  0.51100000000E-03 0. -1.
        -11    1    3    3    0    0  0.10243222316E+01 -0.11740918218E+02  0.55121717075E+01  0.13010858305E+02  0.51100000000E-03 0.  1.
         12    1    3    3    0    0  0.13343441936E+02 -0.22433553535E+02  0.14382163384E+02  0.29801986352E+02  0.00000000000E+00 0. -1.
</event>
<event>
 7    1  0.2097247E-008  0.4614232E+02  0.7816164E-02  0.1320468E+00
        -11   -1    0    0    0    0  0.00000000000E+00  0.00000000000E+00  0.45593999997E+02  0.45594000000E+02  0.51100000000E-03 0.  1.
         11   -1    0    0    0    0 -0.00000000000E+00 -0.00000000000E+00 -0.45593999997E+02  0.45594000000E+02  0.51100000000E-03 0. -1.
    9900012    2    1    2    0    0 -0.34730035207E+01  0.32935783402E+02  0.30533356413E+02  0.46142318347E+02  0.10000005344E+02 0.  0.
         12    1    1    2    0    0  0.34730035207E+01 -0.32935783402E+02 -0.30533356413E+02  0.45045681653E+02  0.00000000000E+00 0. -1.
         11    1    3    3    0    0 -0.44201751975E+00  0.19035397065E+02  0.14715443032E+02  0.24064205468E+02  0.51100000000E-03 0. -1.
        -11    1    3    3    0    0 -0.71111612382E+00  0.51039748773E+01  0.10084614855E+02  0.11325003432E+02  0.51100000000E-03 0.  1.
        -12    1    3    3    0    0 -0.23198698771E+01  0.87964114593E+01  0.57332985259E+01  0.10753109448E+02  0.00000000000E+00 0.  1.
</event>
<event>
 7    1  0.2097247E-008  0.4614232E+02  0.7816164E-02  0.1320468E+00
        -11   -1    0    0    0    0  0.00000000000E+00  0.00000000000E+00  0.45593999997E+02  0.45594000000E+02  0.51100000000E-03 0. -1.
         11   -1    0    0    0    0 -0.00000000000E+00 -0.00000000000E+00 -0.45593999997E+02  0.45594000000E+02  0.51100000000E-03 0.  1.
    9900012    2    1    2    0    0 -0.33298716659E+02 -0.23890700860E+02  0.18696080100E+02  0.46142317301E+02  0.99999958036E+01 0.  0.
         12    1    1    2    0    0  0.33298716659E+02  0.23890700860E+02 -0.18696080100E+02  0.45045682699E+02  0.00000000000E+00 0. -1.
         11    1    3    3    0    0 -0.20567471560E+02 -0.19622841169E+02  0.10221281582E+02  0.30208465360E+02  0.51100000000E-03 0. -1.
        -11    1    3    3    0    0 -0.96784532987E+01 -0.31979100362E+01  0.57417332989E+01  0.11698999461E+02  0.51100000000E-03 0.  1.
         12    1    3    3    0    0 -0.30527917996E+01 -0.10699496546E+01  0.27330652192E+01  0.42348524800E+01  0.00000000000E+00 0. -1.
</event>
<event>
 7    1  0.2097247E-008  0.4614232E+02  0.7816164E-02  0.1320468E+00
        -11   -1    0    0    0    0  0.00000000000E+00  0.00000000000E+00  0.45593999997E+02  0.45594000000E+02  0.51100000000E-03 0.  1.
         11   -1    0    0    0    0 -0.00000000000E+00 -0.00000000000E+00 -0.45593999997E+02  0.45594000000E+02  0.51100000000E-03 0. -1.
    9900012    2    1    2    0    0  0.12463800513E+02  0.41432237676E+00  0.43285050191E+02  0.46142317007E+02  0.99999931219E+01 0.  0.
         12    1    1    2    0    0 -0.12463800513E+02 -0.41432237676E+00 -0.43285050191E+02  0.45045682993E+02  0.00000000000E+00 0. -1.
         11    1    3    3    0    0  0.19864833548E+01 -0.14713296807E+01  0.22907878559E+02  0.23040872976E+02  0.51100000000E-03 0. -1.
        -11    1    3    3    0    0  0.24759726889E+01  0.14495180832E+01  0.55163295327E+01  0.62178320341E+01  0.51100000000E-03 0.  1.
        -12    1    3    3    0    0  0.80013444691E+01  0.43613397422E+00  0.14860842100E+02  0.16883611997E+02  0.00000000000E+00 0.  1.
</event>
<event>
 7    1  0.2097247E-008  0.4614232E+02  0.7816164E-02  0.1320468E+00
        -11   -1    0    0    0    0  0.00000000000E+00  0.00000000000E+00  0.45593999997E+02  0.45594000000E+02  0.51100000000E-03 0. -1.
         11   -1    0    0    0    0 -0.00000000000E+00 -0.00000000000E+00 -0.45593999997E+02  0.45594000000E+02  0.51100000000E-03 0.  1.
    9900012    2    1    2    0    0 -0.79639265997E+01 -0.28213094926E+02 -0.34201032671E+02  0.46142317766E+02  0.10000000042E+02 0.  0.
         12    1    1    2    0    0  0.79639265997E+01  0.28213094926E+02  0.34201032671E+02  0.45045682234E+02  0.00000000000E+00 0. -1.
         11    1    3    3    0    0 -0.14540418388E+01 -0.56973250450E+00 -0.13890190601E+00  0.15678414448E+01  0.51100000000E-03 0. -1.
        -11    1    3    3    0    0 -0.12526262751E+01 -0.14492553039E+02 -0.16049587833E+02  0.21660850308E+02  0.51100000000E-03 0.  1.
        -12    1    3    3    0    0 -0.52572584858E+01 -0.13150809382E+02 -0.18012542932E+02  0.22913626013E+02  0.00000000000E+00 0.  1.
</event>
<event>
 7    1  0.2097247E-008  0.4614232E+02  0.7816164E-02  0.1320468E+00
        -11   -1    0    0    0    0  0.00000000000E+00  0.00000000000E+00  0.45593999997E+02  0.45594000000E+02  0.51100000000E-03 0. -1.
         11   -1    0    0    0    0 -0.00000000000E+00 -0.00000000000E+00 -0.45593999997E+02  0.45594000000E+02  0.51100000000E-03 0.  1.
    9900012    2    1    2    0    0  0.28425094197E+01  0.26508730320E+02 -0.36308685981E+02  0.46142319622E+02  0.10000016971E+02 0.  0.
         12    1    1    2    0    0 -0.28425094197E+01 -0.26508730320E+02  0.36308685981E+02  0.45045680378E+02  0.00000000000E+00 0. -1.
         11    1    3    3    0    0 -0.13228195210E+00  0.14655301193E+00 -0.37213318465E+00  0.42125962113E+00  0.51100000000E-03 0. -1.
        -11    1    3    3    0    0 -0.19098807266E+01  0.18224734775E+02 -0.19631472388E+02  0.26854856365E+02  0.51100000000E-03 0.  1.
         12    1    3    3    0    0  0.48846720984E+01  0.81374425330E+01 -0.16305080409E+02  0.18866203636E+02  0.00000000000E+00 0. -1.
</event>
<event>
 7    1  0.2097247E-008  0.4614232E+02  0.7816164E-02  0.1320468E+00
        -11   -1    0    0    0    0  0.00000000000E+00  0.00000000000E+00  0.45593999997E+02  0.45594000000E+02  0.51100000000E-03 0.  1.
         11   -1    0    0    0    0 -0.00000000000E+00 -0.00000000000E+00 -0.45593999997E+02  0.45594000000E+02  0.51100000000E-03 0. -1.
    9900012    2    1    2    0    0  0.17965748002E+02 -0.21970965794E+02  0.34980307496E+02  0.46142319278E+02  0.10000013828E+02 0.  0.
         12    1    1    2    0    0 -0.17965748002E+02  0.21970965794E+02 -0.34980307496E+02  0.45045680722E+02  0.00000000000E+00 0. -1.
         11    1    3    3    0    0  0.42416035995E+01 -0.31433674056E+01  0.40482148308E+01  0.66528192009E+01  0.51100000000E-03 0. -1.
        -11    1    3    3    0    0  0.10557115289E+02 -0.82048728790E+01  0.15190380157E+02  0.20236607220E+02  0.51100000000E-03 0.  1.
         12    1    3    3    0    0  0.31670291131E+01 -0.10622725510E+02  0.15741712509E+02  0.19252892857E+02  0.00000000000E+00 0. -1.
</event>
<event>
 7    1  0.2097247E-008  0.4614232E+02  0.7816164E-02  0.1320468E+00
        -11   -1    0    0    0    0  0.00000000000E+00  0.00000000000E+00  0.45593999997E+02  0.45594000000E+02  0.51100000000E-03 0. -1.
         11   -1    0    0    0    0 -0.00000000000E+00 -0.00000000000E+00 -0.45593999997E+02  0.45594000000E+02  0.51100000000E-03 0.  1.
    9900012    2    1    2    0    0 -0.25267214645E+01 -0.27751370678E+02 -0.35391956617E+02  0.46142317753E+02  0.99999999283E+01 0.  0.
         12    1    1    2    0    0  0.25267214645E+01  0.27751370678E+02  0.35391956617E+02  0.45045682247E+02  0.00000000000E+00 0. -1.
         11    1    3    3    0    0 -0.56109048795E+01 -0.13058693052E+02 -0.16898897365E+02  0.22081314504E+02  0.51100000000E-03 0.  1.
        -11    1    3    3    0    0  0.11793468372E+01 -0.33656608659E+01 -0.24367106006E+01  0.43192697113E+01  0.51100000000E-03 0. -1.
        -12    1    3    3    0    0  0.19048365777E+01 -0.11327016761E+02 -0.16056348651E+02  0.19741733538E+02  0.00000000000E+00 0.  1.
</event>
<event>
 7    1  0.2097247E-008  0.4614232E+02  0.7816164E-02  0.1320468E+00
        -11   -1    0    0    0    0  0.00000000000E+00  0.00000000000E+00  0.45593999997E+02  0.45594000000E+02  0.51100000000E-03 0.  1.
         11   -1    0    0    0    0 -0.00000000000E+00 -0.00000000000E+00 -0.45593999997E+02  0.45594000000E+02  0.51100000000E-03 0. -1.
    9900012    2    1    2    0    0  0.41921420297E+02 -0.11877856727E+02  0.11429109915E+02  0.46142317481E+02  0.99999974455E+01 0.  0.
         12    1    1    2    0    0 -0.41921420297E+02  0.11877856727E+02 -0.11429109915E+02  0.45045682519E+02  0.00000000000E+00 0. -1.
         11    1    3    3    0    0  0.11820078438E+02  0.48100553398E+00  0.43096856959E+01  0.12590433339E+02  0.51100000000E-03 0. -1.
        -11    1    3    3    0    0  0.14021163966E+02 -0.59995244959E+01  0.12966204586E+01  0.15305834117E+02  0.51100000000E-03 0.  1.
        -12    1    3    3    0    0  0.16080177893E+02 -0.63593377650E+01  0.58228037610E+01  0.18246050025E+02  0.00000000000E+00 0.  1.
</event>
<event>
 7    1  0.2097247E-008  0.4614232E+02  0.7816164E-02  0.1320468E+00
        -11   -1    0    0    0    0  0.00000000000E+00  0.00000000000E+00  0.45593999997E+02  0.45594000000E+02  0.51100000000E-03 0. -1.
         11   -1    0    0    0    0 -0.00000000000E+00 -0.00000000000E+00 -0.45593999997E+02  0.45594000000E+02  0.51100000000E-03 0.  1.
    9900012    2    1    2    0    0  0.28056236427E+01 -0.96504946659E+01 -0.43910248317E+02  0.46142317869E+02  0.10000000987E+02 0.  0.
         12    1    1    2    0    0 -0.28056236427E+01  0.96504946659E+01  0.43910248317E+02  0.45045682131E+02  0.00000000000E+00 0. -1.
         11    1    3    3    0    0 -0.69191268091E-01 -0.27881621341E+01 -0.70187591329E+01  0.75525899891E+01  0.51100000000E-03 0. -1.
        -11    1    3    3    0    0  0.39561935779E+01 -0.58194589160E+01 -0.14194010750E+02  0.15842585368E+02  0.51100000000E-03 0.  1.
        -12    1    3    3    0    0 -0.10813786671E+01 -0.10428736158E+01 -0.22697478434E+02  0.22747142512E+02  0.00000000000E+00 0.  1.
</event>
<event>
 7    1  0.2097247E-008  0.4614232E+02  0.7816164E-02  0.1320468E+00
        -11   -1    0    0    0    0  0.00000000000E+00  0.00000000000E+00  0.45593999997E+02  0.45594000000E+02  0.51100000000E-03 0.  1.
         11   -1    0    0    0    0 -0.00000000000E+00 -0.00000000000E+00 -0.45593999997E+02  0.45594000000E+02  0.51100000000E-03 0. -1.
    9900012    2    1    2    0    0  0.18525214064E+02  0.41043196693E+02 -0.11772404164E+01  0.46142318233E+02  0.10000004299E+02 0.  0.
         12    1    1    2    0    0 -0.18525214064E+02 -0.41043196693E+02  0.11772404164E+01  0.45045681767E+02  0.00000000000E+00 0. -1.
         11    1    3    3    0    0  0.75040506132E+01  0.87877332540E+01  0.12516184450E+01  0.11623320539E+02  0.51100000000E-03 0. -1.
        -11    1    3    3    0    0  0.55660429361E+01  0.93027662566E+01 -0.66815362801E+00  0.10861340779E+02  0.51100000000E-03 0.  1.
        -12    1    3    3    0    0  0.54551205143E+01  0.22952697182E+02 -0.17607052333E+01  0.23657656915E+02  0.00000000000E+00 0.  1.
</event>
<event>
 7    1  0.2097247E-008  0.4614230E+02  0.7816164E-02  0.1320468E+00
        -11   -1    0    0    0    0  0.00000000000E+00  0.00000000000E+00  0.45593999997E+02  0.45594000000E+02  0.51100000000E-03 0. -1.
         11   -1    0    0    0    0 -0.00000000000E+00 -0.00000000000E+00 -0.45593999997E+02  0.45594000000E+02  0.51100000000E-03 0.  1.
    9900012    2    1    2    0    0  0.17560208016E+02 -0.39908490849E+02 -0.11316634347E+02  0.46142303643E+02  0.99998712557E+01 0.  0.
         12    1    1    2    0    0 -0.17560208016E+02  0.39908490849E+02  0.11316634347E+02  0.45045696357E+02  0.00000000000E+00 0. -1.
         11    1    3    3    0    0  0.26737927170E+01 -0.11819685155E+02 -0.66972622080E+01  0.13845845803E+02  0.51100000000E-03 0. -1.
        -11    1    3    3    0    0  0.16823166562E+01 -0.24415313473E+01 -0.13736701214E+01  0.32677568017E+01  0.51100000000E-03 0.  1.
        -12    1    3    3    0    0  0.13204098643E+02 -0.25647274347E+02 -0.32457020175E+01  0.29028701038E+02  0.00000000000E+00 0.  1.
</event>
<event>
 7    1  0.2097247E-008  0.4614232E+02  0.7816164E-02  0.1320468E+00
        -11   -1    0    0    0    0  0.00000000000E+00  0.00000000000E+00  0.45593999997E+02  0.45594000000E+02  0.51100000000E-03 0. -1.
         11   -1    0    0    0    0 -0.00000000000E+00 -0.00000000000E+00 -0.45593999997E+02  0.45594000000E+02  0.51100000000E-03 0.  1.
    9900012    2    1    2    0    0 -0.32229267830E+02 -0.15768460662E+01 -0.31430899522E+02  0.46142316598E+02  0.99999893932E+01 0.  0.
         12    1    1    2    0    0  0.32229267830E+02  0.15768460662E+01  0.31430899522E+02  0.45045683402E+02  0.00000000000E+00 0. -1.
         11    1    3    3    0    0 -0.45558595091E+01  0.27374600585E+01 -0.68062525067E+01  0.86356596092E+01  0.51100000000E-03 0. -1.
        -11    1    3    3    0    0 -0.33720467951E+01 -0.95456591668E-01 -0.47756893530E+01  0.58469667869E+01  0.51100000000E-03 0.  1.
         12    1    3    3    0    0 -0.24301361526E+02 -0.42188495330E+01 -0.19848957663E+02  0.31659690202E+02  0.00000000000E+00 0. -1.
</event>
<event>
 7    1  0.2097247E-008  0.4614232E+02  0.7816164E-02  0.1320468E+00
        -11   -1    0    0    0    0  0.00000000000E+00  0.00000000000E+00  0.45593999997E+02  0.45594000000E+02  0.51100000000E-03 0.  1.
         11   -1    0    0    0    0 -0.00000000000E+00 -0.00000000000E+00 -0.45593999997E+02  0.45594000000E+02  0.51100000000E-03 0. -1.
    9900012    2    1    2    0    0  0.23203114130E+01 -0.91628424573E+00  0.44976551029E+02  0.46142316918E+02  0.99999923087E+01 0.  0.
         12    1    1    2    0    0 -0.23203114130E+01  0.91628424573E+00 -0.44976551029E+02  0.45045683082E+02  0.00000000000E+00 0. -1.
         11    1    3    3    0    0  0.27557823922E+00 -0.13021086641E+01  0.10714131845E+02  0.10796483306E+02  0.51100000000E-03 0. -1.
        -11    1    3    3    0    0  0.24122186449E+01  0.41382687979E+01  0.22066413180E+02  0.22580315727E+02  0.51100000000E-03 0.  1.
        -12    1    3    3    0    0 -0.36748547114E+00 -0.37524443796E+01  0.12196006004E+02  0.12765517884E+02  0.00000000000E+00 0.  1.
</event>
<event>
 7    1  0.2097247E-008  0.4614232E+02  0.7816164E-02  0.1320468E+00
        -11   -1    0    0    0    0  0.00000000000E+00  0.00000000000E+00  0.45593999997E+02  0.45594000000E+02  0.51100000000E-03 0.  1.
         11   -1    0    0    0    0 -0.00000000000E+00 -0.00000000000E+00 -0.45593999997E+02  0.45594000000E+02  0.51100000000E-03 0. -1.
    9900012    2    1    2    0    0 -0.36631855874E+02  0.25211903891E+02 -0.71819574517E+01  0.46142317905E+02  0.10000001313E+02 0.  0.
         12    1    1    2    0    0  0.36631855874E+02 -0.25211903891E+02  0.71819574517E+01  0.45045682095E+02  0.00000000000E+00 0. -1.
         11    1    3    3    0    0 -0.14433766202E+02  0.81722837341E+01 -0.23667180366E+01  0.16754736128E+02  0.51100000000E-03 0. -1.
        -11    1    3    3    0    0 -0.43193652550E+01  0.50599255519E-01 -0.95659625615E+00  0.44243138620E+01  0.51100000000E-03 0.  1.
         12    1    3    3    0    0 -0.17878724417E+02  0.16989020901E+02 -0.38586431590E+01  0.24963267915E+02  0.00000000000E+00 0. -1.
</event>
<event>
 7    1  0.2097247E-008  0.4614232E+02  0.7816164E-02  0.1320468E+00
        -11   -1    0    0    0    0  0.00000000000E+00  0.00000000000E+00  0.45593999997E+02  0.45594000000E+02  0.51100000000E-03 0. -1.
         11   -1    0    0    0    0 -0.00000000000E+00 -0.00000000000E+00 -0.45593999997E+02  0.45594000000E+02  0.51100000000E-03 0.  1.
    9900012    2    1    2    0    0 -0.20466973403E+02 -0.27067057684E+01 -0.40036111345E+02  0.46142317987E+02  0.10000002059E+02 0.  0.
         12    1    1    2    0    0  0.20466973403E+02  0.27067057684E+01  0.40036111345E+02  0.45045682013E+02  0.00000000000E+00 0. -1.
         11    1    3    3    0    0 -0.24241574603E+01 -0.16526164234E+01 -0.16376399160E+01  0.33599918439E+01  0.51100000000E-03 0. -1.
        -11    1    3    3    0    0 -0.13556552083E+02 -0.23736829316E+01 -0.32198468921E+02  0.35016508623E+02  0.51100000000E-03 0.  1.
         12    1    3    3    0    0 -0.44862638605E+01  0.13195935866E+01 -0.62000025082E+01  0.77658175205E+01  0.00000000000E+00 0. -1.
</event>
<event>
 7    1  0.2097247E-008  0.4614232E+02  0.7816164E-02  0.1320468E+00
        -11   -1    0    0    0    0  0.00000000000E+00  0.00000000000E+00  0.45593999997E+02  0.45594000000E+02  0.51100000000E-03 0.  1.
         11   -1    0    0    0    0 -0.00000000000E+00 -0.00000000000E+00 -0.45593999997E+02  0.45594000000E+02  0.51100000000E-03 0. -1.
    9900012    2    1    2    0    0  0.12004688896E+02  0.43057755845E+02  0.55704843170E+01  0.46142321080E+02  0.10000030260E+02 0.  0.
         12    1    1    2    0    0 -0.12004688896E+02 -0.43057755845E+02 -0.55704843170E+01  0.45045678920E+02  0.00000000000E+00 0. -1.
         11    1    3    3    0    0  0.17425841685E+01  0.15441634833E+02  0.94467430907E+00  0.15568336318E+02  0.51100000000E-03 0. -1.
        -11    1    3    3    0    0  0.44585222035E+01  0.13913087726E+02  0.56336122402E+01  0.15658544551E+02  0.51100000000E-03 0.  1.
         12    1    3    3    0    0  0.58035825241E+01  0.13703033286E+02 -0.10078022322E+01  0.14915440211E+02  0.00000000000E+00 0. -1.
</event>
<event>
 7    1  0.2097247E-008  0.4614232E+02  0.7816164E-02  0.1320468E+00
        -11   -1    0    0    0    0  0.00000000000E+00  0.00000000000E+00  0.45593999997E+02  0.45594000000E+02  0.51100000000E-03 0.  1.
         11   -1    0    0    0    0 -0.00000000000E+00 -0.00000000000E+00 -0.45593999997E+02  0.45594000000E+02  0.51100000000E-03 0. -1.
    9900012    2    1    2    0    0  0.93097336211E+01  0.39979212825E+02  0.18550063090E+02  0.46142318311E+02  0.10000005012E+02 0.  0.
         12    1    1    2    0    0 -0.93097336211E+01 -0.39979212825E+02 -0.18550063090E+02  0.45045681689E+02  0.00000000000E+00 0. -1.
         11    1    3    3    0    0  0.14810750500E+01  0.44270237261E+01  0.13595507662E+01  0.48621498252E+01  0.51100000000E-03 0. -1.
        -11    1    3    3    0    0  0.26643091978E+01  0.17204175591E+02  0.13094386126E+02  0.21784057233E+02  0.51100000000E-03 0.  1.
        -12    1    3    3    0    0  0.51643493732E+01  0.18348013508E+02  0.40961261980E+01  0.19496111252E+02  0.00000000000E+00 0.  1.
</event>
<event>
 7    1  0.2097247E-008  0.4614232E+02  0.7816164E-02  0.1320468E+00
        -11   -1    0    0    0    0  0.00000000000E+00  0.00000000000E+00  0.45593999997E+02  0.45594000000E+02  0.51100000000E-03 0.  1.
         11   -1    0    0    0    0 -0.00000000000E+00 -0.00000000000E+00 -0.45593999997E+02  0.45594000000E+02  0.51100000000E-03 0. -1.
    9900012    2    1    2    0    0 -0.32412886714E+02  0.31277585950E+02  0.48055952670E+00  0.46142317127E+02  0.99999942206E+01 0.  0.
         12    1    1    2    0    0  0.32412886714E+02 -0.31277585950E+02 -0.48055952670E+00  0.45045682873E+02  0.00000000000E+00 0. -1.
         11    1    3    3    0    0 -0.87460485928E+01  0.50724024124E+01  0.49758842866E+00  0.10122757862E+02  0.51100000000E-03 0. -1.
        -11    1    3    3    0    0 -0.34043050748E+01  0.54363446531E+01 -0.25298975034E+01  0.68951807713E+01  0.51100000000E-03 0.  1.
        -12    1    3    3    0    0 -0.20262533046E+02  0.20768838885E+02  0.25128686014E+01  0.29124378494E+02  0.00000000000E+00 0.  1.
</event>
<event>
 7    1  0.2097247E-008  0.4614232E+02  0.7816164E-02  0.1320468E+00
        -11   -1    0    0    0    0  0.00000000000E+00  0.00000000000E+00  0.45593999997E+02  0.45594000000E+02  0.51100000000E-03 0. -1.
         11   -1    0    0    0    0 -0.00000000000E+00 -0.00000000000E+00 -0.45593999997E+02  0.45594000000E+02  0.51100000000E-03 0.  1.
    9900012    2    1    2    0    0  0.76865476915E-01  0.33079859952E+02 -0.30574999589E+02  0.46142316049E+02  0.99999843857E+01 0.  0.
         12    1    1    2    0    0 -0.76865476915E-01 -0.33079859952E+02  0.30574999589E+02  0.45045683951E+02  0.00000000000E+00 0. -1.
         11    1    3    3    0    0 -0.38168494384E+01  0.13151408546E+02 -0.86737047923E+01  0.16209905658E+02  0.51100000000E-03 0. -1.
        -11    1    3    3    0    0  0.22377429867E+01  0.68287320392E+01 -0.82330983425E+01  0.10928082335E+02  0.51100000000E-03 0.  1.
         12    1    3    3    0    0  0.16559719286E+01  0.13099719368E+02 -0.13668196454E+02  0.19004328056E+02  0.00000000000E+00 0. -1.
</event>
<event>
 7    1  0.2097247E-008  0.4614232E+02  0.7816164E-02  0.1320468E+00
        -11   -1    0    0    0    0  0.00000000000E+00  0.00000000000E+00  0.45593999997E+02  0.45594000000E+02  0.51100000000E-03 0. -1.
         11   -1    0    0    0    0 -0.00000000000E+00 -0.00000000000E+00 -0.45593999997E+02  0.45594000000E+02  0.51100000000E-03 0.  1.
    9900012    2    1    2    0    0  0.94832738861E+01  0.21728906311E+02 -0.38301899823E+02  0.46142318929E+02  0.10000010650E+02 0.  0.
         12    1    1    2    0    0 -0.94832738861E+01 -0.21728906311E+02  0.38301899823E+02  0.45045681071E+02  0.00000000000E+00 0. -1.
         11    1    3    3    0    0  0.47569519611E+01  0.10196569259E+02 -0.12624190528E+02  0.16910612152E+02  0.51100000000E-03 0. -1.
        -11    1    3    3    0    0  0.11868657242E+01  0.10058310365E+02 -0.19042702200E+02  0.21568559641E+02  0.51100000000E-03 0.  1.
         12    1    3    3    0    0  0.35394562008E+01  0.14740266875E+01 -0.66350070955E+01  0.76631471361E+01  0.00000000000E+00 0. -1.
</event>
<event>
 7    1  0.2097247E-008  0.4614232E+02  0.7816164E-02  0.1320468E+00
        -11   -1    0    0    0    0  0.00000000000E+00  0.00000000000E+00  0.45593999997E+02  0.45594000000E+02  0.51100000000E-03 0.  1.
         11   -1    0    0    0    0 -0.00000000000E+00 -0.00000000000E+00 -0.45593999997E+02  0.45594000000E+02  0.51100000000E-03 0. -1.
    9900012    2    1    2    0    0 -0.20416988553E+01 -0.38344360836E+02  0.23551115810E+02  0.46142316543E+02  0.99999888955E+01 0.  0.
         12    1    1    2    0    0  0.20416988553E+01  0.38344360836E+02 -0.23551115810E+02  0.45045683457E+02  0.00000000000E+00 0. -1.
         11    1    3    3    0    0 -0.42850459998E+00 -0.34714181640E+01  0.32782215250E+01  0.47938603327E+01  0.51100000000E-03 0. -1.
        -11    1    3    3    0    0  0.34094135964E+01 -0.80247788778E+01  0.51900003283E+01  0.10146786722E+02  0.51100000000E-03 0.  1.
        -12    1    3    3    0    0 -0.50226078517E+01 -0.26848163795E+02  0.15082893957E+02  0.31201669489E+02  0.00000000000E+00 0.  1.
</event>
<event>
 7    1  0.2097247E-008  0.4614232E+02  0.7816164E-02  0.1320468E+00
        -11   -1    0    0    0    0  0.00000000000E+00  0.00000000000E+00  0.45593999997E+02  0.45594000000E+02  0.51100000000E-03 0.  1.
         11   -1    0    0    0    0 -0.00000000000E+00 -0.00000000000E+00 -0.45593999997E+02  0.45594000000E+02  0.51100000000E-03 0. -1.
    9900012    2    1    2    0    0  0.51957742371E+01  0.42008881324E+02  0.15406858519E+02  0.46142317971E+02  0.10000001915E+02 0.  0.
         12    1    1    2    0    0 -0.51957742371E+01 -0.42008881324E+02 -0.15406858519E+02  0.45045682029E+02  0.00000000000E+00 0. -1.
         11    1    3    3    0    0  0.71395441385E+01  0.19605238886E+02  0.69844547390E+01  0.22002751885E+02  0.51100000000E-03 0. -1.
        -11    1    3    3    0    0  0.40565968481E+00  0.50762540906E+01  0.25396434493E+01  0.56905803291E+01  0.51100000000E-03 0.  1.
         12    1    3    3    0    0 -0.23494295862E+01  0.17327388348E+02  0.58827603312E+01  0.18448985757E+02  0.00000000000E+00 0. -1.
</event>
<event>
 7    1  0.2097247E-008  0.4614231E+02  0.7816164E-02  0.1320468E+00
        -11   -1    0    0    0    0  0.00000000000E+00  0.00000000000E+00  0.45593999997E+02  0.45594000000E+02  0.51100000000E-03 0.  1.
         11   -1    0    0    0    0 -0.00000000000E+00 -0.00000000000E+00 -0.45593999997E+02  0.45594000000E+02  0.51100000000E-03 0. -1.
    9900012    2    1    2    0    0 -0.27929291275E+02  0.25716715829E+02  0.24242923726E+02  0.46142310585E+02  0.99999345578E+01 0.  0.
         12    1    1    2    0    0  0.27929291275E+02 -0.25716715829E+02 -0.24242923726E+02  0.45045689415E+02  0.00000000000E+00 0. -1.
         11    1    3    3    0    0 -0.10877412541E+01 -0.68500597782E+00  0.13128101315E+00  0.12921490591E+01  0.51100000000E-03 0. -1.
        -11    1    3    3    0    0  0.73919638965E-01 -0.19097862642E-01 -0.14486782417E-01  0.77710805993E-01  0.51100000000E-03 0.  1.
        -12    1    3    3    0    0 -0.26915469660E+02  0.26420819669E+02  0.24126129495E+02  0.44772450719E+02  0.00000000000E+00 0.  1.
</event>
<event>
 7    1  0.2097247E-008  0.4614232E+02  0.7816164E-02  0.1320468E+00
        -11   -1    0    0    0    0  0.00000000000E+00  0.00000000000E+00  0.45593999997E+02  0.45594000000E+02  0.51100000000E-03 0. -1.
         11   -1    0    0    0    0 -0.00000000000E+00 -0.00000000000E+00 -0.45593999997E+02  0.45594000000E+02  0.51100000000E-03 0.  1.
    9900012    2    1    2    0    0  0.22846793556E+02  0.12432066165E+02 -0.36777455743E+02  0.46142317678E+02  0.99999992438E+01 0.  0.
         12    1    1    2    0    0 -0.22846793556E+02 -0.12432066165E+02  0.36777455743E+02  0.45045682322E+02  0.00000000000E+00 0. -1.
         11    1    3    3    0    0  0.76251788134E+01  0.40956805021E+01 -0.60131719306E+01  0.10539268838E+02  0.51100000000E-03 0. -1.
        -11    1    3    3    0    0  0.13200366627E+02  0.54330154711E+01 -0.22981291815E+02  0.27053781805E+02  0.51100000000E-03 0.  1.
        -12    1    3    3    0    0  0.20212481161E+01  0.29033701918E+01 -0.77829919969E+01  0.85492670353E+01  0.00000000000E+00 0.  1.
</event>
<event>
 7    1  0.2097247E-008  0.4614232E+02  0.7816164E-02  0.1320468E+00
        -11   -1    0    0    0    0  0.00000000000E+00  0.00000000000E+00  0.45593999997E+02  0.45594000000E+02  0.51100000000E-03 0.  1.
         11   -1    0    0    0    0 -0.00000000000E+00 -0.00000000000E+00 -0.45593999997E+02  0.45594000000E+02  0.51100000000E-03 0. -1.
    9900012    2    1    2    0    0 -0.15480422211E+02  0.10215711907E+02  0.41050083685E+02  0.46142316387E+02  0.99999874700E+01 0.  0.
         12    1    1    2    0    0  0.15480422211E+02 -0.10215711907E+02 -0.41050083685E+02  0.45045683613E+02  0.00000000000E+00 0. -1.
         11    1    3    3    0    0 -0.36770757669E+01 -0.36206646749E+00  0.13193392833E+02  0.13701007008E+02  0.51100000000E-03 0.  1.
        -11    1    3    3    0    0 -0.28848941236E+01  0.16244690379E+00  0.41987416815E+01  0.50969044596E+01  0.51100000000E-03 0. -1.
        -12    1    3    3    0    0 -0.89184523209E+01  0.10415331471E+02  0.23657949170E+02  0.27344404919E+02  0.00000000000E+00 0.  1.
</event>
<event>
 7    1  0.2097247E-008  0.4614232E+02  0.7816164E-02  0.1320468E+00
        -11   -1    0    0    0    0  0.00000000000E+00  0.00000000000E+00  0.45593999997E+02  0.45594000000E+02  0.51100000000E-03 0. -1.
         11   -1    0    0    0    0 -0.00000000000E+00 -0.00000000000E+00 -0.45593999997E+02  0.45594000000E+02  0.51100000000E-03 0.  1.
    9900012    2    1    2    0    0 -0.15581684627E+02  0.12373080189E+02 -0.40413257857E+02  0.46142318522E+02  0.10000006941E+02 0.  0.
         12    1    1    2    0    0  0.15581684627E+02 -0.12373080189E+02  0.40413257857E+02  0.45045681478E+02  0.00000000000E+00 0. -1.
         11    1    3    3    0    0 -0.66375544985E+00  0.49436720987E+01 -0.93802933261E+01  0.10624046699E+02  0.51100000000E-03 0. -1.
        -11    1    3    3    0    0 -0.67859289950E+01  0.51005059564E+01 -0.18993631246E+02  0.20804375057E+02  0.51100000000E-03 0.  1.
         12    1    3    3    0    0 -0.81320001819E+01  0.23289021344E+01 -0.12039333285E+02  0.14713896767E+02  0.00000000000E+00 0. -1.
</event>
<event>
 7    1  0.2097247E-008  0.4614232E+02  0.7816164E-02  0.1320468E+00
        -11   -1    0    0    0    0  0.00000000000E+00  0.00000000000E+00  0.45593999997E+02  0.45594000000E+02  0.51100000000E-03 0.  1.
         11   -1    0    0    0    0 -0.00000000000E+00 -0.00000000000E+00 -0.45593999997E+02  0.45594000000E+02  0.51100000000E-03 0. -1.
    9900012    2    1    2    0    0 -0.17555270275E+02  0.13282620872E+02  0.39300100840E+02  0.46142318102E+02  0.10000003107E+02 0.  0.
         12    1    1    2    0    0  0.17555270275E+02 -0.13282620872E+02 -0.39300100840E+02  0.45045681898E+02  0.00000000000E+00 0. -1.
         11    1    3    3    0    0 -0.91517386677E+01  0.54852891711E+01  0.17361787384E+02  0.20378282052E+02  0.51100000000E-03 0. -1.
        -11    1    3    3    0    0 -0.58224267208E+01  0.59357935531E+00  0.91862039090E+01  0.10892168374E+02  0.51100000000E-03 0.  1.
         12    1    3    3    0    0 -0.25811048863E+01  0.72037523457E+01  0.12752109546E+02  0.14871867676E+02  0.00000000000E+00 0. -1.
</event>
<event>
 7    1  0.2097247E-008  0.4614232E+02  0.7816164E-02  0.1320468E+00
        -11   -1    0    0    0    0  0.00000000000E+00  0.00000000000E+00  0.45593999997E+02  0.45594000000E+02  0.51100000000E-03 0.  1.
         11   -1    0    0    0    0 -0.00000000000E+00 -0.00000000000E+00 -0.45593999997E+02  0.45594000000E+02  0.51100000000E-03 0. -1.
    9900012    2    1    2    0    0 -0.21003885993E+01  0.11758001430E+01  0.44981321787E+02  0.46142318209E+02  0.10000004088E+02 0.  0.
         12    1    1    2    0    0  0.21003885993E+01 -0.11758001430E+01 -0.44981321787E+02  0.45045681791E+02  0.00000000000E+00 0. -1.
         11    1    3    3    0    0 -0.21458621219E+01  0.38101394873E-01  0.40602167437E+01  0.45925522566E+01  0.51100000000E-03 0. -1.
        -11    1    3    3    0    0 -0.34221844195E+01  0.10174074473E+01  0.16378620167E+02  0.16763223525E+02  0.51100000000E-03 0.  1.
         12    1    3    3    0    0  0.34676579421E+01  0.12029130087E+00  0.24542484877E+02  0.24786542428E+02  0.00000000000E+00 0. -1.
</event>
<event>
 7    1  0.2097247E-008  0.4614232E+02  0.7816164E-02  0.1320468E+00
        -11   -1    0    0    0    0  0.00000000000E+00  0.00000000000E+00  0.45593999997E+02  0.45594000000E+02  0.51100000000E-03 0. -1.
         11   -1    0    0    0    0 -0.00000000000E+00 -0.00000000000E+00 -0.45593999997E+02  0.45594000000E+02  0.51100000000E-03 0.  1.
    9900012    2    1    2    0    0 -0.21116550133E+02  0.39590980439E+02 -0.39697694503E+01  0.46142317731E+02  0.99999997210E+01 0.  0.
         12    1    1    2    0    0  0.21116550133E+02 -0.39590980439E+02  0.39697694503E+01  0.45045682269E+02  0.00000000000E+00 0. -1.
         11    1    3    3    0    0 -0.89313597534E+00 -0.26855653057E-02 -0.46232596012E+00  0.10057060392E+01  0.51100000000E-03 0. -1.
        -11    1    3    3    0    0 -0.38828312340E+01  0.13037936509E+02  0.96033614134E+00  0.13637683549E+02  0.51100000000E-03 0.  1.
        -12    1    3    3    0    0 -0.16340582923E+02  0.26555729495E+02 -0.44677796316E+01  0.31498928143E+02  0.00000000000E+00 0.  1.
</event>
<event>
 7    1  0.2097247E-008  0.4614232E+02  0.7816164E-02  0.1320468E+00
        -11   -1    0    0    0    0  0.00000000000E+00  0.00000000000E+00  0.45593999997E+02  0.45594000000E+02  0.51100000000E-03 0.  1.
         11   -1    0    0    0    0 -0.00000000000E+00 -0.00000000000E+00 -0.45593999997E+02  0.45594000000E+02  0.51100000000E-03 0. -1.
    9900012    2    1    2    0    0 -0.58225880576E+01 -0.16658070743E+02  0.41445381168E+02  0.46142317935E+02  0.10000001585E+02 0.  0.
         12    1    1    2    0    0  0.58225880576E+01  0.16658070743E+02 -0.41445381168E+02  0.45045682065E+02  0.00000000000E+00 0. -1.
         11    1    3    3    0    0 -0.38474027152E+01 -0.10453748712E+02  0.22911777381E+02  0.25476124368E+02  0.51100000000E-03 0. -1.
        -11    1    3    3    0    0 -0.37644788534E+01 -0.24486129691E+01  0.62413823034E+01  0.76890740553E+01  0.51100000000E-03 0.  1.
         12    1    3    3    0    0  0.17892935111E+01 -0.37557090624E+01  0.12292221483E+02  0.12977119512E+02  0.00000000000E+00 0. -1.
</event>
<event>
 7    1  0.2097247E-008  0.4614232E+02  0.7816164E-02  0.1320468E+00
        -11   -1    0    0    0    0  0.00000000000E+00  0.00000000000E+00  0.45593999997E+02  0.45594000000E+02  0.51100000000E-03 0. -1.
         11   -1    0    0    0    0 -0.00000000000E+00 -0.00000000000E+00 -0.45593999997E+02  0.45594000000E+02  0.51100000000E-03 0.  1.
    9900012    2    1    2    0    0  0.26241099945E+02  0.33817486609E+02 -0.14031952777E+02  0.46142318458E+02  0.10000006356E+02 0.  0.
         12    1    1    2    0    0 -0.26241099945E+02 -0.33817486609E+02  0.14031952777E+02  0.45045681542E+02  0.00000000000E+00 0. -1.
         11    1    3    3    0    0  0.66033168684E+01  0.75361664261E+01 -0.58609367701E+01  0.11608108293E+02  0.51100000000E-03 0. -1.
        -11    1    3    3    0    0  0.17625390522E+02  0.22412871991E+02 -0.45657395420E+01  0.28876239363E+02  0.51100000000E-03 0.  1.
        -12    1    3    3    0    0  0.20123925543E+01  0.38684481917E+01 -0.36052764649E+01  0.56579708016E+01  0.00000000000E+00 0.  1.
</event>
<event>
 7    1  0.2097247E-008  0.4614232E+02  0.7816164E-02  0.1320468E+00
        -11   -1    0    0    0    0  0.00000000000E+00  0.00000000000E+00  0.45593999997E+02  0.45594000000E+02  0.51100000000E-03 0. -1.
         11   -1    0    0    0    0 -0.00000000000E+00 -0.00000000000E+00 -0.45593999997E+02  0.45594000000E+02  0.51100000000E-03 0.  1.
    9900012    2    1    2    0    0  0.24705931655E+02  0.30449816650E+02 -0.22170680925E+02  0.46142317792E+02  0.10000000279E+02 0.  0.
         12    1    1    2    0    0 -0.24705931655E+02 -0.30449816650E+02  0.22170680925E+02  0.45045682208E+02  0.00000000000E+00 0. -1.
         11    1    3    3    0    0  0.17917510033E+02  0.18995601515E+02 -0.14083195635E+02  0.29668273328E+02  0.51100000000E-03 0.  1.
        -11    1    3    3    0    0  0.25162099799E+01  0.33176883525E+01  0.10114429008E+00  0.41651649542E+01  0.51100000000E-03 0. -1.
        -12    1    3    3    0    0  0.42722116424E+01  0.81365267818E+01 -0.81886295796E+01  0.12308879510E+02  0.00000000000E+00 0.  1.
</event>
<event>
 7    1  0.2097247E-008  0.4614230E+02  0.7816164E-02  0.1320468E+00
        -11   -1    0    0    0    0  0.00000000000E+00  0.00000000000E+00  0.45593999997E+02  0.45594000000E+02  0.51100000000E-03 0.  1.
         11   -1    0    0    0    0 -0.00000000000E+00 -0.00000000000E+00 -0.45593999997E+02  0.45594000000E+02  0.51100000000E-03 0. -1.
    9900012    2    1    2    0    0  0.39471108318E+02 -0.12104073754E+02  0.18017704535E+02  0.46142304645E+02  0.99998803983E+01 0.  0.
         12    1    1    2    0    0 -0.39471108318E+02  0.12104073754E+02 -0.18017704535E+02  0.45045695355E+02  0.00000000000E+00 0. -1.
         11    1    3    3    0    0  0.64485028367E+01 -0.55066165796E+01  0.15498934924E+01  0.86202195499E+01  0.51100000000E-03 0. -1.
        -11    1    3    3    0    0  0.52148481447E+01 -0.66164750237E+00  0.20596578852E+01  0.56457603080E+01  0.51100000000E-03 0.  1.
         12    1    3    3    0    0  0.27807757337E+02 -0.59358096724E+01  0.14408153157E+02  0.31876324787E+02  0.00000000000E+00 0. -1.
</event>
<event>
 7    1  0.2097247E-008  0.4614233E+02  0.7816164E-02  0.1320468E+00
        -11   -1    0    0    0    0  0.00000000000E+00  0.00000000000E+00  0.45593999997E+02  0.45594000000E+02  0.51100000000E-03 0.  1.
         11   -1    0    0    0    0 -0.00000000000E+00 -0.00000000000E+00 -0.45593999997E+02  0.45594000000E+02  0.51100000000E-03 0. -1.
    9900012    2    1    2    0    0 -0.22060694113E+02  0.25023222641E+02  0.30270057316E+02  0.46142331329E+02  0.10000123723E+02 0.  0.
         12    1    1    2    0    0  0.22060694113E+02 -0.25023222641E+02 -0.30270057316E+02  0.45045668671E+02  0.00000000000E+00 0. -1.
         11    1    3    3    0    0 -0.26816331914E+01  0.70600886683E+01  0.10324928156E+02  0.12792190987E+02  0.51100000000E-03 0.  1.
        -11    1    3    3    0    0 -0.67716837351E+01  0.38038540815E+01  0.60286589711E+01  0.98320768779E+01  0.51100000000E-03 0. -1.
        -12    1    3    3    0    0 -0.12607377187E+02  0.14159279891E+02  0.13916470190E+02  0.23518063464E+02  0.00000000000E+00 0.  1.
</event>
<event>
 7    1  0.2097247E-008  0.4614232E+02  0.7816164E-02  0.1320468E+00
        -11   -1    0    0    0    0  0.00000000000E+00  0.00000000000E+00  0.45593999997E+02  0.45594000000E+02  0.51100000000E-03 0.  1.
         11   -1    0    0    0    0 -0.00000000000E+00 -0.00000000000E+00 -0.45593999997E+02  0.45594000000E+02  0.51100000000E-03 0. -1.
    9900012    2    1    2    0    0  0.16807401151E+02 -0.41354991581E+02  0.60323746313E+01  0.46142316458E+02  0.99999881152E+01 0.  0.
         12    1    1    2    0    0 -0.16807401151E+02  0.41354991581E+02 -0.60323746313E+01  0.45045683542E+02  0.00000000000E+00 0. -1.
         11    1    3    3    0    0  0.20722610912E+01 -0.90266361786E+01  0.13215292499E+01  0.93552587645E+01  0.51100000000E-03 0. -1.
        -11    1    3    3    0    0  0.85129813117E+01 -0.25830467647E+02  0.15133945342E+01  0.27239204705E+02  0.51100000000E-03 0.  1.
         12    1    3    3    0    0  0.62221587485E+01 -0.64978877547E+01  0.31974508472E+01  0.95478529882E+01  0.00000000000E+00 0. -1.
</event>
<event>
 7    1  0.2097247E-008  0.4614232E+02  0.7816164E-02  0.1320468E+00
        -11   -1    0    0    0    0  0.00000000000E+00  0.00000000000E+00  0.45593999997E+02  0.45594000000E+02  0.51100000000E-03 0.  1.
         11   -1    0    0    0    0 -0.00000000000E+00 -0.00000000000E+00 -0.45593999997E+02  0.45594000000E+02  0.51100000000E-03 0. -1.
    9900012    2    1    2    0    0  0.27956158469E+02  0.27494175807E+01  0.35213738511E+02  0.46142317928E+02  0.10000001524E+02 0.  0.
         12    1    1    2    0    0 -0.27956158469E+02 -0.27494175807E+01 -0.35213738511E+02  0.45045682072E+02  0.00000000000E+00 0. -1.
         11    1    3    3    0    0  0.94673498265E+01 -0.24139927196E+01  0.81197171130E+01  0.12703852953E+02  0.51100000000E-03 0. -1.
        -11    1    3    3    0    0  0.43177909216E+00  0.56254006125E-01 -0.51200199853E-01  0.43842835130E+00  0.51100000000E-03 0.  1.
        -12    1    3    3    0    0  0.18057029551E+02  0.51071562942E+01  0.27145221598E+02  0.33000036624E+02  0.00000000000E+00 0.  1.
</event>
<event>
 7    1  0.2097247E-008  0.4614232E+02  0.7816164E-02  0.1320468E+00
        -11   -1    0    0    0    0  0.00000000000E+00  0.00000000000E+00  0.45593999997E+02  0.45594000000E+02  0.51100000000E-03 0.  1.
         11   -1    0    0    0    0 -0.00000000000E+00 -0.00000000000E+00 -0.45593999997E+02  0.45594000000E+02  0.51100000000E-03 0. -1.
    9900012    2    1    2    0    0  0.38720118211E+02 -0.22924031266E+02  0.20867434432E+01  0.46142320274E+02  0.10000022915E+02 0.  0.
         12    1    1    2    0    0 -0.38720118211E+02  0.22924031266E+02 -0.20867434432E+01  0.45045679726E+02  0.00000000000E+00 0. -1.
         11    1    3    3    0    0  0.28176416547E+02 -0.15120375660E+02  0.46581889522E+01  0.32314624152E+02  0.51100000000E-03 0. -1.
        -11    1    3    3    0    0  0.14383362177E+01  0.94251132248E-01  0.21240663845E+00  0.14569870254E+01  0.51100000000E-03 0.  1.
         12    1    3    3    0    0  0.91053654461E+01 -0.78979067390E+01 -0.27838521474E+01  0.12370709096E+02  0.00000000000E+00 0. -1.
</event>
<event>
 7    1  0.2097247E-008  0.4614232E+02  0.7816164E-02  0.1320468E+00
        -11   -1    0    0    0    0  0.00000000000E+00  0.00000000000E+00  0.45593999997E+02  0.45594000000E+02  0.51100000000E-03 0.  1.
         11   -1    0    0    0    0 -0.00000000000E+00 -0.00000000000E+00 -0.45593999997E+02  0.45594000000E+02  0.51100000000E-03 0. -1.
    9900012    2    1    2    0    0  0.24771386112E+02 -0.27382491047E+02  0.25800989846E+02  0.46142318044E+02  0.10000002576E+02 0.  0.
         12    1    1    2    0    0 -0.24771386112E+02  0.27382491047E+02 -0.25800989846E+02  0.45045681956E+02  0.00000000000E+00 0. -1.
         11    1    3    3    0    0  0.68831100751E-01  0.35106326581E+00  0.25869611160E+00  0.44148281541E+00  0.51100000000E-03 0. -1.
        -11    1    3    3    0    0  0.24826645711E+02 -0.28009635466E+02  0.24800115352E+02  0.44899306653E+02  0.51100000000E-03 0.  1.
        -12    1    3    3    0    0 -0.12409069924E+00  0.27608115323E+00  0.74217838317E+00  0.80152857544E+00  0.00000000000E+00 0.  1.
</event>
<event>
 7    1  0.2097247E-008  0.4614232E+02  0.7816164E-02  0.1320468E+00
        -11   -1    0    0    0    0  0.00000000000E+00  0.00000000000E+00  0.45593999997E+02  0.45594000000E+02  0.51100000000E-03 0.  1.
         11   -1    0    0    0    0 -0.00000000000E+00 -0.00000000000E+00 -0.45593999997E+02  0.45594000000E+02  0.51100000000E-03 0. -1.
    9900012    2    1    2    0    0  0.20222850338E+02 -0.24915366680E+01  0.40173896584E+02  0.46142318770E+02  0.10000009196E+02 0.  0.
         12    1    1    2    0    0 -0.20222850338E+02  0.24915366680E+01 -0.40173896584E+02  0.45045681230E+02  0.00000000000E+00 0. -1.
         11    1    3    3    0    0 -0.26998893560E+00 -0.60420807990E+00  0.14110569776E+01  0.15585388940E+01  0.51100000000E-03 0. -1.
        -11    1    3    3    0    0  0.11097482976E+02 -0.19603597440E+01  0.28615556949E+02  0.30754629546E+02  0.51100000000E-03 0.  1.
        -12    1    3    3    0    0  0.93953562980E+01  0.73031155920E-01  0.10147282657E+02  0.13829150330E+02  0.00000000000E+00 0.  1.
</event>
<event>
 7    1  0.2097247E-008  0.4614232E+02  0.7816164E-02  0.1320468E+00
        -11   -1    0    0    0    0  0.00000000000E+00  0.00000000000E+00  0.45593999997E+02  0.45594000000E+02  0.51100000000E-03 0.  1.
         11   -1    0    0    0    0 -0.00000000000E+00 -0.00000000000E+00 -0.45593999997E+02  0.45594000000E+02  0.51100000000E-03 0. -1.
    9900012    2    1    2    0    0 -0.42522329504E+02  0.82358948253E+01  0.12374774262E+02  0.46142317543E+02  0.99999980083E+01 0.  0.
         12    1    1    2    0    0  0.42522329504E+02 -0.82358948253E+01 -0.12374774262E+02  0.45045682457E+02  0.00000000000E+00 0. -1.
         11    1    3    3    0    0 -0.40990227755E+00  0.60518006633E+00 -0.42573663897E+00  0.84588104170E+00  0.51100000000E-03 0. -1.
        -11    1    3    3    0    0 -0.16259941982E+01 -0.64557153868E+00  0.18505245400E+01  0.25465783079E+01  0.51100000000E-03 0.  1.
         12    1    3    3    0    0 -0.40486433028E+02  0.82762862976E+01  0.10949986361E+02  0.42749858193E+02  0.00000000000E+00 0. -1.
</event>
<event>
 7    1  0.2097247E-008  0.4614232E+02  0.7816164E-02  0.1320468E+00
        -11   -1    0    0    0    0  0.00000000000E+00  0.00000000000E+00  0.45593999997E+02  0.45594000000E+02  0.51100000000E-03 0.  1.
         11   -1    0    0    0    0 -0.00000000000E+00 -0.00000000000E+00 -0.45593999997E+02  0.45594000000E+02  0.51100000000E-03 0. -1.
    9900012    2    1    2    0    0 -0.24415171744E+02  0.89889359409E+01  0.36772433808E+02  0.46142317979E+02  0.10000001983E+02 0.  0.
         12    1    1    2    0    0  0.24415171744E+02 -0.89889359409E+01 -0.36772433808E+02  0.45045682021E+02  0.00000000000E+00 0. -1.
         11    1    3    3    0    0 -0.37486787220E+01 -0.10027161303E+01  0.34145953184E+01  0.51688967148E+01  0.51100000000E-03 0. -1.
        -11    1    3    3    0    0 -0.19091864326E+02  0.84099505410E+01  0.26291036002E+02  0.33562555413E+02  0.51100000000E-03 0.  1.
         12    1    3    3    0    0 -0.15746286958E+01  0.15817015302E+01  0.70668024878E+01  0.74108658510E+01  0.00000000000E+00 0. -1.
</event>
<event>
 7    1  0.2097247E-008  0.4614232E+02  0.7816164E-02  0.1320468E+00
        -11   -1    0    0    0    0  0.00000000000E+00  0.00000000000E+00  0.45593999997E+02  0.45594000000E+02  0.51100000000E-03 0. -1.
         11   -1    0    0    0    0 -0.00000000000E+00 -0.00000000000E+00 -0.45593999997E+02  0.45594000000E+02  0.51100000000E-03 0.  1.
    9900012    2    1    2    0    0  0.35210631849E+02  0.14557549248E+02  0.24029203657E+02  0.46142318035E+02  0.10000002500E+02 0.  0.
         12    1    1    2    0    0 -0.35210631849E+02 -0.14557549248E+02 -0.24029203657E+02  0.45045681965E+02  0.00000000000E+00 0. -1.
         11    1    3    3    0    0  0.68127848701E+01  0.45353500517E+01  0.36275258803E+01  0.89522277702E+01  0.51100000000E-03 0. -1.
        -11    1    3    3    0    0  0.18611701525E+02  0.98705000036E+01  0.11723001572E+02  0.24109147021E+02  0.51100000000E-03 0.  1.
        -12    1    3    3    0    0  0.97861454532E+01  0.15169919274E+00  0.86786762048E+01  0.13080943244E+02  0.00000000000E+00 0.  1.
</event>
<event>
 7    1  0.2097247E-008  0.4614232E+02  0.7816164E-02  0.1320468E+00
        -11   -1    0    0    0    0  0.00000000000E+00  0.00000000000E+00  0.45593999997E+02  0.45594000000E+02  0.51100000000E-03 0.  1.
         11   -1    0    0    0    0 -0.00000000000E+00 -0.00000000000E+00 -0.45593999997E+02  0.45594000000E+02  0.51100000000E-03 0. -1.
    9900012    2    1    2    0    0 -0.35510447064E+01  0.33148553846E+02  0.30293183208E+02  0.46142317749E+02  0.99999998868E+01 0.  0.
         12    1    1    2    0    0  0.35510447064E+01 -0.33148553846E+02 -0.30293183208E+02  0.45045682251E+02  0.00000000000E+00 0. -1.
         11    1    3    3    0    0 -0.21227156345E+00  0.38150428892E+01  0.11276176870E+01  0.39838591055E+01  0.51100000000E-03 0. -1.
        -11    1    3    3    0    0 -0.44280927710E+01  0.86429382111E+01  0.98483178719E+01  0.13831043044E+02  0.51100000000E-03 0.  1.
        -12    1    3    3    0    0  0.10893196281E+01  0.20690572746E+02  0.19317247649E+02  0.28327415600E+02  0.00000000000E+00 0.  1.
</event>
<event>
 7    1  0.2097247E-008  0.4614232E+02  0.7816164E-02  0.1320468E+00
        -11   -1    0    0    0    0  0.00000000000E+00  0.00000000000E+00  0.45593999997E+02  0.45594000000E+02  0.51100000000E-03 0.  1.
         11   -1    0    0    0    0 -0.00000000000E+00 -0.00000000000E+00 -0.45593999997E+02  0.45594000000E+02  0.51100000000E-03 0. -1.
    9900012    2    1    2    0    0 -0.85339260132E+01  0.16892555481E+02  0.40876976205E+02  0.46142317548E+02  0.99999980572E+01 0.  0.
         12    1    1    2    0    0  0.85339260132E+01 -0.16892555481E+02 -0.40876976205E+02  0.45045682452E+02  0.00000000000E+00 0. -1.
         11    1    3    3    0    0 -0.23956023401E+01 -0.33701011405E+00  0.80064788286E+01  0.83639817003E+01  0.51100000000E-03 0. -1.
        -11    1    3    3    0    0 -0.36534311054E+01  0.94402867269E+01  0.21602885823E+02  0.23856891006E+02  0.51100000000E-03 0.  1.
         12    1    3    3    0    0 -0.24848925677E+01  0.77892788682E+01  0.11267611553E+02  0.13921444842E+02  0.00000000000E+00 0. -1.
</event>
<event>
 7    1  0.2097247E-008  0.4614232E+02  0.7816164E-02  0.1320468E+00
        -11   -1    0    0    0    0  0.00000000000E+00  0.00000000000E+00  0.45593999997E+02  0.45594000000E+02  0.51100000000E-03 0.  1.
         11   -1    0    0    0    0 -0.00000000000E+00 -0.00000000000E+00 -0.45593999997E+02  0.45594000000E+02  0.51100000000E-03 0. -1.
    9900012    2    1    2    0    0 -0.13571901187E+02 -0.38042102425E+02  0.19942804176E+02  0.46142317663E+02  0.99999991095E+01 0.  0.
         12    1    1    2    0    0  0.13571901187E+02  0.38042102425E+02 -0.19942804176E+02  0.45045682337E+02  0.00000000000E+00 0. -1.
         11    1    3    3    0    0 -0.28427634707E+00 -0.65912838901E+00 -0.48048033367E+00  0.86378520876E+00  0.51100000000E-03 0. -1.
        -11    1    3    3    0    0 -0.13648164939E+02 -0.36518302638E+02  0.20892567641E+02  0.44230738369E+02  0.51100000000E-03 0.  1.
        -12    1    3    3    0    0  0.36054009861E+00 -0.86467139778E+00 -0.46928313109E+00  0.10477940857E+01  0.00000000000E+00 0.  1.
</event>
<event>
 7    1  0.2097247E-008  0.4614232E+02  0.7816164E-02  0.1320468E+00
        -11   -1    0    0    0    0  0.00000000000E+00  0.00000000000E+00  0.45593999997E+02  0.45594000000E+02  0.51100000000E-03 0. -1.
         11   -1    0    0    0    0 -0.00000000000E+00 -0.00000000000E+00 -0.45593999997E+02  0.45594000000E+02  0.51100000000E-03 0.  1.
    9900012    2    1    2    0    0 -0.25273122498E+02  0.18745103623E+02 -0.32233583246E+02  0.46142317415E+02  0.99999968452E+01 0.  0.
         12    1    1    2    0    0  0.25273122498E+02 -0.18745103623E+02  0.32233583246E+02  0.45045682585E+02  0.00000000000E+00 0. -1.
         11    1    3    3    0    0 -0.44718881813E+01 -0.67992254291E-01 -0.63841045232E+01  0.77948186430E+01  0.51100000000E-03 0. -1.
        -11    1    3    3    0    0 -0.16843312212E+02  0.13286070821E+02 -0.20785777829E+02  0.29870811913E+02  0.51100000000E-03 0.  1.
        -12    1    3    3    0    0 -0.39579221048E+01  0.55270250562E+01 -0.50637008936E+01  0.84766868587E+01  0.00000000000E+00 0.  1.
</event>
<event>
 7    1  0.2097247E-008  0.4614232E+02  0.7816164E-02  0.1320468E+00
        -11   -1    0    0    0    0  0.00000000000E+00  0.00000000000E+00  0.45593999997E+02  0.45594000000E+02  0.51100000000E-03 0.  1.
         11   -1    0    0    0    0 -0.00000000000E+00 -0.00000000000E+00 -0.45593999997E+02  0.45594000000E+02  0.51100000000E-03 0. -1.
    9900012    2    1    2    0    0  0.40163521317E+01 -0.19265196542E+02  0.40519557444E+02  0.46142318546E+02  0.10000007156E+02 0.  0.
         12    1    1    2    0    0 -0.40163521317E+01  0.19265196542E+02 -0.40519557444E+02  0.45045681454E+02  0.00000000000E+00 0. -1.
         11    1    3    3    0    0  0.13664055779E+01 -0.28875511354E+01  0.20486802092E+01  0.37950107540E+01  0.51100000000E-03 0. -1.
        -11    1    3    3    0    0  0.46078733020E+01 -0.12975681346E+02  0.30356216594E+02  0.33333177000E+02  0.51100000000E-03 0.  1.
        -12    1    3    3    0    0 -0.19579267483E+01 -0.34019640606E+01  0.81146606404E+01  0.90141307917E+01  0.00000000000E+00 0.  1.
</event>
<event>
 7    1  0.2097247E-008  0.4614232E+02  0.7816164E-02  0.1320468E+00
        -11   -1    0    0    0    0  0.00000000000E+00  0.00000000000E+00  0.45593999997E+02  0.45594000000E+02  0.51100000000E-03 0.  1.
         11   -1    0    0    0    0 -0.00000000000E+00 -0.00000000000E+00 -0.45593999997E+02  0.45594000000E+02  0.51100000000E-03 0. -1.
    9900012    2    1    2    0    0  0.97057566717E+01 -0.36251585156E+02  0.24914543201E+02  0.46142316502E+02  0.99999885217E+01 0.  0.
         12    1    1    2    0    0 -0.97057566717E+01  0.36251585156E+02 -0.24914543201E+02  0.45045683498E+02  0.00000000000E+00 0. -1.
         11    1    3    3    0    0  0.17813997791E+00 -0.78738198323E+01  0.30337179721E+01  0.84399181038E+01  0.51100000000E-03 0. -1.
        -11    1    3    3    0    0  0.30985617189E+01 -0.81536768945E+01  0.27909273906E+01  0.91582098462E+01  0.51100000000E-03 0.  1.
        -12    1    3    3    0    0  0.64290549749E+01 -0.20224088429E+02  0.19089897838E+02  0.28544188552E+02  0.00000000000E+00 0.  1.
</event>
<event>
 7    1  0.2097247E-008  0.4614232E+02  0.7816164E-02  0.1320468E+00
        -11   -1    0    0    0    0  0.00000000000E+00  0.00000000000E+00  0.45593999997E+02  0.45594000000E+02  0.51100000000E-03 0. -1.
         11   -1    0    0    0    0 -0.00000000000E+00 -0.00000000000E+00 -0.45593999997E+02  0.45594000000E+02  0.51100000000E-03 0.  1.
    9900012    2    1    2    0    0 -0.16949773995E+02 -0.29027367246E+02 -0.29987173817E+02  0.46142317840E+02  0.10000000718E+02 0.  0.
         12    1    1    2    0    0  0.16949773995E+02  0.29027367246E+02  0.29987173817E+02  0.45045682160E+02  0.00000000000E+00 0. -1.
         11    1    3    3    0    0 -0.28633009056E+01 -0.11185254231E+02 -0.84525727621E+01  0.14309241449E+02  0.51100000000E-03 0. -1.
        -11    1    3    3    0    0 -0.72121421271E+01 -0.13458695929E+02 -0.13384727043E+02  0.20305231061E+02  0.51100000000E-03 0.  1.
         12    1    3    3    0    0 -0.68743309623E+01 -0.43834170864E+01 -0.81498740123E+01  0.11527845330E+02  0.00000000000E+00 0. -1.
</event>
<event>
 7    1  0.2097247E-008  0.4614232E+02  0.7816164E-02  0.1320468E+00
        -11   -1    0    0    0    0  0.00000000000E+00  0.00000000000E+00  0.45593999997E+02  0.45594000000E+02  0.51100000000E-03 0. -1.
         11   -1    0    0    0    0 -0.00000000000E+00 -0.00000000000E+00 -0.45593999997E+02  0.45594000000E+02  0.51100000000E-03 0.  1.
    9900012    2    1    2    0    0 -0.24951950972E+02  0.54348867170E+01 -0.37107621994E+02  0.46142318065E+02  0.10000002771E+02 0.  0.
         12    1    1    2    0    0  0.24951950972E+02 -0.54348867170E+01  0.37107621994E+02  0.45045681935E+02  0.00000000000E+00 0. -1.
         11    1    3    3    0    0 -0.59543763819E+01  0.30961412264E+01 -0.61927192445E+01  0.91318377392E+01  0.51100000000E-03 0. -1.
        -11    1    3    3    0    0 -0.88286693685E+00  0.10263055889E+01 -0.61631370229E+01  0.63100725363E+01  0.51100000000E-03 0.  1.
         12    1    3    3    0    0 -0.18114707653E+02  0.13124399017E+01 -0.24751765727E+02  0.30700407790E+02  0.00000000000E+00 0. -1.
</event>
<event>
 7    1  0.2097247E-008  0.4614232E+02  0.7816164E-02  0.1320468E+00
        -11   -1    0    0    0    0  0.00000000000E+00  0.00000000000E+00  0.45593999997E+02  0.45594000000E+02  0.51100000000E-03 0. -1.
         11   -1    0    0    0    0 -0.00000000000E+00 -0.00000000000E+00 -0.45593999997E+02  0.45594000000E+02  0.51100000000E-03 0.  1.
    9900012    2    1    2    0    0 -0.25681307942E+02  0.55951620459E+01 -0.36582483519E+02  0.46142317451E+02  0.99999971708E+01 0.  0.
         12    1    1    2    0    0  0.25681307942E+02 -0.55951620459E+01  0.36582483519E+02  0.45045682549E+02  0.00000000000E+00 0. -1.
         11    1    3    3    0    0  0.44717470572E+00 -0.66420952584E+00 -0.34755029013E+00  0.87288657736E+00  0.51100000000E-03 0. -1.
        -11    1    3    3    0    0 -0.21210656682E+02  0.63601231029E+01 -0.30870874085E+02  0.37991498915E+02  0.51100000000E-03 0.  1.
        -12    1    3    3    0    0 -0.49178259653E+01 -0.10075153116E+00 -0.53640591432E+01  0.72779319582E+01  0.00000000000E+00 0.  1.
</event>
<event>
 7    1  0.2097247E-008  0.4614232E+02  0.7816164E-02  0.1320468E+00
        -11   -1    0    0    0    0  0.00000000000E+00  0.00000000000E+00  0.45593999997E+02  0.45594000000E+02  0.51100000000E-03 0.  1.
         11   -1    0    0    0    0 -0.00000000000E+00 -0.00000000000E+00 -0.45593999997E+02  0.45594000000E+02  0.51100000000E-03 0. -1.
    9900012    2    1    2    0    0 -0.66070706732E+01 -0.27683849788E+02  0.34915105290E+02  0.46142317639E+02  0.99999988874E+01 0.  0.
         12    1    1    2    0    0  0.66070706732E+01  0.27683849788E+02 -0.34915105290E+02  0.45045682361E+02  0.00000000000E+00 0. -1.
         11    1    3    3    0    0 -0.70058058100E+01 -0.19129644774E+02  0.20638712250E+02  0.28999673581E+02  0.51100000000E-03 0. -1.
        -11    1    3    3    0    0 -0.37343974200E+00 -0.38100838048E+01  0.29323667974E+01  0.48223408357E+01  0.51100000000E-03 0.  1.
         12    1    3    3    0    0  0.77217487884E+00 -0.47441212091E+01  0.11344026243E+02  0.12320303222E+02  0.00000000000E+00 0. -1.
</event>
<event>
 7    1  0.2097247E-008  0.4614232E+02  0.7816164E-02  0.1320468E+00
        -11   -1    0    0    0    0  0.00000000000E+00  0.00000000000E+00  0.45593999997E+02  0.45594000000E+02  0.51100000000E-03 0.  1.
         11   -1    0    0    0    0 -0.00000000000E+00 -0.00000000000E+00 -0.45593999997E+02  0.45594000000E+02  0.51100000000E-03 0. -1.
    9900012    2    1    2    0    0  0.31797712945E+02  0.91783643312E+01  0.30557757114E+02  0.46142318296E+02  0.10000004874E+02 0.  0.
         12    1    1    2    0    0 -0.31797712945E+02 -0.91783643312E+01 -0.30557757114E+02  0.45045681704E+02  0.00000000000E+00 0. -1.
         11    1    3    3    0    0  0.11010961790E+01 -0.80894849934E+00  0.34378652374E+00  0.14089002466E+01  0.51100000000E-03 0. -1.
        -11    1    3    3    0    0  0.37179476917E+01  0.28924310543E+01  0.70237338154E+01  0.84570757010E+01  0.51100000000E-03 0.  1.
        -12    1    3    3    0    0  0.26978669075E+02  0.70948817763E+01  0.23190236775E+02  0.36276342348E+02  0.00000000000E+00 0.  1.
</event>
<event>
 7    1  0.2097247E-008  0.4614232E+02  0.7816164E-02  0.1320468E+00
        -11   -1    0    0    0    0  0.00000000000E+00  0.00000000000E+00  0.45593999997E+02  0.45594000000E+02  0.51100000000E-03 0. -1.
         11   -1    0    0    0    0 -0.00000000000E+00 -0.00000000000E+00 -0.45593999997E+02  0.45594000000E+02  0.51100000000E-03 0.  1.
    9900012    2    1    2    0    0  0.14239674297E+02  0.26706119285E+02 -0.33363579194E+02  0.46142317100E+02  0.99999939676E+01 0.  0.
         12    1    1    2    0    0 -0.14239674297E+02 -0.26706119285E+02  0.33363579194E+02  0.45045682900E+02  0.00000000000E+00 0. -1.
         11    1    3    3    0    0  0.33265574788E+01  0.39713218571E+01 -0.28673094219E+01  0.59210510498E+01  0.51100000000E-03 0. -1.
        -11    1    3    3    0    0  0.79162593333E+01  0.10713502398E+02 -0.19740583947E+02  0.23814637312E+02  0.51100000000E-03 0.  1.
        -12    1    3    3    0    0  0.29968574846E+01  0.12021295030E+02 -0.10755685825E+02  0.16406628738E+02  0.00000000000E+00 0.  1.
</event>
<event>
 7    1  0.2097247E-008  0.4614232E+02  0.7816164E-02  0.1320468E+00
        -11   -1    0    0    0    0  0.00000000000E+00  0.00000000000E+00  0.45593999997E+02  0.45594000000E+02  0.51100000000E-03 0.  1.
         11   -1    0    0    0    0 -0.00000000000E+00 -0.00000000000E+00 -0.45593999997E+02  0.45594000000E+02  0.51100000000E-03 0. -1.
    9900012    2    1    2    0    0  0.46408186365E+01  0.39363662047E+01  0.44632738509E+02  0.46142317373E+02  0.99999964650E+01 0.  0.
         12    1    1    2    0    0 -0.46408186365E+01 -0.39363662047E+01 -0.44632738509E+02  0.45045682627E+02  0.00000000000E+00 0. -1.
         11    1    3    3    0    0  0.14737951712E+01  0.25638570563E+01  0.30393424275E+01  0.42406412091E+01  0.51100000000E-03 0. -1.
        -11    1    3    3    0    0  0.30643873194E+01  0.15782966705E+00  0.16772832518E+02  0.17051196169E+02  0.51100000000E-03 0.  1.
         12    1    3    3    0    0  0.10263614584E+00  0.12146794814E+01  0.24820563563E+02  0.24850479996E+02  0.00000000000E+00 0. -1.
</event>
<event>
 7    1  0.2097247E-008  0.4614231E+02  0.7816164E-02  0.1320468E+00
        -11   -1    0    0    0    0  0.00000000000E+00  0.00000000000E+00  0.45593999997E+02  0.45594000000E+02  0.51100000000E-03 0. -1.
         11   -1    0    0    0    0 -0.00000000000E+00 -0.00000000000E+00 -0.45593999997E+02  0.45594000000E+02  0.51100000000E-03 0.  1.
    9900012    2    1    2    0    0  0.19987002922E+02  0.15439850203E+02 -0.37299390824E+02  0.46142314125E+02  0.99999668432E+01 0.  0.
         12    1    1    2    0    0 -0.19987002922E+02 -0.15439850203E+02  0.37299390824E+02  0.45045685875E+02  0.00000000000E+00 0. -1.
         11    1    3    3    0    0  0.11950120871E+02  0.50396768686E+01 -0.14547680354E+02  0.19489451909E+02  0.51100000000E-03 0. -1.
        -11    1    3    3    0    0  0.58751414780E+01  0.92184320516E+01 -0.15295998569E+02  0.18800647579E+02  0.51100000000E-03 0.  1.
         12    1    3    3    0    0  0.21617405727E+01  0.11817412825E+01 -0.74557119005E+01  0.78522146370E+01  0.00000000000E+00 0. -1.
</event>
<event>
 7    1  0.2097247E-008  0.4614232E+02  0.7816164E-02  0.1320468E+00
        -11   -1    0    0    0    0  0.00000000000E+00  0.00000000000E+00  0.45593999997E+02  0.45594000000E+02  0.51100000000E-03 0.  1.
         11   -1    0    0    0    0 -0.00000000000E+00 -0.00000000000E+00 -0.45593999997E+02  0.45594000000E+02  0.51100000000E-03 0. -1.
    9900012    2    1    2    0    0  0.37279689083E+01 -0.35034493268E+02  0.28067774401E+02  0.46142318402E+02  0.10000005848E+02 0.  0.
         12    1    1    2    0    0 -0.37279689083E+01  0.35034493268E+02 -0.28067774401E+02  0.45045681598E+02  0.00000000000E+00 0. -1.
         11    1    3    3    0    0  0.32478586809E+01 -0.12064810630E+02  0.11532285386E+02  0.17002995267E+02  0.51100000000E-03 0. -1.
        -11    1    3    3    0    0  0.24856199442E+01 -0.20827279006E+02  0.13661448856E+02  0.25031760673E+02  0.51100000000E-03 0.  1.
         12    1    3    3    0    0 -0.20055097168E+01 -0.21424036324E+01  0.28740401593E+01  0.41075624628E+01  0.00000000000E+00 0. -1.
</event>
<event>
 7    1  0.2097247E-008  0.4614232E+02  0.7816164E-02  0.1320468E+00
        -11   -1    0    0    0    0  0.00000000000E+00  0.00000000000E+00  0.45593999997E+02  0.45594000000E+02  0.51100000000E-03 0.  1.
         11   -1    0    0    0    0 -0.00000000000E+00 -0.00000000000E+00 -0.45593999997E+02  0.45594000000E+02  0.51100000000E-03 0. -1.
    9900012    2    1    2    0    0  0.32434648352E+02 -0.29833337527E+02 -0.93316166826E+01  0.46142317503E+02  0.99999976448E+01 0.  0.
         12    1    1    2    0    0 -0.32434648352E+02  0.29833337527E+02  0.93316166826E+01  0.45045682497E+02  0.00000000000E+00 0. -1.
         11    1    3    3    0    0  0.44787031604E+01 -0.62481978212E+01  0.12668037873E+00  0.76886153625E+01  0.51100000000E-03 0. -1.
        -11    1    3    3    0    0  0.10409824583E+02 -0.13438732180E+02 -0.40066061499E+01  0.17464731992E+02  0.51100000000E-03 0.  1.
        -12    1    3    3    0    0  0.17546120609E+02 -0.10146407526E+02 -0.54516909114E+01  0.20988970148E+02  0.00000000000E+00 0.  1.
</event>
<event>
 7    1  0.2097247E-008  0.4614232E+02  0.7816164E-02  0.1320468E+00
        -11   -1    0    0    0    0  0.00000000000E+00  0.00000000000E+00  0.45593999997E+02  0.45594000000E+02  0.51100000000E-03 0. -1.
         11   -1    0    0    0    0 -0.00000000000E+00 -0.00000000000E+00 -0.45593999997E+02  0.45594000000E+02  0.51100000000E-03 0.  1.
    9900012    2    1    2    0    0 -0.38746457140E+02 -0.21253619370E+02 -0.87240465466E+01  0.46142320236E+02  0.10000022566E+02 0.  0.
         12    1    1    2    0    0  0.38746457140E+02  0.21253619370E+02  0.87240465466E+01  0.45045679764E+02  0.00000000000E+00 0. -1.
         11    1    3    3    0    0 -0.42916501377E+01 -0.47936434167E+01 -0.16444003675E+01  0.66408832952E+01  0.51100000000E-03 0. -1.
        -11    1    3    3    0    0 -0.29633053281E+02 -0.15549694692E+02 -0.82284269846E+01  0.34461831969E+02  0.51100000000E-03 0.  1.
         12    1    3    3    0    0 -0.48217537216E+01 -0.91028126173E+00  0.11487808055E+01  0.50396049713E+01  0.00000000000E+00 0. -1.
</event>
<event>
 7    1  0.2097247E-008  0.4614232E+02  0.7816164E-02  0.1320468E+00
        -11   -1    0    0    0    0  0.00000000000E+00  0.00000000000E+00  0.45593999997E+02  0.45594000000E+02  0.51100000000E-03 0.  1.
         11   -1    0    0    0    0 -0.00000000000E+00 -0.00000000000E+00 -0.45593999997E+02  0.45594000000E+02  0.51100000000E-03 0. -1.
    9900012    2    1    2    0    0  0.27969200076E+02  0.18459753615E+02  0.30101079114E+02  0.46142316298E+02  0.99999866545E+01 0.  0.
         12    1    1    2    0    0 -0.27969200076E+02 -0.18459753615E+02 -0.30101079114E+02  0.45045683702E+02  0.00000000000E+00 0. -1.
         11    1    3    3    0    0  0.51395336981E+00 -0.34649523937E+00  0.14533703135E+01  0.15800292866E+01  0.51100000000E-03 0. -1.
        -11    1    3    3    0    0  0.11776180289E+02  0.79775867906E+01  0.17252347065E+02  0.22359870141E+02  0.51100000000E-03 0.  1.
         12    1    3    3    0    0  0.15679066416E+02  0.10828662064E+02  0.11395361735E+02  0.22202416870E+02  0.00000000000E+00 0. -1.
</event>
<event>
 7    1  0.2097247E-008  0.4614232E+02  0.7816164E-02  0.1320468E+00
        -11   -1    0    0    0    0  0.00000000000E+00  0.00000000000E+00  0.45593999997E+02  0.45594000000E+02  0.51100000000E-03 0. -1.
         11   -1    0    0    0    0 -0.00000000000E+00 -0.00000000000E+00 -0.45593999997E+02  0.45594000000E+02  0.51100000000E-03 0.  1.
    9900012    2    1    2    0    0  0.22076050522E+01  0.38803046600E+02 -0.22771990901E+02  0.46142317464E+02  0.99999972928E+01 0.  0.
         12    1    1    2    0    0 -0.22076050522E+01 -0.38803046600E+02  0.22771990901E+02  0.45045682536E+02  0.00000000000E+00 0. -1.
         11    1    3    3    0    0  0.16526118830E+01  0.26787630012E+01 -0.37688322286E+01  0.49102946837E+01  0.51100000000E-03 0. -1.
        -11    1    3    3    0    0 -0.21530490960E+01  0.72195938588E+01 -0.45610650655E+01  0.88068990393E+01  0.51100000000E-03 0.  1.
        -12    1    3    3    0    0  0.27080422652E+01  0.28904689740E+02 -0.14442093607E+02  0.32425123741E+02  0.00000000000E+00 0.  1.
</event>
<event>
 7    1  0.2097247E-008  0.4614232E+02  0.7816164E-02  0.1320468E+00
        -11   -1    0    0    0    0  0.00000000000E+00  0.00000000000E+00  0.45593999997E+02  0.45594000000E+02  0.51100000000E-03 0.  1.
         11   -1    0    0    0    0 -0.00000000000E+00 -0.00000000000E+00 -0.45593999997E+02  0.45594000000E+02  0.51100000000E-03 0. -1.
    9900012    2    1    2    0    0  0.66685491056E+01  0.27147316111E+01  0.44466551786E+02  0.46142317159E+02  0.99999945075E+01 0.  0.
         12    1    1    2    0    0 -0.66685491056E+01 -0.27147316111E+01 -0.44466551786E+02  0.45045682841E+02  0.00000000000E+00 0. -1.
         11    1    3    3    0    0 -0.19468616991E+01  0.16612212922E+01  0.17184882200E+02  0.17374409433E+02  0.51100000000E-03 0.  1.
        -11    1    3    3    0    0  0.32094266875E+01  0.13368096434E+01  0.14003537297E+02  0.14428670652E+02  0.51100000000E-03 0. -1.
        -12    1    3    3    0    0  0.54059841172E+01 -0.28329932455E+00  0.13278132290E+02  0.14339237075E+02  0.00000000000E+00 0.  1.
</event>
<event>
 7    1  0.2097247E-008  0.4614232E+02  0.7816164E-02  0.1320468E+00
        -11   -1    0    0    0    0  0.00000000000E+00  0.00000000000E+00  0.45593999997E+02  0.45594000000E+02  0.51100000000E-03 0. -1.
         11   -1    0    0    0    0 -0.00000000000E+00 -0.00000000000E+00 -0.45593999997E+02  0.45594000000E+02  0.51100000000E-03 0.  1.
    9900012    2    1    2    0    0 -0.22208378539E+02  0.29450455456E+02 -0.25856760566E+02  0.46142317955E+02  0.10000001771E+02 0.  0.
         12    1    1    2    0    0  0.22208378539E+02 -0.29450455456E+02  0.25856760566E+02  0.45045682045E+02  0.00000000000E+00 0. -1.
         11    1    3    3    0    0 -0.58952606194E+01  0.94469348912E+01 -0.12380608181E+02  0.16651670661E+02  0.51100000000E-03 0. -1.
        -11    1    3    3    0    0 -0.14983900379E+02  0.16352318038E+02 -0.12596789080E+02  0.25506757362E+02  0.51100000000E-03 0.  1.
        -12    1    3    3    0    0 -0.13292175409E+01  0.36512025271E+01 -0.87936330523E+00  0.39838899316E+01  0.00000000000E+00 0.  1.
</event>
<event>
 7    1  0.2097247E-008  0.4614232E+02  0.7816164E-02  0.1320468E+00
        -11   -1    0    0    0    0  0.00000000000E+00  0.00000000000E+00  0.45593999997E+02  0.45594000000E+02  0.51100000000E-03 0. -1.
         11   -1    0    0    0    0 -0.00000000000E+00 -0.00000000000E+00 -0.45593999997E+02  0.45594000000E+02  0.51100000000E-03 0.  1.
    9900012    2    1    2    0    0  0.38287499638E+02 -0.23015733865E+01 -0.23619563348E+02  0.46142316063E+02  0.99999845173E+01 0.  0.
         12    1    1    2    0    0 -0.38287499638E+02  0.23015733865E+01  0.23619563348E+02  0.45045683937E+02  0.00000000000E+00 0. -1.
         11    1    3    3    0    0  0.17632823070E+02  0.11727410292E+01 -0.12103516876E+02  0.21419311193E+02  0.51100000000E-03 0. -1.
        -11    1    3    3    0    0  0.15330465335E+02 -0.33568187019E+01 -0.11398289504E+02  0.19396195582E+02  0.51100000000E-03 0.  1.
         12    1    3    3    0    0  0.53242112322E+01 -0.11749571381E+00 -0.11775696869E+00  0.53268092881E+01  0.00000000000E+00 0. -1.
</event>
<event>
 7    1  0.2097247E-008  0.4614231E+02  0.7816164E-02  0.1320468E+00
        -11   -1    0    0    0    0  0.00000000000E+00  0.00000000000E+00  0.45593999997E+02  0.45594000000E+02  0.51100000000E-03 0. -1.
         11   -1    0    0    0    0 -0.00000000000E+00 -0.00000000000E+00 -0.45593999997E+02  0.45594000000E+02  0.51100000000E-03 0.  1.
    9900012    2    1    2    0    0  0.56726236114E+01  0.17563746924E+02 -0.41090755985E+02  0.46142311060E+02  0.99999388937E+01 0.  0.
         12    1    1    2    0    0 -0.56726236114E+01 -0.17563746924E+02  0.41090755985E+02  0.45045688940E+02  0.00000000000E+00 0. -1.
         11    1    3    3    0    0 -0.91682293489E+00 -0.41947421703E+00 -0.14893379685E+01  0.17985134857E+01  0.51100000000E-03 0. -1.
        -11    1    3    3    0    0  0.22749884814E+01  0.82554582611E+01 -0.11835509148E+02  0.14608471540E+02  0.51100000000E-03 0.  1.
        -12    1    3    3    0    0  0.43144580649E+01  0.97277628802E+01 -0.27765908869E+02  0.29735326034E+02  0.00000000000E+00 0.  1.
</event>
<event>
 7    1  0.2097247E-008  0.4614232E+02  0.7816164E-02  0.1320468E+00
        -11   -1    0    0    0    0  0.00000000000E+00  0.00000000000E+00  0.45593999997E+02  0.45594000000E+02  0.51100000000E-03 0. -1.
         11   -1    0    0    0    0 -0.00000000000E+00 -0.00000000000E+00 -0.45593999997E+02  0.45594000000E+02  0.51100000000E-03 0.  1.
    9900012    2    1    2    0    0  0.22173226725E+02  0.36606106250E+02 -0.14051847747E+02  0.46142318484E+02  0.10000006588E+02 0.  0.
         12    1    1    2    0    0 -0.22173226725E+02 -0.36606106250E+02  0.14051847747E+02  0.45045681516E+02  0.00000000000E+00 0. -1.
         11    1    3    3    0    0  0.15892859358E+02  0.27766216404E+02 -0.58562575866E+01  0.32524475479E+02  0.51100000000E-03 0.  1.
        -11    1    3    3    0    0  0.10974550736E+01  0.14401998348E+01 -0.17653320378E+01  0.25288299008E+01  0.51100000000E-03 0. -1.
         12    1    3    3    0    0  0.51829122936E+01  0.73996900107E+01 -0.64302581227E+01  0.11089013104E+02  0.00000000000E+00 0. -1.
</event>
<event>
 7    1  0.2097247E-008  0.4614232E+02  0.7816164E-02  0.1320468E+00
        -11   -1    0    0    0    0  0.00000000000E+00  0.00000000000E+00  0.45593999997E+02  0.45594000000E+02  0.51100000000E-03 0.  1.
         11   -1    0    0    0    0 -0.00000000000E+00 -0.00000000000E+00 -0.45593999997E+02  0.45594000000E+02  0.51100000000E-03 0. -1.
    9900012    2    1    2    0    0 -0.35132400688E+02 -0.28158072652E+02 -0.13967318385E+01  0.46142317705E+02  0.99999994919E+01 0.  0.
         12    1    1    2    0    0  0.35132400688E+02  0.28158072652E+02  0.13967318385E+01  0.45045682295E+02  0.00000000000E+00 0. -1.
         11    1    3    3    0    0 -0.11371549524E+02 -0.79216957296E+01 -0.37662056088E+01  0.14361396407E+02  0.51100000000E-03 0. -1.
        -11    1    3    3    0    0 -0.13230344035E+02 -0.99593079589E+01 -0.13160891080E+01  0.16612101285E+02  0.51100000000E-03 0.  1.
         12    1    3    3    0    0 -0.10530507129E+02 -0.10277068963E+02  0.36855628783E+01  0.15168820014E+02  0.00000000000E+00 0. -1.
</event>
<event>
 7    1  0.2097247E-008  0.4614232E+02  0.7816164E-02  0.1320468E+00
        -11   -1    0    0    0    0  0.00000000000E+00  0.00000000000E+00  0.45593999997E+02  0.45594000000E+02  0.51100000000E-03 0.  1.
         11   -1    0    0    0    0 -0.00000000000E+00 -0.00000000000E+00 -0.45593999997E+02  0.45594000000E+02  0.51100000000E-03 0. -1.
    9900012    2    1    2    0    0 -0.35310419196E+02 -0.51679717785E+01  0.27487812035E+02  0.46142318225E+02  0.10000004227E+02 0.  0.
         12    1    1    2    0    0  0.35310419196E+02  0.51679717785E+01 -0.27487812035E+02  0.45045681775E+02  0.00000000000E+00 0. -1.
         11    1    3    3    0    0  0.10751068487E+00 -0.39948080911E+00  0.55915084800E+00  0.69555258331E+00  0.51100000000E-03 0. -1.
        -11    1    3    3    0    0 -0.29477017471E+02 -0.37968024291E+01  0.18222792378E+02  0.34862306722E+02  0.51100000000E-03 0.  1.
         12    1    3    3    0    0 -0.59409124098E+01 -0.97168854023E+00  0.87058688097E+01  0.10584458919E+02  0.00000000000E+00 0. -1.
</event>
<event>
 7    1  0.2097247E-008  0.4614232E+02  0.7816164E-02  0.1320468E+00
        -11   -1    0    0    0    0  0.00000000000E+00  0.00000000000E+00  0.45593999997E+02  0.45594000000E+02  0.51100000000E-03 0. -1.
         11   -1    0    0    0    0 -0.00000000000E+00 -0.00000000000E+00 -0.45593999997E+02  0.45594000000E+02  0.51100000000E-03 0.  1.
    9900012    2    1    2    0    0  0.12019668410E+02  0.42458620957E+02 -0.90502231703E+01  0.46142318057E+02  0.10000002700E+02 0.  0.
         12    1    1    2    0    0 -0.12019668410E+02 -0.42458620957E+02  0.90502231703E+01  0.45045681943E+02  0.00000000000E+00 0. -1.
         11    1    3    3    0    0  0.56101820759E+01  0.18512364964E+02  0.48795053259E+00  0.19349932699E+02  0.51100000000E-03 0. -1.
        -11    1    3    3    0    0  0.18422340079E+01  0.13533253735E+02 -0.48588218304E+01  0.14496583481E+02  0.51100000000E-03 0.  1.
         12    1    3    3    0    0  0.45672523266E+01  0.10413002258E+02 -0.46793518725E+01  0.12295801877E+02  0.00000000000E+00 0. -1.
</event>
<event>
 7    1  0.2097247E-008  0.4614232E+02  0.7816164E-02  0.1320468E+00
        -11   -1    0    0    0    0  0.00000000000E+00  0.00000000000E+00  0.45593999997E+02  0.45594000000E+02  0.51100000000E-03 0. -1.
         11   -1    0    0    0    0 -0.00000000000E+00 -0.00000000000E+00 -0.45593999997E+02  0.45594000000E+02  0.51100000000E-03 0.  1.
    9900012    2    1    2    0    0 -0.72023165952E+01  0.27559479407E+02 -0.34895774122E+02  0.46142319618E+02  0.10000016930E+02 0.  0.
         12    1    1    2    0    0  0.72023165952E+01 -0.27559479407E+02  0.34895774122E+02  0.45045680382E+02  0.00000000000E+00 0. -1.
         11    1    3    3    0    0 -0.54901716559E+01  0.12009102081E+02 -0.21022260126E+02  0.24825308430E+02  0.51100000000E-03 0. -1.
        -11    1    3    3    0    0  0.79990560512E+00  0.93556373396E+01 -0.93119801645E+01  0.13224249463E+02  0.51100000000E-03 0.  1.
        -12    1    3    3    0    0 -0.25120505444E+01  0.61947399858E+01 -0.45615338321E+01  0.80927617245E+01  0.00000000000E+00 0.  1.
</event>
<event>
 7    1  0.2097247E-008  0.4614232E+02  0.7816164E-02  0.1320468E+00
        -11   -1    0    0    0    0  0.00000000000E+00  0.00000000000E+00  0.45593999997E+02  0.45594000000E+02  0.51100000000E-03 0.  1.
         11   -1    0    0    0    0 -0.00000000000E+00 -0.00000000000E+00 -0.45593999997E+02  0.45594000000E+02  0.51100000000E-03 0. -1.
    9900012    2    1    2    0    0 -0.32962050169E+02  0.18772980290E+02  0.24293866692E+02  0.46142317641E+02  0.99999989091E+01 0.  0.
         12    1    1    2    0    0  0.32962050169E+02 -0.18772980290E+02 -0.24293866692E+02  0.45045682359E+02  0.00000000000E+00 0. -1.
         11    1    3    3    0    0 -0.13770342311E+02  0.10608554354E+02  0.15322316205E+02  0.23171903827E+02  0.51100000000E-03 0. -1.
        -11    1    3    3    0    0 -0.40988571575E+01  0.15667197561E+01  0.35018409242E+01  0.56141010778E+01  0.51100000000E-03 0.  1.
         12    1    3    3    0    0 -0.15092850700E+02  0.65977061805E+01  0.54697095626E+01  0.17356312736E+02  0.00000000000E+00 0. -1.
</event>
<event>
 7    1  0.2097247E-008  0.4614232E+02  0.7816164E-02  0.1320468E+00
        -11   -1    0    0    0    0  0.00000000000E+00  0.00000000000E+00  0.45593999997E+02  0.45594000000E+02  0.51100000000E-03 0.  1.
         11   -1    0    0    0    0 -0.00000000000E+00 -0.00000000000E+00 -0.45593999997E+02  0.45594000000E+02  0.51100000000E-03 0. -1.
    9900012    2    1    2    0    0 -0.11621445190E+02 -0.17777475502E+02  0.39724260164E+02  0.46142317975E+02  0.10000001948E+02 0.  0.
         12    1    1    2    0    0  0.11621445190E+02  0.17777475502E+02 -0.39724260164E+02  0.45045682025E+02  0.00000000000E+00 0. -1.
         11    1    3    3    0    0 -0.93863657733E+00  0.55638840027E+00  0.79815896697E+00  0.13519114889E+01  0.51100000000E-03 0. -1.
        -11    1    3    3    0    0 -0.10193957761E+02 -0.11998413522E+02  0.29164930690E+02  0.33143202686E+02  0.51100000000E-03 0.  1.
        -12    1    3    3    0    0 -0.48885085152E+00 -0.63354503805E+01  0.97611705072E+01  0.11647203800E+02  0.00000000000E+00 0.  1.
</event>
<event>
 7    1  0.2097247E-008  0.4614232E+02  0.7816164E-02  0.1320468E+00
        -11   -1    0    0    0    0  0.00000000000E+00  0.00000000000E+00  0.45593999997E+02  0.45594000000E+02  0.51100000000E-03 0.  1.
         11   -1    0    0    0    0 -0.00000000000E+00 -0.00000000000E+00 -0.45593999997E+02  0.45594000000E+02  0.51100000000E-03 0. -1.
    9900012    2    1    2    0    0 -0.10035456454E+02  0.42277633074E+02  0.11874554760E+02  0.46142315464E+02  0.99999790504E+01 0.  0.
         12    1    1    2    0    0  0.10035456454E+02 -0.42277633074E+02 -0.11874554760E+02  0.45045684536E+02  0.00000000000E+00 0. -1.
         11    1    3    3    0    0 -0.12721694869E+00  0.14595521826E+02  0.22032839245E+01  0.14761432919E+02  0.51100000000E-03 0. -1.
        -11    1    3    3    0    0 -0.37399746691E+01  0.15548384244E+02  0.72377795357E+01  0.17553492986E+02  0.51100000000E-03 0.  1.
         12    1    3    3    0    0 -0.61682648360E+01  0.12133727004E+02  0.24334912996E+01  0.13827389559E+02  0.00000000000E+00 0. -1.
</event>
<event>
 7    1  0.2097247E-008  0.4614231E+02  0.7816164E-02  0.1320468E+00
        -11   -1    0    0    0    0  0.00000000000E+00  0.00000000000E+00  0.45593999997E+02  0.45594000000E+02  0.51100000000E-03 0.  1.
         11   -1    0    0    0    0 -0.00000000000E+00 -0.00000000000E+00 -0.45593999997E+02  0.45594000000E+02  0.51100000000E-03 0. -1.
    9900012    2    1    2    0    0 -0.43521261185E+02  0.66512002150E+01  0.95276012874E+01  0.46142314017E+02  0.99999658541E+01 0.  0.
         12    1    1    2    0    0  0.43521261185E+02 -0.66512002150E+01 -0.95276012874E+01  0.45045685983E+02  0.00000000000E+00 0. -1.
         11    1    3    3    0    0 -0.89265422214E+00 -0.68648541500E+00  0.12026775272E+01  0.16475822531E+01  0.51100000000E-03 0. -1.
        -11    1    3    3    0    0 -0.27059568437E+02  0.37019621015E+01  0.22963990033E+01  0.27407995477E+02  0.51100000000E-03 0.  1.
         12    1    3    3    0    0 -0.15569038526E+02  0.36357235285E+01  0.60285247570E+01  0.17086736287E+02  0.00000000000E+00 0. -1.
</event>
<event>
 7    1  0.2097247E-008  0.4614232E+02  0.7816164E-02  0.1320468E+00
        -11   -1    0    0    0    0  0.00000000000E+00  0.00000000000E+00  0.45593999997E+02  0.45594000000E+02  0.51100000000E-03 0.  1.
         11   -1    0    0    0    0 -0.00000000000E+00 -0.00000000000E+00 -0.45593999997E+02  0.45594000000E+02  0.51100000000E-03 0. -1.
    9900012    2    1    2    0    0 -0.10866844401E+02  0.32414572334E+02  0.29331221779E+02  0.46142318987E+02  0.10000011183E+02 0.  0.
         12    1    1    2    0    0  0.10866844401E+02 -0.32414572334E+02 -0.29331221779E+02  0.45045681013E+02  0.00000000000E+00 0. -1.
         11    1    3    3    0    0 -0.65584419531E+01  0.14081699975E+02  0.93220300000E+01  0.18116502936E+02  0.51100000000E-03 0. -1.
        -11    1    3    3    0    0  0.68463610734E+00  0.71023973837E+01  0.93172614497E+01  0.11735592715E+02  0.51100000000E-03 0.  1.
         12    1    3    3    0    0 -0.49930385556E+01  0.11230474975E+02  0.10691930329E+02  0.16290223336E+02  0.00000000000E+00 0. -1.
</event>
<event>
 7    1  0.2097247E-008  0.4614232E+02  0.7816164E-02  0.1320468E+00
        -11   -1    0    0    0    0  0.00000000000E+00  0.00000000000E+00  0.45593999997E+02  0.45594000000E+02  0.51100000000E-03 0. -1.
         11   -1    0    0    0    0 -0.00000000000E+00 -0.00000000000E+00 -0.45593999997E+02  0.45594000000E+02  0.51100000000E-03 0.  1.
    9900012    2    1    2    0    0 -0.10086760715E+02  0.15653193574E+02 -0.41016438267E+02  0.46142318532E+02  0.10000007029E+02 0.  0.
         12    1    1    2    0    0  0.10086760715E+02 -0.15653193574E+02  0.41016438267E+02  0.45045681468E+02  0.00000000000E+00 0. -1.
         11    1    3    3    0    0  0.38577858955E+00  0.15370215726E-01  0.23190039512E+00  0.45037697328E+00  0.51100000000E-03 0. -1.
        -11    1    3    3    0    0 -0.33619224606E+01  0.13987046632E+01 -0.95896377742E+01  0.10257682500E+02  0.51100000000E-03 0.  1.
         12    1    3    3    0    0 -0.71106168442E+01  0.14239118695E+02 -0.31658700888E+02  0.35434259059E+02  0.00000000000E+00 0. -1.
</event>
<event>
 7    1  0.2097247E-008  0.4614232E+02  0.7816164E-02  0.1320468E+00
        -11   -1    0    0    0    0  0.00000000000E+00  0.00000000000E+00  0.45593999997E+02  0.45594000000E+02  0.51100000000E-03 0.  1.
         11   -1    0    0    0    0 -0.00000000000E+00 -0.00000000000E+00 -0.45593999997E+02  0.45594000000E+02  0.51100000000E-03 0. -1.
    9900012    2    1    2    0    0  0.15526694844E+02  0.41306031233E+02  0.90469420599E+01  0.46142316193E+02  0.99999857023E+01 0.  0.
         12    1    1    2    0    0 -0.15526694844E+02 -0.41306031233E+02 -0.90469420599E+01  0.45045683807E+02  0.00000000000E+00 0. -1.
         11    1    3    3    0    0  0.49159243287E+00  0.17773424341E+01  0.21878832064E+01  0.28613707265E+01  0.51100000000E-03 0. -1.
        -11    1    3    3    0    0  0.28154689665E+01  0.78128640554E+01 -0.10884474278E+01  0.83757046458E+01  0.51100000000E-03 0.  1.
        -12    1    3    3    0    0  0.12219633445E+02  0.31715824743E+02  0.79475062813E+01  0.34905240821E+02  0.00000000000E+00 0.  1.
</event>
<event>
 7    1  0.2097247E-008  0.4614232E+02  0.7816164E-02  0.1320468E+00
        -11   -1    0    0    0    0  0.00000000000E+00  0.00000000000E+00  0.45593999997E+02  0.45594000000E+02  0.51100000000E-03 0.  1.
         11   -1    0    0    0    0 -0.00000000000E+00 -0.00000000000E+00 -0.45593999997E+02  0.45594000000E+02  0.51100000000E-03 0. -1.
    9900012    2    1    2    0    0  0.34594174937E+02 -0.27617875952E+02 -0.83432179381E+01  0.46142319882E+02  0.10000019342E+02 0.  0.
         12    1    1    2    0    0 -0.34594174937E+02  0.27617875952E+02  0.83432179381E+01  0.45045680118E+02  0.00000000000E+00 0. -1.
         11    1    3    3    0    0 -0.38918519713E+00  0.19046960516E+00  0.10907929083E+00  0.44681354160E+00  0.51100000000E-03 0. -1.
        -11    1    3    3    0    0  0.65799152459E+01 -0.45531649188E+01 -0.31769617442E+01  0.86092788087E+01  0.51100000000E-03 0.  1.
        -12    1    3    3    0    0  0.28403444889E+02 -0.23255180639E+02 -0.52753354847E+01  0.37086227532E+02  0.00000000000E+00 0.  1.
</event>
<event>
 7    1  0.2097247E-008  0.4614232E+02  0.7816164E-02  0.1320468E+00
        -11   -1    0    0    0    0  0.00000000000E+00  0.00000000000E+00  0.45593999997E+02  0.45594000000E+02  0.51100000000E-03 0.  1.
         11   -1    0    0    0    0 -0.00000000000E+00 -0.00000000000E+00 -0.45593999997E+02  0.45594000000E+02  0.51100000000E-03 0. -1.
    9900012    2    1    2    0    0 -0.12191330592E+02  0.42316186687E+02  0.94776198394E+01  0.46142317908E+02  0.10000001341E+02 0.  0.
         12    1    1    2    0    0  0.12191330592E+02 -0.42316186687E+02 -0.94776198394E+01  0.45045682092E+02  0.00000000000E+00 0. -1.
         11    1    3    3    0    0 -0.12904026052E+01  0.57100443794E+01 -0.68565227521E-01  0.58544382437E+01  0.51100000000E-03 0. -1.
        -11    1    3    3    0    0 -0.39360226745E+01  0.13428050793E+02 -0.69052463592E+00  0.14010055215E+02  0.51100000000E-03 0.  1.
         12    1    3    3    0    0 -0.69649053126E+01  0.23178091514E+02  0.10236709703E+02  0.26277824449E+02  0.00000000000E+00 0. -1.
</event>
<event>
 7    1  0.2097247E-008  0.4614232E+02  0.7816164E-02  0.1320468E+00
        -11   -1    0    0    0    0  0.00000000000E+00  0.00000000000E+00  0.45593999997E+02  0.45594000000E+02  0.51100000000E-03 0.  1.
         11   -1    0    0    0    0 -0.00000000000E+00 -0.00000000000E+00 -0.45593999997E+02  0.45594000000E+02  0.51100000000E-03 0. -1.
    9900012    2    1    2    0    0 -0.19736678205E+02  0.18945679863E+02  0.35786003016E+02  0.46142320253E+02  0.10000022723E+02 0.  0.
         12    1    1    2    0    0  0.19736678205E+02 -0.18945679863E+02 -0.35786003016E+02  0.45045679747E+02  0.00000000000E+00 0. -1.
         11    1    3    3    0    0 -0.88364898007E+01  0.12051533872E+02  0.17591963269E+02  0.23082465046E+02  0.51100000000E-03 0.  1.
        -11    1    3    3    0    0 -0.59479231633E+01  0.53656368236E+01  0.14905963786E+02  0.16922044946E+02  0.51100000000E-03 0. -1.
         12    1    3    3    0    0 -0.49522652406E+01  0.15285091672E+01  0.32880759605E+01  0.61378102618E+01  0.00000000000E+00 0. -1.
</event>
<event>
 7    1  0.2097247E-008  0.4614232E+02  0.7816164E-02  0.1320468E+00
        -11   -1    0    0    0    0  0.00000000000E+00  0.00000000000E+00  0.45593999997E+02  0.45594000000E+02  0.51100000000E-03 0.  1.
         11   -1    0    0    0    0 -0.00000000000E+00 -0.00000000000E+00 -0.45593999997E+02  0.45594000000E+02  0.51100000000E-03 0. -1.
    9900012    2    1    2    0    0 -0.39770419706E+02 -0.20859924869E+02  0.35058165704E+01  0.46142317643E+02  0.99999989267E+01 0.  0.
         12    1    1    2    0    0  0.39770419706E+02  0.20859924869E+02 -0.35058165704E+01  0.45045682357E+02  0.00000000000E+00 0. -1.
         11    1    3    3    0    0 -0.94982822750E+01 -0.80591709350E+01  0.16611748814E+01  0.12566905131E+02  0.51100000000E-03 0. -1.
        -11    1    3    3    0    0 -0.30180849957E+02 -0.12242968567E+02  0.10324177529E+01  0.32585884523E+02  0.51100000000E-03 0.  1.
        -12    1    3    3    0    0 -0.91287473942E-01 -0.55778536677E+00  0.81222393613E+00  0.98952798884E+00  0.00000000000E+00 0.  1.
</event>
<event>
 7    1  0.2097247E-008  0.4614232E+02  0.7816164E-02  0.1320468E+00
        -11   -1    0    0    0    0  0.00000000000E+00  0.00000000000E+00  0.45593999997E+02  0.45594000000E+02  0.51100000000E-03 0.  1.
         11   -1    0    0    0    0 -0.00000000000E+00 -0.00000000000E+00 -0.45593999997E+02  0.45594000000E+02  0.51100000000E-03 0. -1.
    9900012    2    1    2    0    0  0.29245167298E+02  0.12433698761E+02  0.31925490275E+02  0.46142316473E+02  0.99999882503E+01 0.  0.
         12    1    1    2    0    0 -0.29245167298E+02 -0.12433698761E+02 -0.31925490275E+02  0.45045683527E+02  0.00000000000E+00 0. -1.
         11    1    3    3    0    0  0.20921447249E+01  0.59062882505E+00  0.52192237276E+01  0.56538666892E+01  0.51100000000E-03 0. -1.
        -11    1    3    3    0    0  0.19180860504E+02  0.84569082665E+01  0.22845370770E+02  0.31005413607E+02  0.51100000000E-03 0.  1.
         12    1    3    3    0    0  0.79721620693E+01  0.33861616699E+01  0.38608957772E+01  0.94830361761E+01  0.00000000000E+00 0. -1.
</event>
<event>
 7    1  0.2097247E-008  0.4614232E+02  0.7816164E-02  0.1320468E+00
        -11   -1    0    0    0    0  0.00000000000E+00  0.00000000000E+00  0.45593999997E+02  0.45594000000E+02  0.51100000000E-03 0.  1.
         11   -1    0    0    0    0 -0.00000000000E+00 -0.00000000000E+00 -0.45593999997E+02  0.45594000000E+02  0.51100000000E-03 0. -1.
    9900012    2    1    2    0    0  0.28003379185E+02  0.10736367519E+02 -0.33610338408E+02  0.46142315621E+02  0.99999804847E+01 0.  0.
         12    1    1    2    0    0 -0.28003379185E+02 -0.10736367519E+02  0.33610338408E+02  0.45045684379E+02  0.00000000000E+00 0. -1.
         11    1    3    3    0    0  0.26675619905E+01  0.38341823871E+00 -0.82761708495E+01  0.87039014649E+01  0.51100000000E-03 0. -1.
        -11    1    3    3    0    0  0.10023802939E+01  0.67969106591E+00 -0.21335526848E+01  0.24533229544E+01  0.51100000000E-03 0.  1.
        -12    1    3    3    0    0  0.24333436901E+02  0.96732582149E+01 -0.23200614873E+02  0.34985091202E+02  0.00000000000E+00 0.  1.
</event>
<event>
 7    1  0.2097247E-008  0.4614232E+02  0.7816164E-02  0.1320468E+00
        -11   -1    0    0    0    0  0.00000000000E+00  0.00000000000E+00  0.45593999997E+02  0.45594000000E+02  0.51100000000E-03 0.  1.
         11   -1    0    0    0    0 -0.00000000000E+00 -0.00000000000E+00 -0.45593999997E+02  0.45594000000E+02  0.51100000000E-03 0. -1.
    9900012    2    1    2    0    0 -0.20777195416E+01  0.21112419179E+02  0.39737417114E+02  0.46142317843E+02  0.10000000746E+02 0.  0.
         12    1    1    2    0    0  0.20777195416E+01 -0.21112419179E+02 -0.39737417114E+02  0.45045682157E+02  0.00000000000E+00 0. -1.
         11    1    3    3    0    0 -0.10756357114E+01  0.20983226975E+01  0.93979557335E+01  0.96892477807E+01  0.51100000000E-03 0.  1.
        -11    1    3    3    0    0 -0.23894521799E+01  0.27106823758E+01  0.35736687666E+01  0.50821638479E+01  0.51100000000E-03 0. -1.
         12    1    3    3    0    0  0.13873683497E+01  0.16303414106E+02  0.26765792614E+02  0.31370906214E+02  0.00000000000E+00 0. -1.
</event>
<event>
 7    1  0.2097247E-008  0.4614232E+02  0.7816164E-02  0.1320468E+00
        -11   -1    0    0    0    0  0.00000000000E+00  0.00000000000E+00  0.45593999997E+02  0.45594000000E+02  0.51100000000E-03 0.  1.
         11   -1    0    0    0    0 -0.00000000000E+00 -0.00000000000E+00 -0.45593999997E+02  0.45594000000E+02  0.51100000000E-03 0. -1.
    9900012    2    1    2    0    0 -0.23589162651E+02 -0.25230958774E+01  0.38292282390E+02  0.46142317654E+02  0.99999990277E+01 0.  0.
         12    1    1    2    0    0  0.23589162651E+02  0.25230958774E+01 -0.38292282390E+02  0.45045682346E+02  0.00000000000E+00 0. -1.
         11    1    3    3    0    0 -0.41764424468E+01  0.70736533950E+00  0.59421184048E+01  0.72973836841E+01  0.51100000000E-03 0. -1.
        -11    1    3    3    0    0  0.90086490574E+00 -0.12219017295E+00  0.92434457278E+00  0.12964957258E+01  0.51100000000E-03 0.  1.
        -12    1    3    3    0    0 -0.20313585110E+02 -0.31082710439E+01  0.31425819412E+02  0.37548438245E+02  0.00000000000E+00 0.  1.
</event>
<event>
 7    1  0.2097247E-008  0.4614232E+02  0.7816164E-02  0.1320468E+00
        -11   -1    0    0    0    0  0.00000000000E+00  0.00000000000E+00  0.45593999997E+02  0.45594000000E+02  0.51100000000E-03 0.  1.
         11   -1    0    0    0    0 -0.00000000000E+00 -0.00000000000E+00 -0.45593999997E+02  0.45594000000E+02  0.51100000000E-03 0. -1.
    9900012    2    1    2    0    0 -0.54306072812E+01 -0.44628134832E+02  0.28198538283E+01  0.46142317747E+02  0.99999998716E+01 0.  0.
         12    1    1    2    0    0  0.54306072812E+01  0.44628134832E+02 -0.28198538283E+01  0.45045682253E+02  0.00000000000E+00 0. -1.
         11    1    3    3    0    0  0.10368598047E+01 -0.18460026882E+02 -0.14353141147E+00  0.18489680156E+02  0.51100000000E-03 0. -1.
        -11    1    3    3    0    0 -0.57726585647E+01 -0.24633012991E+02  0.13761465080E+01  0.25337772108E+02  0.51100000000E-03 0.  1.
         12    1    3    3    0    0 -0.69480852118E+00 -0.15350949591E+01  0.15872387318E+01  0.23148654834E+01  0.00000000000E+00 0. -1.
</event>
<event>
 7    1  0.2097247E-008  0.4614232E+02  0.7816164E-02  0.1320468E+00
        -11   -1    0    0    0    0  0.00000000000E+00  0.00000000000E+00  0.45593999997E+02  0.45594000000E+02  0.51100000000E-03 0. -1.
         11   -1    0    0    0    0 -0.00000000000E+00 -0.00000000000E+00 -0.45593999997E+02  0.45594000000E+02  0.51100000000E-03 0.  1.
    9900012    2    1    2    0    0 -0.12879630695E+02  0.32466958702E+02 -0.28445129234E+02  0.46142315730E+02  0.99999814795E+01 0.  0.
         12    1    1    2    0    0  0.12879630695E+02 -0.32466958702E+02  0.28445129234E+02  0.45045684270E+02  0.00000000000E+00 0. -1.
         11    1    3    3    0    0 -0.57251535142E+01  0.18243388419E+02 -0.16867317485E+02  0.25497156767E+02  0.51100000000E-03 0. -1.
        -11    1    3    3    0    0 -0.63509054824E+01  0.14737841392E+02 -0.10373863922E+02  0.19109029862E+02  0.51100000000E-03 0.  1.
         12    1    3    3    0    0 -0.80357169814E+00 -0.51427110856E+00 -0.12039478265E+01  0.15361291014E+01  0.00000000000E+00 0. -1.
</event>
<event>
 7    1  0.2097247E-008  0.4614232E+02  0.7816164E-02  0.1320468E+00
        -11   -1    0    0    0    0  0.00000000000E+00  0.00000000000E+00  0.45593999997E+02  0.45594000000E+02  0.51100000000E-03 0.  1.
         11   -1    0    0    0    0 -0.00000000000E+00 -0.00000000000E+00 -0.45593999997E+02  0.45594000000E+02  0.51100000000E-03 0. -1.
    9900012    2    1    2    0    0  0.20689527688E+02  0.18598660229E+02  0.35428051061E+02  0.46142317407E+02  0.99999967707E+01 0.  0.
         12    1    1    2    0    0 -0.20689527688E+02 -0.18598660229E+02 -0.35428051061E+02  0.45045682593E+02  0.00000000000E+00 0. -1.
         11    1    3    3    0    0  0.72177800268E+01  0.20201482606E+01  0.90837296483E+01  0.11776735205E+02  0.51100000000E-03 0. -1.
        -11    1    3    3    0    0  0.29077242368E+01  0.29876578277E+01  0.90529217514E+01  0.99667623645E+01  0.51100000000E-03 0.  1.
         12    1    3    3    0    0  0.10564023425E+02  0.13590854141E+02  0.17291399661E+02  0.24398819837E+02  0.00000000000E+00 0. -1.
</event>
<event>
 7    1  0.2097247E-008  0.4614232E+02  0.7816164E-02  0.1320468E+00
        -11   -1    0    0    0    0  0.00000000000E+00  0.00000000000E+00  0.45593999997E+02  0.45594000000E+02  0.51100000000E-03 0.  1.
         11   -1    0    0    0    0 -0.00000000000E+00 -0.00000000000E+00 -0.45593999997E+02  0.45594000000E+02  0.51100000000E-03 0. -1.
    9900012    2    1    2    0    0 -0.21983459931E+01 -0.12610490007E+02  0.43188613577E+02  0.46142317344E+02  0.99999961922E+01 0.  0.
         12    1    1    2    0    0  0.21983459931E+01  0.12610490007E+02 -0.43188613577E+02  0.45045682656E+02  0.00000000000E+00 0. -1.
         11    1    3    3    0    0  0.24929066936E+00 -0.27974885317E+01  0.31043637397E+01  0.41863065359E+01  0.51100000000E-03 0. -1.
        -11    1    3    3    0    0  0.22943032917E+01 -0.52429570354E+01  0.16234354761E+02  0.17213561538E+02  0.51100000000E-03 0.  1.
        -12    1    3    3    0    0 -0.47419399542E+01 -0.45700444397E+01  0.23849895076E+02  0.24742449270E+02  0.00000000000E+00 0.  1.
</event>
<event>
 7    1  0.2097247E-008  0.4614232E+02  0.7816164E-02  0.1320468E+00
        -11   -1    0    0    0    0  0.00000000000E+00  0.00000000000E+00  0.45593999997E+02  0.45594000000E+02  0.51100000000E-03 0.  1.
         11   -1    0    0    0    0 -0.00000000000E+00 -0.00000000000E+00 -0.45593999997E+02  0.45594000000E+02  0.51100000000E-03 0. -1.
    9900012    2    1    2    0    0 -0.40672333855E+02  0.19211961831E+02  0.24031819013E+01  0.46142317611E+02  0.99999986316E+01 0.  0.
         12    1    1    2    0    0  0.40672333855E+02 -0.19211961831E+02 -0.24031819013E+01  0.45045682389E+02  0.00000000000E+00 0. -1.
         11    1    3    3    0    0 -0.10367865873E+02  0.13686293120E+01  0.91786691118E+00  0.10498012616E+02  0.51100000000E-03 0. -1.
        -11    1    3    3    0    0 -0.16849163108E+01  0.24562174701E+01  0.10163187003E+01  0.31471973558E+01  0.51100000000E-03 0.  1.
         12    1    3    3    0    0 -0.28619551672E+02  0.15387115049E+02  0.46899628984E+00  0.32497107640E+02  0.00000000000E+00 0. -1.
</event>
<event>
 7    1  0.2097247E-008  0.4614232E+02  0.7816164E-02  0.1320468E+00
        -11   -1    0    0    0    0  0.00000000000E+00  0.00000000000E+00  0.45593999997E+02  0.45594000000E+02  0.51100000000E-03 0.  1.
         11   -1    0    0    0    0 -0.00000000000E+00 -0.00000000000E+00 -0.45593999997E+02  0.45594000000E+02  0.51100000000E-03 0. -1.
    9900012    2    1    2    0    0 -0.29535056145E+02  0.16593342470E+02  0.29689307650E+02  0.46142317137E+02  0.99999943097E+01 0.  0.
         12    1    1    2    0    0  0.29535056145E+02 -0.16593342470E+02 -0.29689307650E+02  0.45045682863E+02  0.00000000000E+00 0. -1.
         11    1    3    3    0    0 -0.10579988041E+02  0.32896471324E+01  0.11461940945E+02  0.15941581342E+02  0.51100000000E-03 0. -1.
        -11    1    3    3    0    0 -0.54029096680E+01  0.38022729566E+01  0.92637130679E+01  0.11378272830E+02  0.51100000000E-03 0.  1.
        -12    1    3    3    0    0 -0.13552158437E+02  0.95014223812E+01  0.89636536369E+01  0.18822462965E+02  0.00000000000E+00 0.  1.
</event>
<event>
 7    1  0.2097247E-008  0.4614231E+02  0.7816164E-02  0.1320468E+00
        -11   -1    0    0    0    0  0.00000000000E+00  0.00000000000E+00  0.45593999997E+02  0.45594000000E+02  0.51100000000E-03 0.  1.
         11   -1    0    0    0    0 -0.00000000000E+00 -0.00000000000E+00 -0.45593999997E+02  0.45594000000E+02  0.51100000000E-03 0. -1.
    9900012    2    1    2    0    0 -0.23895448553E+02 -0.19986421768E+02  0.32537122827E+02  0.46142313431E+02  0.99999605166E+01 0.  0.
         12    1    1    2    0    0  0.23895448553E+02  0.19986421768E+02 -0.32537122827E+02  0.45045686569E+02  0.00000000000E+00 0. -1.
         11    1    3    3    0    0 -0.48927990147E+01 -0.92676234408E+01  0.79061113280E+01  0.13127639660E+02  0.51100000000E-03 0. -1.
        -11    1    3    3    0    0 -0.73601026165E+01 -0.31366311786E+01  0.10459103406E+02  0.13168234885E+02  0.51100000000E-03 0.  1.
        -12    1    3    3    0    0 -0.11642546922E+02 -0.75821671485E+01  0.14171908093E+02  0.19846438887E+02  0.00000000000E+00 0.  1.
</event>
<event>
 7    1  0.2097247E-008  0.4614232E+02  0.7816164E-02  0.1320468E+00
        -11   -1    0    0    0    0  0.00000000000E+00  0.00000000000E+00  0.45593999997E+02  0.45594000000E+02  0.51100000000E-03 0.  1.
         11   -1    0    0    0    0 -0.00000000000E+00 -0.00000000000E+00 -0.45593999997E+02  0.45594000000E+02  0.51100000000E-03 0. -1.
    9900012    2    1    2    0    0  0.39666043482E+01  0.41899778115E+02  0.16055781164E+02  0.46142318022E+02  0.10000002375E+02 0.  0.
         12    1    1    2    0    0 -0.39666043482E+01 -0.41899778115E+02 -0.16055781164E+02  0.45045681978E+02  0.00000000000E+00 0. -1.
         11    1    3    3    0    0  0.14520799807E+01  0.25421703583E+02  0.83467209051E+01  0.26796255325E+02  0.51100000000E-03 0. -1.
        -11    1    3    3    0    0  0.22557815253E+01  0.97131755028E+01  0.13584822768E+01  0.10063786713E+02  0.51100000000E-03 0.  1.
         12    1    3    3    0    0  0.25874284213E+00  0.67648990287E+01  0.63505779823E+01  0.92822759837E+01  0.00000000000E+00 0. -1.
</event>
<event>
 7    1  0.2097247E-008  0.4614232E+02  0.7816164E-02  0.1320468E+00
        -11   -1    0    0    0    0  0.00000000000E+00  0.00000000000E+00  0.45593999997E+02  0.45594000000E+02  0.51100000000E-03 0. -1.
         11   -1    0    0    0    0 -0.00000000000E+00 -0.00000000000E+00 -0.45593999997E+02  0.45594000000E+02  0.51100000000E-03 0.  1.
    9900012    2    1    2    0    0 -0.24886863648E+02  0.18084518313E+02 -0.32904524683E+02  0.46142317305E+02  0.99999958419E+01 0.  0.
         12    1    1    2    0    0  0.24886863648E+02 -0.18084518313E+02  0.32904524683E+02  0.45045682695E+02  0.00000000000E+00 0. -1.
         11    1    3    3    0    0 -0.34396464150E+00  0.18612532353E+01 -0.56180609124E+00  0.19743863922E+01  0.51100000000E-03 0. -1.
        -11    1    3    3    0    0 -0.13734710871E+02  0.82101140083E+01 -0.13056976590E+02  0.20652672773E+02  0.51100000000E-03 0.  1.
         12    1    3    3    0    0 -0.10808188136E+02  0.80131510692E+01 -0.19285742002E+02  0.23515258140E+02  0.00000000000E+00 0. -1.
</event>
<event>
 7    1  0.2097247E-008  0.4614232E+02  0.7816164E-02  0.1320468E+00
        -11   -1    0    0    0    0  0.00000000000E+00  0.00000000000E+00  0.45593999997E+02  0.45594000000E+02  0.51100000000E-03 0. -1.
         11   -1    0    0    0    0 -0.00000000000E+00 -0.00000000000E+00 -0.45593999997E+02  0.45594000000E+02  0.51100000000E-03 0.  1.
    9900012    2    1    2    0    0 -0.33190616613E+02 -0.22525352411E+02  0.20496463712E+02  0.46142316998E+02  0.99999930412E+01 0.  0.
         12    1    1    2    0    0  0.33190616613E+02  0.22525352411E+02 -0.20496463712E+02  0.45045683002E+02  0.00000000000E+00 0. -1.
         11    1    3    3    0    0 -0.50492112648E+01 -0.12027505034E+01  0.15608718840E+01  0.54200981974E+01  0.51100000000E-03 0. -1.
        -11    1    3    3    0    0 -0.77231005248E+01 -0.21618336931E+01  0.35198622077E+01  0.87583809494E+01  0.51100000000E-03 0.  1.
        -12    1    3    3    0    0 -0.20418304824E+02 -0.19160768215E+02  0.15415729620E+02  0.31963837851E+02  0.00000000000E+00 0.  1.
</event>
<event>
 7    1  0.2097247E-008  0.4614232E+02  0.7816164E-02  0.1320468E+00
        -11   -1    0    0    0    0  0.00000000000E+00  0.00000000000E+00  0.45593999997E+02  0.45594000000E+02  0.51100000000E-03 0. -1.
         11   -1    0    0    0    0 -0.00000000000E+00 -0.00000000000E+00 -0.45593999997E+02  0.45594000000E+02  0.51100000000E-03 0.  1.
    9900012    2    1    2    0    0 -0.75495396271E+01  0.14014870365E+02 -0.42139071200E+02  0.46142318059E+02  0.10000002715E+02 0.  0.
         12    1    1    2    0    0  0.75495396271E+01 -0.14014870365E+02  0.42139071200E+02  0.45045681941E+02  0.00000000000E+00 0. -1.
         11    1    3    3    0    0 -0.22494287635E+01 -0.63412296074E+00 -0.46887820047E+01  0.52389615994E+01  0.51100000000E-03 0. -1.
        -11    1    3    3    0    0 -0.59248506704E+01  0.90716855464E+01 -0.24926483573E+02  0.27179568019E+02  0.51100000000E-03 0.  1.
         12    1    3    3    0    0  0.62473980672E+00  0.55773077792E+01 -0.12523805623E+02  0.13723788441E+02  0.00000000000E+00 0. -1.
</event>
<event>
 7    1  0.2097247E-008  0.4614232E+02  0.7816164E-02  0.1320468E+00
        -11   -1    0    0    0    0  0.00000000000E+00  0.00000000000E+00  0.45593999997E+02  0.45594000000E+02  0.51100000000E-03 0.  1.
         11   -1    0    0    0    0 -0.00000000000E+00 -0.00000000000E+00 -0.45593999997E+02  0.45594000000E+02  0.51100000000E-03 0. -1.
    9900012    2    1    2    0    0 -0.12785823409E+02 -0.22262694052E+02  0.37013627397E+02  0.46142318301E+02  0.10000004920E+02 0.  0.
         12    1    1    2    0    0  0.12785823409E+02  0.22262694052E+02 -0.37013627397E+02  0.45045681699E+02  0.00000000000E+00 0. -1.
         11    1    3    3    0    0  0.49231648600E+00  0.58736752382E+00  0.14630451314E+01  0.16516287259E+01  0.51100000000E-03 0. -1.
        -11    1    3    3    0    0  0.12706999976E+00 -0.11231057778E+00  0.98498511891E+00  0.99947806194E+00  0.51100000000E-03 0.  1.
        -12    1    3    3    0    0 -0.13405209895E+02 -0.22737750998E+02  0.34565597147E+02  0.43491211513E+02  0.00000000000E+00 0.  1.
</event>
<event>
 7    1  0.2097247E-008  0.4614232E+02  0.7816164E-02  0.1320468E+00
        -11   -1    0    0    0    0  0.00000000000E+00  0.00000000000E+00  0.45593999997E+02  0.45594000000E+02  0.51100000000E-03 0. -1.
         11   -1    0    0    0    0 -0.00000000000E+00 -0.00000000000E+00 -0.45593999997E+02  0.45594000000E+02  0.51100000000E-03 0.  1.
    9900012    2    1    2    0    0  0.36222602773E+02  0.94292249666E+01 -0.25062447159E+02  0.46142317713E+02  0.99999995648E+01 0.  0.
         12    1    1    2    0    0 -0.36222602773E+02 -0.94292249666E+01  0.25062447159E+02  0.45045682287E+02  0.00000000000E+00 0. -1.
         11    1    3    3    0    0  0.13802152120E+01 -0.11112382282E+01 -0.11552143900E+01  0.21152694814E+01  0.51100000000E-03 0. -1.
        -11    1    3    3    0    0  0.10089775293E+02  0.58157876525E+00 -0.46649174501E+01  0.11131183872E+02  0.51100000000E-03 0.  1.
        -12    1    3    3    0    0  0.24752612268E+02  0.99588844296E+01 -0.19242315319E+02  0.32895864360E+02  0.00000000000E+00 0.  1.
</event>
<event>
 7    1  0.2097247E-008  0.4614232E+02  0.7816164E-02  0.1320468E+00
        -11   -1    0    0    0    0  0.00000000000E+00  0.00000000000E+00  0.45593999997E+02  0.45594000000E+02  0.51100000000E-03 0.  1.
         11   -1    0    0    0    0 -0.00000000000E+00 -0.00000000000E+00 -0.45593999997E+02  0.45594000000E+02  0.51100000000E-03 0. -1.
    9900012    2    1    2    0    0  0.26645049384E+02  0.33546674220E+02  0.13920328665E+02  0.46142316988E+02  0.99999929510E+01 0.  0.
         12    1    1    2    0    0 -0.26645049384E+02 -0.33546674220E+02 -0.13920328665E+02  0.45045683012E+02  0.00000000000E+00 0. -1.
         11    1    3    3    0    0  0.20485557943E+01  0.32316258213E+01 -0.20426270240E+00  0.38316719333E+01  0.51100000000E-03 0. -1.
        -11    1    3    3    0    0  0.89760429543E+01  0.74075311619E+01  0.11374746682E+01  0.11693361959E+02  0.51100000000E-03 0.  1.
        -12    1    3    3    0    0  0.15620450635E+02  0.22907517236E+02  0.12987116699E+02  0.30617283095E+02  0.00000000000E+00 0.  1.
</event>
<event>
 7    1  0.2097247E-008  0.4614232E+02  0.7816164E-02  0.1320468E+00
        -11   -1    0    0    0    0  0.00000000000E+00  0.00000000000E+00  0.45593999997E+02  0.45594000000E+02  0.51100000000E-03 0.  1.
         11   -1    0    0    0    0 -0.00000000000E+00 -0.00000000000E+00 -0.45593999997E+02  0.45594000000E+02  0.51100000000E-03 0. -1.
    9900012    2    1    2    0    0 -0.43925366367E+02  0.62772743174E+01  0.77634776124E+01  0.46142316878E+02  0.99999919439E+01 0.  0.
         12    1    1    2    0    0  0.43925366367E+02 -0.62772743174E+01 -0.77634776124E+01  0.45045683122E+02  0.00000000000E+00 0. -1.
         11    1    3    3    0    0 -0.49582819695E+01 -0.11965323147E+01 -0.26317557540E+00  0.51073977047E+01  0.51100000000E-03 0. -1.
        -11    1    3    3    0    0 -0.22298095667E+02  0.74965205289E+01  0.37017159124E+01  0.23813978907E+02  0.51100000000E-03 0.  1.
        -12    1    3    3    0    0 -0.16668988731E+02 -0.22713896757E-01  0.43249372755E+01  0.17220940266E+02  0.00000000000E+00 0.  1.
</event>
<event>
 7    1  0.2097247E-008  0.4614232E+02  0.7816164E-02  0.1320468E+00
        -11   -1    0    0    0    0  0.00000000000E+00  0.00000000000E+00  0.45593999997E+02  0.45594000000E+02  0.51100000000E-03 0.  1.
         11   -1    0    0    0    0 -0.00000000000E+00 -0.00000000000E+00 -0.45593999997E+02  0.45594000000E+02  0.51100000000E-03 0. -1.
    9900012    2    1    2    0    0 -0.35486347912E+02  0.21414733233E+02  0.17642045543E+02  0.46142318093E+02  0.10000003026E+02 0.  0.
         12    1    1    2    0    0  0.35486347912E+02 -0.21414733233E+02 -0.17642045543E+02  0.45045681907E+02  0.00000000000E+00 0. -1.
         11    1    3    3    0    0 -0.66052096731E+01  0.34849032920E+01  0.46781499761E+01  0.88124022400E+01  0.51100000000E-03 0. -1.
        -11    1    3    3    0    0 -0.22975862061E+02  0.17430922062E+02  0.90440096934E+01  0.30224516423E+02  0.51100000000E-03 0.  1.
         12    1    3    3    0    0 -0.59052761777E+01  0.49890787872E+00  0.39198858731E+01  0.71053994303E+01  0.00000000000E+00 0. -1.
</event>
<event>
 7    1  0.2097247E-008  0.4614232E+02  0.7816164E-02  0.1320468E+00
        -11   -1    0    0    0    0  0.00000000000E+00  0.00000000000E+00  0.45593999997E+02  0.45594000000E+02  0.51100000000E-03 0.  1.
         11   -1    0    0    0    0 -0.00000000000E+00 -0.00000000000E+00 -0.45593999997E+02  0.45594000000E+02  0.51100000000E-03 0. -1.
    9900012    2    1    2    0    0  0.30374629562E+02  0.21188559730E+02  0.25642551138E+02  0.46142316374E+02  0.99999873504E+01 0.  0.
         12    1    1    2    0    0 -0.30374629562E+02 -0.21188559730E+02 -0.25642551138E+02  0.45045683626E+02  0.00000000000E+00 0. -1.
         11    1    3    3    0    0  0.41918922757E+01  0.73599340693E+01  0.48213655995E+01  0.97460841809E+01  0.51100000000E-03 0. -1.
        -11    1    3    3    0    0  0.11134306400E+02  0.42576561885E+01  0.97961142173E+01  0.15429331458E+02  0.51100000000E-03 0.  1.
        -12    1    3    3    0    0  0.15048430887E+02  0.95709694725E+01  0.11025071321E+02  0.20966900735E+02  0.00000000000E+00 0.  1.
</event>
<event>
 7    1  0.2097247E-008  0.4614232E+02  0.7816164E-02  0.1320468E+00
        -11   -1    0    0    0    0  0.00000000000E+00  0.00000000000E+00  0.45593999997E+02  0.45594000000E+02  0.51100000000E-03 0. -1.
         11   -1    0    0    0    0 -0.00000000000E+00 -0.00000000000E+00 -0.45593999997E+02  0.45594000000E+02  0.51100000000E-03 0.  1.
    9900012    2    1    2    0    0  0.11287770629E+02 -0.40838645916E+02 -0.15293942675E+02  0.46142318203E+02  0.10000004032E+02 0.  0.
         12    1    1    2    0    0 -0.11287770629E+02  0.40838645916E+02  0.15293942675E+02  0.45045681797E+02  0.00000000000E+00 0. -1.
         11    1    3    3    0    0  0.21459780871E+00 -0.90421072622E+01 -0.25580037774E+01  0.93994222986E+01  0.51100000000E-03 0. -1.
        -11    1    3    3    0    0  0.32663913346E+01 -0.55435816619E+01 -0.53694841094E+01  0.83804516498E+01  0.51100000000E-03 0.  1.
        -12    1    3    3    0    0  0.78067814853E+01 -0.26252956992E+02 -0.73664547879E+01  0.28362444255E+02  0.00000000000E+00 0.  1.
</event>
<event>
 7    1  0.2097247E-008  0.4614232E+02  0.7816164E-02  0.1320468E+00
        -11   -1    0    0    0    0  0.00000000000E+00  0.00000000000E+00  0.45593999997E+02  0.45594000000E+02  0.51100000000E-03 0.  1.
         11   -1    0    0    0    0 -0.00000000000E+00 -0.00000000000E+00 -0.45593999997E+02  0.45594000000E+02  0.51100000000E-03 0. -1.
    9900012    2    1    2    0    0 -0.78499684797E+01  0.34840912128E+01  0.44219368671E+02  0.46142318049E+02  0.10000002629E+02 0.  0.
         12    1    1    2    0    0  0.78499684797E+01 -0.34840912128E+01 -0.44219368671E+02  0.45045681951E+02  0.00000000000E+00 0. -1.
         11    1    3    3    0    0 -0.14078869776E+01 -0.14811331507E+01  0.42550832393E+01  0.47203426555E+01  0.51100000000E-03 0. -1.
        -11    1    3    3    0    0 -0.24957645362E+01 -0.60690538468E+00  0.22880430013E+02  0.23024144992E+02  0.51100000000E-03 0.  1.
        -12    1    3    3    0    0 -0.39463169660E+01  0.55721297481E+01  0.17083855419E+02  0.18397830402E+02  0.00000000000E+00 0.  1.
</event>
<event>
 7    1  0.2097247E-008  0.4614231E+02  0.7816164E-02  0.1320468E+00
        -11   -1    0    0    0    0  0.00000000000E+00  0.00000000000E+00  0.45593999997E+02  0.45594000000E+02  0.51100000000E-03 0. -1.
         11   -1    0    0    0    0 -0.00000000000E+00 -0.00000000000E+00 -0.45593999997E+02  0.45594000000E+02  0.51100000000E-03 0.  1.
    9900012    2    1    2    0    0  0.95476846477E+01 -0.59822288270E+01 -0.43613863987E+02  0.46142306801E+02  0.99999000595E+01 0.  0.
         12    1    1    2    0    0 -0.95476846477E+01  0.59822288270E+01  0.43613863987E+02  0.45045693199E+02  0.00000000000E+00 0. -1.
         11    1    3    3    0    0  0.64730696396E+01 -0.80635280045E+01 -0.35426309623E+02  0.36904532624E+02  0.51100000000E-03 0.  1.
        -11    1    3    3    0    0  0.62835557660E+00  0.20606895798E+00 -0.22346430315E+00  0.69801984356E+00  0.51100000000E-03 0. -1.
        -12    1    3    3    0    0  0.24462594315E+01  0.18752302195E+01 -0.79640900612E+01  0.85397543340E+01  0.00000000000E+00 0.  1.
</event>
<event>
 7    1  0.2097247E-008  0.4614232E+02  0.7816164E-02  0.1320468E+00
        -11   -1    0    0    0    0  0.00000000000E+00  0.00000000000E+00  0.45593999997E+02  0.45594000000E+02  0.51100000000E-03 0.  1.
         11   -1    0    0    0    0 -0.00000000000E+00 -0.00000000000E+00 -0.45593999997E+02  0.45594000000E+02  0.51100000000E-03 0. -1.
    9900012    2    1    2    0    0 -0.28746281842E+02 -0.14229333542E+02  0.31627376055E+02  0.46142316867E+02  0.99999918487E+01 0.  0.
         12    1    1    2    0    0  0.28746281842E+02  0.14229333542E+02 -0.31627376055E+02  0.45045683133E+02  0.00000000000E+00 0. -1.
         11    1    3    3    0    0 -0.14170313006E+02 -0.31656604794E+01  0.17396062837E+02  0.22659262554E+02  0.51100000000E-03 0. -1.
        -11    1    3    3    0    0 -0.49198930391E+01 -0.18557135779E+01  0.30789118929E+01  0.60933339892E+01  0.51100000000E-03 0.  1.
         12    1    3    3    0    0 -0.96560757965E+01 -0.92079594843E+01  0.11152401325E+02  0.17389720324E+02  0.00000000000E+00 0. -1.
</event>
<event>
 7    1  0.2097247E-008  0.4614232E+02  0.7816164E-02  0.1320468E+00
        -11   -1    0    0    0    0  0.00000000000E+00  0.00000000000E+00  0.45593999997E+02  0.45594000000E+02  0.51100000000E-03 0. -1.
         11   -1    0    0    0    0 -0.00000000000E+00 -0.00000000000E+00 -0.45593999997E+02  0.45594000000E+02  0.51100000000E-03 0.  1.
    9900012    2    1    2    0    0  0.13313584257E+02  0.24555919765E+02 -0.35339339088E+02  0.46142316429E+02  0.99999878486E+01 0.  0.
         12    1    1    2    0    0 -0.13313584257E+02 -0.24555919765E+02  0.35339339088E+02  0.45045683571E+02  0.00000000000E+00 0. -1.
         11    1    3    3    0    0  0.41500412966E+01  0.35215173480E+01 -0.95814946112E+01  0.11019481224E+02  0.51100000000E-03 0. -1.
        -11    1    3    3    0    0  0.53753029335E+01  0.58417739394E+01 -0.62205277964E+01  0.10085393929E+02  0.51100000000E-03 0.  1.
        -12    1    3    3    0    0  0.37882400268E+01  0.15192628477E+02 -0.19537316680E+02  0.25037441275E+02  0.00000000000E+00 0.  1.
</event>
<event>
 7    1  0.2097247E-008  0.4614232E+02  0.7816164E-02  0.1320468E+00
        -11   -1    0    0    0    0  0.00000000000E+00  0.00000000000E+00  0.45593999997E+02  0.45594000000E+02  0.51100000000E-03 0.  1.
         11   -1    0    0    0    0 -0.00000000000E+00 -0.00000000000E+00 -0.45593999997E+02  0.45594000000E+02  0.51100000000E-03 0. -1.
    9900012    2    1    2    0    0  0.31041427652E+02  0.69552931324E+01  0.31893057630E+02  0.46142318095E+02  0.10000003048E+02 0.  0.
         12    1    1    2    0    0 -0.31041427652E+02 -0.69552931324E+01 -0.31893057630E+02  0.45045681905E+02  0.00000000000E+00 0. -1.
         11    1    3    3    0    0  0.10612171065E+02  0.98341687080E+00  0.81318442145E+01  0.13405676933E+02  0.51100000000E-03 0. -1.
        -11    1    3    3    0    0  0.74893941795E+01  0.58256856450E+01  0.11508168292E+02  0.14915346999E+02  0.51100000000E-03 0.  1.
        -12    1    3    3    0    0  0.12939862408E+02  0.14619061668E+00  0.12253045124E+02  0.17821294163E+02  0.00000000000E+00 0.  1.
</event>
<event>
 7    1  0.2097247E-008  0.4614232E+02  0.7816164E-02  0.1320468E+00
        -11   -1    0    0    0    0  0.00000000000E+00  0.00000000000E+00  0.45593999997E+02  0.45594000000E+02  0.51100000000E-03 0.  1.
         11   -1    0    0    0    0 -0.00000000000E+00 -0.00000000000E+00 -0.45593999997E+02  0.45594000000E+02  0.51100000000E-03 0. -1.
    9900012    2    1    2    0    0  0.32392527541E+01  0.27920149890E+02  0.35200653325E+02  0.46142317379E+02  0.99999965162E+01 0.  0.
         12    1    1    2    0    0 -0.32392527541E+01 -0.27920149890E+02 -0.35200653325E+02  0.45045682621E+02  0.00000000000E+00 0. -1.
         11    1    3    3    0    0 -0.38379676827E+00  0.19048172922E+01  0.73451137966E+01  0.75977842706E+01  0.51100000000E-03 0.  1.
        -11    1    3    3    0    0  0.39991802857E+00  0.41595169120E+01  0.70628291422E+01  0.82064042749E+01  0.51100000000E-03 0. -1.
        -12    1    3    3    0    0  0.32231314938E+01  0.21855815686E+02  0.20792710386E+02  0.30338128834E+02  0.00000000000E+00 0.  1.
</event>
<event>
 7    1  0.2097247E-008  0.4614232E+02  0.7816164E-02  0.1320468E+00
        -11   -1    0    0    0    0  0.00000000000E+00  0.00000000000E+00  0.45593999997E+02  0.45594000000E+02  0.51100000000E-03 0. -1.
         11   -1    0    0    0    0 -0.00000000000E+00 -0.00000000000E+00 -0.45593999997E+02  0.45594000000E+02  0.51100000000E-03 0.  1.
    9900012    2    1    2    0    0 -0.29846804179E+02 -0.71796289974E+01 -0.32965659168E+02  0.46142317892E+02  0.10000001190E+02 0.  0.
         12    1    1    2    0    0  0.29846804179E+02  0.71796289974E+01  0.32965659168E+02  0.45045682108E+02  0.00000000000E+00 0. -1.
         11    1    3    3    0    0 -0.14613412968E+02 -0.12167703901E+01 -0.16960806011E+02  0.22421001529E+02  0.51100000000E-03 0.  1.
        -11    1    3    3    0    0 -0.10639152208E+02 -0.12315422688E+01 -0.11613551855E+02  0.15798191131E+02  0.51100000000E-03 0. -1.
         12    1    3    3    0    0 -0.45942390033E+01 -0.47313163385E+01 -0.43913013020E+01  0.79231252318E+01  0.00000000000E+00 0. -1.
</event>
<event>
 7    1  0.2097247E-008  0.4614232E+02  0.7816164E-02  0.1320468E+00
        -11   -1    0    0    0    0  0.00000000000E+00  0.00000000000E+00  0.45593999997E+02  0.45594000000E+02  0.51100000000E-03 0.  1.
         11   -1    0    0    0    0 -0.00000000000E+00 -0.00000000000E+00 -0.45593999997E+02  0.45594000000E+02  0.51100000000E-03 0. -1.
    9900012    2    1    2    0    0  0.33335008347E+02 -0.29520458115E+02  0.68142005965E+01  0.46142316982E+02  0.99999928920E+01 0.  0.
         12    1    1    2    0    0 -0.33335008347E+02  0.29520458115E+02 -0.68142005965E+01  0.45045683018E+02  0.00000000000E+00 0. -1.
         11    1    3    3    0    0  0.66538815616E+00 -0.87370794165E+00  0.11559013719E+01  0.15944325662E+01  0.51100000000E-03 0. -1.
        -11    1    3    3    0    0  0.85675656441E+01 -0.12073731945E+02  0.35341808624E+01  0.15220664203E+02  0.51100000000E-03 0.  1.
        -12    1    3    3    0    0  0.24102054547E+02 -0.16573018228E+02  0.21241183623E+01  0.29327220212E+02  0.00000000000E+00 0.  1.
</event>
<event>
 7    1  0.2097247E-008  0.4614232E+02  0.7816164E-02  0.1320468E+00
        -11   -1    0    0    0    0  0.00000000000E+00  0.00000000000E+00  0.45593999997E+02  0.45594000000E+02  0.51100000000E-03 0.  1.
         11   -1    0    0    0    0 -0.00000000000E+00 -0.00000000000E+00 -0.45593999997E+02  0.45594000000E+02  0.51100000000E-03 0. -1.
    9900012    2    1    2    0    0 -0.36380319247E+02 -0.73814971316E+01 -0.25516648591E+02  0.46142317813E+02  0.10000000471E+02 0.  0.
         12    1    1    2    0    0  0.36380319247E+02  0.73814971316E+01  0.25516648591E+02  0.45045682187E+02  0.00000000000E+00 0. -1.
         11    1    3    3    0    0 -0.23047334003E+02 -0.83518578349E+01 -0.14802401983E+02  0.28636414557E+02  0.51100000000E-03 0.  1.
        -11    1    3    3    0    0 -0.34706566008E+00 -0.66872513517E+00 -0.64867959705E+00  0.99419985896E+00  0.51100000000E-03 0. -1.
        -12    1    3    3    0    0 -0.12985919584E+02  0.16390858384E+01 -0.10065567011E+02  0.16511703397E+02  0.00000000000E+00 0.  1.
</event>
<event>
 7    1  0.2097247E-008  0.4614232E+02  0.7816164E-02  0.1320468E+00
        -11   -1    0    0    0    0  0.00000000000E+00  0.00000000000E+00  0.45593999997E+02  0.45594000000E+02  0.51100000000E-03 0.  1.
         11   -1    0    0    0    0 -0.00000000000E+00 -0.00000000000E+00 -0.45593999997E+02  0.45594000000E+02  0.51100000000E-03 0. -1.
    9900012    2    1    2    0    0  0.14250353872E+02 -0.33980188818E+02 -0.25911148798E+02  0.46142318191E+02  0.10000003923E+02 0.  0.
         12    1    1    2    0    0 -0.14250353872E+02  0.33980188818E+02  0.25911148798E+02  0.45045681809E+02  0.00000000000E+00 0. -1.
         11    1    3    3    0    0  0.33781536365E+01 -0.47249958403E+01 -0.36296082804E+01  0.68492017208E+01  0.51100000000E-03 0. -1.
        -11    1    3    3    0    0  0.10064288538E+02 -0.19447734264E+02 -0.18780898797E+02  0.28848334989E+02  0.51100000000E-03 0.  1.
         12    1    3    3    0    0  0.80791169805E+00 -0.98074587138E+01 -0.35006417202E+01  0.10444781481E+02  0.00000000000E+00 0. -1.
</event>
<event>
 7    1  0.2097247E-008  0.4614232E+02  0.7816164E-02  0.1320468E+00
        -11   -1    0    0    0    0  0.00000000000E+00  0.00000000000E+00  0.45593999997E+02  0.45594000000E+02  0.51100000000E-03 0.  1.
         11   -1    0    0    0    0 -0.00000000000E+00 -0.00000000000E+00 -0.45593999997E+02  0.45594000000E+02  0.51100000000E-03 0. -1.
    9900012    2    1    2    0    0 -0.65792588626E+01  0.36124900217E+02  0.26092497559E+02  0.46142317723E+02  0.99999996542E+01 0.  0.
         12    1    1    2    0    0  0.65792588626E+01 -0.36124900217E+02 -0.26092497559E+02  0.45045682277E+02  0.00000000000E+00 0. -1.
         11    1    3    3    0    0 -0.52320192546E+01  0.89500741009E+01  0.70488145372E+01  0.12536492274E+02  0.51100000000E-03 0. -1.
        -11    1    3    3    0    0  0.75264093142E+00  0.69057725491E+00  0.21752377560E+00  0.10443573003E+01  0.51100000000E-03 0.  1.
        -12    1    3    3    0    0 -0.20998805395E+01  0.26484248862E+02  0.18826159246E+02  0.32561468149E+02  0.00000000000E+00 0.  1.
</event>
<event>
 7    1  0.2097247E-008  0.4614232E+02  0.7816164E-02  0.1320468E+00
        -11   -1    0    0    0    0  0.00000000000E+00  0.00000000000E+00  0.45593999997E+02  0.45594000000E+02  0.51100000000E-03 0. -1.
         11   -1    0    0    0    0 -0.00000000000E+00 -0.00000000000E+00 -0.45593999997E+02  0.45594000000E+02  0.51100000000E-03 0.  1.
    9900012    2    1    2    0    0 -0.12974006859E+02  0.38815703793E+02 -0.18818337448E+02  0.46142317196E+02  0.99999948494E+01 0.  0.
         12    1    1    2    0    0  0.12974006859E+02 -0.38815703793E+02  0.18818337448E+02  0.45045682804E+02  0.00000000000E+00 0. -1.
         11    1    3    3    0    0 -0.37740856471E+01  0.30643253816E+01 -0.98718956807E+00  0.49606810037E+01  0.51100000000E-03 0. -1.
        -11    1    3    3    0    0 -0.38848819006E+01  0.12219733445E+02 -0.81121679859E+01  0.15173050535E+02  0.51100000000E-03 0.  1.
        -12    1    3    3    0    0 -0.53150393113E+01  0.23531644967E+02 -0.97189798939E+01  0.26008585658E+02  0.00000000000E+00 0.  1.
</event>
<event>
 7    1  0.2097247E-008  0.4614232E+02  0.7816164E-02  0.1320468E+00
        -11   -1    0    0    0    0  0.00000000000E+00  0.00000000000E+00  0.45593999997E+02  0.45594000000E+02  0.51100000000E-03 0. -1.
         11   -1    0    0    0    0 -0.00000000000E+00 -0.00000000000E+00 -0.45593999997E+02  0.45594000000E+02  0.51100000000E-03 0.  1.
    9900012    2    1    2    0    0 -0.25302651095E+02  0.66943316271E+01 -0.36661631606E+02  0.46142318072E+02  0.10000002833E+02 0.  0.
         12    1    1    2    0    0  0.25302651095E+02 -0.66943316271E+01  0.36661631606E+02  0.45045681928E+02  0.00000000000E+00 0. -1.
         11    1    3    3    0    0 -0.66200458969E+01  0.14267915574E+01 -0.14429315948E+02  0.15939444809E+02  0.51100000000E-03 0.  1.
        -11    1    3    3    0    0 -0.36672639997E+01  0.34073692431E+01 -0.34269671201E+01  0.60665553905E+01  0.51100000000E-03 0. -1.
         12    1    3    3    0    0 -0.15015341198E+02  0.18601708266E+01 -0.18805348538E+02  0.24136317872E+02  0.00000000000E+00 0. -1.
</event>
<event>
 7    1  0.2097247E-008  0.4614231E+02  0.7816164E-02  0.1320468E+00
        -11   -1    0    0    0    0  0.00000000000E+00  0.00000000000E+00  0.45593999997E+02  0.45594000000E+02  0.51100000000E-03 0.  1.
         11   -1    0    0    0    0 -0.00000000000E+00 -0.00000000000E+00 -0.45593999997E+02  0.45594000000E+02  0.51100000000E-03 0. -1.
    9900012    2    1    2    0    0 -0.16420756761E+02 -0.50298200072E+00  0.41943052098E+02  0.46142313605E+02  0.99999620983E+01 0.  0.
         12    1    1    2    0    0  0.16420756761E+02  0.50298200072E+00 -0.41943052098E+02  0.45045686395E+02  0.00000000000E+00 0. -1.
         11    1    3    3    0    0 -0.63994811697E+01 -0.16176131278E+00  0.84662434397E+01  0.10613990965E+02  0.51100000000E-03 0. -1.
        -11    1    3    3    0    0 -0.25324815502E+01  0.23207349670E+01  0.15449366691E+02  0.15826629616E+02  0.51100000000E-03 0.  1.
        -12    1    3    3    0    0 -0.74887940411E+01 -0.26619556549E+01  0.18027441968E+02  0.19701693023E+02  0.00000000000E+00 0.  1.
</event>
<event>
 7    1  0.2097247E-008  0.4614232E+02  0.7816164E-02  0.1320468E+00
        -11   -1    0    0    0    0  0.00000000000E+00  0.00000000000E+00  0.45593999997E+02  0.45594000000E+02  0.51100000000E-03 0. -1.
         11   -1    0    0    0    0 -0.00000000000E+00 -0.00000000000E+00 -0.45593999997E+02  0.45594000000E+02  0.51100000000E-03 0.  1.
    9900012    2    1    2    0    0 -0.19908289527E+02  0.37303358840E+02 -0.15531674790E+02  0.46142317694E+02  0.99999993864E+01 0.  0.
         12    1    1    2    0    0  0.19908289527E+02 -0.37303358840E+02  0.15531674790E+02  0.45045682306E+02  0.00000000000E+00 0. -1.
         11    1    3    3    0    0  0.69425305221E+00  0.71235499297E+00 -0.11264760714E-02  0.99470521592E+00  0.51100000000E-03 0. -1.
        -11    1    3    3    0    0 -0.13363950739E+02  0.28227888568E+02 -0.12814956240E+02  0.33758435628E+02  0.51100000000E-03 0.  1.
         12    1    3    3    0    0 -0.72385918405E+01  0.83631152789E+01 -0.27155920737E+01  0.11389176850E+02  0.00000000000E+00 0. -1.
</event>
<event>
 7    1  0.2097247E-008  0.4614232E+02  0.7816164E-02  0.1320468E+00
        -11   -1    0    0    0    0  0.00000000000E+00  0.00000000000E+00  0.45593999997E+02  0.45594000000E+02  0.51100000000E-03 0.  1.
         11   -1    0    0    0    0 -0.00000000000E+00 -0.00000000000E+00 -0.45593999997E+02  0.45594000000E+02  0.51100000000E-03 0. -1.
    9900012    2    1    2    0    0  0.20084372726E+02 -0.12414126910E+01  0.40301245507E+02  0.46142317380E+02  0.99999965214E+01 0.  0.
         12    1    1    2    0    0 -0.20084372726E+02  0.12414126910E+01 -0.40301245507E+02  0.45045682620E+02  0.00000000000E+00 0. -1.
         11    1    3    3    0    0  0.96601618366E+00 -0.14080405520E+01  0.97619660855E+00  0.19669076091E+01  0.51100000000E-03 0. -1.
        -11    1    3    3    0    0  0.21837764509E+01 -0.20695920240E+01  0.68610784852E+01  0.74917614067E+01  0.51100000000E-03 0.  1.
         12    1    3    3    0    0  0.16934580092E+02  0.22362198850E+01  0.32463970414E+02  0.36683648364E+02  0.00000000000E+00 0. -1.
</event>
<event>
 7    1  0.2097247E-008  0.4614232E+02  0.7816164E-02  0.1320468E+00
        -11   -1    0    0    0    0  0.00000000000E+00  0.00000000000E+00  0.45593999997E+02  0.45594000000E+02  0.51100000000E-03 0.  1.
         11   -1    0    0    0    0 -0.00000000000E+00 -0.00000000000E+00 -0.45593999997E+02  0.45594000000E+02  0.51100000000E-03 0. -1.
    9900012    2    1    2    0    0  0.16353581632E+01  0.16460913225E+01  0.44985879590E+02  0.46142319015E+02  0.10000011431E+02 0.  0.
         12    1    1    2    0    0 -0.16353581632E+01 -0.16460913225E+01 -0.44985879590E+02  0.45045680985E+02  0.00000000000E+00 0. -1.
         11    1    3    3    0    0 -0.17535480966E+01  0.22139851139E+01  0.94973504017E+01  0.99083967384E+01  0.51100000000E-03 0. -1.
        -11    1    3    3    0    0 -0.30878825419E+00  0.22774522869E+01  0.17495303002E+02  0.17645616070E+02  0.51100000000E-03 0.  1.
        -12    1    3    3    0    0  0.36976945140E+01 -0.28453460783E+01  0.17993226186E+02  0.18588306206E+02  0.00000000000E+00 0.  1.
</event>
<event>
 7    1  0.2097247E-008  0.4614232E+02  0.7816164E-02  0.1320468E+00
        -11   -1    0    0    0    0  0.00000000000E+00  0.00000000000E+00  0.45593999997E+02  0.45594000000E+02  0.51100000000E-03 0.  1.
         11   -1    0    0    0    0 -0.00000000000E+00 -0.00000000000E+00 -0.45593999997E+02  0.45594000000E+02  0.51100000000E-03 0. -1.
    9900012    2    1    2    0    0 -0.26200704778E+02 -0.27642513981E+01  0.36537592138E+02  0.46142315901E+02  0.99999830381E+01 0.  0.
         12    1    1    2    0    0  0.26200704778E+02  0.27642513981E+01 -0.36537592138E+02  0.45045684099E+02  0.00000000000E+00 0. -1.
         11    1    3    3    0    0 -0.15874370004E+02 -0.92660840408E-01  0.26634312964E+02  0.31006303172E+02  0.51100000000E-03 0. -1.
        -11    1    3    3    0    0 -0.16781966104E+01 -0.20885718407E+01  0.32323130111E+01  0.41983715724E+01  0.51100000000E-03 0.  1.
        -12    1    3    3    0    0 -0.86481381638E+01 -0.58301871695E+00  0.66709661637E+01  0.10937641157E+02  0.00000000000E+00 0.  1.
</event>
<event>
 7    1  0.2097247E-008  0.4614232E+02  0.7816164E-02  0.1320468E+00
        -11   -1    0    0    0    0  0.00000000000E+00  0.00000000000E+00  0.45593999997E+02  0.45594000000E+02  0.51100000000E-03 0.  1.
         11   -1    0    0    0    0 -0.00000000000E+00 -0.00000000000E+00 -0.45593999997E+02  0.45594000000E+02  0.51100000000E-03 0. -1.
    9900012    2    1    2    0    0  0.28274363638E+02 -0.23550190792E+02  0.25981961110E+02  0.46142318425E+02  0.10000006054E+02 0.  0.
         12    1    1    2    0    0 -0.28274363638E+02  0.23550190792E+02 -0.25981961110E+02  0.45045681575E+02  0.00000000000E+00 0. -1.
         11    1    3    3    0    0  0.10156488043E+02 -0.78458573461E+01  0.73006858075E+01  0.14765220635E+02  0.51100000000E-03 0. -1.
        -11    1    3    3    0    0  0.43751019387E+01 -0.17421200034E+01  0.65474034249E+00  0.47544909567E+01  0.51100000000E-03 0.  1.
        -12    1    3    3    0    0  0.13742773656E+02 -0.13962213442E+02  0.18026534960E+02  0.26622606834E+02  0.00000000000E+00 0.  1.
</event>
<event>
 7    1  0.2097247E-008  0.4614232E+02  0.7816164E-02  0.1320468E+00
        -11   -1    0    0    0    0  0.00000000000E+00  0.00000000000E+00  0.45593999997E+02  0.45594000000E+02  0.51100000000E-03 0. -1.
         11   -1    0    0    0    0 -0.00000000000E+00 -0.00000000000E+00 -0.45593999997E+02  0.45594000000E+02  0.51100000000E-03 0.  1.
    9900012    2    1    2    0    0 -0.23986252144E+02 -0.32391219833E+02 -0.20114225927E+02  0.46142317645E+02  0.99999989425E+01 0.  0.
         12    1    1    2    0    0  0.23986252144E+02  0.32391219833E+02  0.20114225927E+02  0.45045682355E+02  0.00000000000E+00 0. -1.
         11    1    3    3    0    0 -0.77633374133E-02 -0.27145585318E+00 -0.95340442823E+00  0.99132679502E+00  0.51100000000E-03 0. -1.
        -11    1    3    3    0    0 -0.17415868827E+02 -0.27297475416E+02 -0.12802971846E+02  0.34819258169E+02  0.51100000000E-03 0.  1.
        -12    1    3    3    0    0 -0.65626199791E+01 -0.48222885633E+01 -0.63578496527E+01  0.10331732681E+02  0.00000000000E+00 0.  1.
</event>
<event>
 7    1  0.2097247E-008  0.4614232E+02  0.7816164E-02  0.1320468E+00
        -11   -1    0    0    0    0  0.00000000000E+00  0.00000000000E+00  0.45593999997E+02  0.45594000000E+02  0.51100000000E-03 0.  1.
         11   -1    0    0    0    0 -0.00000000000E+00 -0.00000000000E+00 -0.45593999997E+02  0.45594000000E+02  0.51100000000E-03 0. -1.
    9900012    2    1    2    0    0  0.44601228320E+02  0.61437736846E+01  0.14484343559E+01  0.46142317801E+02  0.10000000361E+02 0.  0.
         12    1    1    2    0    0 -0.44601228320E+02 -0.61437736846E+01 -0.14484343559E+01  0.45045682199E+02  0.00000000000E+00 0. -1.
         11    1    3    3    0    0  0.16372742805E+01  0.15748691715E+01  0.10104537663E+01  0.24863421028E+01  0.51100000000E-03 0. -1.
        -11    1    3    3    0    0  0.21555673903E+02  0.34707606577E+01  0.31098748807E+01  0.22053674955E+02  0.51100000000E-03 0.  1.
         12    1    3    3    0    0  0.21408280136E+02  0.10981438553E+01 -0.26718942911E+01  0.21602300743E+02  0.00000000000E+00 0. -1.
</event>
<event>
 7    1  0.2097247E-008  0.4614232E+02  0.7816164E-02  0.1320468E+00
        -11   -1    0    0    0    0  0.00000000000E+00  0.00000000000E+00  0.45593999997E+02  0.45594000000E+02  0.51100000000E-03 0.  1.
         11   -1    0    0    0    0 -0.00000000000E+00 -0.00000000000E+00 -0.45593999997E+02  0.45594000000E+02  0.51100000000E-03 0. -1.
    9900012    2    1    2    0    0  0.34435011192E+02 -0.59018245228E+01  0.28434344988E+02  0.46142317594E+02  0.99999984806E+01 0.  0.
         12    1    1    2    0    0 -0.34435011192E+02  0.59018245228E+01 -0.28434344988E+02  0.45045682406E+02  0.00000000000E+00 0. -1.
         11    1    3    3    0    0  0.54545263853E+01 -0.46741256577E+01  0.47314380921E+01  0.86015007663E+01  0.51100000000E-03 0. -1.
        -11    1    3    3    0    0  0.48610458664E+01 -0.10855723485E+01  0.36748323908E+01  0.61897195090E+01  0.51100000000E-03 0.  1.
         12    1    3    3    0    0  0.24119438940E+02 -0.14212651665E+00  0.20028074505E+02  0.31351097319E+02  0.00000000000E+00 0. -1.
</event>
<event>
 7    1  0.2097247E-008  0.4614232E+02  0.7816164E-02  0.1320468E+00
        -11   -1    0    0    0    0  0.00000000000E+00  0.00000000000E+00  0.45593999997E+02  0.45594000000E+02  0.51100000000E-03 0.  1.
         11   -1    0    0    0    0 -0.00000000000E+00 -0.00000000000E+00 -0.45593999997E+02  0.45594000000E+02  0.51100000000E-03 0. -1.
    9900012    2    1    2    0    0  0.29101379839E+02  0.26473451675E+02  0.21940364133E+02  0.46142317295E+02  0.99999957505E+01 0.  0.
         12    1    1    2    0    0 -0.29101379839E+02 -0.26473451675E+02 -0.21940364133E+02  0.45045682705E+02  0.00000000000E+00 0. -1.
         11    1    3    3    0    0  0.22854419784E+02  0.17835922383E+02  0.14280114647E+02  0.32316656781E+02  0.51100000000E-03 0. -1.
        -11    1    3    3    0    0  0.51274945913E+01  0.37820714767E+01  0.31626350041E+01  0.71131937882E+01  0.51100000000E-03 0.  1.
         12    1    3    3    0    0  0.11194654629E+01  0.48554578155E+01  0.44976144814E+01  0.67124667257E+01  0.00000000000E+00 0. -1.
</event>
<event>
 7    1  0.2097247E-008  0.4614232E+02  0.7816164E-02  0.1320468E+00
        -11   -1    0    0    0    0  0.00000000000E+00  0.00000000000E+00  0.45593999997E+02  0.45594000000E+02  0.51100000000E-03 0. -1.
         11   -1    0    0    0    0 -0.00000000000E+00 -0.00000000000E+00 -0.45593999997E+02  0.45594000000E+02  0.51100000000E-03 0.  1.
    9900012    2    1    2    0    0 -0.21513992250E+02 -0.28962420107E+01 -0.39469906782E+02  0.46142316281E+02  0.99999865004E+01 0.  0.
         12    1    1    2    0    0  0.21513992250E+02  0.28962420107E+01  0.39469906782E+02  0.45045683719E+02  0.00000000000E+00 0. -1.
         11    1    3    3    0    0 -0.89215532278E+01 -0.45254667661E+01 -0.16764336111E+02  0.19522216241E+02  0.51100000000E-03 0. -1.
        -11    1    3    3    0    0 -0.88319182600E+01 -0.10846361494E+01 -0.11879511554E+02  0.14842574263E+02  0.51100000000E-03 0.  1.
         12    1    3    3    0    0 -0.37605207625E+01  0.27138609049E+01 -0.10826059117E+02  0.11777525776E+02  0.00000000000E+00 0. -1.
</event>
<event>
 7    1  0.2097247E-008  0.4614232E+02  0.7816164E-02  0.1320468E+00
        -11   -1    0    0    0    0  0.00000000000E+00  0.00000000000E+00  0.45593999997E+02  0.45594000000E+02  0.51100000000E-03 0. -1.
         11   -1    0    0    0    0 -0.00000000000E+00 -0.00000000000E+00 -0.45593999997E+02  0.45594000000E+02  0.51100000000E-03 0.  1.
    9900012    2    1    2    0    0 -0.17593217602E+02  0.10505567968E+02 -0.40115148117E+02  0.46142319049E+02  0.10000011745E+02 0.  0.
         12    1    1    2    0    0  0.17593217602E+02 -0.10505567968E+02  0.40115148117E+02  0.45045680951E+02  0.00000000000E+00 0. -1.
         11    1    3    3    0    0 -0.34224433109E+01  0.27941798950E+01 -0.99042529796E+01  0.10845035124E+02  0.51100000000E-03 0. -1.
        -11    1    3    3    0    0 -0.49225380828E+01 -0.14725691354E+01 -0.10108408080E+02  0.11339301354E+02  0.51100000000E-03 0.  1.
        -12    1    3    3    0    0 -0.92482362081E+01  0.91839572080E+01 -0.20102487057E+02  0.23957982571E+02  0.00000000000E+00 0.  1.
</event>
<event>
 7    1  0.2097247E-008  0.4614232E+02  0.7816164E-02  0.1320468E+00
        -11   -1    0    0    0    0  0.00000000000E+00  0.00000000000E+00  0.45593999997E+02  0.45594000000E+02  0.51100000000E-03 0.  1.
         11   -1    0    0    0    0 -0.00000000000E+00 -0.00000000000E+00 -0.45593999997E+02  0.45594000000E+02  0.51100000000E-03 0. -1.
    9900012    2    1    2    0    0  0.76481657745E+01  0.86147570414E+01  0.43547732659E+02  0.46142317651E+02  0.99999989923E+01 0.  0.
         12    1    1    2    0    0 -0.76481657745E+01 -0.86147570414E+01 -0.43547732659E+02  0.45045682349E+02  0.00000000000E+00 0. -1.
         11    1    3    3    0    0  0.42915660296E+00 -0.10707686585E+01  0.22140694024E+01  0.24965625347E+01  0.51100000000E-03 0. -1.
        -11    1    3    3    0    0  0.51953405947E+01  0.48855881834E+01  0.12911319762E+02  0.14750007256E+02  0.51100000000E-03 0.  1.
        -12    1    3    3    0    0  0.20236685769E+01  0.47999375165E+01  0.28422343494E+02  0.28895747860E+02  0.00000000000E+00 0.  1.
</event>
<event>
 7    1  0.2097247E-008  0.4614232E+02  0.7816164E-02  0.1320468E+00
        -11   -1    0    0    0    0  0.00000000000E+00  0.00000000000E+00  0.45593999997E+02  0.45594000000E+02  0.51100000000E-03 0. -1.
         11   -1    0    0    0    0 -0.00000000000E+00 -0.00000000000E+00 -0.45593999997E+02  0.45594000000E+02  0.51100000000E-03 0.  1.
    9900012    2    1    2    0    0 -0.13964263673E+02 -0.42381897727E+02 -0.61552920080E+01  0.46142317248E+02  0.99999953251E+01 0.  0.
         12    1    1    2    0    0  0.13964263673E+02  0.42381897727E+02  0.61552920080E+01  0.45045682752E+02  0.00000000000E+00 0. -1.
         11    1    3    3    0    0 -0.37810222336E+01 -0.40808439048E+01  0.23029880963E+00  0.55679847260E+01  0.51100000000E-03 0. -1.
        -11    1    3    3    0    0 -0.82867701256E+00 -0.22861631013E+00 -0.22327650238E+00  0.88815745566E+00  0.51100000000E-03 0.  1.
        -12    1    3    3    0    0 -0.93545644266E+01 -0.38072437512E+02 -0.61623143152E+01  0.39686175067E+02  0.00000000000E+00 0.  1.
</event>
<event>
 7    1  0.2097247E-008  0.4614232E+02  0.7816164E-02  0.1320468E+00
        -11   -1    0    0    0    0  0.00000000000E+00  0.00000000000E+00  0.45593999997E+02  0.45594000000E+02  0.51100000000E-03 0. -1.
         11   -1    0    0    0    0 -0.00000000000E+00 -0.00000000000E+00 -0.45593999997E+02  0.45594000000E+02  0.51100000000E-03 0.  1.
    9900012    2    1    2    0    0 -0.22814609782E+02 -0.59689763568E+01 -0.38379400838E+02  0.46142317555E+02  0.99999981176E+01 0.  0.
         12    1    1    2    0    0  0.22814609782E+02  0.59689763568E+01  0.38379400838E+02  0.45045682445E+02  0.00000000000E+00 0. -1.
         11    1    3    3    0    0 -0.72628137202E+01 -0.34803231247E+01 -0.89162214155E+01  0.12014995496E+02  0.51100000000E-03 0. -1.
        -11    1    3    3    0    0 -0.10407956064E+02 -0.34504752601E+01 -0.13877636345E+02  0.17686721566E+02  0.51100000000E-03 0.  1.
         12    1    3    3    0    0 -0.51438399981E+01  0.96182202812E+00 -0.15585543077E+02  0.16440600493E+02  0.00000000000E+00 0. -1.
</event>
<event>
 7    1  0.2097247E-008  0.4614232E+02  0.7816164E-02  0.1320468E+00
        -11   -1    0    0    0    0  0.00000000000E+00  0.00000000000E+00  0.45593999997E+02  0.45594000000E+02  0.51100000000E-03 0. -1.
         11   -1    0    0    0    0 -0.00000000000E+00 -0.00000000000E+00 -0.45593999997E+02  0.45594000000E+02  0.51100000000E-03 0.  1.
    9900012    2    1    2    0    0 -0.25872555458E+02  0.26724063876E+01 -0.36777472594E+02  0.46142319050E+02  0.10000011756E+02 0.  0.
         12    1    1    2    0    0  0.25872555458E+02 -0.26724063876E+01  0.36777472594E+02  0.45045680950E+02  0.00000000000E+00 0. -1.
         11    1    3    3    0    0 -0.55320891722E+01 -0.13474031563E+01 -0.45719004773E+01  0.73021763954E+01  0.51100000000E-03 0. -1.
        -11    1    3    3    0    0 -0.20606136610E+02  0.37644696652E+01 -0.29912726689E+02  0.36517876665E+02  0.51100000000E-03 0.  1.
         12    1    3    3    0    0  0.26567032450E+00  0.25533987865E+00 -0.22928454276E+01  0.23222659903E+01  0.00000000000E+00 0. -1.
</event>
<event>
 7    1  0.2097247E-008  0.4614232E+02  0.7816164E-02  0.1320468E+00
        -11   -1    0    0    0    0  0.00000000000E+00  0.00000000000E+00  0.45593999997E+02  0.45594000000E+02  0.51100000000E-03 0.  1.
         11   -1    0    0    0    0 -0.00000000000E+00 -0.00000000000E+00 -0.45593999997E+02  0.45594000000E+02  0.51100000000E-03 0. -1.
    9900012    2    1    2    0    0 -0.20158283379E+02  0.13012510494E+02  0.38123899828E+02  0.46142317007E+02  0.99999931265E+01 0.  0.
         12    1    1    2    0    0  0.20158283379E+02 -0.13012510494E+02 -0.38123899828E+02  0.45045682993E+02  0.00000000000E+00 0. -1.
         11    1    3    3    0    0 -0.22566663786E+01  0.28449167917E+01  0.85786251996E+01  0.93155195921E+01  0.51100000000E-03 0. -1.
        -11    1    3    3    0    0 -0.79623835266E+01  0.33418757887E+00  0.97701583030E+01  0.12608220584E+02  0.51100000000E-03 0.  1.
        -12    1    3    3    0    0 -0.99392334742E+01  0.98334061236E+01  0.19775116326E+02  0.24218576831E+02  0.00000000000E+00 0.  1.
</event>
<event>
 7    1  0.2097247E-008  0.4614232E+02  0.7816164E-02  0.1320468E+00
        -11   -1    0    0    0    0  0.00000000000E+00  0.00000000000E+00  0.45593999997E+02  0.45594000000E+02  0.51100000000E-03 0.  1.
         11   -1    0    0    0    0 -0.00000000000E+00 -0.00000000000E+00 -0.45593999997E+02  0.45594000000E+02  0.51100000000E-03 0. -1.
    9900012    2    1    2    0    0 -0.79586872811E+01  0.36871905249E+02  0.24621847496E+02  0.46142317920E+02  0.10000001447E+02 0.  0.
         12    1    1    2    0    0  0.79586872811E+01 -0.36871905249E+02 -0.24621847496E+02  0.45045682080E+02  0.00000000000E+00 0. -1.
         11    1    3    3    0    0 -0.20376527147E+01  0.37834811200E+01  0.40919591060E+01  0.59338762674E+01  0.51100000000E-03 0. -1.
        -11    1    3    3    0    0 -0.28694899179E+01  0.77032344018E+01  0.15485801235E+01  0.83649204000E+01  0.51100000000E-03 0.  1.
         12    1    3    3    0    0 -0.30515446485E+01  0.25385189727E+02  0.18981308267E+02  0.31843521252E+02  0.00000000000E+00 0. -1.
</event>
<event>
 7    1  0.2097247E-008  0.4614232E+02  0.7816164E-02  0.1320468E+00
        -11   -1    0    0    0    0  0.00000000000E+00  0.00000000000E+00  0.45593999997E+02  0.45594000000E+02  0.51100000000E-03 0. -1.
         11   -1    0    0    0    0 -0.00000000000E+00 -0.00000000000E+00 -0.45593999997E+02  0.45594000000E+02  0.51100000000E-03 0.  1.
    9900012    2    1    2    0    0 -0.43990567916E+02  0.38726333816E+01  0.88851689607E+01  0.46142316718E+02  0.99999904894E+01 0.  0.
         12    1    1    2    0    0  0.43990567916E+02 -0.38726333816E+01 -0.88851689607E+01  0.45045683282E+02  0.00000000000E+00 0. -1.
         11    1    3    3    0    0 -0.17810820978E+01  0.12611874711E+00  0.16313295656E+01  0.24185524163E+01  0.51100000000E-03 0. -1.
        -11    1    3    3    0    0 -0.99843852036E+01  0.21704653269E+01  0.50166080273E+01  0.11382672094E+02  0.51100000000E-03 0.  1.
         12    1    3    3    0    0 -0.32225100614E+02  0.15760493076E+01  0.22372313678E+01  0.32341092208E+02  0.00000000000E+00 0. -1.
</event>
<event>
 7    1  0.2097247E-008  0.4614232E+02  0.7816164E-02  0.1320468E+00
        -11   -1    0    0    0    0  0.00000000000E+00  0.00000000000E+00  0.45593999997E+02  0.45594000000E+02  0.51100000000E-03 0.  1.
         11   -1    0    0    0    0 -0.00000000000E+00 -0.00000000000E+00 -0.45593999997E+02  0.45594000000E+02  0.51100000000E-03 0. -1.
    9900012    2    1    2    0    0 -0.37717180620E+01  0.44736784645E+02 -0.36752832193E+01  0.46142318029E+02  0.10000002439E+02 0.  0.
         12    1    1    2    0    0  0.37717180620E+01 -0.44736784645E+02  0.36752832193E+01  0.45045681971E+02  0.00000000000E+00 0. -1.
         11    1    3    3    0    0  0.63899259627E+00  0.75130159809E+00 -0.12638413047E+01  0.16031408965E+01  0.51100000000E-03 0. -1.
        -11    1    3    3    0    0 -0.15212357480E+01  0.37668929778E+01 -0.10406189558E+01  0.41936295711E+01  0.51100000000E-03 0.  1.
        -12    1    3    3    0    0 -0.28894749103E+01  0.40218590069E+02 -0.13708229588E+01  0.40345547561E+02  0.00000000000E+00 0.  1.
</event>
<event>
 7    1  0.3199413E-008  0.4614232E+02  0.7816164E-02  0.1320468E+00
        -11   -1    0    0    0    0  0.00000000000E+00  0.00000000000E+00  0.45593999997E+02  0.45594000000E+02  0.51100000000E-03 0. -1.
         11   -1    0    0    0    0 -0.00000000000E+00 -0.00000000000E+00 -0.45593999997E+02  0.45594000000E+02  0.51100000000E-03 0.  1.
    9900012    2    1    2    0    0 -0.37953696442E+02 -0.23850635050E+02  0.44472043949E+01  0.46142317711E+02  0.99999995457E+01 0.  0.
         12    1    1    2    0    0  0.37953696442E+02  0.23850635050E+02 -0.44472043949E+01  0.45045682289E+02  0.00000000000E+00 0. -1.
         11    1    3    3    0    0  0.38694171334E+00  0.20484113379E-01  0.24380137364E+00  0.45780220547E+00  0.51100000000E-03 0. -1.
        -11    1    3    3    0    0 -0.96548794059E+01 -0.42026299439E+01  0.27020950509E+01  0.10871067690E+02  0.51100000000E-03 0.  1.
        -12    1    3    3    0    0 -0.28685758750E+02 -0.19668489219E+02  0.15013079704E+01  0.34813447816E+02  0.00000000000E+00 0.  1.
</event>
<event>
 7    1  0.2097247E-008  0.4614232E+02  0.7816164E-02  0.1320468E+00
        -11   -1    0    0    0    0  0.00000000000E+00  0.00000000000E+00  0.45593999997E+02  0.45594000000E+02  0.51100000000E-03 0.  1.
         11   -1    0    0    0    0 -0.00000000000E+00 -0.00000000000E+00 -0.45593999997E+02  0.45594000000E+02  0.51100000000E-03 0. -1.
    9900012    2    1    2    0    0  0.11211995645E+02  0.61953113510E+01  0.43185909529E+02  0.46142317511E+02  0.99999977209E+01 0.  0.
         12    1    1    2    0    0 -0.11211995645E+02 -0.61953113510E+01 -0.43185909529E+02  0.45045682489E+02  0.00000000000E+00 0. -1.
         11    1    3    3    0    0  0.46773302249E-01 -0.50999333264E+00  0.40951002925E+01  0.41269998314E+01  0.51100000000E-03 0. -1.
        -11    1    3    3    0    0 -0.63412816024E+00  0.11565604284E+01  0.74844123905E+00  0.15165470971E+01  0.51100000000E-03 0.  1.
         12    1    3    3    0    0  0.11799350503E+02  0.55487442552E+01  0.38342367997E+02  0.40498770583E+02  0.00000000000E+00 0. -1.
</event>
<event>
 7    1  0.2097247E-008  0.4614232E+02  0.7816164E-02  0.1320468E+00
        -11   -1    0    0    0    0  0.00000000000E+00  0.00000000000E+00  0.45593999997E+02  0.45594000000E+02  0.51100000000E-03 0. -1.
         11   -1    0    0    0    0 -0.00000000000E+00 -0.00000000000E+00 -0.45593999997E+02  0.45594000000E+02  0.51100000000E-03 0.  1.
    9900012    2    1    2    0    0  0.39481564563E+02 -0.56938993427E+01 -0.20926041953E+02  0.46142315835E+02  0.99999824391E+01 0.  0.
         12    1    1    2    0    0 -0.39481564563E+02  0.56938993427E+01  0.20926041953E+02  0.45045684165E+02  0.00000000000E+00 0. -1.
         11    1    3    3    0    0  0.48557083074E+01 -0.17782181406E+01 -0.63242656601E+01  0.81692288083E+01  0.51100000000E-03 0. -1.
        -11    1    3    3    0    0  0.24292982507E+02 -0.15990140813E+01 -0.11591019193E+02  0.26964005105E+02  0.51100000000E-03 0.  1.
         12    1    3    3    0    0  0.10332873748E+02 -0.23166671207E+01 -0.30107570999E+01  0.11009081922E+02  0.00000000000E+00 0. -1.
</event>
<event>
 7    1  0.2097247E-008  0.4614232E+02  0.7816164E-02  0.1320468E+00
        -11   -1    0    0    0    0  0.00000000000E+00  0.00000000000E+00  0.45593999997E+02  0.45594000000E+02  0.51100000000E-03 0. -1.
         11   -1    0    0    0    0 -0.00000000000E+00 -0.00000000000E+00 -0.45593999997E+02  0.45594000000E+02  0.51100000000E-03 0.  1.
    9900012    2    1    2    0    0  0.28715912487E+02 -0.14226255207E+02 -0.31656334547E+02  0.46142317808E+02  0.10000000430E+02 0.  0.
         12    1    1    2    0    0 -0.28715912487E+02  0.14226255207E+02  0.31656334547E+02  0.45045682192E+02  0.00000000000E+00 0. -1.
         11    1    3    3    0    0  0.10867854670E+02 -0.78797521113E+01 -0.10241464561E+02  0.16884559665E+02  0.51100000000E-03 0. -1.
        -11    1    3    3    0    0  0.11516311751E+02 -0.33367680710E+01 -0.89697752169E+01  0.14973854721E+02  0.51100000000E-03 0.  1.
         12    1    3    3    0    0  0.63317460660E+01 -0.30097350246E+01 -0.12445094769E+02  0.14283903422E+02  0.00000000000E+00 0. -1.
</event>
<event>
 7    1  0.2097247E-008  0.4614232E+02  0.7816164E-02  0.1320468E+00
        -11   -1    0    0    0    0  0.00000000000E+00  0.00000000000E+00  0.45593999997E+02  0.45594000000E+02  0.51100000000E-03 0.  1.
         11   -1    0    0    0    0 -0.00000000000E+00 -0.00000000000E+00 -0.45593999997E+02  0.45594000000E+02  0.51100000000E-03 0. -1.
    9900012    2    1    2    0    0 -0.27985342114E+02 -0.28227698543E+02  0.21192714940E+02  0.46142317579E+02  0.99999983414E+01 0.  0.
         12    1    1    2    0    0  0.27985342114E+02  0.28227698543E+02 -0.21192714940E+02  0.45045682421E+02  0.00000000000E+00 0. -1.
         11    1    3    3    0    0 -0.47126433478E+01 -0.24807646242E+01  0.51622531628E+01  0.74170114212E+01  0.51100000000E-03 0. -1.
        -11    1    3    3    0    0 -0.21243527651E+02 -0.20174318589E+02  0.13863850436E+02  0.32411370640E+02  0.51100000000E-03 0.  1.
        -12    1    3    3    0    0 -0.20291711148E+01 -0.55726153294E+01  0.21666113414E+01  0.63139355181E+01  0.00000000000E+00 0.  1.
</event>
<event>
 7    1  0.2097247E-008  0.4614232E+02  0.7816164E-02  0.1320468E+00
        -11   -1    0    0    0    0  0.00000000000E+00  0.00000000000E+00  0.45593999997E+02  0.45594000000E+02  0.51100000000E-03 0. -1.
         11   -1    0    0    0    0 -0.00000000000E+00 -0.00000000000E+00 -0.45593999997E+02  0.45594000000E+02  0.51100000000E-03 0.  1.
    9900012    2    1    2    0    0  0.42624480307E+02  0.19087389046E+01 -0.14443820617E+02  0.46142316970E+02  0.99999927854E+01 0.  0.
         12    1    1    2    0    0 -0.42624480307E+02 -0.19087389046E+01  0.14443820617E+02  0.45045683030E+02  0.00000000000E+00 0. -1.
         11    1    3    3    0    0  0.14910049360E+02 -0.16912411347E+01 -0.46359605824E+01  0.15705476729E+02  0.51100000000E-03 0. -1.
        -11    1    3    3    0    0  0.20767286002E+02  0.24992074291E+01 -0.10434241334E+02  0.23375191938E+02  0.51100000000E-03 0.  1.
         12    1    3    3    0    0  0.69471449449E+01  0.11007726102E+01  0.62638129974E+00  0.70616483032E+01  0.00000000000E+00 0. -1.
</event>
<event>
 7    1  0.2097247E-008  0.4614232E+02  0.7816164E-02  0.1320468E+00
        -11   -1    0    0    0    0  0.00000000000E+00  0.00000000000E+00  0.45593999997E+02  0.45594000000E+02  0.51100000000E-03 0.  1.
         11   -1    0    0    0    0 -0.00000000000E+00 -0.00000000000E+00 -0.45593999997E+02  0.45594000000E+02  0.51100000000E-03 0. -1.
    9900012    2    1    2    0    0 -0.16115206546E+02  0.17549035661E+02  0.38228849898E+02  0.46142317641E+02  0.99999989069E+01 0.  0.
         12    1    1    2    0    0  0.16115206546E+02 -0.17549035661E+02 -0.38228849898E+02  0.45045682359E+02  0.00000000000E+00 0. -1.
         11    1    3    3    0    0 -0.16365522046E+00  0.21869931380E+01  0.81377133405E+01  0.84280543834E+01  0.51100000000E-03 0. -1.
        -11    1    3    3    0    0 -0.12379633902E+02  0.13751175753E+02  0.26960198778E+02  0.32698661877E+02  0.51100000000E-03 0.  1.
         12    1    3    3    0    0 -0.35719174240E+01  0.16108667698E+01  0.31309377797E+01  0.50156013811E+01  0.00000000000E+00 0. -1.
</event>
<event>
 7    1  0.2097247E-008  0.4614232E+02  0.7816164E-02  0.1320468E+00
        -11   -1    0    0    0    0  0.00000000000E+00  0.00000000000E+00  0.45593999997E+02  0.45594000000E+02  0.51100000000E-03 0.  1.
         11   -1    0    0    0    0 -0.00000000000E+00 -0.00000000000E+00 -0.45593999997E+02  0.45594000000E+02  0.51100000000E-03 0. -1.
    9900012    2    1    2    0    0  0.17334815265E+02  0.24299331579E+01  0.41505581505E+02  0.46142315506E+02  0.99999794405E+01 0.  0.
         12    1    1    2    0    0 -0.17334815265E+02 -0.24299331579E+01 -0.41505581505E+02  0.45045684494E+02  0.00000000000E+00 0. -1.
         11    1    3    3    0    0  0.60020486855E+01 -0.44218171298E+00  0.20903503535E+02  0.21752622219E+02  0.51100000000E-03 0. -1.
        -11    1    3    3    0    0  0.62689536430E+01  0.37762179079E+01  0.83596142016E+01  0.11110479347E+02  0.51100000000E-03 0.  1.
        -12    1    3    3    0    0  0.50638129370E+01 -0.90410303703E+00  0.12242463768E+02  0.13279213941E+02  0.00000000000E+00 0.  1.
</event>
<event>
 7    1  0.2097247E-008  0.4614232E+02  0.7816164E-02  0.1320468E+00
        -11   -1    0    0    0    0  0.00000000000E+00  0.00000000000E+00  0.45593999997E+02  0.45594000000E+02  0.51100000000E-03 0.  1.
         11   -1    0    0    0    0 -0.00000000000E+00 -0.00000000000E+00 -0.45593999997E+02  0.45594000000E+02  0.51100000000E-03 0. -1.
    9900012    2    1    2    0    0 -0.49090952952E+01 -0.21124632649E+02  0.39481187578E+02  0.46142317701E+02  0.99999994534E+01 0.  0.
         12    1    1    2    0    0  0.49090952952E+01  0.21124632649E+02 -0.39481187578E+02  0.45045682299E+02  0.00000000000E+00 0. -1.
         11    1    3    3    0    0 -0.21650337125E+01 -0.44762700342E+01  0.10795178652E+02  0.11885295402E+02  0.51100000000E-03 0. -1.
        -11    1    3    3    0    0  0.57468237975E+00 -0.44152085433E+01  0.14802645836E+02  0.15457769901E+02  0.51100000000E-03 0.  1.
        -12    1    3    3    0    0 -0.33187439624E+01 -0.12233154071E+02  0.13883363090E+02  0.18799252398E+02  0.00000000000E+00 0.  1.
</event>
<event>
 7    1  0.2097247E-008  0.4614232E+02  0.7816164E-02  0.1320468E+00
        -11   -1    0    0    0    0  0.00000000000E+00  0.00000000000E+00  0.45593999997E+02  0.45594000000E+02  0.51100000000E-03 0.  1.
         11   -1    0    0    0    0 -0.00000000000E+00 -0.00000000000E+00 -0.45593999997E+02  0.45594000000E+02  0.51100000000E-03 0. -1.
    9900012    2    1    2    0    0  0.28206889496E+02  0.30857000984E+02  0.16772899785E+02  0.46142319941E+02  0.10000019879E+02 0.  0.
         12    1    1    2    0    0 -0.28206889496E+02 -0.30857000984E+02 -0.16772899785E+02  0.45045680059E+02  0.00000000000E+00 0. -1.
         11    1    3    3    0    0  0.56756147582E+01  0.34194112270E+01  0.36372472662E+01  0.75587395748E+01  0.51100000000E-03 0. -1.
        -11    1    3    3    0    0  0.13507198365E+02  0.16875504403E+02  0.40704717692E+01  0.21995358538E+02  0.51100000000E-03 0.  1.
         12    1    3    3    0    0  0.90240763725E+01  0.10562085355E+02  0.90651807493E+01  0.16588221829E+02  0.00000000000E+00 0. -1.
</event>
<event>
 7    1  0.2097247E-008  0.4614232E+02  0.7816164E-02  0.1320468E+00
        -11   -1    0    0    0    0  0.00000000000E+00  0.00000000000E+00  0.45593999997E+02  0.45594000000E+02  0.51100000000E-03 0. -1.
         11   -1    0    0    0    0 -0.00000000000E+00 -0.00000000000E+00 -0.45593999997E+02  0.45594000000E+02  0.51100000000E-03 0.  1.
    9900012    2    1    2    0    0 -0.17122960572E+02 -0.14790344086E+02 -0.38950782456E+02  0.46142317511E+02  0.99999977220E+01 0.  0.
         12    1    1    2    0    0  0.17122960572E+02  0.14790344086E+02  0.38950782456E+02  0.45045682489E+02  0.00000000000E+00 0. -1.
         11    1    3    3    0    0 -0.20238583812E+01  0.26213726136E-01 -0.25085369349E+01  0.32232666228E+01  0.51100000000E-03 0. -1.
        -11    1    3    3    0    0 -0.19967239231E+01 -0.13464098584E+00 -0.85679491821E+01  0.87985673872E+01  0.51100000000E-03 0.  1.
        -12    1    3    3    0    0 -0.13102378267E+02 -0.14681916826E+02 -0.27874296339E+02  0.34120483501E+02  0.00000000000E+00 0.  1.
</event>
<event>
 7    1  0.2097247E-008  0.4614231E+02  0.7816164E-02  0.1320468E+00
        -11   -1    0    0    0    0  0.00000000000E+00  0.00000000000E+00  0.45593999997E+02  0.45594000000E+02  0.51100000000E-03 0.  1.
         11   -1    0    0    0    0 -0.00000000000E+00 -0.00000000000E+00 -0.45593999997E+02  0.45594000000E+02  0.51100000000E-03 0. -1.
    9900012    2    1    2    0    0 -0.26482222781E+02 -0.17732819879E+02  0.31833203608E+02  0.46142313456E+02  0.99999607388E+01 0.  0.
         12    1    1    2    0    0  0.26482222781E+02  0.17732819879E+02 -0.31833203608E+02  0.45045686544E+02  0.00000000000E+00 0. -1.
         11    1    3    3    0    0 -0.34869419784E+00 -0.11064911410E+01  0.10433341227E+01  0.15602745404E+01  0.51100000000E-03 0. -1.
        -11    1    3    3    0    0 -0.26191670146E+02 -0.17362234767E+02  0.29528661228E+02  0.43120675033E+02  0.51100000000E-03 0.  1.
         12    1    3    3    0    0  0.58141562918E-01  0.73590602946E+00  0.12612082577E+01  0.14613638817E+01  0.00000000000E+00 0. -1.
</event>
<event>
 7    1  0.2097247E-008  0.4614232E+02  0.7816164E-02  0.1320468E+00
        -11   -1    0    0    0    0  0.00000000000E+00  0.00000000000E+00  0.45593999997E+02  0.45594000000E+02  0.51100000000E-03 0.  1.
         11   -1    0    0    0    0 -0.00000000000E+00 -0.00000000000E+00 -0.45593999997E+02  0.45594000000E+02  0.51100000000E-03 0. -1.
    9900012    2    1    2    0    0 -0.20661666618E+02 -0.90852677925E+01  0.38982904959E+02  0.46142318328E+02  0.10000005169E+02 0.  0.
         12    1    1    2    0    0  0.20661666618E+02  0.90852677925E+01 -0.38982904959E+02  0.45045681672E+02  0.00000000000E+00 0. -1.
         11    1    3    3    0    0 -0.15515889677E+01 -0.23381122285E+01  0.33670413550E+01  0.43830542850E+01  0.51100000000E-03 0. -1.
        -11    1    3    3    0    0  0.17337982993E+00 -0.42651864764E+00  0.50465317414E+01  0.50674906611E+01  0.51100000000E-03 0.  1.
        -12    1    3    3    0    0 -0.19283457480E+02 -0.63206369163E+01  0.30569331862E+02  0.36691773382E+02  0.00000000000E+00 0.  1.
</event>
<event>
 7    1  0.2097247E-008  0.4614232E+02  0.7816164E-02  0.1320468E+00
        -11   -1    0    0    0    0  0.00000000000E+00  0.00000000000E+00  0.45593999997E+02  0.45594000000E+02  0.51100000000E-03 0.  1.
         11   -1    0    0    0    0 -0.00000000000E+00 -0.00000000000E+00 -0.45593999997E+02  0.45594000000E+02  0.51100000000E-03 0. -1.
    9900012    2    1    2    0    0 -0.25919338846E+02  0.18976223797E+02  0.31578543434E+02  0.46142316508E+02  0.99999885743E+01 0.  0.
         12    1    1    2    0    0  0.25919338846E+02 -0.18976223797E+02 -0.31578543434E+02  0.45045683492E+02  0.00000000000E+00 0. -1.
         11    1    3    3    0    0 -0.66070736040E+01  0.84681925589E+01  0.99690100633E+01  0.14654175812E+02  0.51100000000E-03 0. -1.
        -11    1    3    3    0    0 -0.25518758858E+01  0.42573016869E+01  0.55883898567E+01  0.74744089828E+01  0.51100000000E-03 0.  1.
         12    1    3    3    0    0 -0.16760389357E+02  0.62507295515E+01  0.16021143514E+02  0.24013731713E+02  0.00000000000E+00 0. -1.
</event>
<event>
 7    1  0.2097247E-008  0.4614232E+02  0.7816164E-02  0.1320468E+00
        -11   -1    0    0    0    0  0.00000000000E+00  0.00000000000E+00  0.45593999997E+02  0.45594000000E+02  0.51100000000E-03 0.  1.
         11   -1    0    0    0    0 -0.00000000000E+00 -0.00000000000E+00 -0.45593999997E+02  0.45594000000E+02  0.51100000000E-03 0. -1.
    9900012    2    1    2    0    0  0.43618524193E+02  0.73685028098E+01  0.84995922123E+01  0.46142317030E+02  0.99999933356E+01 0.  0.
         12    1    1    2    0    0 -0.43618524193E+02 -0.73685028098E+01 -0.84995922123E+01  0.45045682970E+02  0.00000000000E+00 0. -1.
         11    1    3    3    0    0  0.15802170231E+02  0.31053634971E+01  0.79588322747E+01  0.17963710026E+02  0.51100000000E-03 0. -1.
        -11    1    3    3    0    0  0.10624749292E+02  0.21604210093E+01  0.60040272100E+00  0.10858784469E+02  0.51100000000E-03 0.  1.
         12    1    3    3    0    0  0.17191604670E+02  0.21027183034E+01 -0.59642783485E-01  0.17319822536E+02  0.00000000000E+00 0. -1.
</event>
<event>
 7    1  0.2097247E-008  0.4614232E+02  0.7816164E-02  0.1320468E+00
        -11   -1    0    0    0    0  0.00000000000E+00  0.00000000000E+00  0.45593999997E+02  0.45594000000E+02  0.51100000000E-03 0. -1.
         11   -1    0    0    0    0 -0.00000000000E+00 -0.00000000000E+00 -0.45593999997E+02  0.45594000000E+02  0.51100000000E-03 0.  1.
    9900012    2    1    2    0    0 -0.15831667227E+02 -0.42150145782E+02 -0.13553579211E+01  0.46142317946E+02  0.10000001687E+02 0.  0.
         12    1    1    2    0    0  0.15831667227E+02  0.42150145782E+02  0.13553579211E+01  0.45045682054E+02  0.00000000000E+00 0. -1.
         11    1    3    3    0    0 -0.62648209246E+01 -0.73095546096E+01 -0.16343108758E+01  0.97646578081E+01  0.51100000000E-03 0. -1.
        -11    1    3    3    0    0 -0.51374876093E+01 -0.23556654993E+02 -0.13416403971E+01  0.24147665987E+02  0.51100000000E-03 0.  1.
         12    1    3    3    0    0 -0.44293586934E+01 -0.11283936179E+02  0.16205933518E+01  0.12229994151E+02  0.00000000000E+00 0. -1.
</event>
<event>
 7    1  0.2097247E-008  0.4614232E+02  0.7816164E-02  0.1320468E+00
        -11   -1    0    0    0    0  0.00000000000E+00  0.00000000000E+00  0.45593999997E+02  0.45594000000E+02  0.51100000000E-03 0.  1.
         11   -1    0    0    0    0 -0.00000000000E+00 -0.00000000000E+00 -0.45593999997E+02  0.45594000000E+02  0.51100000000E-03 0. -1.
    9900012    2    1    2    0    0  0.37811577353E+02  0.14731462969E+02  0.19554594258E+02  0.46142317191E+02  0.99999947976E+01 0.  0.
         12    1    1    2    0    0 -0.37811577353E+02 -0.14731462969E+02 -0.19554594258E+02  0.45045682809E+02  0.00000000000E+00 0. -1.
         11    1    3    3    0    0  0.28949870398E+01 -0.55610543371E+00 -0.41361651032E+00  0.29767905691E+01  0.51100000000E-03 0. -1.
        -11    1    3    3    0    0  0.27014676618E+01  0.26722663622E+00  0.11692377861E+01  0.29557494590E+01  0.51100000000E-03 0.  1.
        -12    1    3    3    0    0  0.32215122652E+02  0.15020341767E+02  0.18798972982E+02  0.40209777163E+02  0.00000000000E+00 0.  1.
</event>
<event>
 7    1  0.2097247E-008  0.4614232E+02  0.7816164E-02  0.1320468E+00
        -11   -1    0    0    0    0  0.00000000000E+00  0.00000000000E+00  0.45593999997E+02  0.45594000000E+02  0.51100000000E-03 0.  1.
         11   -1    0    0    0    0 -0.00000000000E+00 -0.00000000000E+00 -0.45593999997E+02  0.45594000000E+02  0.51100000000E-03 0. -1.
    9900012    2    1    2    0    0 -0.21962240526E+02  0.25410559384E+02  0.30017942013E+02  0.46142318966E+02  0.10000010987E+02 0.  0.
         12    1    1    2    0    0  0.21962240526E+02 -0.25410559384E+02 -0.30017942013E+02  0.45045681034E+02  0.00000000000E+00 0. -1.
         11    1    3    3    0    0 -0.94029520680E+01  0.99468195591E+01  0.17145440954E+02  0.21939026248E+02  0.51100000000E-03 0. -1.
        -11    1    3    3    0    0 -0.21522653453E+01  0.40283510069E+01  0.52687019064E+01  0.69727381990E+01  0.51100000000E-03 0.  1.
        -12    1    3    3    0    0 -0.10407023112E+02  0.11435388818E+02  0.76037991524E+01  0.17230554519E+02  0.00000000000E+00 0.  1.
</event>
<event>
 7    1  0.2097247E-008  0.4614232E+02  0.7816164E-02  0.1320468E+00
        -11   -1    0    0    0    0  0.00000000000E+00  0.00000000000E+00  0.45593999997E+02  0.45594000000E+02  0.51100000000E-03 0.  1.
         11   -1    0    0    0    0 -0.00000000000E+00 -0.00000000000E+00 -0.45593999997E+02  0.45594000000E+02  0.51100000000E-03 0. -1.
    9900012    2    1    2    0    0  0.18015258592E+02 -0.10651930408E+02  0.39888592430E+02  0.46142323520E+02  0.10000052513E+02 0.  0.
         12    1    1    2    0    0 -0.18015258592E+02  0.10651930408E+02 -0.39888592430E+02  0.45045676480E+02  0.00000000000E+00 0. -1.
         11    1    3    3    0    0  0.70680992431E+01 -0.22360623897E+01  0.61520238869E+01  0.96335559419E+01  0.51100000000E-03 0. -1.
        -11    1    3    3    0    0  0.11559348384E-01 -0.38927350344E+00  0.96552760679E+00  0.10411106087E+01  0.51100000000E-03 0.  1.
        -12    1    3    3    0    0  0.10935600000E+02 -0.80265945148E+01  0.32771040936E+02  0.35467656969E+02  0.00000000000E+00 0.  1.
</event>
<event>
 7    1  0.2097247E-008  0.4614232E+02  0.7816164E-02  0.1320468E+00
        -11   -1    0    0    0    0  0.00000000000E+00  0.00000000000E+00  0.45593999997E+02  0.45594000000E+02  0.51100000000E-03 0.  1.
         11   -1    0    0    0    0 -0.00000000000E+00 -0.00000000000E+00 -0.45593999997E+02  0.45594000000E+02  0.51100000000E-03 0. -1.
    9900012    2    1    2    0    0  0.36259706186E+02  0.25200956059E+02 -0.89027561315E+01  0.46142317124E+02  0.99999941944E+01 0.  0.
         12    1    1    2    0    0 -0.36259706186E+02 -0.25200956059E+02  0.89027561315E+01  0.45045682876E+02  0.00000000000E+00 0. -1.
         11    1    3    3    0    0  0.60260134945E+01  0.58514613393E+01 -0.69620324561E-01  0.83998384325E+01  0.51100000000E-03 0. -1.
        -11    1    3    3    0    0  0.16614376027E+02  0.14991939948E+02 -0.48386751381E+01  0.22895600703E+02  0.51100000000E-03 0.  1.
         12    1    3    3    0    0  0.13619316664E+02  0.43575547713E+01 -0.39944606689E+01  0.14846877989E+02  0.00000000000E+00 0. -1.
</event>
<event>
 7    1  0.2097247E-008  0.4614232E+02  0.7816164E-02  0.1320468E+00
        -11   -1    0    0    0    0  0.00000000000E+00  0.00000000000E+00  0.45593999997E+02  0.45594000000E+02  0.51100000000E-03 0.  1.
         11   -1    0    0    0    0 -0.00000000000E+00 -0.00000000000E+00 -0.45593999997E+02  0.45594000000E+02  0.51100000000E-03 0. -1.
    9900012    2    1    2    0    0  0.42526859683E+02  0.75268678001E+01  0.12803355799E+02  0.46142318153E+02  0.10000003574E+02 0.  0.
         12    1    1    2    0    0 -0.42526859683E+02 -0.75268678001E+01 -0.12803355799E+02  0.45045681847E+02  0.00000000000E+00 0. -1.
         11    1    3    3    0    0  0.44445999975E+00  0.13711067681E+01 -0.10805262389E+00  0.14453906363E+01  0.51100000000E-03 0. -1.
        -11    1    3    3    0    0  0.19503419826E+02  0.52065859061E+01  0.57141236200E+01  0.20979588431E+02  0.51100000000E-03 0.  1.
        -12    1    3    3    0    0  0.22578979857E+02  0.94917512585E+00  0.71972848028E+01  0.23717339086E+02  0.00000000000E+00 0.  1.
</event>
<event>
 7    1  0.2097247E-008  0.4614232E+02  0.7816164E-02  0.1320468E+00
        -11   -1    0    0    0    0  0.00000000000E+00  0.00000000000E+00  0.45593999997E+02  0.45594000000E+02  0.51100000000E-03 0. -1.
         11   -1    0    0    0    0 -0.00000000000E+00 -0.00000000000E+00 -0.45593999997E+02  0.45594000000E+02  0.51100000000E-03 0.  1.
    9900012    2    1    2    0    0 -0.25903580238E+02 -0.96369207024E+01 -0.35570313922E+02  0.46142323822E+02  0.10000055272E+02 0.  0.
         12    1    1    2    0    0  0.25903580238E+02  0.96369207024E+01  0.35570313922E+02  0.45045676178E+02  0.00000000000E+00 0. -1.
         11    1    3    3    0    0 -0.27468903617E+00 -0.26687071586E+01 -0.39749900601E+01  0.47956228171E+01  0.51100000000E-03 0. -1.
        -11    1    3    3    0    0 -0.57335003193E+01 -0.26042551342E+01 -0.71480324542E+01  0.95262552424E+01  0.51100000000E-03 0.  1.
         12    1    3    3    0    0 -0.19895390883E+02 -0.43639584096E+01 -0.24447291408E+02  0.31820445763E+02  0.00000000000E+00 0. -1.
</event>
<event>
 7    1  0.2097247E-008  0.4614232E+02  0.7816164E-02  0.1320468E+00
        -11   -1    0    0    0    0  0.00000000000E+00  0.00000000000E+00  0.45593999997E+02  0.45594000000E+02  0.51100000000E-03 0.  1.
         11   -1    0    0    0    0 -0.00000000000E+00 -0.00000000000E+00 -0.45593999997E+02  0.45594000000E+02  0.51100000000E-03 0. -1.
    9900012    2    1    2    0    0 -0.10663234874E+00  0.44193470694E+02  0.87200476077E+01  0.46142318156E+02  0.10000003604E+02 0.  0.
         12    1    1    2    0    0  0.10663234874E+00 -0.44193470694E+02 -0.87200476077E+01  0.45045681844E+02  0.00000000000E+00 0. -1.
         11    1    3    3    0    0 -0.19713736244E+01  0.78475746637E+01  0.39011599582E+01  0.89827496542E+01  0.51100000000E-03 0. -1.
        -11    1    3    3    0    0  0.72788530470E+00  0.18115527799E+02  0.52951387398E+01  0.18887579490E+02  0.51100000000E-03 0.  1.
        -12    1    3    3    0    0  0.11368559709E+01  0.18230368232E+02 -0.47625109023E+00  0.18271989012E+02  0.00000000000E+00 0.  1.
</event>
<event>
 7    1  0.2097247E-008  0.4614232E+02  0.7816164E-02  0.1320468E+00
        -11   -1    0    0    0    0  0.00000000000E+00  0.00000000000E+00  0.45593999997E+02  0.45594000000E+02  0.51100000000E-03 0.  1.
         11   -1    0    0    0    0 -0.00000000000E+00 -0.00000000000E+00 -0.45593999997E+02  0.45594000000E+02  0.51100000000E-03 0. -1.
    9900012    2    1    2    0    0  0.30896920757E+02 -0.35299292660E+01  0.32588854013E+02  0.46142317424E+02  0.99999969217E+01 0.  0.
         12    1    1    2    0    0 -0.30896920757E+02  0.35299292660E+01 -0.32588854013E+02  0.45045682576E+02  0.00000000000E+00 0. -1.
         11    1    3    3    0    0  0.80921287247E+01  0.10868131032E+01  0.13838031842E+02  0.16067197502E+02  0.51100000000E-03 0. -1.
        -11    1    3    3    0    0  0.15824777335E+01 -0.17048982078E+00  0.25586301460E+01  0.30132857549E+01  0.51100000000E-03 0.  1.
        -12    1    3    3    0    0  0.21222314299E+02 -0.44462525484E+01  0.16192192025E+02  0.27061834167E+02  0.00000000000E+00 0.  1.
</event>
<event>
 7    1  0.2097247E-008  0.4614232E+02  0.7816164E-02  0.1320468E+00
        -11   -1    0    0    0    0  0.00000000000E+00  0.00000000000E+00  0.45593999997E+02  0.45594000000E+02  0.51100000000E-03 0.  1.
         11   -1    0    0    0    0 -0.00000000000E+00 -0.00000000000E+00 -0.45593999997E+02  0.45594000000E+02  0.51100000000E-03 0. -1.
    9900012    2    1    2    0    0  0.31620432261E+02 -0.32060474853E+02  0.11779788127E+01  0.46142318539E+02  0.10000007095E+02 0.  0.
         12    1    1    2    0    0 -0.31620432261E+02  0.32060474853E+02 -0.11779788127E+01  0.45045681461E+02  0.00000000000E+00 0. -1.
         11    1    3    3    0    0  0.43944162500E+01 -0.32702089785E+01 -0.22391693272E+01  0.59176887784E+01  0.51100000000E-03 0. -1.
        -11    1    3    3    0    0  0.16931578975E+01 -0.99724165150E+00  0.14321323288E+01  0.24315176013E+01  0.51100000000E-03 0.  1.
        -12    1    3    3    0    0  0.25532858113E+02 -0.27793024224E+02  0.19850158111E+01  0.37793112159E+02  0.00000000000E+00 0.  1.
</event>
<event>
 7    1  0.2097247E-008  0.4614232E+02  0.7816164E-02  0.1320468E+00
        -11   -1    0    0    0    0  0.00000000000E+00  0.00000000000E+00  0.45593999997E+02  0.45594000000E+02  0.51100000000E-03 0.  1.
         11   -1    0    0    0    0 -0.00000000000E+00 -0.00000000000E+00 -0.45593999997E+02  0.45594000000E+02  0.51100000000E-03 0. -1.
    9900012    2    1    2    0    0 -0.28532277840E+01 -0.28516335653E+02  0.34753290693E+02  0.46142317389E+02  0.99999966093E+01 0.  0.
         12    1    1    2    0    0  0.28532277840E+01  0.28516335653E+02 -0.34753290693E+02  0.45045682611E+02  0.00000000000E+00 0. -1.
         11    1    3    3    0    0 -0.22582889750E+01 -0.15088352724E+02  0.14005952672E+02  0.20710503798E+02  0.51100000000E-03 0. -1.
        -11    1    3    3    0    0 -0.30613095981E+01 -0.45349163826E+01  0.81247848250E+01  0.97953668521E+01  0.51100000000E-03 0.  1.
         12    1    3    3    0    0  0.24663707891E+01 -0.88930665465E+01  0.12622553196E+02  0.15636446740E+02  0.00000000000E+00 0. -1.
</event>
<event>
 7    1  0.2097247E-008  0.4614232E+02  0.7816164E-02  0.1320468E+00
        -11   -1    0    0    0    0  0.00000000000E+00  0.00000000000E+00  0.45593999997E+02  0.45594000000E+02  0.51100000000E-03 0. -1.
         11   -1    0    0    0    0 -0.00000000000E+00 -0.00000000000E+00 -0.45593999997E+02  0.45594000000E+02  0.51100000000E-03 0.  1.
    9900012    2    1    2    0    0  0.41525132089E+02 -0.13813623925E+02 -0.10675239200E+02  0.46142317266E+02  0.99999954864E+01 0.  0.
         12    1    1    2    0    0 -0.41525132089E+02  0.13813623925E+02  0.10675239200E+02  0.45045682734E+02  0.00000000000E+00 0. -1.
         11    1    3    3    0    0  0.11319792729E+02 -0.67189837150E+01 -0.41324209988E+01  0.13797077704E+02  0.51100000000E-03 0. -1.
        -11    1    3    3    0    0  0.18325627422E+02 -0.48591322517E+01 -0.83517537823E+00  0.18977283916E+02  0.51100000000E-03 0.  1.
        -12    1    3    3    0    0  0.11879711938E+02 -0.22355079579E+01 -0.57076428232E+01  0.13367955646E+02  0.00000000000E+00 0.  1.
</event>
<event>
 7    1  0.2210274E-008  0.4614232E+02  0.7816164E-02  0.1320468E+00
        -11   -1    0    0    0    0  0.00000000000E+00  0.00000000000E+00  0.45593999997E+02  0.45594000000E+02  0.51100000000E-03 0. -1.
         11   -1    0    0    0    0 -0.00000000000E+00 -0.00000000000E+00 -0.45593999997E+02  0.45594000000E+02  0.51100000000E-03 0.  1.
    9900012    2    1    2    0    0 -0.44889251283E+02 -0.35465277464E+01  0.12209542648E+01  0.46142317975E+02  0.10000001949E+02 0.  0.
         12    1    1    2    0    0  0.44889251283E+02  0.35465277464E+01 -0.12209542648E+01  0.45045682025E+02  0.00000000000E+00 0. -1.
         11    1    3    3    0    0 -0.34882474436E+01  0.14394361817E+01 -0.73221733469E+00  0.38439548951E+01  0.51100000000E-03 0. -1.
        -11    1    3    3    0    0 -0.56783530307E-01 -0.46361103338E-01 -0.57858417226E+00  0.58320976220E+00  0.51100000000E-03 0.  1.
        -12    1    3    3    0    0 -0.41344220309E+02 -0.49396028247E+01  0.25317557717E+01  0.41715153318E+02  0.00000000000E+00 0.  1.
</event>
<event>
 7    1  0.2097247E-008  0.4614232E+02  0.7816164E-02  0.1320468E+00
        -11   -1    0    0    0    0  0.00000000000E+00  0.00000000000E+00  0.45593999997E+02  0.45594000000E+02  0.51100000000E-03 0.  1.
         11   -1    0    0    0    0 -0.00000000000E+00 -0.00000000000E+00 -0.45593999997E+02  0.45594000000E+02  0.51100000000E-03 0. -1.
    9900012    2    1    2    0    0  0.11809303058E+02 -0.14677052556E+02  0.40917454516E+02  0.46142316582E+02  0.99999892506E+01 0.  0.
         12    1    1    2    0    0 -0.11809303058E+02  0.14677052556E+02 -0.40917454516E+02  0.45045683418E+02  0.00000000000E+00 0. -1.
         11    1    3    3    0    0 -0.67319399721E+00 -0.53626319249E+00  0.38902619718E+01  0.39843326718E+01  0.51100000000E-03 0. -1.
        -11    1    3    3    0    0  0.10735779066E+02 -0.70903225108E+01  0.24700134649E+02  0.27850067816E+02  0.51100000000E-03 0.  1.
         12    1    3    3    0    0  0.17467179894E+01 -0.70504668532E+01  0.12327057896E+02  0.14307916094E+02  0.00000000000E+00 0. -1.
</event>
<event>
 7    1  0.2097247E-008  0.4614232E+02  0.7816164E-02  0.1320468E+00
        -11   -1    0    0    0    0  0.00000000000E+00  0.00000000000E+00  0.45593999997E+02  0.45594000000E+02  0.51100000000E-03 0. -1.
         11   -1    0    0    0    0 -0.00000000000E+00 -0.00000000000E+00 -0.45593999997E+02  0.45594000000E+02  0.51100000000E-03 0.  1.
    9900012    2    1    2    0    0 -0.22880821609E+02  0.13609803137E+02 -0.36336686062E+02  0.46142317711E+02  0.99999995431E+01 0.  0.
         12    1    1    2    0    0  0.22880821609E+02 -0.13609803137E+02  0.36336686062E+02  0.45045682289E+02  0.00000000000E+00 0. -1.
         11    1    3    3    0    0 -0.11128203164E+02  0.68840330687E+01 -0.17043069939E+02  0.21487043774E+02  0.51100000000E-03 0. -1.
        -11    1    3    3    0    0 -0.10841448625E+02  0.57791775468E+01 -0.19754258409E+02  0.23262988349E+02  0.51100000000E-03 0.  1.
         12    1    3    3    0    0 -0.91116982021E+00  0.94659252112E+00  0.46064228554E+00  0.13922855876E+01  0.00000000000E+00 0. -1.
</event>
<event>
 7    1  0.2097247E-008  0.4614231E+02  0.7816164E-02  0.1320468E+00
        -11   -1    0    0    0    0  0.00000000000E+00  0.00000000000E+00  0.45593999997E+02  0.45594000000E+02  0.51100000000E-03 0.  1.
         11   -1    0    0    0    0 -0.00000000000E+00 -0.00000000000E+00 -0.45593999997E+02  0.45594000000E+02  0.51100000000E-03 0. -1.
    9900012    2    1    2    0    0  0.34482769983E+02 -0.12404940922E+02  0.26194845851E+02  0.46142312813E+02  0.99999548823E+01 0.  0.
         12    1    1    2    0    0 -0.34482769983E+02  0.12404940922E+02 -0.26194845851E+02  0.45045687187E+02  0.00000000000E+00 0. -1.
         11    1    3    3    0    0  0.13708052250E+02 -0.30906514892E+01  0.85660295258E+01  0.16457207698E+02  0.51100000000E-03 0. -1.
        -11    1    3    3    0    0  0.13895969541E+02 -0.43003430110E+01  0.72216148074E+01  0.16240155177E+02  0.51100000000E-03 0.  1.
         12    1    3    3    0    0  0.68787481919E+01 -0.50139464216E+01  0.10407201518E+02  0.13444949938E+02  0.00000000000E+00 0. -1.
</event>
<event>
 7    1  0.2097247E-008  0.4614232E+02  0.7816164E-02  0.1320468E+00
        -11   -1    0    0    0    0  0.00000000000E+00  0.00000000000E+00  0.45593999997E+02  0.45594000000E+02  0.51100000000E-03 0.  1.
         11   -1    0    0    0    0 -0.00000000000E+00 -0.00000000000E+00 -0.45593999997E+02  0.45594000000E+02  0.51100000000E-03 0. -1.
    9900012    2    1    2    0    0 -0.42503324088E+02  0.11560129376E+02  0.94310301622E+01  0.46142317858E+02  0.10000000885E+02 0.  0.
         12    1    1    2    0    0  0.42503324088E+02 -0.11560129376E+02 -0.94310301622E+01  0.45045682142E+02  0.00000000000E+00 0. -1.
         11    1    3    3    0    0 -0.17632462681E+02  0.49412209593E+01  0.29428261672E+01  0.18546687868E+02  0.51100000000E-03 0. -1.
        -11    1    3    3    0    0 -0.14087113448E+02  0.74496990503E+01  0.28790065803E+01  0.16193624066E+02  0.51100000000E-03 0.  1.
         12    1    3    3    0    0 -0.10783747959E+02 -0.83079063334E+00  0.36091974148E+01  0.11402005924E+02  0.00000000000E+00 0. -1.
</event>
<event>
 7    1  0.2097247E-008  0.4614232E+02  0.7816164E-02  0.1320468E+00
        -11   -1    0    0    0    0  0.00000000000E+00  0.00000000000E+00  0.45593999997E+02  0.45594000000E+02  0.51100000000E-03 0.  1.
         11   -1    0    0    0    0 -0.00000000000E+00 -0.00000000000E+00 -0.45593999997E+02  0.45594000000E+02  0.51100000000E-03 0. -1.
    9900012    2    1    2    0    0 -0.32947440275E+02 -0.71632570599E+00  0.30709390955E+02  0.46142316122E+02  0.99999850562E+01 0.  0.
         12    1    1    2    0    0  0.32947440275E+02  0.71632570599E+00 -0.30709390955E+02  0.45045683878E+02  0.00000000000E+00 0. -1.
         11    1    3    3    0    0  0.41307863557E+00 -0.17641182173E+00  0.18092512822E+00  0.48424090405E+00  0.51100000000E-03 0.  1.
        -11    1    3    3    0    0 -0.79809817507E+01 -0.28123099366E+01  0.71859557830E+01  0.11101491686E+02  0.51100000000E-03 0. -1.
        -12    1    3    3    0    0 -0.25379537160E+02  0.22723960523E+01  0.23342510044E+02  0.34556583532E+02  0.00000000000E+00 0.  1.
</event>
<event>
 7    1  0.2097247E-008  0.4614232E+02  0.7816164E-02  0.1320468E+00
        -11   -1    0    0    0    0  0.00000000000E+00  0.00000000000E+00  0.45593999997E+02  0.45594000000E+02  0.51100000000E-03 0. -1.
         11   -1    0    0    0    0 -0.00000000000E+00 -0.00000000000E+00 -0.45593999997E+02  0.45594000000E+02  0.51100000000E-03 0.  1.
    9900012    2    1    2    0    0 -0.28253472278E+02 -0.14249621133E+02 -0.32059368432E+02  0.46142317605E+02  0.99999985734E+01 0.  0.
         12    1    1    2    0    0  0.28253472278E+02  0.14249621133E+02  0.32059368432E+02  0.45045682395E+02  0.00000000000E+00 0. -1.
         11    1    3    3    0    0 -0.31920514653E+01 -0.50820402499E+01 -0.83008488909E+01  0.10243066837E+02  0.51100000000E-03 0. -1.
        -11    1    3    3    0    0 -0.58518871526E+01 -0.31078054865E+01 -0.43413118771E+01  0.79214914798E+01  0.51100000000E-03 0.  1.
        -12    1    3    3    0    0 -0.19209533660E+02 -0.60597753967E+01 -0.19417207664E+02  0.27977759288E+02  0.00000000000E+00 0.  1.
</event>
<event>
 7    1  0.2097247E-008  0.4614232E+02  0.7816164E-02  0.1320468E+00
        -11   -1    0    0    0    0  0.00000000000E+00  0.00000000000E+00  0.45593999997E+02  0.45594000000E+02  0.51100000000E-03 0.  1.
         11   -1    0    0    0    0 -0.00000000000E+00 -0.00000000000E+00 -0.45593999997E+02  0.45594000000E+02  0.51100000000E-03 0. -1.
    9900012    2    1    2    0    0 -0.16691378710E+01  0.44549895580E+02  0.64524704129E+01  0.46142316613E+02  0.99999895281E+01 0.  0.
         12    1    1    2    0    0  0.16691378710E+01 -0.44549895580E+02 -0.64524704129E+01  0.45045683387E+02  0.00000000000E+00 0. -1.
         11    1    3    3    0    0  0.19574741964E+01  0.20383167022E+01  0.14558425559E+01  0.31789806568E+01  0.51100000000E-03 0. -1.
        -11    1    3    3    0    0 -0.15494758541E+01  0.17484062599E+02  0.23995043062E+01  0.17715838721E+02  0.51100000000E-03 0.  1.
         12    1    3    3    0    0 -0.20771362132E+01  0.25027516278E+02  0.25971235509E+01  0.25247497235E+02  0.00000000000E+00 0. -1.
</event>
<event>
 7    1  0.2097247E-008  0.4614232E+02  0.7816164E-02  0.1320468E+00
        -11   -1    0    0    0    0  0.00000000000E+00  0.00000000000E+00  0.45593999997E+02  0.45594000000E+02  0.51100000000E-03 0.  1.
         11   -1    0    0    0    0 -0.00000000000E+00 -0.00000000000E+00 -0.45593999997E+02  0.45594000000E+02  0.51100000000E-03 0. -1.
    9900012    2    1    2    0    0 -0.20272620906E+02  0.28484879324E+02  0.28403274101E+02  0.46142317763E+02  0.10000000019E+02 0.  0.
         12    1    1    2    0    0  0.20272620906E+02 -0.28484879324E+02 -0.28403274101E+02  0.45045682237E+02  0.00000000000E+00 0. -1.
         11    1    3    3    0    0 -0.14296588569E+02  0.16402383426E+02  0.16657556906E+02  0.27402642739E+02  0.51100000000E-03 0. -1.
        -11    1    3    3    0    0 -0.56371557995E+01  0.12210451779E+02  0.95021224007E+01  0.16467027313E+02  0.51100000000E-03 0.  1.
        -12    1    3    3    0    0 -0.33887653812E+00 -0.12795588129E+00  0.22435947940E+01  0.22726477104E+01  0.00000000000E+00 0.  1.
</event>
<event>
 7    1  0.2097247E-008  0.4614232E+02  0.7816164E-02  0.1320468E+00
        -11   -1    0    0    0    0  0.00000000000E+00  0.00000000000E+00  0.45593999997E+02  0.45594000000E+02  0.51100000000E-03 0.  1.
         11   -1    0    0    0    0 -0.00000000000E+00 -0.00000000000E+00 -0.45593999997E+02  0.45594000000E+02  0.51100000000E-03 0. -1.
    9900012    2    1    2    0    0 -0.38154021039E+02  0.23887364746E+02  0.16667106803E+01  0.46142318293E+02  0.10000004852E+02 0.  0.
         12    1    1    2    0    0  0.38154021039E+02 -0.23887364746E+02 -0.16667106803E+01  0.45045681707E+02  0.00000000000E+00 0. -1.
         11    1    3    3    0    0 -0.28958490914E+00  0.10667482044E+01 -0.40635257453E+00  0.11776815474E+01  0.51100000000E-03 0. -1.
        -11    1    3    3    0    0 -0.22557652930E+02  0.16910501591E+02  0.38764867809E+01  0.28457686480E+02  0.51100000000E-03 0.  1.
         12    1    3    3    0    0 -0.15306783200E+02  0.59101149497E+01 -0.18034235261E+01  0.16506950266E+02  0.00000000000E+00 0. -1.
</event>
<event>
 7    1  0.2097247E-008  0.4614232E+02  0.7816164E-02  0.1320468E+00
        -11   -1    0    0    0    0  0.00000000000E+00  0.00000000000E+00  0.45593999997E+02  0.45594000000E+02  0.51100000000E-03 0.  1.
         11   -1    0    0    0    0 -0.00000000000E+00 -0.00000000000E+00 -0.45593999997E+02  0.45594000000E+02  0.51100000000E-03 0. -1.
    9900012    2    1    2    0    0 -0.44406841049E+02 -0.69226777022E+00  0.75277333367E+01  0.46142317235E+02  0.99999951998E+01 0.  0.
         12    1    1    2    0    0  0.44406841049E+02  0.69226777022E+00 -0.75277333367E+01  0.45045682765E+02  0.00000000000E+00 0. -1.
         11    1    3    3    0    0 -0.24086095076E+02 -0.20732862362E+01  0.41274423841E+01  0.24524972430E+02  0.51100000000E-03 0. -1.
        -11    1    3    3    0    0 -0.72482444803E+00 -0.34190567626E+00 -0.11735541844E+01  0.14210910093E+01  0.51100000000E-03 0.  1.
        -12    1    3    3    0    0 -0.19595921525E+02  0.17229241422E+01  0.45738451370E+01  0.20196253795E+02  0.00000000000E+00 0.  1.
</event>
<event>
 7    1  0.2097247E-008  0.4614232E+02  0.7816164E-02  0.1320468E+00
        -11   -1    0    0    0    0  0.00000000000E+00  0.00000000000E+00  0.45593999997E+02  0.45594000000E+02  0.51100000000E-03 0.  1.
         11   -1    0    0    0    0 -0.00000000000E+00 -0.00000000000E+00 -0.45593999997E+02  0.45594000000E+02  0.51100000000E-03 0. -1.
    9900012    2    1    2    0    0  0.32529705039E+02 -0.22282702777E+02  0.21781023090E+02  0.46142317412E+02  0.99999968148E+01 0.  0.
         12    1    1    2    0    0 -0.32529705039E+02  0.22282702777E+02 -0.21781023090E+02  0.45045682588E+02  0.00000000000E+00 0. -1.
         11    1    3    3    0    0  0.44855475202E+01 -0.11379804873E+01  0.40720595155E+01  0.61641548572E+01  0.51100000000E-03 0. -1.
        -11    1    3    3    0    0  0.27687235943E+02 -0.19416216294E+02  0.15639013352E+02  0.37257901554E+02  0.51100000000E-03 0.  1.
        -12    1    3    3    0    0  0.35692157644E+00 -0.17285059960E+01  0.20699502217E+01  0.27202610004E+01  0.00000000000E+00 0.  1.
</event>
<event>
 7    1  0.2097247E-008  0.4614232E+02  0.7816164E-02  0.1320468E+00
        -11   -1    0    0    0    0  0.00000000000E+00  0.00000000000E+00  0.45593999997E+02  0.45594000000E+02  0.51100000000E-03 0. -1.
         11   -1    0    0    0    0 -0.00000000000E+00 -0.00000000000E+00 -0.45593999997E+02  0.45594000000E+02  0.51100000000E-03 0.  1.
    9900012    2    1    2    0    0 -0.36780176438E+02 -0.23459566146E+02 -0.11224108588E+02  0.46142320560E+02  0.10000025522E+02 0.  0.
         12    1    1    2    0    0  0.36780176438E+02  0.23459566146E+02  0.11224108588E+02  0.45045679440E+02  0.00000000000E+00 0. -1.
         11    1    3    3    0    0 -0.18698027318E+02 -0.10155176644E+02 -0.35050522970E+01  0.21564536399E+02  0.51100000000E-03 0. -1.
        -11    1    3    3    0    0 -0.16130293424E+02 -0.13857772489E+02 -0.66297160072E+01  0.22275038920E+02  0.51100000000E-03 0.  1.
         12    1    3    3    0    0 -0.19518556967E+01  0.55338298615E+00 -0.10893402838E+01  0.23027452407E+01  0.00000000000E+00 0. -1.
</event>
<event>
 7    1  0.2097247E-008  0.4614232E+02  0.7816164E-02  0.1320468E+00
        -11   -1    0    0    0    0  0.00000000000E+00  0.00000000000E+00  0.45593999997E+02  0.45594000000E+02  0.51100000000E-03 0.  1.
         11   -1    0    0    0    0 -0.00000000000E+00 -0.00000000000E+00 -0.45593999997E+02  0.45594000000E+02  0.51100000000E-03 0. -1.
    9900012    2    1    2    0    0 -0.40349345734E+02  0.19863556232E+02  0.25461602524E+01  0.46142317639E+02  0.99999988878E+01 0.  0.
         12    1    1    2    0    0  0.40349345734E+02 -0.19863556232E+02 -0.25461602524E+01  0.45045682361E+02  0.00000000000E+00 0. -1.
         11    1    3    3    0    0  0.56306477179E-01  0.19525878814E+00  0.67700545383E+00  0.70684726734E+00  0.51100000000E-03 0. -1.
        -11    1    3    3    0    0 -0.10393587664E+02  0.21275432947E+01  0.10863455933E+01  0.10664579317E+02  0.51100000000E-03 0.  1.
         12    1    3    3    0    0 -0.30012064547E+02  0.17540754149E+02  0.78280920528E+00  0.34770891055E+02  0.00000000000E+00 0. -1.
</event>
<event>
 7    1  0.2097247E-008  0.4614233E+02  0.7816164E-02  0.1320468E+00
        -11   -1    0    0    0    0  0.00000000000E+00  0.00000000000E+00  0.45593999997E+02  0.45594000000E+02  0.51100000000E-03 0.  1.
         11   -1    0    0    0    0 -0.00000000000E+00 -0.00000000000E+00 -0.45593999997E+02  0.45594000000E+02  0.51100000000E-03 0. -1.
    9900012    2    1    2    0    0 -0.74130628727E+01  0.58285562254E+01  0.44047553008E+02  0.46142328789E+02  0.10000100560E+02 0.  0.
         12    1    1    2    0    0  0.74130628727E+01 -0.58285562254E+01 -0.44047553008E+02  0.45045671211E+02  0.00000000000E+00 0. -1.
         11    1    3    3    0    0 -0.15508847800E+01  0.13062571652E+01  0.51754286795E+01  0.55584722415E+01  0.51100000000E-03 0.  1.
        -11    1    3    3    0    0  0.18205680271E+00 -0.15771393615E+01  0.13266417963E+01  0.20689349825E+01  0.51100000000E-03 0. -1.
         12    1    3    3    0    0 -0.60442348954E+01  0.60994384217E+01  0.37545482533E+02  0.38514921565E+02  0.00000000000E+00 0. -1.
</event>
<event>
 7    1  0.2097247E-008  0.4614232E+02  0.7816164E-02  0.1320468E+00
        -11   -1    0    0    0    0  0.00000000000E+00  0.00000000000E+00  0.45593999997E+02  0.45594000000E+02  0.51100000000E-03 0.  1.
         11   -1    0    0    0    0 -0.00000000000E+00 -0.00000000000E+00 -0.45593999997E+02  0.45594000000E+02  0.51100000000E-03 0. -1.
    9900012    2    1    2    0    0 -0.11987424003E+02 -0.25421037951E+01  0.43346890224E+02  0.46142317432E+02  0.99999969952E+01 0.  0.
         12    1    1    2    0    0  0.11987424003E+02  0.25421037951E+01 -0.43346890224E+02  0.45045682568E+02  0.00000000000E+00 0. -1.
         11    1    3    3    0    0 -0.80226785869E+00 -0.11082628953E+01  0.14623066046E+00  0.13759593124E+01  0.51100000000E-03 0. -1.
        -11    1    3    3    0    0 -0.18222093170E+01  0.76888554002E+00  0.50926826155E+01  0.54632452125E+01  0.51100000000E-03 0.  1.
        -12    1    3    3    0    0 -0.93629468277E+01 -0.22027264399E+01  0.38107976948E+02  0.39303112907E+02  0.00000000000E+00 0.  1.
</event>
<event>
 7    1  0.2097247E-008  0.4614232E+02  0.7816164E-02  0.1320468E+00
        -11   -1    0    0    0    0  0.00000000000E+00  0.00000000000E+00  0.45593999997E+02  0.45594000000E+02  0.51100000000E-03 0. -1.
         11   -1    0    0    0    0 -0.00000000000E+00 -0.00000000000E+00 -0.45593999997E+02  0.45594000000E+02  0.51100000000E-03 0.  1.
    9900012    2    1    2    0    0 -0.25868151681E+02  0.35265349774E+02 -0.10784585144E+02  0.46142318267E+02  0.10000004615E+02 0.  0.
         12    1    1    2    0    0  0.25868151681E+02 -0.35265349774E+02  0.10784585144E+02  0.45045681733E+02  0.00000000000E+00 0. -1.
         11    1    3    3    0    0 -0.18572026816E+02  0.23773843691E+02 -0.32031077004E+01  0.30337694756E+02  0.51100000000E-03 0. -1.
        -11    1    3    3    0    0 -0.45351377801E+01  0.51273212851E+01 -0.28921499348E+01  0.74311122823E+01  0.51100000000E-03 0.  1.
         12    1    3    3    0    0 -0.27609870852E+01  0.63641847977E+01 -0.46893275087E+01  0.83735112294E+01  0.00000000000E+00 0. -1.
</event>
<event>
 7    1  0.2097247E-008  0.4614232E+02  0.7816164E-02  0.1320468E+00
        -11   -1    0    0    0    0  0.00000000000E+00  0.00000000000E+00  0.45593999997E+02  0.45594000000E+02  0.51100000000E-03 0.  1.
         11   -1    0    0    0    0 -0.00000000000E+00 -0.00000000000E+00 -0.45593999997E+02  0.45594000000E+02  0.51100000000E-03 0. -1.
    9900012    2    1    2    0    0  0.26228711659E+02  0.22141697461E+01  0.36554964228E+02  0.46142320155E+02  0.10000021833E+02 0.  0.
         12    1    1    2    0    0 -0.26228711659E+02 -0.22141697461E+01 -0.36554964228E+02  0.45045679845E+02  0.00000000000E+00 0. -1.
         11    1    3    3    0    0  0.18784767718E+00  0.18444874789E+00  0.42434981995E+00  0.49938073775E+00  0.51100000000E-03 0. -1.
        -11    1    3    3    0    0  0.13231125672E+02  0.59292744462E+01  0.18977380713E+02  0.23882210137E+02  0.51100000000E-03 0.  1.
         12    1    3    3    0    0  0.12809738310E+02 -0.38995534480E+01  0.17153233694E+02  0.21760729281E+02  0.00000000000E+00 0. -1.
</event>
<event>
 7    1  0.2097247E-008  0.4614232E+02  0.7816164E-02  0.1320468E+00
        -11   -1    0    0    0    0  0.00000000000E+00  0.00000000000E+00  0.45593999997E+02  0.45594000000E+02  0.51100000000E-03 0.  1.
         11   -1    0    0    0    0 -0.00000000000E+00 -0.00000000000E+00 -0.45593999997E+02  0.45594000000E+02  0.51100000000E-03 0. -1.
    9900012    2    1    2    0    0 -0.15205849274E+02  0.48930871798E+01  0.42118325303E+02  0.46142317847E+02  0.10000000785E+02 0.  0.
         12    1    1    2    0    0  0.15205849274E+02 -0.48930871798E+01 -0.42118325303E+02  0.45045682153E+02  0.00000000000E+00 0. -1.
         11    1    3    3    0    0 -0.82759891682E-02  0.14376299585E+01  0.31118328248E+01  0.34278786706E+01  0.51100000000E-03 0. -1.
        -11    1    3    3    0    0 -0.10753789568E+02  0.59420993407E+01  0.26430006800E+02  0.29146145446E+02  0.51100000000E-03 0.  1.
        -12    1    3    3    0    0 -0.44437837169E+01 -0.24866421195E+01  0.12576485678E+02  0.13568293731E+02  0.00000000000E+00 0.  1.
</event>
<event>
 7    1  0.2097247E-008  0.4614232E+02  0.7816164E-02  0.1320468E+00
        -11   -1    0    0    0    0  0.00000000000E+00  0.00000000000E+00  0.45593999997E+02  0.45594000000E+02  0.51100000000E-03 0. -1.
         11   -1    0    0    0    0 -0.00000000000E+00 -0.00000000000E+00 -0.45593999997E+02  0.45594000000E+02  0.51100000000E-03 0.  1.
    9900012    2    1    2    0    0 -0.17397144126E+02 -0.30539252566E+02 -0.28174578502E+02  0.46142318245E+02  0.10000004410E+02 0.  0.
         12    1    1    2    0    0  0.17397144126E+02  0.30539252566E+02  0.28174578502E+02  0.45045681755E+02  0.00000000000E+00 0. -1.
         11    1    3    3    0    0 -0.36891433618E+01 -0.37799049533E+01 -0.25794724913E+01  0.58780216735E+01  0.51100000000E-03 0. -1.
        -11    1    3    3    0    0 -0.63918817652E+01 -0.12284083787E+02 -0.16942332315E+02  0.21881441715E+02  0.51100000000E-03 0.  1.
        -12    1    3    3    0    0 -0.73161189992E+01 -0.14475263826E+02 -0.86527736952E+01  0.18382854857E+02  0.00000000000E+00 0.  1.
</event>
<event>
 7    1  0.2097247E-008  0.4614232E+02  0.7816164E-02  0.1320468E+00
        -11   -1    0    0    0    0  0.00000000000E+00  0.00000000000E+00  0.45593999997E+02  0.45594000000E+02  0.51100000000E-03 0.  1.
         11   -1    0    0    0    0 -0.00000000000E+00 -0.00000000000E+00 -0.45593999997E+02  0.45594000000E+02  0.51100000000E-03 0. -1.
    9900012    2    1    2    0    0  0.41738773553E+02  0.15651479341E+02  0.64822464857E+01  0.46142317157E+02  0.99999944943E+01 0.  0.
         12    1    1    2    0    0 -0.41738773553E+02 -0.15651479341E+02 -0.64822464857E+01  0.45045682843E+02  0.00000000000E+00 0. -1.
         11    1    3    3    0    0  0.13991109850E+02  0.19940178158E+01  0.12271202461E+01  0.14185664815E+02  0.51100000000E-03 0. -1.
        -11    1    3    3    0    0  0.26092727741E+02  0.12775134081E+02  0.32863202724E+01  0.29237551077E+02  0.51100000000E-03 0.  1.
        -12    1    3    3    0    0  0.16549359613E+01  0.88232744447E+00  0.19688059672E+01  0.27191012655E+01  0.00000000000E+00 0.  1.
</event>
<event>
 7    1  0.2097247E-008  0.4614232E+02  0.7816164E-02  0.1320468E+00
        -11   -1    0    0    0    0  0.00000000000E+00  0.00000000000E+00  0.45593999997E+02  0.45594000000E+02  0.51100000000E-03 0. -1.
         11   -1    0    0    0    0 -0.00000000000E+00 -0.00000000000E+00 -0.45593999997E+02  0.45594000000E+02  0.51100000000E-03 0.  1.
    9900012    2    1    2    0    0  0.35574236581E+02 -0.25812406121E+02 -0.98644221870E+01  0.46142318262E+02  0.10000004572E+02 0.  0.
         12    1    1    2    0    0 -0.35574236581E+02  0.25812406121E+02  0.98644221870E+01  0.45045681738E+02  0.00000000000E+00 0. -1.
         11    1    3    3    0    0  0.51828467357E+01 -0.70174689544E+01 -0.29827295831E+01  0.92197313865E+01  0.51100000000E-03 0. -1.
        -11    1    3    3    0    0  0.25945156917E+02 -0.16254963150E+02 -0.80775620861E+01  0.31664206984E+02  0.51100000000E-03 0.  1.
         12    1    3    3    0    0  0.44462329288E+01 -0.25399740172E+01  0.11958694823E+01  0.52583798915E+01  0.00000000000E+00 0. -1.
</event>
<event>
 7    1  0.2097247E-008  0.4614232E+02  0.7816164E-02  0.1320468E+00
        -11   -1    0    0    0    0  0.00000000000E+00  0.00000000000E+00  0.45593999997E+02  0.45594000000E+02  0.51100000000E-03 0.  1.
         11   -1    0    0    0    0 -0.00000000000E+00 -0.00000000000E+00 -0.45593999997E+02  0.45594000000E+02  0.51100000000E-03 0. -1.
    9900012    2    1    2    0    0  0.25713115372E+02  0.35744457413E+02  0.95017366019E+01  0.46142317228E+02  0.99999951412E+01 0.  0.
         12    1    1    2    0    0 -0.25713115372E+02 -0.35744457413E+02 -0.95017366019E+01  0.45045682772E+02  0.00000000000E+00 0. -1.
         11    1    3    3    0    0  0.72915707778E+01  0.15349224826E+02  0.52739728950E+01  0.17792709112E+02  0.51100000000E-03 0. -1.
        -11    1    3    3    0    0  0.14373134680E+02  0.12524380792E+02  0.40872624490E+01  0.19497508285E+02  0.51100000000E-03 0.  1.
         12    1    3    3    0    0  0.40484099144E+01  0.78708517954E+01  0.14050125796E+00  0.88520998313E+01  0.00000000000E+00 0. -1.
</event>
<event>
 7    1  0.2097247E-008  0.4614232E+02  0.7816164E-02  0.1320468E+00
        -11   -1    0    0    0    0  0.00000000000E+00  0.00000000000E+00  0.45593999997E+02  0.45594000000E+02  0.51100000000E-03 0.  1.
         11   -1    0    0    0    0 -0.00000000000E+00 -0.00000000000E+00 -0.45593999997E+02  0.45594000000E+02  0.51100000000E-03 0. -1.
    9900012    2    1    2    0    0 -0.14142374038E+02  0.26339098654E+01  0.42686874092E+02  0.46142318250E+02  0.10000004456E+02 0.  0.
         12    1    1    2    0    0  0.14142374038E+02 -0.26339098654E+01 -0.42686874092E+02  0.45045681750E+02  0.00000000000E+00 0. -1.
         11    1    3    3    0    0 -0.11473107113E+01  0.60419203162E+00  0.86103597870E+00  0.15565195460E+01  0.51100000000E-03 0. -1.
        -11    1    3    3    0    0 -0.82025487693E+01 -0.12510927451E+01  0.15034565497E+02  0.17172221735E+02  0.51100000000E-03 0.  1.
        -12    1    3    3    0    0 -0.47925145577E+01  0.32808105789E+01  0.26791272616E+02  0.27413576969E+02  0.00000000000E+00 0.  1.
</event>
<event>
 7    1  0.2097247E-008  0.4614232E+02  0.7816164E-02  0.1320468E+00
        -11   -1    0    0    0    0  0.00000000000E+00  0.00000000000E+00  0.45593999997E+02  0.45594000000E+02  0.51100000000E-03 0.  1.
         11   -1    0    0    0    0 -0.00000000000E+00 -0.00000000000E+00 -0.45593999997E+02  0.45594000000E+02  0.51100000000E-03 0. -1.
    9900012    2    1    2    0    0 -0.38661340451E+02 -0.17861540305E+02  0.14675808182E+02  0.46142320814E+02  0.10000027835E+02 0.  0.
         12    1    1    2    0    0  0.38661340451E+02  0.17861540305E+02 -0.14675808182E+02  0.45045679186E+02  0.00000000000E+00 0. -1.
         11    1    3    3    0    0 -0.21345628563E+02 -0.74235577180E+01  0.60207560565E+01  0.23387915078E+02  0.51100000000E-03 0. -1.
        -11    1    3    3    0    0 -0.12937965131E+02 -0.10493419704E+02  0.70996039131E+01  0.18108207388E+02  0.51100000000E-03 0.  1.
        -12    1    3    3    0    0 -0.43777467573E+01  0.55437116648E-01  0.15554482122E+01  0.46461983476E+01  0.00000000000E+00 0.  1.
</event>
<event>
 7    1  0.2097247E-008  0.4614232E+02  0.7816164E-02  0.1320468E+00
        -11   -1    0    0    0    0  0.00000000000E+00  0.00000000000E+00  0.45593999997E+02  0.45594000000E+02  0.51100000000E-03 0.  1.
         11   -1    0    0    0    0 -0.00000000000E+00 -0.00000000000E+00 -0.45593999997E+02  0.45594000000E+02  0.51100000000E-03 0. -1.
    9900012    2    1    2    0    0 -0.28918986937E+02 -0.14979951091E+02  0.31119235483E+02  0.46142316997E+02  0.99999930321E+01 0.  0.
         12    1    1    2    0    0  0.28918986937E+02  0.14979951091E+02 -0.31119235483E+02  0.45045683003E+02  0.00000000000E+00 0. -1.
         11    1    3    3    0    0 -0.86021748100E+00  0.65738150430E+00  0.23844066319E+00  0.11085931480E+01  0.51100000000E-03 0. -1.
        -11    1    3    3    0    0 -0.13599820131E+02 -0.55367437307E+01  0.10336723857E+02  0.17957129478E+02  0.51100000000E-03 0.  1.
         12    1    3    3    0    0 -0.14458949325E+02 -0.10100588864E+02  0.20544070963E+02  0.27076594371E+02  0.00000000000E+00 0. -1.
</event>
<event>
 7    1  0.2097247E-008  0.4614232E+02  0.7816164E-02  0.1320468E+00
        -11   -1    0    0    0    0  0.00000000000E+00  0.00000000000E+00  0.45593999997E+02  0.45594000000E+02  0.51100000000E-03 0.  1.
         11   -1    0    0    0    0 -0.00000000000E+00 -0.00000000000E+00 -0.45593999997E+02  0.45594000000E+02  0.51100000000E-03 0. -1.
    9900012    2    1    2    0    0 -0.31885705531E+02 -0.31803913678E+02 -0.96247588220E+00  0.46142317607E+02  0.99999985982E+01 0.  0.
         12    1    1    2    0    0  0.31885705531E+02  0.31803913678E+02  0.96247588220E+00  0.45045682393E+02  0.00000000000E+00 0. -1.
         11    1    3    3    0    0 -0.11333026586E+02 -0.14793437539E+02  0.10987706198E+01  0.18667902478E+02  0.51100000000E-03 0. -1.
        -11    1    3    3    0    0 -0.92252252664E+01 -0.11478439165E+02 -0.20509219387E+01  0.14868275890E+02  0.51100000000E-03 0.  1.
        -12    1    3    3    0    0 -0.11327453678E+02 -0.55320369737E+01 -0.10324563351E-01  0.12606139239E+02  0.00000000000E+00 0.  1.
</event>
<event>
 7    1  0.2097247E-008  0.4614232E+02  0.7816164E-02  0.1320468E+00
        -11   -1    0    0    0    0  0.00000000000E+00  0.00000000000E+00  0.45593999997E+02  0.45594000000E+02  0.51100000000E-03 0.  1.
         11   -1    0    0    0    0 -0.00000000000E+00 -0.00000000000E+00 -0.45593999997E+02  0.45594000000E+02  0.51100000000E-03 0. -1.
    9900012    2    1    2    0    0 -0.13664598835E+02  0.40709804714E+02  0.13605276270E+02  0.46142323142E+02  0.10000049072E+02 0.  0.
         12    1    1    2    0    0  0.13664598835E+02 -0.40709804714E+02 -0.13605276270E+02  0.45045676858E+02  0.00000000000E+00 0. -1.
         11    1    3    3    0    0 -0.63853037086E+01  0.93073829842E+01  0.30403140940E+01  0.11689439316E+02  0.51100000000E-03 0.  1.
        -11    1    3    3    0    0  0.74863233856E+00  0.33415885376E+01  0.22769947406E+01  0.41123435706E+01  0.51100000000E-03 0. -1.
         12    1    3    3    0    0 -0.80279274646E+01  0.28060833192E+02  0.82879674353E+01  0.30340540256E+02  0.00000000000E+00 0. -1.
</event>
<event>
 7    1  0.2097247E-008  0.4614232E+02  0.7816164E-02  0.1320468E+00
        -11   -1    0    0    0    0  0.00000000000E+00  0.00000000000E+00  0.45593999997E+02  0.45594000000E+02  0.51100000000E-03 0. -1.
         11   -1    0    0    0    0 -0.00000000000E+00 -0.00000000000E+00 -0.45593999997E+02  0.45594000000E+02  0.51100000000E-03 0.  1.
    9900012    2    1    2    0    0 -0.17238374388E+02 -0.41349845314E+02  0.47055783010E+01  0.46142315122E+02  0.99999759305E+01 0.  0.
         12    1    1    2    0    0  0.17238374388E+02  0.41349845314E+02 -0.47055783010E+01  0.45045684878E+02  0.00000000000E+00 0. -1.
         11    1    3    3    0    0 -0.96908660990E+01 -0.26391214033E+02 -0.38680881617E-01  0.28114241237E+02  0.51100000000E-03 0. -1.
        -11    1    3    3    0    0 -0.80189699545E+01 -0.12278559531E+02  0.38249991167E+01  0.15155775196E+02  0.51100000000E-03 0.  1.
         12    1    3    3    0    0  0.47146166519E+00 -0.26800717496E+01  0.91926006595E+00  0.28722986881E+01  0.00000000000E+00 0. -1.
</event>
<event>
 7    1  0.2097247E-008  0.4614232E+02  0.7816164E-02  0.1320468E+00
        -11   -1    0    0    0    0  0.00000000000E+00  0.00000000000E+00  0.45593999997E+02  0.45594000000E+02  0.51100000000E-03 0.  1.
         11   -1    0    0    0    0 -0.00000000000E+00 -0.00000000000E+00 -0.45593999997E+02  0.45594000000E+02  0.51100000000E-03 0. -1.
    9900012    2    1    2    0    0  0.43555008936E+02  0.91626492376E+01 -0.69368981960E+01  0.46142317621E+02  0.99999987193E+01 0.  0.
         12    1    1    2    0    0 -0.43555008936E+02 -0.91626492376E+01  0.69368981960E+01  0.45045682379E+02  0.00000000000E+00 0. -1.
         11    1    3    3    0    0  0.11419989505E+02  0.41121336705E+01 -0.26206910374E+01  0.12417480638E+02  0.51100000000E-03 0. -1.
        -11    1    3    3    0    0  0.23676584494E+02  0.70854894832E+01 -0.25264395715E+01  0.24842860377E+02  0.51100000000E-03 0.  1.
         12    1    3    3    0    0  0.84584349358E+01 -0.20349739162E+01 -0.17897675871E+01  0.88819766054E+01  0.00000000000E+00 0. -1.
</event>
<event>
 7    1  0.2097247E-008  0.4614232E+02  0.7816164E-02  0.1320468E+00
        -11   -1    0    0    0    0  0.00000000000E+00  0.00000000000E+00  0.45593999997E+02  0.45594000000E+02  0.51100000000E-03 0.  1.
         11   -1    0    0    0    0 -0.00000000000E+00 -0.00000000000E+00 -0.45593999997E+02  0.45594000000E+02  0.51100000000E-03 0. -1.
    9900012    2    1    2    0    0 -0.13748285456E+02  0.24030385335E+02  0.35533627822E+02  0.46142317870E+02  0.10000000994E+02 0.  0.
         12    1    1    2    0    0  0.13748285456E+02 -0.24030385335E+02 -0.35533627822E+02  0.45045682130E+02  0.00000000000E+00 0. -1.
         11    1    3    3    0    0  0.74246759345E-01  0.31341729439E+00  0.42172689067E+00  0.53065696371E+00  0.51100000000E-03 0. -1.
        -11    1    3    3    0    0 -0.11608311508E+02  0.13262089698E+02  0.26786068652E+02  0.32064456854E+02  0.51100000000E-03 0.  1.
         12    1    3    3    0    0 -0.22142207069E+01  0.10454878342E+02  0.83258322794E+01  0.13547204052E+02  0.00000000000E+00 0. -1.
</event>
<event>
 7    1  0.2097247E-008  0.4614232E+02  0.7816164E-02  0.1320468E+00
        -11   -1    0    0    0    0  0.00000000000E+00  0.00000000000E+00  0.45593999997E+02  0.45594000000E+02  0.51100000000E-03 0.  1.
         11   -1    0    0    0    0 -0.00000000000E+00 -0.00000000000E+00 -0.45593999997E+02  0.45594000000E+02  0.51100000000E-03 0. -1.
    9900012    2    1    2    0    0  0.33991156470E+01 -0.21529543658E+02  0.39421292539E+02  0.46142317158E+02  0.99999944965E+01 0.  0.
         12    1    1    2    0    0 -0.33991156470E+01  0.21529543658E+02 -0.39421292539E+02  0.45045682842E+02  0.00000000000E+00 0. -1.
         11    1    3    3    0    0  0.25708013036E+01 -0.56011150320E+01  0.68272267856E+01  0.91974200071E+01  0.51100000000E-03 0. -1.
        -11    1    3    3    0    0 -0.20463237622E+01 -0.48655825060E+01  0.59576695925E+01  0.79595955486E+01  0.51100000000E-03 0.  1.
        -12    1    3    3    0    0  0.28746381057E+01 -0.11062846120E+02  0.26636396161E+02  0.28985301602E+02  0.00000000000E+00 0.  1.
</event>
<event>
 7    1  0.2097247E-008  0.4614233E+02  0.7816164E-02  0.1320468E+00
        -11   -1    0    0    0    0  0.00000000000E+00  0.00000000000E+00  0.45593999997E+02  0.45594000000E+02  0.51100000000E-03 0.  1.
         11   -1    0    0    0    0 -0.00000000000E+00 -0.00000000000E+00 -0.45593999997E+02  0.45594000000E+02  0.51100000000E-03 0. -1.
    9900012    2    1    2    0    0 -0.11123838035E+02  0.30519444294E+02  0.31207953609E+02  0.46142327388E+02  0.10000087783E+02 0.  0.
         12    1    1    2    0    0  0.11123838035E+02 -0.30519444294E+02 -0.31207953609E+02  0.45045672612E+02  0.00000000000E+00 0. -1.
         11    1    3    3    0    0 -0.42815339208E+01  0.67000754129E+01  0.76111012832E+01  0.11006879951E+02  0.51100000000E-03 0. -1.
        -11    1    3    3    0    0 -0.63169352525E+01  0.12574701855E+02  0.17072064905E+02  0.22124244577E+02  0.51100000000E-03 0.  1.
         12    1    3    3    0    0 -0.52536886148E+00  0.11244667026E+02  0.65247874214E+01  0.13011202860E+02  0.00000000000E+00 0. -1.
</event>
<event>
 7    1  0.2097247E-008  0.4614232E+02  0.7816164E-02  0.1320468E+00
        -11   -1    0    0    0    0  0.00000000000E+00  0.00000000000E+00  0.45593999997E+02  0.45594000000E+02  0.51100000000E-03 0.  1.
         11   -1    0    0    0    0 -0.00000000000E+00 -0.00000000000E+00 -0.45593999997E+02  0.45594000000E+02  0.51100000000E-03 0. -1.
    9900012    2    1    2    0    0  0.10875794513E+02  0.21912637614E+01  0.43658091384E+02  0.46142317782E+02  0.10000000195E+02 0.  0.
         12    1    1    2    0    0 -0.10875794513E+02 -0.21912637614E+01 -0.43658091384E+02  0.45045682218E+02  0.00000000000E+00 0. -1.
         11    1    3    3    0    0  0.54072362608E+00  0.18545070476E+01  0.32541443549E+01  0.37843142276E+01  0.51100000000E-03 0. -1.
        -11    1    3    3    0    0  0.58662463790E+01  0.32618164633E+01  0.15552265267E+02  0.16938867979E+02  0.51100000000E-03 0.  1.
        -12    1    3    3    0    0  0.44688245083E+01 -0.29250597495E+01  0.24851681762E+02  0.25419135576E+02  0.00000000000E+00 0.  1.
</event>
<event>
 7    1  0.2097247E-008  0.4614233E+02  0.7816164E-02  0.1320468E+00
        -11   -1    0    0    0    0  0.00000000000E+00  0.00000000000E+00  0.45593999997E+02  0.45594000000E+02  0.51100000000E-03 0.  1.
         11   -1    0    0    0    0 -0.00000000000E+00 -0.00000000000E+00 -0.45593999997E+02  0.45594000000E+02  0.51100000000E-03 0. -1.
    9900012    2    1    2    0    0 -0.20060163666E+02 -0.18583933385E+02  0.35795810026E+02  0.46142325826E+02  0.10000073539E+02 0.  0.
         12    1    1    2    0    0  0.20060163666E+02  0.18583933385E+02 -0.35795810026E+02  0.45045674174E+02  0.00000000000E+00 0. -1.
         11    1    3    3    0    0 -0.12082038958E+01 -0.40077215981E+01  0.98119383644E+01  0.10667507853E+02  0.51100000000E-03 0. -1.
        -11    1    3    3    0    0 -0.69425789218E+01 -0.37444300326E+01  0.66578653180E+01  0.10322176573E+02  0.51100000000E-03 0.  1.
         12    1    3    3    0    0 -0.11909380848E+02 -0.10831781755E+02  0.19326006344E+02  0.25152641400E+02  0.00000000000E+00 0. -1.
</event>
<event>
 7    1  0.2097247E-008  0.4614232E+02  0.7816164E-02  0.1320468E+00
        -11   -1    0    0    0    0  0.00000000000E+00  0.00000000000E+00  0.45593999997E+02  0.45594000000E+02  0.51100000000E-03 0.  1.
         11   -1    0    0    0    0 -0.00000000000E+00 -0.00000000000E+00 -0.45593999997E+02  0.45594000000E+02  0.51100000000E-03 0. -1.
    9900012    2    1    2    0    0  0.42531144581E+02  0.13152642514E+02 -0.68719076139E+01  0.46142318978E+02  0.10000011096E+02 0.  0.
         12    1    1    2    0    0 -0.42531144581E+02 -0.13152642514E+02  0.68719076139E+01  0.45045681022E+02  0.00000000000E+00 0. -1.
         11    1    3    3    0    0  0.24821495189E+00  0.83420602123E+00 -0.62966322360E+00  0.10742375829E+01  0.51100000000E-03 0. -1.
        -11    1    3    3    0    0  0.36546623735E+02  0.79326332443E+01 -0.56642804825E+01  0.37824151680E+02  0.51100000000E-03 0.  1.
        -12    1    3    3    0    0  0.57363058940E+01  0.43858032483E+01 -0.57796390773E+00  0.72439297154E+01  0.00000000000E+00 0.  1.
</event>
<event>
 7    1  0.2097247E-008  0.4614232E+02  0.7816164E-02  0.1320468E+00
        -11   -1    0    0    0    0  0.00000000000E+00  0.00000000000E+00  0.45593999997E+02  0.45594000000E+02  0.51100000000E-03 0.  1.
         11   -1    0    0    0    0 -0.00000000000E+00 -0.00000000000E+00 -0.45593999997E+02  0.45594000000E+02  0.51100000000E-03 0. -1.
    9900012    2    1    2    0    0  0.65314607272E+01 -0.44550047756E+02 -0.13216350119E+01  0.46142318149E+02  0.10000003540E+02 0.  0.
         12    1    1    2    0    0 -0.65314607272E+01  0.44550047756E+02  0.13216350119E+01  0.45045681851E+02  0.00000000000E+00 0. -1.
         11    1    3    3    0    0  0.35983781612E+00 -0.13955313642E+02  0.38940119578E+01  0.14492880717E+02  0.51100000000E-03 0. -1.
        -11    1    3    3    0    0  0.35619674060E+01 -0.18301653438E+02 -0.28478080335E+01  0.18861286839E+02  0.51100000000E-03 0.  1.
         12    1    3    3    0    0  0.26096555051E+01 -0.12293080676E+02 -0.23678389362E+01  0.12788150593E+02  0.00000000000E+00 0. -1.
</event>
<event>
 7    1  0.2097247E-008  0.4614232E+02  0.7816164E-02  0.1320468E+00
        -11   -1    0    0    0    0  0.00000000000E+00  0.00000000000E+00  0.45593999997E+02  0.45594000000E+02  0.51100000000E-03 0.  1.
         11   -1    0    0    0    0 -0.00000000000E+00 -0.00000000000E+00 -0.45593999997E+02  0.45594000000E+02  0.51100000000E-03 0. -1.
    9900012    2    1    2    0    0 -0.30779391116E+02 -0.30475466449E+02 -0.12368848916E+02  0.46142318783E+02  0.10000009316E+02 0.  0.
         12    1    1    2    0    0  0.30779391116E+02  0.30475466449E+02  0.12368848916E+02  0.45045681217E+02  0.00000000000E+00 0. -1.
         11    1    3    3    0    0 -0.24676771238E+02 -0.26993573811E+02 -0.10815308350E+02  0.38138785518E+02  0.51100000000E-03 0.  1.
        -11    1    3    3    0    0 -0.11664489726E+01 -0.25601846455E+01 -0.80711732559E+00  0.29268732912E+01  0.51100000000E-03 0. -1.
         12    1    3    3    0    0 -0.49361709055E+01 -0.92170799347E+00 -0.74642324047E+00  0.50766599736E+01  0.00000000000E+00 0. -1.
</event>
<event>
 7    1  0.2097247E-008  0.4614232E+02  0.7816164E-02  0.1320468E+00
        -11   -1    0    0    0    0  0.00000000000E+00  0.00000000000E+00  0.45593999997E+02  0.45594000000E+02  0.51100000000E-03 0.  1.
         11   -1    0    0    0    0 -0.00000000000E+00 -0.00000000000E+00 -0.45593999997E+02  0.45594000000E+02  0.51100000000E-03 0. -1.
    9900012    2    1    2    0    0  0.28891926130E+02  0.48165144520E+01  0.34222379506E+02  0.46142318009E+02  0.10000002258E+02 0.  0.
         12    1    1    2    0    0 -0.28891926130E+02 -0.48165144520E+01 -0.34222379506E+02  0.45045681991E+02  0.00000000000E+00 0. -1.
         11    1    3    3    0    0  0.29002664197E+01  0.58318963035E+00  0.84480592241E+00  0.30765813427E+01  0.51100000000E-03 0. -1.
        -11    1    3    3    0    0  0.25397845797E+01  0.22823686967E+01  0.64959554482E+01  0.73387430821E+01  0.51100000000E-03 0.  1.
        -12    1    3    3    0    0  0.23451875131E+02  0.19509561250E+01  0.26881618136E+02  0.35726993584E+02  0.00000000000E+00 0.  1.
</event>
<event>
 7    1  0.2097247E-008  0.4614232E+02  0.7816164E-02  0.1320468E+00
        -11   -1    0    0    0    0  0.00000000000E+00  0.00000000000E+00  0.45593999997E+02  0.45594000000E+02  0.51100000000E-03 0.  1.
         11   -1    0    0    0    0 -0.00000000000E+00 -0.00000000000E+00 -0.45593999997E+02  0.45594000000E+02  0.51100000000E-03 0. -1.
    9900012    2    1    2    0    0  0.21869749185E+02 -0.17528236622E+02  0.35264550478E+02  0.46142317311E+02  0.99999959001E+01 0.  0.
         12    1    1    2    0    0 -0.21869749185E+02  0.17528236622E+02 -0.35264550478E+02  0.45045682689E+02  0.00000000000E+00 0. -1.
         11    1    3    3    0    0  0.19757917232E+02 -0.16564145459E+02  0.27880379115E+02  0.37974488120E+02  0.51100000000E-03 0. -1.
        -11    1    3    3    0    0  0.25639273429E+01 -0.13254374806E+01  0.57407170372E+01  0.64254447548E+01  0.51100000000E-03 0.  1.
         12    1    3    3    0    0 -0.45209539036E+00  0.36134631797E+00  0.16434543258E+01  0.17423844364E+01  0.00000000000E+00 0. -1.
</event>
<event>
 7    1  0.2097247E-008  0.4614232E+02  0.7816164E-02  0.1320468E+00
        -11   -1    0    0    0    0  0.00000000000E+00  0.00000000000E+00  0.45593999997E+02  0.45594000000E+02  0.51100000000E-03 0. -1.
         11   -1    0    0    0    0 -0.00000000000E+00 -0.00000000000E+00 -0.45593999997E+02  0.45594000000E+02  0.51100000000E-03 0.  1.
    9900012    2    1    2    0    0 -0.27531490316E+02  0.24848965178E+02 -0.25566762949E+02  0.46142318774E+02  0.10000009237E+02 0.  0.
         12    1    1    2    0    0  0.27531490316E+02 -0.24848965178E+02  0.25566762949E+02  0.45045681226E+02  0.00000000000E+00 0. -1.
         11    1    3    3    0    0 -0.66008879875E+01  0.10089881712E+02 -0.84806077961E+01  0.14741036057E+02  0.51100000000E-03 0. -1.
        -11    1    3    3    0    0 -0.15089652780E+02  0.13329956045E+02 -0.11463809076E+02  0.23169036837E+02  0.51100000000E-03 0.  1.
         12    1    3    3    0    0 -0.58409495483E+01  0.14291274209E+01 -0.56223460774E+01  0.82322458798E+01  0.00000000000E+00 0. -1.
</event>
<event>
 7    1  0.2097247E-008  0.4614232E+02  0.7816164E-02  0.1320468E+00
        -11   -1    0    0    0    0  0.00000000000E+00  0.00000000000E+00  0.45593999997E+02  0.45594000000E+02  0.51100000000E-03 0. -1.
         11   -1    0    0    0    0 -0.00000000000E+00 -0.00000000000E+00 -0.45593999997E+02  0.45594000000E+02  0.51100000000E-03 0.  1.
    9900012    2    1    2    0    0 -0.59637099064E+01  0.38569354244E+02 -0.22493389399E+02  0.46142317750E+02  0.99999999032E+01 0.  0.
         12    1    1    2    0    0  0.59637099064E+01 -0.38569354244E+02  0.22493389399E+02  0.45045682250E+02  0.00000000000E+00 0. -1.
         11    1    3    3    0    0 -0.23518094082E+01  0.25064870570E+02 -0.14514119357E+02  0.29059222377E+02  0.51100000000E-03 0.  1.
        -11    1    3    3    0    0  0.30415098253E+00  0.94860413947E+01 -0.48453352630E+01  0.10656207732E+02  0.51100000000E-03 0. -1.
         12    1    3    3    0    0 -0.39160514807E+01  0.40184422795E+01 -0.31339347790E+01  0.64268876411E+01  0.00000000000E+00 0. -1.
</event>
<event>
 7    1  0.2097247E-008  0.4614232E+02  0.7816164E-02  0.1320468E+00
        -11   -1    0    0    0    0  0.00000000000E+00  0.00000000000E+00  0.45593999997E+02  0.45594000000E+02  0.51100000000E-03 0.  1.
         11   -1    0    0    0    0 -0.00000000000E+00 -0.00000000000E+00 -0.45593999997E+02  0.45594000000E+02  0.51100000000E-03 0. -1.
    9900012    2    1    2    0    0 -0.37379951222E+02 -0.73296263867E+01  0.24044321524E+02  0.46142316812E+02  0.99999913455E+01 0.  0.
         12    1    1    2    0    0  0.37379951222E+02  0.73296263867E+01 -0.24044321524E+02  0.45045683188E+02  0.00000000000E+00 0. -1.
         11    1    3    3    0    0 -0.13505731108E+02 -0.20181927587E+01  0.94375762703E+01  0.16599569901E+02  0.51100000000E-03 0.  1.
        -11    1    3    3    0    0 -0.13342392515E+02  0.71481121049E+00  0.58890585642E+01  0.14601760309E+02  0.51100000000E-03 0. -1.
         12    1    3    3    0    0 -0.10531827599E+02 -0.60262448385E+01  0.87176866897E+01  0.14940986602E+02  0.00000000000E+00 0. -1.
</event>
<event>
 7    1  0.2097247E-008  0.4614232E+02  0.7816164E-02  0.1320468E+00
        -11   -1    0    0    0    0  0.00000000000E+00  0.00000000000E+00  0.45593999997E+02  0.45594000000E+02  0.51100000000E-03 0. -1.
         11   -1    0    0    0    0 -0.00000000000E+00 -0.00000000000E+00 -0.45593999997E+02  0.45594000000E+02  0.51100000000E-03 0.  1.
    9900012    2    1    2    0    0 -0.38133829173E+02 -0.16531364437E+02 -0.17367739844E+02  0.46142319576E+02  0.10000016553E+02 0.  0.
         12    1    1    2    0    0  0.38133829173E+02  0.16531364437E+02  0.17367739844E+02  0.45045680424E+02  0.00000000000E+00 0. -1.
         11    1    3    3    0    0 -0.34693013032E+01  0.77911222504E+00 -0.68411943052E+00  0.36209235076E+01  0.51100000000E-03 0. -1.
        -11    1    3    3    0    0 -0.18538197623E+02 -0.67083928648E+01 -0.69279058096E+01  0.20896487387E+02  0.51100000000E-03 0.  1.
         12    1    3    3    0    0 -0.16126330247E+02 -0.10602083797E+02 -0.97557146039E+01  0.21624908682E+02  0.00000000000E+00 0. -1.
</event>
<event>
 7    1  0.2097247E-008  0.4614232E+02  0.7816164E-02  0.1320468E+00
        -11   -1    0    0    0    0  0.00000000000E+00  0.00000000000E+00  0.45593999997E+02  0.45594000000E+02  0.51100000000E-03 0. -1.
         11   -1    0    0    0    0 -0.00000000000E+00 -0.00000000000E+00 -0.45593999997E+02  0.45594000000E+02  0.51100000000E-03 0.  1.
    9900012    2    1    2    0    0 -0.25364647660E+02  0.14212131438E+02 -0.34405863238E+02  0.46142318119E+02  0.10000003266E+02 0.  0.
         12    1    1    2    0    0  0.25364647660E+02 -0.14212131438E+02  0.34405863238E+02  0.45045681881E+02  0.00000000000E+00 0. -1.
         11    1    3    3    0    0 -0.11397159599E+01 -0.27818449027E+00 -0.56258916725E+00  0.13010941212E+01  0.51100000000E-03 0. -1.
        -11    1    3    3    0    0 -0.19042841241E+02  0.90771581119E+01 -0.19842807793E+02  0.28961381585E+02  0.51100000000E-03 0.  1.
        -12    1    3    3    0    0 -0.51820904592E+01  0.54131578164E+01 -0.14000466278E+02  0.15879842413E+02  0.00000000000E+00 0.  1.
</event>
<event>
 7    1  0.2097247E-008  0.4614232E+02  0.7816164E-02  0.1320468E+00
        -11   -1    0    0    0    0  0.00000000000E+00  0.00000000000E+00  0.45593999997E+02  0.45594000000E+02  0.51100000000E-03 0. -1.
         11   -1    0    0    0    0 -0.00000000000E+00 -0.00000000000E+00 -0.45593999997E+02  0.45594000000E+02  0.51100000000E-03 0.  1.
    9900012    2    1    2    0    0 -0.45891306682E+00 -0.39254825334E+02 -0.22089851738E+02  0.46142318043E+02  0.10000002571E+02 0.  0.
         12    1    1    2    0    0  0.45891306682E+00  0.39254825334E+02  0.22089851738E+02  0.45045681957E+02  0.00000000000E+00 0. -1.
         11    1    3    3    0    0  0.59503738163E+00 -0.86084007774E+01 -0.73258845983E+01  0.11319329434E+02  0.51100000000E-03 0. -1.
        -11    1    3    3    0    0  0.20234697354E+01 -0.15152718610E+02 -0.10210149620E+02  0.18383320336E+02  0.51100000000E-03 0.  1.
        -12    1    3    3    0    0 -0.30774201838E+01 -0.15493705946E+02 -0.45538175197E+01  0.16439668273E+02  0.00000000000E+00 0.  1.
</event>
<event>
 7    1  0.2097247E-008  0.4614232E+02  0.7816164E-02  0.1320468E+00
        -11   -1    0    0    0    0  0.00000000000E+00  0.00000000000E+00  0.45593999997E+02  0.45594000000E+02  0.51100000000E-03 0.  1.
         11   -1    0    0    0    0 -0.00000000000E+00 -0.00000000000E+00 -0.45593999997E+02  0.45594000000E+02  0.51100000000E-03 0. -1.
    9900012    2    1    2    0    0 -0.43295623892E+02  0.17157581797E+01  0.12314970280E+02  0.46142319104E+02  0.10000012249E+02 0.  0.
         12    1    1    2    0    0  0.43295623892E+02 -0.17157581797E+01 -0.12314970280E+02  0.45045680896E+02  0.00000000000E+00 0. -1.
         11    1    3    3    0    0 -0.26891471907E+02  0.44783524853E+01  0.80970915583E+01  0.28438878218E+02  0.51100000000E-03 0.  1.
        -11    1    3    3    0    0 -0.34011961940E+01 -0.19836045360E+01  0.22339527013E+01  0.45269600659E+01  0.51100000000E-03 0. -1.
         12    1    3    3    0    0 -0.13002955791E+02 -0.77898976961E+00  0.19839260200E+01  0.13176480821E+02  0.00000000000E+00 0. -1.
</event>
<event>
 7    1  0.2097247E-008  0.4614232E+02  0.7816164E-02  0.1320468E+00
        -11   -1    0    0    0    0  0.00000000000E+00  0.00000000000E+00  0.45593999997E+02  0.45594000000E+02  0.51100000000E-03 0.  1.
         11   -1    0    0    0    0 -0.00000000000E+00 -0.00000000000E+00 -0.45593999997E+02  0.45594000000E+02  0.51100000000E-03 0. -1.
    9900012    2    1    2    0    0 -0.20253506952E+02  0.15431475434E+02  0.37158830905E+02  0.46142315499E+02  0.99999793724E+01 0.  0.
         12    1    1    2    0    0  0.20253506952E+02 -0.15431475434E+02 -0.37158830905E+02  0.45045684501E+02  0.00000000000E+00 0. -1.
         11    1    3    3    0    0 -0.91416948789E+00  0.16635226174E+01  0.56330926479E+01  0.59443036927E+01  0.51100000000E-03 0. -1.
        -11    1    3    3    0    0 -0.30631643295E+01  0.10912676446E+01  0.93992679707E+01  0.99458574004E+01  0.51100000000E-03 0.  1.
        -12    1    3    3    0    0 -0.16276173135E+02  0.12676685172E+02  0.22126470287E+02  0.30252154406E+02  0.00000000000E+00 0.  1.
</event>
<event>
 7    1  0.2097247E-008  0.4614232E+02  0.7816164E-02  0.1320468E+00
        -11   -1    0    0    0    0  0.00000000000E+00  0.00000000000E+00  0.45593999997E+02  0.45594000000E+02  0.51100000000E-03 0.  1.
         11   -1    0    0    0    0 -0.00000000000E+00 -0.00000000000E+00 -0.45593999997E+02  0.45594000000E+02  0.51100000000E-03 0. -1.
    9900012    2    1    2    0    0 -0.40688669452E+02 -0.17419305962E+02  0.83733764745E+01  0.46142317904E+02  0.10000001299E+02 0.  0.
         12    1    1    2    0    0  0.40688669452E+02  0.17419305962E+02 -0.83733764745E+01  0.45045682096E+02  0.00000000000E+00 0. -1.
         11    1    3    3    0    0 -0.29833708334E+02 -0.10334691949E+02  0.25651121113E+01  0.31677054962E+02  0.51100000000E-03 0. -1.
        -11    1    3    3    0    0 -0.34807041904E+01 -0.21325934408E+01  0.48791985116E+00  0.41111218039E+01  0.51100000000E-03 0.  1.
         12    1    3    3    0    0 -0.73742569272E+01 -0.49520205721E+01  0.53203445120E+01  0.10354141138E+02  0.00000000000E+00 0. -1.
</event>
<event>
 7    1  0.2097247E-008  0.4614232E+02  0.7816164E-02  0.1320468E+00
        -11   -1    0    0    0    0  0.00000000000E+00  0.00000000000E+00  0.45593999997E+02  0.45594000000E+02  0.51100000000E-03 0.  1.
         11   -1    0    0    0    0 -0.00000000000E+00 -0.00000000000E+00 -0.45593999997E+02  0.45594000000E+02  0.51100000000E-03 0. -1.
    9900012    2    1    2    0    0 -0.10758417654E+02  0.36816937229E+01  0.43586868078E+02  0.46142317766E+02  0.10000000046E+02 0.  0.
         12    1    1    2    0    0  0.10758417654E+02 -0.36816937229E+01 -0.43586868078E+02  0.45045682234E+02  0.00000000000E+00 0. -1.
         11    1    3    3    0    0 -0.46167056627E+01  0.26887244360E+01  0.89877598948E+01  0.10455765800E+02  0.51100000000E-03 0. -1.
        -11    1    3    3    0    0 -0.62570473117E+01  0.19848686471E+01  0.19924133354E+02  0.20977641306E+02  0.51100000000E-03 0.  1.
        -12    1    3    3    0    0  0.11533532084E+00 -0.99189936023E+00  0.14674974829E+02  0.14708910660E+02  0.00000000000E+00 0.  1.
</event>
<event>
 7    1  0.2097247E-008  0.4614232E+02  0.7816164E-02  0.1320468E+00
        -11   -1    0    0    0    0  0.00000000000E+00  0.00000000000E+00  0.45593999997E+02  0.45594000000E+02  0.51100000000E-03 0. -1.
         11   -1    0    0    0    0 -0.00000000000E+00 -0.00000000000E+00 -0.45593999997E+02  0.45594000000E+02  0.51100000000E-03 0.  1.
    9900012    2    1    2    0    0  0.93244954056E+00 -0.43868803862E+02  0.10186857362E+02  0.46142317884E+02  0.10000001120E+02 0.  0.
         12    1    1    2    0    0 -0.93244954056E+00  0.43868803862E+02 -0.10186857362E+02  0.45045682116E+02  0.00000000000E+00 0. -1.
         11    1    3    3    0    0 -0.41388031536E+00 -0.22440098111E+02  0.65590652353E+01  0.23382699527E+02  0.51100000000E-03 0. -1.
        -11    1    3    3    0    0  0.15821423550E+01 -0.17187864381E+02  0.55032235385E+01  0.18116603600E+02  0.51100000000E-03 0.  1.
         12    1    3    3    0    0 -0.23581249903E+00 -0.42408413690E+01 -0.18754314116E+01  0.46430147567E+01  0.00000000000E+00 0. -1.
</event>
<event>
 7    1  0.2399387E-008  0.4614232E+02  0.7816164E-02  0.1320468E+00
        -11   -1    0    0    0    0  0.00000000000E+00  0.00000000000E+00  0.45593999997E+02  0.45594000000E+02  0.51100000000E-03 0. -1.
         11   -1    0    0    0    0 -0.00000000000E+00 -0.00000000000E+00 -0.45593999997E+02  0.45594000000E+02  0.51100000000E-03 0.  1.
    9900012    2    1    2    0    0 -0.40120585880E+02 -0.20207028002E+02 -0.33358436024E+01  0.46142320467E+02  0.10000024676E+02 0.  0.
         12    1    1    2    0    0  0.40120585880E+02  0.20207028002E+02  0.33358436024E+01  0.45045679533E+02  0.00000000000E+00 0. -1.
         11    1    3    3    0    0  0.38630138399E+00 -0.52342576584E+00  0.33128734983E+00  0.73003757499E+00  0.51100000000E-03 0. -1.
        -11    1    3    3    0    0 -0.11784605699E+02 -0.58414856965E+01  0.99024746612E+00  0.13190165918E+02  0.51100000000E-03 0.  1.
        -12    1    3    3    0    0 -0.28722281565E+02 -0.13842116540E+02 -0.46573784184E+01  0.32222116975E+02  0.00000000000E+00 0.  1.
</event>
<event>
 7    1  0.2097247E-008  0.4614232E+02  0.7816164E-02  0.1320468E+00
        -11   -1    0    0    0    0  0.00000000000E+00  0.00000000000E+00  0.45593999997E+02  0.45594000000E+02  0.51100000000E-03 0.  1.
         11   -1    0    0    0    0 -0.00000000000E+00 -0.00000000000E+00 -0.45593999997E+02  0.45594000000E+02  0.51100000000E-03 0. -1.
    9900012    2    1    2    0    0 -0.11317649221E+02 -0.13301339881E+02  0.41522266907E+02  0.46142317903E+02  0.10000001292E+02 0.  0.
         12    1    1    2    0    0  0.11317649221E+02  0.13301339881E+02 -0.41522266907E+02  0.45045682097E+02  0.00000000000E+00 0. -1.
         11    1    3    3    0    0 -0.53177065808E+01 -0.39706409613E+01  0.86649629371E+01  0.10914466358E+02  0.51100000000E-03 0. -1.
        -11    1    3    3    0    0 -0.71784797167E+01 -0.80226749665E+01  0.29983896600E+02  0.31857933709E+02  0.51100000000E-03 0.  1.
         12    1    3    3    0    0  0.11785370762E+01 -0.13080239536E+01  0.28734073697E+01  0.33699178351E+01  0.00000000000E+00 0. -1.
</event>
<event>
 7    1  0.2097247E-008  0.4614232E+02  0.7816164E-02  0.1320468E+00
        -11   -1    0    0    0    0  0.00000000000E+00  0.00000000000E+00  0.45593999997E+02  0.45594000000E+02  0.51100000000E-03 0.  1.
         11   -1    0    0    0    0 -0.00000000000E+00 -0.00000000000E+00 -0.45593999997E+02  0.45594000000E+02  0.51100000000E-03 0. -1.
    9900012    2    1    2    0    0 -0.27758027173E+02  0.28231617971E+02  0.21484438992E+02  0.46142318247E+02  0.10000004431E+02 0.  0.
         12    1    1    2    0    0  0.27758027173E+02 -0.28231617971E+02 -0.21484438992E+02  0.45045681753E+02  0.00000000000E+00 0. -1.
         11    1    3    3    0    0 -0.37142190796E+01  0.33575235573E+01  0.45435790885E+01  0.67611019075E+01  0.51100000000E-03 0. -1.
        -11    1    3    3    0    0 -0.18998777359E+02  0.14194791233E+02  0.10619745282E+02  0.25985084749E+02  0.51100000000E-03 0.  1.
         12    1    3    3    0    0 -0.50450307342E+01  0.10679303181E+02  0.63211146214E+01  0.13396131591E+02  0.00000000000E+00 0. -1.
</event>
<event>
 7    1  0.2097247E-008  0.4614232E+02  0.7816164E-02  0.1320468E+00
        -11   -1    0    0    0    0  0.00000000000E+00  0.00000000000E+00  0.45593999997E+02  0.45594000000E+02  0.51100000000E-03 0.  1.
         11   -1    0    0    0    0 -0.00000000000E+00 -0.00000000000E+00 -0.45593999997E+02  0.45594000000E+02  0.51100000000E-03 0. -1.
    9900012    2    1    2    0    0 -0.25738152254E+02  0.36373131421E+02  0.66072877167E+01  0.46142318500E+02  0.10000006740E+02 0.  0.
         12    1    1    2    0    0  0.25738152254E+02 -0.36373131421E+02 -0.66072877167E+01  0.45045681500E+02  0.00000000000E+00 0. -1.
         11    1    3    3    0    0 -0.75448919156E+00 -0.34534111556E+00 -0.97021115937E-01  0.83542072295E+00  0.51100000000E-03 0. -1.
        -11    1    3    3    0    0 -0.48416342504E+01  0.10868807990E+02  0.33742840125E+01  0.12367627185E+02  0.51100000000E-03 0.  1.
         12    1    3    3    0    0 -0.20142028812E+02  0.25849664547E+02  0.33300248201E+01  0.32939270592E+02  0.00000000000E+00 0. -1.
</event>
<event>
 7    1  0.2097247E-008  0.4614232E+02  0.7816164E-02  0.1320468E+00
        -11   -1    0    0    0    0  0.00000000000E+00  0.00000000000E+00  0.45593999997E+02  0.45594000000E+02  0.51100000000E-03 0.  1.
         11   -1    0    0    0    0 -0.00000000000E+00 -0.00000000000E+00 -0.45593999997E+02  0.45594000000E+02  0.51100000000E-03 0. -1.
    9900012    2    1    2    0    0  0.55946493957E+01  0.92455752594E+01  0.43730226416E+02  0.46142318008E+02  0.10000002253E+02 0.  0.
         12    1    1    2    0    0 -0.55946493957E+01 -0.92455752594E+01 -0.43730226416E+02  0.45045681992E+02  0.00000000000E+00 0. -1.
         11    1    3    3    0    0  0.16371618339E+01  0.48217293572E+01  0.28597928274E+02  0.29047734416E+02  0.51100000000E-03 0. -1.
        -11    1    3    3    0    0  0.15212147453E+01  0.25304525335E+01  0.13031524301E+02  0.13361807894E+02  0.51100000000E-03 0.  1.
         12    1    3    3    0    0  0.24362728165E+01  0.18933933687E+01  0.21007738404E+01  0.37327756983E+01  0.00000000000E+00 0. -1.
</event>
<event>
 7    1  0.2097247E-008  0.4614232E+02  0.7816164E-02  0.1320468E+00
        -11   -1    0    0    0    0  0.00000000000E+00  0.00000000000E+00  0.45593999997E+02  0.45594000000E+02  0.51100000000E-03 0.  1.
         11   -1    0    0    0    0 -0.00000000000E+00 -0.00000000000E+00 -0.45593999997E+02  0.45594000000E+02  0.51100000000E-03 0. -1.
    9900012    2    1    2    0    0  0.39492137801E+02  0.14718145531E+02 -0.15901588566E+02  0.46142320131E+02  0.10000021610E+02 0.  0.
         12    1    1    2    0    0 -0.39492137801E+02 -0.14718145531E+02  0.15901588566E+02  0.45045679869E+02  0.00000000000E+00 0. -1.
         11    1    3    3    0    0  0.85898226900E+01  0.13888777652E+01 -0.39868754222E+01  0.95712700926E+01  0.51100000000E-03 0. -1.
        -11    1    3    3    0    0  0.24783131494E+02  0.12857682134E+02 -0.12104129328E+02  0.30430799259E+02  0.51100000000E-03 0.  1.
        -12    1    3    3    0    0  0.61191836162E+01  0.47158563232E+00  0.18941618407E+00  0.61402507789E+01  0.00000000000E+00 0.  1.
</event>
<event>
 7    1  0.2097247E-008  0.4614232E+02  0.7816164E-02  0.1320468E+00
        -11   -1    0    0    0    0  0.00000000000E+00  0.00000000000E+00  0.45593999997E+02  0.45594000000E+02  0.51100000000E-03 0.  1.
         11   -1    0    0    0    0 -0.00000000000E+00 -0.00000000000E+00 -0.45593999997E+02  0.45594000000E+02  0.51100000000E-03 0. -1.
    9900012    2    1    2    0    0  0.72061302679E+01 -0.92035256832E+00  0.44456025897E+02  0.46142316512E+02  0.99999886127E+01 0.  0.
         12    1    1    2    0    0 -0.72061302679E+01  0.92035256832E+00 -0.44456025897E+02  0.45045683488E+02  0.00000000000E+00 0. -1.
         11    1    3    3    0    0  0.72816384825E+01 -0.98354618518E+00  0.19091398028E+02  0.20456566208E+02  0.51100000000E-03 0. -1.
        -11    1    3    3    0    0  0.19794454678E+01 -0.97318526554E-01  0.13122842540E+02  0.13271649176E+02  0.51100000000E-03 0.  1.
         12    1    3    3    0    0 -0.20549536824E+01  0.16051214342E+00  0.12241785329E+02  0.12414101129E+02  0.00000000000E+00 0. -1.
</event>
<event>
 7    1  0.2097247E-008  0.4614232E+02  0.7816164E-02  0.1320468E+00
        -11   -1    0    0    0    0  0.00000000000E+00  0.00000000000E+00  0.45593999997E+02  0.45594000000E+02  0.51100000000E-03 0.  1.
         11   -1    0    0    0    0 -0.00000000000E+00 -0.00000000000E+00 -0.45593999997E+02  0.45594000000E+02  0.51100000000E-03 0. -1.
    9900012    2    1    2    0    0  0.24117643491E+02 -0.31111624962E+02  0.21897934945E+02  0.46142317741E+02  0.99999998173E+01 0.  0.
         12    1    1    2    0    0 -0.24117643491E+02  0.31111624962E+02 -0.21897934945E+02  0.45045682259E+02  0.00000000000E+00 0. -1.
         11    1    3    3    0    0  0.19239765226E+02 -0.19037866065E+02  0.11323459476E+02  0.29339898518E+02  0.51100000000E-03 0.  1.
        -11    1    3    3    0    0  0.26627561615E+01 -0.54620476496E+01  0.46277105695E+01  0.76380586721E+01  0.51100000000E-03 0. -1.
        -12    1    3    3    0    0  0.22151221039E+01 -0.66117112468E+01  0.59467648992E+01  0.91643605512E+01  0.00000000000E+00 0.  1.
</event>
<event>
 7    1  0.2097247E-008  0.4614232E+02  0.7816164E-02  0.1320468E+00
        -11   -1    0    0    0    0  0.00000000000E+00  0.00000000000E+00  0.45593999997E+02  0.45594000000E+02  0.51100000000E-03 0.  1.
         11   -1    0    0    0    0 -0.00000000000E+00 -0.00000000000E+00 -0.45593999997E+02  0.45594000000E+02  0.51100000000E-03 0. -1.
    9900012    2    1    2    0    0  0.14896227477E+02 -0.11984133726E+01  0.42494467275E+02  0.46142317225E+02  0.99999951150E+01 0.  0.
         12    1    1    2    0    0 -0.14896227477E+02  0.11984133726E+01 -0.42494467275E+02  0.45045682775E+02  0.00000000000E+00 0. -1.
         11    1    3    3    0    0  0.93753574227E+01 -0.10712795949E+01  0.28748289971E+02  0.30257381633E+02  0.51100000000E-03 0. -1.
        -11    1    3    3    0    0  0.30032809852E+01 -0.21864862511E+01  0.11057861936E+02  0.11665193083E+02  0.51100000000E-03 0.  1.
         12    1    3    3    0    0  0.25175890687E+01  0.20593524735E+01  0.26883153680E+01  0.42197425095E+01  0.00000000000E+00 0. -1.
</event>
<event>
 7    1  0.2097247E-008  0.4614232E+02  0.7816164E-02  0.1320468E+00
        -11   -1    0    0    0    0  0.00000000000E+00  0.00000000000E+00  0.45593999997E+02  0.45594000000E+02  0.51100000000E-03 0. -1.
         11   -1    0    0    0    0 -0.00000000000E+00 -0.00000000000E+00 -0.45593999997E+02  0.45594000000E+02  0.51100000000E-03 0.  1.
    9900012    2    1    2    0    0 -0.43344733358E+01  0.42669316710E+02  0.13771539636E+02  0.46142317060E+02  0.99999936095E+01 0.  0.
         12    1    1    2    0    0  0.43344733358E+01 -0.42669316710E+02 -0.13771539636E+02  0.45045682940E+02  0.00000000000E+00 0. -1.
         11    1    3    3    0    0 -0.27237825865E+01  0.15310855321E+02  0.30214497892E+01  0.15842046627E+02  0.51100000000E-03 0. -1.
        -11    1    3    3    0    0 -0.35007259149E+01  0.67459181843E+01  0.22743710344E+01  0.79331745187E+01  0.51100000000E-03 0.  1.
         12    1    3    3    0    0  0.18900351655E+01  0.20612543205E+02  0.84757188123E+01  0.22367095915E+02  0.00000000000E+00 0. -1.
</event>
<event>
 7    1  0.2097247E-008  0.4614232E+02  0.7816164E-02  0.1320468E+00
        -11   -1    0    0    0    0  0.00000000000E+00  0.00000000000E+00  0.45593999997E+02  0.45594000000E+02  0.51100000000E-03 0.  1.
         11   -1    0    0    0    0 -0.00000000000E+00 -0.00000000000E+00 -0.45593999997E+02  0.45594000000E+02  0.51100000000E-03 0. -1.
    9900012    2    1    2    0    0  0.56532786975E+01  0.41241793789E+02  0.17212447800E+02  0.46142317918E+02  0.10000001431E+02 0.  0.
         12    1    1    2    0    0 -0.56532786975E+01 -0.41241793789E+02 -0.17212447800E+02  0.45045682082E+02  0.00000000000E+00 0. -1.
         11    1    3    3    0    0  0.23649740477E+00  0.97527531710E-01  0.83853461811E+00  0.87668877534E+00  0.51100000000E-03 0. -1.
        -11    1    3    3    0    0  0.75092371889E+00  0.98951984979E+01  0.75258695584E+01  0.12454619730E+02  0.51100000000E-03 0.  1.
        -12    1    3    3    0    0  0.46658575739E+01  0.31249067759E+02  0.88480436234E+01  0.32811009413E+02  0.00000000000E+00 0.  1.
</event>
<event>
 7    1  0.2097247E-008  0.4614232E+02  0.7816164E-02  0.1320468E+00
        -11   -1    0    0    0    0  0.00000000000E+00  0.00000000000E+00  0.45593999997E+02  0.45594000000E+02  0.51100000000E-03 0.  1.
         11   -1    0    0    0    0 -0.00000000000E+00 -0.00000000000E+00 -0.45593999997E+02  0.45594000000E+02  0.51100000000E-03 0. -1.
    9900012    2    1    2    0    0  0.11964740576E+02 -0.14551417868E+02  0.40917168821E+02  0.46142317817E+02  0.10000000508E+02 0.  0.
         12    1    1    2    0    0 -0.11964740576E+02  0.14551417868E+02 -0.40917168821E+02  0.45045682183E+02  0.00000000000E+00 0. -1.
         11    1    3    3    0    0  0.69200712295E+01 -0.36662806516E+01  0.96101864703E+01  0.12396962688E+02  0.51100000000E-03 0. -1.
        -11    1    3    3    0    0  0.58103577951E-01 -0.31120375351E+00 -0.10694802338E-01  0.31676243762E+00  0.51100000000E-03 0.  1.
        -12    1    3    3    0    0  0.49865657686E+01 -0.10573933463E+02  0.31317677153E+02  0.33428592691E+02  0.00000000000E+00 0.  1.
</event>
<event>
 7    1  0.2097247E-008  0.4614232E+02  0.7816164E-02  0.1320468E+00
        -11   -1    0    0    0    0  0.00000000000E+00  0.00000000000E+00  0.45593999997E+02  0.45594000000E+02  0.51100000000E-03 0.  1.
         11   -1    0    0    0    0 -0.00000000000E+00 -0.00000000000E+00 -0.45593999997E+02  0.45594000000E+02  0.51100000000E-03 0. -1.
    9900012    2    1    2    0    0 -0.24966417513E+02 -0.23104614238E+02  0.29529107624E+02  0.46142318746E+02  0.10000008985E+02 0.  0.
         12    1    1    2    0    0  0.24966417513E+02  0.23104614238E+02 -0.29529107624E+02  0.45045681254E+02  0.00000000000E+00 0. -1.
         11    1    3    3    0    0 -0.10947327546E+02 -0.94813235861E+01  0.11421442966E+02  0.18444208767E+02  0.51100000000E-03 0. -1.
        -11    1    3    3    0    0 -0.13495023666E+02 -0.11067037409E+02  0.12360726626E+02  0.21386503775E+02  0.51100000000E-03 0.  1.
         12    1    3    3    0    0 -0.52406630077E+00 -0.25562532433E+01  0.57469380321E+01  0.63116062042E+01  0.00000000000E+00 0. -1.
</event>
<event>
 7    1  0.2097247E-008  0.4614232E+02  0.7816164E-02  0.1320468E+00
        -11   -1    0    0    0    0  0.00000000000E+00  0.00000000000E+00  0.45593999997E+02  0.45594000000E+02  0.51100000000E-03 0.  1.
         11   -1    0    0    0    0 -0.00000000000E+00 -0.00000000000E+00 -0.45593999997E+02  0.45594000000E+02  0.51100000000E-03 0. -1.
    9900012    2    1    2    0    0 -0.12974999541E+02  0.52161018137E+01  0.42820030798E+02  0.46142319089E+02  0.10000012106E+02 0.  0.
         12    1    1    2    0    0  0.12974999541E+02 -0.52161018137E+01 -0.42820030798E+02  0.45045680911E+02  0.00000000000E+00 0. -1.
         11    1    3    3    0    0 -0.34079343123E+01  0.10829422394E+00  0.23009317307E+02  0.23260576672E+02  0.51100000000E-03 0. -1.
        -11    1    3    3    0    0 -0.95784585151E+01  0.44613678780E+01  0.19466248019E+02  0.22149164387E+02  0.51100000000E-03 0.  1.
        -12    1    3    3    0    0  0.11393286254E-01  0.64643971180E+00  0.34446547259E+00  0.73257802981E+00  0.00000000000E+00 0.  1.
</event>
<event>
 7    1  0.2097247E-008  0.4614232E+02  0.7816164E-02  0.1320468E+00
        -11   -1    0    0    0    0  0.00000000000E+00  0.00000000000E+00  0.45593999997E+02  0.45594000000E+02  0.51100000000E-03 0.  1.
         11   -1    0    0    0    0 -0.00000000000E+00 -0.00000000000E+00 -0.45593999997E+02  0.45594000000E+02  0.51100000000E-03 0. -1.
    9900012    2    1    2    0    0 -0.16773706966E+02  0.41794480403E+02  0.98870313413E+00  0.46142319059E+02  0.10000011833E+02 0.  0.
         12    1    1    2    0    0  0.16773706966E+02 -0.41794480403E+02 -0.98870313413E+00  0.45045680941E+02  0.00000000000E+00 0. -1.
         11    1    3    3    0    0 -0.75607649246E+00  0.76653080738E+01  0.90715075635E+00  0.77557412466E+01  0.51100000000E-03 0. -1.
        -11    1    3    3    0    0 -0.13058604975E+01  0.10286115728E+02  0.15995700517E+00  0.10369910073E+02  0.51100000000E-03 0.  1.
         12    1    3    3    0    0 -0.14711769976E+02  0.23843056601E+02 -0.78404627394E-01  0.28016667739E+02  0.00000000000E+00 0. -1.
</event>
<event>
 7    1  0.2097247E-008  0.4614232E+02  0.7816164E-02  0.1320468E+00
        -11   -1    0    0    0    0  0.00000000000E+00  0.00000000000E+00  0.45593999997E+02  0.45594000000E+02  0.51100000000E-03 0.  1.
         11   -1    0    0    0    0 -0.00000000000E+00 -0.00000000000E+00 -0.45593999997E+02  0.45594000000E+02  0.51100000000E-03 0. -1.
    9900012    2    1    2    0    0 -0.10890961060E+02  0.38834428389E+01  0.43536414960E+02  0.46142316648E+02  0.99999898459E+01 0.  0.
         12    1    1    2    0    0  0.10890961060E+02 -0.38834428389E+01 -0.43536414960E+02  0.45045683352E+02  0.00000000000E+00 0. -1.
         11    1    3    3    0    0  0.15541169872E+00 -0.82637596042E+00  0.29749823460E+00  0.89193917100E+00  0.51100000000E-03 0. -1.
        -11    1    3    3    0    0 -0.46285164120E+00  0.20088192506E+01  0.11531948495E+02  0.11714752356E+02  0.51100000000E-03 0.  1.
        -12    1    3    3    0    0 -0.10583521118E+02  0.27009995488E+01  0.31706968231E+02  0.33535625120E+02  0.00000000000E+00 0.  1.
</event>
<event>
 7    1  0.2097247E-008  0.4614232E+02  0.7816164E-02  0.1320468E+00
        -11   -1    0    0    0    0  0.00000000000E+00  0.00000000000E+00  0.45593999997E+02  0.45594000000E+02  0.51100000000E-03 0. -1.
         11   -1    0    0    0    0 -0.00000000000E+00 -0.00000000000E+00 -0.45593999997E+02  0.45594000000E+02  0.51100000000E-03 0.  1.
    9900012    2    1    2    0    0 -0.20081875634E+02 -0.20919810308E+02 -0.34470179911E+02  0.46142317683E+02  0.99999992895E+01 0.  0.
         12    1    1    2    0    0  0.20081875634E+02  0.20919810308E+02  0.34470179911E+02  0.45045682317E+02  0.00000000000E+00 0. -1.
         11    1    3    3    0    0 -0.11623091435E+01 -0.24532255787E+01 -0.43932061251E+00  0.27499602082E+01  0.51100000000E-03 0. -1.
        -11    1    3    3    0    0 -0.94723939550E+01 -0.77293589304E+01 -0.12032372340E+02  0.17153635799E+02  0.51100000000E-03 0.  1.
         12    1    3    3    0    0 -0.94471725357E+01 -0.10737225799E+02 -0.21998486958E+02  0.26238721676E+02  0.00000000000E+00 0. -1.
</event>
<event>
 7    1  0.2097247E-008  0.4614232E+02  0.7816164E-02  0.1320468E+00
        -11   -1    0    0    0    0  0.00000000000E+00  0.00000000000E+00  0.45593999997E+02  0.45594000000E+02  0.51100000000E-03 0. -1.
         11   -1    0    0    0    0 -0.00000000000E+00 -0.00000000000E+00 -0.45593999997E+02  0.45594000000E+02  0.51100000000E-03 0.  1.
    9900012    2    1    2    0    0  0.13566830609E+02 -0.29988980461E+02 -0.30752490510E+02  0.46142317472E+02  0.99999973616E+01 0.  0.
         12    1    1    2    0    0 -0.13566830609E+02  0.29988980461E+02  0.30752490510E+02  0.45045682528E+02  0.00000000000E+00 0. -1.
         11    1    3    3    0    0  0.39158297219E+01 -0.13641549597E+02 -0.88907748993E+01  0.16747282657E+02  0.51100000000E-03 0. -1.
        -11    1    3    3    0    0  0.74134352355E+01 -0.14842789285E+02 -0.16529926725E+02  0.23420202679E+02  0.51100000000E-03 0.  1.
        -12    1    3    3    0    0  0.22375656515E+01 -0.15046415792E+01 -0.53317888856E+01  0.59748321355E+01  0.00000000000E+00 0.  1.
</event>
<event>
 7    1  0.2097247E-008  0.4614232E+02  0.7816164E-02  0.1320468E+00
        -11   -1    0    0    0    0  0.00000000000E+00  0.00000000000E+00  0.45593999997E+02  0.45594000000E+02  0.51100000000E-03 0. -1.
         11   -1    0    0    0    0 -0.00000000000E+00 -0.00000000000E+00 -0.45593999997E+02  0.45594000000E+02  0.51100000000E-03 0.  1.
    9900012    2    1    2    0    0 -0.23528262681E+02 -0.35774748602E+02  0.13989340295E+02  0.46142318473E+02  0.10000006488E+02 0.  0.
         12    1    1    2    0    0  0.23528262681E+02  0.35774748602E+02 -0.13989340295E+02  0.45045681527E+02  0.00000000000E+00 0. -1.
         11    1    3    3    0    0 -0.63378118107E+00 -0.23450333819E+01  0.16713431385E+01  0.29486010743E+01  0.51100000000E-03 0. -1.
        -11    1    3    3    0    0 -0.17463245367E+02 -0.29001825060E+02  0.12744955782E+02  0.36173259373E+02  0.51100000000E-03 0.  1.
         12    1    3    3    0    0 -0.54312361334E+01 -0.44278901609E+01 -0.42695862525E+00  0.70204580250E+01  0.00000000000E+00 0. -1.
</event>
<event>
 7    1  0.2097247E-008  0.4614232E+02  0.7816164E-02  0.1320468E+00
        -11   -1    0    0    0    0  0.00000000000E+00  0.00000000000E+00  0.45593999997E+02  0.45594000000E+02  0.51100000000E-03 0.  1.
         11   -1    0    0    0    0 -0.00000000000E+00 -0.00000000000E+00 -0.45593999997E+02  0.45594000000E+02  0.51100000000E-03 0. -1.
    9900012    2    1    2    0    0  0.37645604155E+00  0.42147680635E+02  0.15891656886E+02  0.46142318069E+02  0.10000002809E+02 0.  0.
         12    1    1    2    0    0 -0.37645604155E+00 -0.42147680635E+02 -0.15891656886E+02  0.45045681931E+02  0.00000000000E+00 0. -1.
         11    1    3    3    0    0 -0.21545179231E+01  0.14502964247E+02  0.40633543564E+01  0.15214754954E+02  0.51100000000E-03 0. -1.
        -11    1    3    3    0    0  0.12173642462E+01  0.22782982068E+02  0.67912204201E+01  0.23804766806E+02  0.51100000000E-03 0.  1.
        -12    1    3    3    0    0  0.13136097184E+01  0.48617343198E+01  0.50370821091E+01  0.71227963091E+01  0.00000000000E+00 0.  1.
</event>
<event>
 7    1  0.2097247E-008  0.4614232E+02  0.7816164E-02  0.1320468E+00
        -11   -1    0    0    0    0  0.00000000000E+00  0.00000000000E+00  0.45593999997E+02  0.45594000000E+02  0.51100000000E-03 0.  1.
         11   -1    0    0    0    0 -0.00000000000E+00 -0.00000000000E+00 -0.45593999997E+02  0.45594000000E+02  0.51100000000E-03 0. -1.
    9900012    2    1    2    0    0  0.60431085250E+00  0.44436260369E+02 -0.73598329712E+01  0.46142316871E+02  0.99999918854E+01 0.  0.
         12    1    1    2    0    0 -0.60431085250E+00 -0.44436260369E+02  0.73598329712E+01  0.45045683129E+02  0.00000000000E+00 0. -1.
         11    1    3    3    0    0  0.44268685257E+01  0.29286435663E+02 -0.36294954151E+01  0.29840672178E+02  0.51100000000E-03 0. -1.
        -11    1    3    3    0    0 -0.29045222903E+01  0.13428694721E+02 -0.24173445103E+01  0.13950256140E+02  0.51100000000E-03 0.  1.
         12    1    3    3    0    0 -0.91803538291E+00  0.17211299849E+01 -0.13129930457E+01  0.23513885530E+01  0.00000000000E+00 0. -1.
</event>
<event>
 7    1  0.2097247E-008  0.4614232E+02  0.7816164E-02  0.1320468E+00
        -11   -1    0    0    0    0  0.00000000000E+00  0.00000000000E+00  0.45593999997E+02  0.45594000000E+02  0.51100000000E-03 0.  1.
         11   -1    0    0    0    0 -0.00000000000E+00 -0.00000000000E+00 -0.45593999997E+02  0.45594000000E+02  0.51100000000E-03 0. -1.
    9900012    2    1    2    0    0 -0.40042023036E+02  0.20228265347E+02 -0.40702952981E+01  0.46142316172E+02  0.99999855053E+01 0.  0.
         12    1    1    2    0    0  0.40042023036E+02 -0.20228265347E+02  0.40702952981E+01  0.45045683828E+02  0.00000000000E+00 0. -1.
         11    1    3    3    0    0 -0.33159842500E+01  0.75519481681E+00  0.14444917161E+01  0.36949461886E+01  0.51100000000E-03 0. -1.
        -11    1    3    3    0    0 -0.24177085760E+02  0.13902685718E+02 -0.70083767881E+00  0.27898159791E+02  0.51100000000E-03 0.  1.
        -12    1    3    3    0    0 -0.12548953026E+02  0.55703848119E+01 -0.48139493353E+01  0.14549210192E+02  0.00000000000E+00 0.  1.
</event>
<event>
 7    1  0.2097247E-008  0.4614232E+02  0.7816164E-02  0.1320468E+00
        -11   -1    0    0    0    0  0.00000000000E+00  0.00000000000E+00  0.45593999997E+02  0.45594000000E+02  0.51100000000E-03 0.  1.
         11   -1    0    0    0    0 -0.00000000000E+00 -0.00000000000E+00 -0.45593999997E+02  0.45594000000E+02  0.51100000000E-03 0. -1.
    9900012    2    1    2    0    0  0.40693495851E+02 -0.11509926715E+02  0.15513685654E+02  0.46142318074E+02  0.10000002854E+02 0.  0.
         12    1    1    2    0    0 -0.40693495851E+02  0.11509926715E+02 -0.15513685654E+02  0.45045681926E+02  0.00000000000E+00 0. -1.
         11    1    3    3    0    0  0.87775704434E+01 -0.32320142455E+01  0.52157911684E+01  0.10709628226E+02  0.51100000000E-03 0. -1.
        -11    1    3    3    0    0  0.29885842569E+02 -0.53905118530E+01  0.94192466569E+01  0.31795336323E+02  0.51100000000E-03 0.  1.
        -12    1    3    3    0    0  0.20300828395E+01 -0.28874006164E+01  0.87864782882E+00  0.36373535245E+01  0.00000000000E+00 0.  1.
</event>
<event>
 7    1  0.2097247E-008  0.4614232E+02  0.7816164E-02  0.1320468E+00
        -11   -1    0    0    0    0  0.00000000000E+00  0.00000000000E+00  0.45593999997E+02  0.45594000000E+02  0.51100000000E-03 0.  1.
         11   -1    0    0    0    0 -0.00000000000E+00 -0.00000000000E+00 -0.45593999997E+02  0.45594000000E+02  0.51100000000E-03 0. -1.
    9900012    2    1    2    0    0  0.23675093723E+02 -0.24042364530E+02  0.29842387729E+02  0.46142318072E+02  0.10000002835E+02 0.  0.
         12    1    1    2    0    0 -0.23675093723E+02  0.24042364530E+02 -0.29842387729E+02  0.45045681928E+02  0.00000000000E+00 0. -1.
         11    1    3    3    0    0  0.22736213242E+00 -0.11619345463E+01  0.72410322701E+00  0.13878440740E+01  0.51100000000E-03 0. -1.
        -11    1    3    3    0    0  0.22689048945E+02 -0.17897360042E+02  0.23919474769E+02  0.37513327125E+02  0.51100000000E-03 0.  1.
        -12    1    3    3    0    0  0.75868264587E+00 -0.49830699415E+01  0.51988097322E+01  0.72411468726E+01  0.00000000000E+00 0.  1.
</event>
<event>
 7    1  0.2097247E-008  0.4614232E+02  0.7816164E-02  0.1320468E+00
        -11   -1    0    0    0    0  0.00000000000E+00  0.00000000000E+00  0.45593999997E+02  0.45594000000E+02  0.51100000000E-03 0.  1.
         11   -1    0    0    0    0 -0.00000000000E+00 -0.00000000000E+00 -0.45593999997E+02  0.45594000000E+02  0.51100000000E-03 0. -1.
    9900012    2    1    2    0    0  0.12425430221E+02  0.16624907189E+02  0.39979176083E+02  0.46142319014E+02  0.10000011428E+02 0.  0.
         12    1    1    2    0    0 -0.12425430221E+02 -0.16624907189E+02 -0.39979176083E+02  0.45045680986E+02  0.00000000000E+00 0. -1.
         11    1    3    3    0    0  0.31935771510E+00  0.11143997623E+01  0.50101465879E+00  0.12628903871E+01  0.51100000000E-03 0. -1.
        -11    1    3    3    0    0  0.67269757717E+01  0.23583572018E+01  0.13759602432E+02  0.15496474149E+02  0.51100000000E-03 0.  1.
         12    1    3    3    0    0  0.53790967337E+01  0.13152150225E+02  0.25718558992E+02  0.29382954478E+02  0.00000000000E+00 0. -1.
</event>
<event>
 7    1  0.2097247E-008  0.4614232E+02  0.7816164E-02  0.1320468E+00
        -11   -1    0    0    0    0  0.00000000000E+00  0.00000000000E+00  0.45593999997E+02  0.45594000000E+02  0.51100000000E-03 0.  1.
         11   -1    0    0    0    0 -0.00000000000E+00 -0.00000000000E+00 -0.45593999997E+02  0.45594000000E+02  0.51100000000E-03 0. -1.
    9900012    2    1    2    0    0 -0.14994955497E+01  0.38951418847E+02  0.22575465117E+02  0.46142321602E+02  0.10000035021E+02 0.  0.
         12    1    1    2    0    0  0.14994955497E+01 -0.38951418847E+02 -0.22575465117E+02  0.45045678398E+02  0.00000000000E+00 0. -1.
         11    1    3    3    0    0 -0.35781070156E+01  0.10751156201E+02  0.45314383018E+01  0.12203447989E+02  0.51100000000E-03 0. -1.
        -11    1    3    3    0    0  0.45265388554E+00  0.12376556814E+02  0.10911735152E+02  0.16506060050E+02  0.51100000000E-03 0.  1.
        -12    1    3    3    0    0  0.16259575803E+01  0.15823705832E+02  0.71322916638E+01  0.17432813562E+02  0.00000000000E+00 0.  1.
</event>
<event>
 7    1  0.2097247E-008  0.4614232E+02  0.7816164E-02  0.1320468E+00
        -11   -1    0    0    0    0  0.00000000000E+00  0.00000000000E+00  0.45593999997E+02  0.45594000000E+02  0.51100000000E-03 0. -1.
         11   -1    0    0    0    0 -0.00000000000E+00 -0.00000000000E+00 -0.45593999997E+02  0.45594000000E+02  0.51100000000E-03 0.  1.
    9900012    2    1    2    0    0  0.13074892178E+02  0.30853235848E+02 -0.30103798554E+02  0.46142315910E+02  0.99999831191E+01 0.  0.
         12    1    1    2    0    0 -0.13074892178E+02 -0.30853235848E+02  0.30103798554E+02  0.45045684090E+02  0.00000000000E+00 0. -1.
         11    1    3    3    0    0 -0.46024027157E+00  0.44882356295E+00 -0.69286935298E+00  0.94516236682E+00  0.51100000000E-03 0. -1.
        -11    1    3    3    0    0  0.12532328276E+02  0.19081241317E+02 -0.17800632941E+02  0.28948498330E+02  0.51100000000E-03 0.  1.
        -12    1    3    3    0    0  0.10028041741E+01  0.11323170968E+02 -0.11610296260E+02  0.16248655213E+02  0.00000000000E+00 0.  1.
</event>
<event>
 7    1  0.2097247E-008  0.4614232E+02  0.7816164E-02  0.1320468E+00
        -11   -1    0    0    0    0  0.00000000000E+00  0.00000000000E+00  0.45593999997E+02  0.45594000000E+02  0.51100000000E-03 0.  1.
         11   -1    0    0    0    0 -0.00000000000E+00 -0.00000000000E+00 -0.45593999997E+02  0.45594000000E+02  0.51100000000E-03 0. -1.
    9900012    2    1    2    0    0 -0.13817330137E+02 -0.34173052065E+02  0.25892033725E+02  0.46142317521E+02  0.99999978101E+01 0.  0.
         12    1    1    2    0    0  0.13817330137E+02  0.34173052065E+02 -0.25892033725E+02  0.45045682479E+02  0.00000000000E+00 0. -1.
         11    1    3    3    0    0 -0.39392609995E+01 -0.15354117596E+02  0.59268504916E+01  0.16923187093E+02  0.51100000000E-03 0. -1.
        -11    1    3    3    0    0 -0.48925450989E+01 -0.76953008672E+01  0.78403743475E+01  0.12026060167E+02  0.51100000000E-03 0.  1.
         12    1    3    3    0    0 -0.49855240385E+01 -0.11123633602E+02  0.12124808886E+02  0.17193070260E+02  0.00000000000E+00 0. -1.
</event>
<event>
 7    1  0.2097247E-008  0.4614232E+02  0.7816164E-02  0.1320468E+00
        -11   -1    0    0    0    0  0.00000000000E+00  0.00000000000E+00  0.45593999997E+02  0.45594000000E+02  0.51100000000E-03 0. -1.
         11   -1    0    0    0    0 -0.00000000000E+00 -0.00000000000E+00 -0.45593999997E+02  0.45594000000E+02  0.51100000000E-03 0.  1.
    9900012    2    1    2    0    0  0.43706889186E+02  0.26442539830E+01  0.10574935410E+02  0.46142317628E+02  0.99999987817E+01 0.  0.
         12    1    1    2    0    0 -0.43706889186E+02 -0.26442539830E+01 -0.10574935410E+02  0.45045682372E+02  0.00000000000E+00 0. -1.
         11    1    3    3    0    0  0.45697939172E+01 -0.17146083100E+01 -0.37518438766E+00  0.48952693172E+01  0.51100000000E-03 0. -1.
        -11    1    3    3    0    0  0.34184920364E+02  0.19003936274E+01  0.93597760112E+01  0.35494023208E+02  0.51100000000E-03 0.  1.
        -12    1    3    3    0    0  0.49521749053E+01  0.24584686656E+01  0.15903437860E+01  0.57530251025E+01  0.00000000000E+00 0.  1.
</event>
<event>
 7    1  0.2097247E-008  0.4614232E+02  0.7816164E-02  0.1320468E+00
        -11   -1    0    0    0    0  0.00000000000E+00  0.00000000000E+00  0.45593999997E+02  0.45594000000E+02  0.51100000000E-03 0.  1.
         11   -1    0    0    0    0 -0.00000000000E+00 -0.00000000000E+00 -0.45593999997E+02  0.45594000000E+02  0.51100000000E-03 0. -1.
    9900012    2    1    2    0    0  0.22453218024E+02 -0.90157948624E+01  0.37995814962E+02  0.46142317508E+02  0.99999976877E+01 0.  0.
         12    1    1    2    0    0 -0.22453218024E+02  0.90157948624E+01 -0.37995814962E+02  0.45045682492E+02  0.00000000000E+00 0. -1.
         11    1    3    3    0    0  0.74857651807E+01 -0.32950653679E+01  0.15436594767E+02  0.17469476077E+02  0.51100000000E-03 0. -1.
        -11    1    3    3    0    0  0.12443747881E+02 -0.46387006832E+01  0.22246911998E+02  0.25909255085E+02  0.51100000000E-03 0.  1.
         12    1    3    3    0    0  0.25237049616E+01 -0.10820288112E+01  0.31230819646E+00  0.27635863459E+01  0.00000000000E+00 0. -1.
</event>
<event>
 7    1  0.2097247E-008  0.4614232E+02  0.7816164E-02  0.1320468E+00
        -11   -1    0    0    0    0  0.00000000000E+00  0.00000000000E+00  0.45593999997E+02  0.45594000000E+02  0.51100000000E-03 0. -1.
         11   -1    0    0    0    0 -0.00000000000E+00 -0.00000000000E+00 -0.45593999997E+02  0.45594000000E+02  0.51100000000E-03 0.  1.
    9900012    2    1    2    0    0 -0.62206251924E+01 -0.34539926911E+02  0.28238461774E+02  0.46142318163E+02  0.10000003662E+02 0.  0.
         12    1    1    2    0    0  0.62206251924E+01  0.34539926911E+02 -0.28238461774E+02  0.45045681837E+02  0.00000000000E+00 0. -1.
         11    1    3    3    0    0 -0.61369498265E+01 -0.17641687706E+02  0.18745118167E+02  0.26462629379E+02  0.51100000000E-03 0. -1.
        -11    1    3    3    0    0  0.13037579326E+01 -0.63282893109E+01  0.47067888907E+01  0.79938033671E+01  0.51100000000E-03 0.  1.
         12    1    3    3    0    0 -0.13874332985E+01 -0.10569949894E+02  0.47865547169E+01  0.11685885417E+02  0.00000000000E+00 0. -1.
</event>
<event>
 7    1  0.2097247E-008  0.4614232E+02  0.7816164E-02  0.1320468E+00
        -11   -1    0    0    0    0  0.00000000000E+00  0.00000000000E+00  0.45593999997E+02  0.45594000000E+02  0.51100000000E-03 0.  1.
         11   -1    0    0    0    0 -0.00000000000E+00 -0.00000000000E+00 -0.45593999997E+02  0.45594000000E+02  0.51100000000E-03 0. -1.
    9900012    2    1    2    0    0 -0.21496046529E+02 -0.19793306242E+02  0.34282043421E+02  0.46142317749E+02  0.99999998865E+01 0.  0.
         12    1    1    2    0    0  0.21496046529E+02  0.19793306242E+02 -0.34282043421E+02  0.45045682251E+02  0.00000000000E+00 0. -1.
         11    1    3    3    0    0 -0.30812740405E+00 -0.83772706263E+00 -0.76716914487E-01  0.89588775785E+00  0.51100000000E-03 0. -1.
        -11    1    3    3    0    0 -0.70635762375E+01 -0.80162745661E+01  0.77604565543E+01  0.13205281268E+02  0.51100000000E-03 0.  1.
         12    1    3    3    0    0 -0.14124342888E+02 -0.10939304614E+02  0.26598303781E+02  0.32041148723E+02  0.00000000000E+00 0. -1.
</event>
<event>
 7    1  0.2097247E-008  0.4614232E+02  0.7816164E-02  0.1320468E+00
        -11   -1    0    0    0    0  0.00000000000E+00  0.00000000000E+00  0.45593999997E+02  0.45594000000E+02  0.51100000000E-03 0. -1.
         11   -1    0    0    0    0 -0.00000000000E+00 -0.00000000000E+00 -0.45593999997E+02  0.45594000000E+02  0.51100000000E-03 0.  1.
    9900012    2    1    2    0    0 -0.11814122322E+02 -0.11024466745E+02 -0.42047604955E+02  0.46142318346E+02  0.10000005330E+02 0.  0.
         12    1    1    2    0    0  0.11814122322E+02  0.11024466745E+02  0.42047604955E+02  0.45045681654E+02  0.00000000000E+00 0. -1.
         11    1    3    3    0    0 -0.31500811044E+01 -0.71747567789E+01 -0.16367219142E+02  0.18146239514E+02  0.51100000000E-03 0. -1.
        -11    1    3    3    0    0 -0.46967180405E+01 -0.13008809868E+01 -0.20136986958E+02  0.20718342011E+02  0.51100000000E-03 0.  1.
         12    1    3    3    0    0 -0.39673231767E+01 -0.25488289790E+01 -0.55433988553E+01  0.72777368200E+01  0.00000000000E+00 0. -1.
</event>
<event>
 7    1  0.2097247E-008  0.4614232E+02  0.7816164E-02  0.1320468E+00
        -11   -1    0    0    0    0  0.00000000000E+00  0.00000000000E+00  0.45593999997E+02  0.45594000000E+02  0.51100000000E-03 0. -1.
         11   -1    0    0    0    0 -0.00000000000E+00 -0.00000000000E+00 -0.45593999997E+02  0.45594000000E+02  0.51100000000E-03 0.  1.
    9900012    2    1    2    0    0 -0.27162411962E+02 -0.93394275657E+01 -0.34700027209E+02  0.46142318529E+02  0.10000007000E+02 0.  0.
         12    1    1    2    0    0  0.27162411962E+02  0.93394275657E+01  0.34700027209E+02  0.45045681471E+02  0.00000000000E+00 0. -1.
         11    1    3    3    0    0 -0.80980090447E+00  0.82846460107E+00 -0.27913272551E+00  0.11916570143E+01  0.51100000000E-03 0. -1.
        -11    1    3    3    0    0 -0.94544738294E+01 -0.68680538307E+01 -0.14385781074E+02  0.18533967092E+02  0.51100000000E-03 0.  1.
         12    1    3    3    0    0 -0.16898137229E+02 -0.32998383361E+01 -0.20035113410E+02  0.26416694422E+02  0.00000000000E+00 0. -1.
</event>
<event>
 7    1  0.2097247E-008  0.4614232E+02  0.7816164E-02  0.1320468E+00
        -11   -1    0    0    0    0  0.00000000000E+00  0.00000000000E+00  0.45593999997E+02  0.45594000000E+02  0.51100000000E-03 0.  1.
         11   -1    0    0    0    0 -0.00000000000E+00 -0.00000000000E+00 -0.45593999997E+02  0.45594000000E+02  0.51100000000E-03 0. -1.
    9900012    2    1    2    0    0 -0.43219200904E+02  0.23910764867E+01 -0.12469842268E+02  0.46142317191E+02  0.99999948033E+01 0.  0.
         12    1    1    2    0    0  0.43219200904E+02 -0.23910764867E+01  0.12469842268E+02  0.45045682809E+02  0.00000000000E+00 0. -1.
         11    1    3    3    0    0 -0.94736566616E+01 -0.18091762219E+01 -0.38709844779E+01  0.10392680609E+02  0.51100000000E-03 0. -1.
        -11    1    3    3    0    0 -0.24757359675E+02  0.48483320731E+01 -0.37147372146E+01  0.25499655974E+02  0.51100000000E-03 0.  1.
        -12    1    3    3    0    0 -0.89881845673E+01 -0.64807936452E+00 -0.48841205759E+01  0.10249980609E+02  0.00000000000E+00 0.  1.
</event>
<event>
 7    1  0.2097247E-008  0.4614231E+02  0.7816164E-02  0.1320468E+00
        -11   -1    0    0    0    0  0.00000000000E+00  0.00000000000E+00  0.45593999997E+02  0.45594000000E+02  0.51100000000E-03 0.  1.
         11   -1    0    0    0    0 -0.00000000000E+00 -0.00000000000E+00 -0.45593999997E+02  0.45594000000E+02  0.51100000000E-03 0. -1.
    9900012    2    1    2    0    0  0.28345578401E+01 -0.53598572638E+01  0.44635758729E+02  0.46142314908E+02  0.99999739854E+01 0.  0.
         12    1    1    2    0    0 -0.28345578401E+01  0.53598572638E+01 -0.44635758729E+02  0.45045685092E+02  0.00000000000E+00 0. -1.
         11    1    3    3    0    0  0.27348393316E+01 -0.26068381737E+01  0.14853585817E+02  0.15326577026E+02  0.51100000000E-03 0. -1.
        -11    1    3    3    0    0  0.23404161561E+01 -0.35876316510E+01  0.98557782882E+01  0.10746395422E+02  0.51100000000E-03 0.  1.
         12    1    3    3    0    0 -0.22406976476E+01  0.83461256088E+00  0.19926394624E+02  0.20069342460E+02  0.00000000000E+00 0. -1.
</event>
<event>
 7    1  0.2097247E-008  0.4614232E+02  0.7816164E-02  0.1320468E+00
        -11   -1    0    0    0    0  0.00000000000E+00  0.00000000000E+00  0.45593999997E+02  0.45594000000E+02  0.51100000000E-03 0.  1.
         11   -1    0    0    0    0 -0.00000000000E+00 -0.00000000000E+00 -0.45593999997E+02  0.45594000000E+02  0.51100000000E-03 0. -1.
    9900012    2    1    2    0    0  0.49801083214E+01  0.31585433881E+02  0.31728102160E+02  0.46142316754E+02  0.99999908209E+01 0.  0.
         12    1    1    2    0    0 -0.49801083214E+01 -0.31585433881E+02 -0.31728102160E+02  0.45045683246E+02  0.00000000000E+00 0. -1.
         11    1    3    3    0    0 -0.94487462032E+00  0.23316270141E+01  0.54166670888E+01  0.59723994503E+01  0.51100000000E-03 0. -1.
        -11    1    3    3    0    0  0.33145788888E+01  0.97437233343E+01  0.12138265892E+02  0.15914272737E+02  0.51100000000E-03 0.  1.
        -12    1    3    3    0    0  0.26104040529E+01  0.19510083533E+02  0.14173169180E+02  0.24255644568E+02  0.00000000000E+00 0.  1.
</event>
<event>
 7    1  0.2097247E-008  0.4614232E+02  0.7816164E-02  0.1320468E+00
        -11   -1    0    0    0    0  0.00000000000E+00  0.00000000000E+00  0.45593999997E+02  0.45594000000E+02  0.51100000000E-03 0.  1.
         11   -1    0    0    0    0 -0.00000000000E+00 -0.00000000000E+00 -0.45593999997E+02  0.45594000000E+02  0.51100000000E-03 0. -1.
    9900012    2    1    2    0    0 -0.41519214618E+02  0.39397914766E+01  0.17021937136E+02  0.46142317818E+02  0.10000000523E+02 0.  0.
         12    1    1    2    0    0  0.41519214618E+02 -0.39397914766E+01 -0.17021937136E+02  0.45045682182E+02  0.00000000000E+00 0. -1.
         11    1    3    3    0    0 -0.14294827030E+01 -0.10499146520E+01  0.25423223369E+01  0.30998620454E+01  0.51100000000E-03 0. -1.
        -11    1    3    3    0    0 -0.42240458700E+01 -0.48641318431E+00  0.15886524281E+01  0.45390503518E+01  0.51100000000E-03 0.  1.
        -12    1    3    3    0    0 -0.35865686045E+02  0.54761193130E+01  0.12890962371E+02  0.38503405421E+02  0.00000000000E+00 0.  1.
</event>
<event>
 7    1  0.2097247E-008  0.4614232E+02  0.7816164E-02  0.1320468E+00
        -11   -1    0    0    0    0  0.00000000000E+00  0.00000000000E+00  0.45593999997E+02  0.45594000000E+02  0.51100000000E-03 0.  1.
         11   -1    0    0    0    0 -0.00000000000E+00 -0.00000000000E+00 -0.45593999997E+02  0.45594000000E+02  0.51100000000E-03 0. -1.
    9900012    2    1    2    0    0 -0.27227853528E+02 -0.35855428225E+02 -0.14648501717E+01  0.46142317333E+02  0.99999960942E+01 0.  0.
         12    1    1    2    0    0  0.27227853528E+02  0.35855428225E+02  0.14648501717E+01  0.45045682667E+02  0.00000000000E+00 0. -1.
         11    1    3    3    0    0 -0.16111354680E+02 -0.27594279260E+02  0.58352097354E+00  0.31958731116E+02  0.51100000000E-03 0. -1.
        -11    1    3    3    0    0 -0.46822956879E+01 -0.34779125103E+01 -0.20001471711E+01  0.61660649774E+01  0.51100000000E-03 0.  1.
         12    1    3    3    0    0 -0.64342031599E+01 -0.47832364542E+01 -0.48223974212E-01  0.80175212399E+01  0.00000000000E+00 0. -1.
</event>
<event>
 7    1  0.2097247E-008  0.4614232E+02  0.7816164E-02  0.1320468E+00
        -11   -1    0    0    0    0  0.00000000000E+00  0.00000000000E+00  0.45593999997E+02  0.45594000000E+02  0.51100000000E-03 0.  1.
         11   -1    0    0    0    0 -0.00000000000E+00 -0.00000000000E+00 -0.45593999997E+02  0.45594000000E+02  0.51100000000E-03 0. -1.
    9900012    2    1    2    0    0  0.22384346711E+02 -0.57615684306E+01  0.38663403980E+02  0.46142318123E+02  0.10000003303E+02 0.  0.
         12    1    1    2    0    0 -0.22384346711E+02  0.57615684306E+01 -0.38663403980E+02  0.45045681877E+02  0.00000000000E+00 0. -1.
         11    1    3    3    0    0  0.10924661623E+01  0.27271392798E+00  0.65782598481E+01  0.66739312322E+01  0.51100000000E-03 0. -1.
        -11    1    3    3    0    0  0.82188227221E+01 -0.40330616669E+01  0.88518493745E+01  0.12734593474E+02  0.51100000000E-03 0.  1.
        -12    1    3    3    0    0  0.13073057826E+02 -0.20012206916E+01  0.23233294757E+02  0.26733793417E+02  0.00000000000E+00 0.  1.
</event>
<event>
 7    1  0.2097247E-008  0.4614232E+02  0.7816164E-02  0.1320468E+00
        -11   -1    0    0    0    0  0.00000000000E+00  0.00000000000E+00  0.45593999997E+02  0.45594000000E+02  0.51100000000E-03 0. -1.
         11   -1    0    0    0    0 -0.00000000000E+00 -0.00000000000E+00 -0.45593999997E+02  0.45594000000E+02  0.51100000000E-03 0.  1.
    9900012    2    1    2    0    0 -0.79351199240E+00  0.38040660151E+02 -0.24112074641E+02  0.46142316194E+02  0.99999857138E+01 0.  0.
         12    1    1    2    0    0  0.79351199240E+00 -0.38040660151E+02  0.24112074641E+02  0.45045683806E+02  0.00000000000E+00 0. -1.
         11    1    3    3    0    0  0.11092387151E+01  0.12775156885E+02 -0.51222020831E+01  0.13808403180E+02  0.51100000000E-03 0.  1.
        -11    1    3    3    0    0  0.18394122126E+01  0.33475183875E+01 -0.39195187087E+01  0.54728369071E+01  0.51100000000E-03 0. -1.
        -12    1    3    3    0    0 -0.37421629201E+01  0.21917984879E+02 -0.15070353850E+02  0.26861076107E+02  0.00000000000E+00 0.  1.
</event>
<event>
 7    1  0.2097247E-008  0.4614232E+02  0.7816164E-02  0.1320468E+00
        -11   -1    0    0    0    0  0.00000000000E+00  0.00000000000E+00  0.45593999997E+02  0.45594000000E+02  0.51100000000E-03 0.  1.
         11   -1    0    0    0    0 -0.00000000000E+00 -0.00000000000E+00 -0.45593999997E+02  0.45594000000E+02  0.51100000000E-03 0. -1.
    9900012    2    1    2    0    0  0.38505379465E+02  0.63163258939E+01  0.22506738126E+02  0.46142317836E+02  0.10000000681E+02 0.  0.
         12    1    1    2    0    0 -0.38505379465E+02 -0.63163258939E+01 -0.22506738126E+02  0.45045682164E+02  0.00000000000E+00 0. -1.
         11    1    3    3    0    0  0.10339976711E+02  0.26038737040E+01  0.25321858039E+01  0.10959344956E+02  0.51100000000E-03 0. -1.
        -11    1    3    3    0    0  0.67578955051E+01  0.21085721351E+01  0.76764721373E+01  0.10442387315E+02  0.51100000000E-03 0.  1.
        -12    1    3    3    0    0  0.21407507249E+02  0.16038800548E+01  0.12298080185E+02  0.24740585564E+02  0.00000000000E+00 0.  1.
</event>
<event>
 7    1  0.2097247E-008  0.4614232E+02  0.7816164E-02  0.1320468E+00
        -11   -1    0    0    0    0  0.00000000000E+00  0.00000000000E+00  0.45593999997E+02  0.45594000000E+02  0.51100000000E-03 0. -1.
         11   -1    0    0    0    0 -0.00000000000E+00 -0.00000000000E+00 -0.45593999997E+02  0.45594000000E+02  0.51100000000E-03 0.  1.
    9900012    2    1    2    0    0  0.36181021083E+02  0.26805426478E+02  0.12314259994E+01  0.46142316685E+02  0.99999901895E+01 0.  0.
         12    1    1    2    0    0 -0.36181021083E+02 -0.26805426478E+02 -0.12314259994E+01  0.45045683315E+02  0.00000000000E+00 0. -1.
         11    1    3    3    0    0  0.74002578522E+01  0.88440361718E+01  0.19440508697E+01  0.11694448518E+02  0.51100000000E-03 0. -1.
        -11    1    3    3    0    0  0.10015553668E+02  0.71657508971E+01  0.24872610563E+01  0.12563668613E+02  0.51100000000E-03 0.  1.
        -12    1    3    3    0    0  0.18765209563E+02  0.10795639409E+02 -0.31998859266E+01  0.21884199555E+02  0.00000000000E+00 0.  1.
</event>
<event>
 7    1  0.2097247E-008  0.4614232E+02  0.7816164E-02  0.1320468E+00
        -11   -1    0    0    0    0  0.00000000000E+00  0.00000000000E+00  0.45593999997E+02  0.45594000000E+02  0.51100000000E-03 0.  1.
         11   -1    0    0    0    0 -0.00000000000E+00 -0.00000000000E+00 -0.45593999997E+02  0.45594000000E+02  0.51100000000E-03 0. -1.
    9900012    2    1    2    0    0  0.18795835442E+02  0.37964094071E+02  0.15315273653E+02  0.46142317902E+02  0.10000001282E+02 0.  0.
         12    1    1    2    0    0 -0.18795835442E+02 -0.37964094071E+02 -0.15315273653E+02  0.45045682098E+02  0.00000000000E+00 0. -1.
         11    1    3    3    0    0  0.39715164006E+01  0.81487845359E+01  0.50212375311E+01  0.10362840274E+02  0.51100000000E-03 0. -1.
        -11    1    3    3    0    0  0.11852499887E+02  0.24572809370E+02  0.11546003185E+02  0.29624565882E+02  0.51100000000E-03 0.  1.
         12    1    3    3    0    0  0.29718191553E+01  0.52425001652E+01 -0.12519670625E+01  0.61549117459E+01  0.00000000000E+00 0. -1.
</event>
<event>
 7    1  0.2097247E-008  0.4614232E+02  0.7816164E-02  0.1320468E+00
        -11   -1    0    0    0    0  0.00000000000E+00  0.00000000000E+00  0.45593999997E+02  0.45594000000E+02  0.51100000000E-03 0.  1.
         11   -1    0    0    0    0 -0.00000000000E+00 -0.00000000000E+00 -0.45593999997E+02  0.45594000000E+02  0.51100000000E-03 0. -1.
    9900012    2    1    2    0    0  0.26349228243E+02  0.99964441662E+01  0.35141183777E+02  0.46142317385E+02  0.99999965710E+01 0.  0.
         12    1    1    2    0    0 -0.26349228243E+02 -0.99964441662E+01 -0.35141183777E+02  0.45045682615E+02  0.00000000000E+00 0. -1.
         11    1    3    3    0    0  0.14586636799E+02  0.85359108789E+01  0.20160802724E+02  0.26307598034E+02  0.51100000000E-03 0. -1.
        -11    1    3    3    0    0  0.71654025020E+01  0.22753433029E+01  0.56602129656E+01  0.94105361823E+01  0.51100000000E-03 0.  1.
        -12    1    3    3    0    0  0.45971889427E+01 -0.81481001559E+00  0.93201680880E+01  0.10424183168E+02  0.00000000000E+00 0.  1.
</event>
<event>
 7    1  0.2097247E-008  0.4614232E+02  0.7816164E-02  0.1320468E+00
        -11   -1    0    0    0    0  0.00000000000E+00  0.00000000000E+00  0.45593999997E+02  0.45594000000E+02  0.51100000000E-03 0. -1.
         11   -1    0    0    0    0 -0.00000000000E+00 -0.00000000000E+00 -0.45593999997E+02  0.45594000000E+02  0.51100000000E-03 0.  1.
    9900012    2    1    2    0    0  0.22143790926E+02  0.37812260048E+02 -0.10440258242E+02  0.46142317868E+02  0.10000000979E+02 0.  0.
         12    1    1    2    0    0 -0.22143790926E+02 -0.37812260048E+02  0.10440258242E+02  0.45045682132E+02  0.00000000000E+00 0. -1.
         11    1    3    3    0    0  0.71370033043E+01  0.12159303593E+02 -0.15632763535E+01  0.14185531828E+02  0.51100000000E-03 0. -1.
        -11    1    3    3    0    0  0.10660769881E+02  0.19304215458E+02 -0.29583834561E+01  0.22249871502E+02  0.51100000000E-03 0.  1.
         12    1    3    3    0    0  0.43460177403E+01  0.63487409968E+01 -0.59185984324E+01  0.97069145380E+01  0.00000000000E+00 0. -1.
</event>
<event>
 7    1  0.2097247E-008  0.4614232E+02  0.7816164E-02  0.1320468E+00
        -11   -1    0    0    0    0  0.00000000000E+00  0.00000000000E+00  0.45593999997E+02  0.45594000000E+02  0.51100000000E-03 0. -1.
         11   -1    0    0    0    0 -0.00000000000E+00 -0.00000000000E+00 -0.45593999997E+02  0.45594000000E+02  0.51100000000E-03 0.  1.
    9900012    2    1    2    0    0  0.27876865208E+00  0.77777297843E+01 -0.44368261667E+02  0.46142318344E+02  0.10000005312E+02 0.  0.
         12    1    1    2    0    0 -0.27876865208E+00 -0.77777297843E+01  0.44368261667E+02  0.45045681656E+02  0.00000000000E+00 0. -1.
         11    1    3    3    0    0 -0.14316923664E+01  0.79368122124E+01 -0.24252540237E+02  0.25558334049E+02  0.51100000000E-03 0. -1.
        -11    1    3    3    0    0  0.18389233443E+00  0.89222832227E+00 -0.16460171226E+02  0.16485360925E+02  0.51100000000E-03 0.  1.
         12    1    3    3    0    0  0.15265686841E+01 -0.10513107503E+01 -0.36555502037E+01  0.40986233705E+01  0.00000000000E+00 0. -1.
</event>
<event>
 7    1  0.2097247E-008  0.4614232E+02  0.7816164E-02  0.1320468E+00
        -11   -1    0    0    0    0  0.00000000000E+00  0.00000000000E+00  0.45593999997E+02  0.45594000000E+02  0.51100000000E-03 0. -1.
         11   -1    0    0    0    0 -0.00000000000E+00 -0.00000000000E+00 -0.45593999997E+02  0.45594000000E+02  0.51100000000E-03 0.  1.
    9900012    2    1    2    0    0 -0.39410493557E+02  0.16804103118E+02 -0.13912175399E+02  0.46142317540E+02  0.99999979823E+01 0.  0.
         12    1    1    2    0    0  0.39410493557E+02 -0.16804103118E+02  0.13912175399E+02  0.45045682460E+02  0.00000000000E+00 0. -1.
         11    1    3    3    0    0 -0.10974817298E+02  0.21087308094E+01 -0.60861637555E+01  0.12725358536E+02  0.51100000000E-03 0. -1.
        -11    1    3    3    0    0 -0.10583007673E+01  0.17777569107E+01  0.25626532112E+00  0.20847283573E+01  0.51100000000E-03 0.  1.
         12    1    3    3    0    0 -0.27377375492E+02  0.12917615397E+02 -0.80822769644E+01  0.31332230647E+02  0.00000000000E+00 0. -1.
</event>
<event>
 7    1  0.2097247E-008  0.4614232E+02  0.7816164E-02  0.1320468E+00
        -11   -1    0    0    0    0  0.00000000000E+00  0.00000000000E+00  0.45593999997E+02  0.45594000000E+02  0.51100000000E-03 0.  1.
         11   -1    0    0    0    0 -0.00000000000E+00 -0.00000000000E+00 -0.45593999997E+02  0.45594000000E+02  0.51100000000E-03 0. -1.
    9900012    2    1    2    0    0  0.41120811984E+02  0.82334481791E+01  0.16443920468E+02  0.46142319103E+02  0.10000012235E+02 0.  0.
         12    1    1    2    0    0 -0.41120811984E+02 -0.82334481791E+01 -0.16443920468E+02  0.45045680897E+02  0.00000000000E+00 0. -1.
         11    1    3    3    0    0  0.65294619974E+01  0.19067913970E+01  0.97169192536E+00  0.68712380883E+01  0.51100000000E-03 0. -1.
        -11    1    3    3    0    0  0.14526811295E+02 -0.11406871039E+01  0.78073497841E+01  0.16531307401E+02  0.51100000000E-03 0.  1.
        -12    1    3    3    0    0  0.20064538692E+02  0.74673438859E+01  0.76648787581E+01  0.22739773614E+02  0.00000000000E+00 0.  1.
</event>
<event>
 7    1  0.2097247E-008  0.4614233E+02  0.7816164E-02  0.1320468E+00
        -11   -1    0    0    0    0  0.00000000000E+00  0.00000000000E+00  0.45593999997E+02  0.45594000000E+02  0.51100000000E-03 0.  1.
         11   -1    0    0    0    0 -0.00000000000E+00 -0.00000000000E+00 -0.45593999997E+02  0.45594000000E+02  0.51100000000E-03 0. -1.
    9900012    2    1    2    0    0  0.19805089239E+02  0.15463865736E+02  0.37386357715E+02  0.46142329326E+02  0.10000105457E+02 0.  0.
         12    1    1    2    0    0 -0.19805089239E+02 -0.15463865736E+02 -0.37386357715E+02  0.45045670674E+02  0.00000000000E+00 0. -1.
         11    1    3    3    0    0  0.38450422917E+01  0.20595347083E+00  0.28638852492E+01  0.47988129823E+01  0.51100000000E-03 0. -1.
        -11    1    3    3    0    0  0.49177527112E+01  0.61001017930E+01  0.16839732882E+02  0.18573425570E+02  0.51100000000E-03 0.  1.
        -12    1    3    3    0    0  0.11042294236E+02  0.91578104720E+01  0.17682739585E+02  0.22770090774E+02  0.00000000000E+00 0.  1.
</event>
<event>
 7    1  0.2097247E-008  0.4614232E+02  0.7816164E-02  0.1320468E+00
        -11   -1    0    0    0    0  0.00000000000E+00  0.00000000000E+00  0.45593999997E+02  0.45594000000E+02  0.51100000000E-03 0. -1.
         11   -1    0    0    0    0 -0.00000000000E+00 -0.00000000000E+00 -0.45593999997E+02  0.45594000000E+02  0.51100000000E-03 0.  1.
    9900012    2    1    2    0    0  0.18850191371E+02  0.32504500794E+02 -0.24844334513E+02  0.46142320474E+02  0.10000024736E+02 0.  0.
         12    1    1    2    0    0 -0.18850191371E+02 -0.32504500794E+02  0.24844334513E+02  0.45045679526E+02  0.00000000000E+00 0. -1.
         11    1    3    3    0    0  0.10803686293E+01  0.16795536509E+01  0.50067295674E+00  0.20588274605E+01  0.51100000000E-03 0. -1.
        -11    1    3    3    0    0  0.17759056520E+02  0.28269061403E+02 -0.24431118840E+02  0.41369112743E+02  0.51100000000E-03 0.  1.
        -12    1    3    3    0    0  0.10766222208E-01  0.25558857396E+01 -0.91388863006E+00  0.27143802706E+01  0.00000000000E+00 0.  1.
</event>
<event>
 7    1  0.2097247E-008  0.4614232E+02  0.7816164E-02  0.1320468E+00
        -11   -1    0    0    0    0  0.00000000000E+00  0.00000000000E+00  0.45593999997E+02  0.45594000000E+02  0.51100000000E-03 0. -1.
         11   -1    0    0    0    0 -0.00000000000E+00 -0.00000000000E+00 -0.45593999997E+02  0.45594000000E+02  0.51100000000E-03 0.  1.
    9900012    2    1    2    0    0  0.25577075599E+02 -0.28342350824E+02 -0.23908953304E+02  0.46142315473E+02  0.99999791318E+01 0.  0.
         12    1    1    2    0    0 -0.25577075599E+02  0.28342350824E+02  0.23908953304E+02  0.45045684527E+02  0.00000000000E+00 0. -1.
         11    1    3    3    0    0  0.92619528072E+00  0.33203618148E+00 -0.16006417905E+01  0.18788667133E+01  0.51100000000E-03 0. -1.
        -11    1    3    3    0    0  0.51975956114E+01 -0.41233988633E+01 -0.19886119731E+01  0.69261819327E+01  0.51100000000E-03 0.  1.
        -12    1    3    3    0    0  0.19453284707E+02 -0.24550988142E+02 -0.20319699541E+02  0.37337266827E+02  0.00000000000E+00 0.  1.
</event>
<event>
 7    1  0.2097247E-008  0.4614232E+02  0.7816164E-02  0.1320468E+00
        -11   -1    0    0    0    0  0.00000000000E+00  0.00000000000E+00  0.45593999997E+02  0.45594000000E+02  0.51100000000E-03 0.  1.
         11   -1    0    0    0    0 -0.00000000000E+00 -0.00000000000E+00 -0.45593999997E+02  0.45594000000E+02  0.51100000000E-03 0. -1.
    9900012    2    1    2    0    0 -0.88236048158E+01  0.13427312486E+01  0.44152628823E+02  0.46142316954E+02  0.99999926383E+01 0.  0.
         12    1    1    2    0    0  0.88236048158E+01 -0.13427312486E+01 -0.44152628823E+02  0.45045683046E+02  0.00000000000E+00 0. -1.
         11    1    3    3    0    0 -0.65613857020E+00 -0.12805075790E+01  0.13405065631E+02  0.13482062243E+02  0.51100000000E-03 0. -1.
        -11    1    3    3    0    0 -0.15661096795E+00  0.27700059925E+01  0.11107631716E+02  0.11448883910E+02  0.51100000000E-03 0.  1.
         12    1    3    3    0    0 -0.80108552777E+01 -0.14676716497E+00  0.19639931476E+02  0.21211370801E+02  0.00000000000E+00 0. -1.
</event>
<event>
 7    1  0.2097247E-008  0.4614232E+02  0.7816164E-02  0.1320468E+00
        -11   -1    0    0    0    0  0.00000000000E+00  0.00000000000E+00  0.45593999997E+02  0.45594000000E+02  0.51100000000E-03 0.  1.
         11   -1    0    0    0    0 -0.00000000000E+00 -0.00000000000E+00 -0.45593999997E+02  0.45594000000E+02  0.51100000000E-03 0. -1.
    9900012    2    1    2    0    0  0.65641929557E+01 -0.13939609064E+02  0.42328620923E+02  0.46142317862E+02  0.10000000919E+02 0.  0.
         12    1    1    2    0    0 -0.65641929557E+01  0.13939609064E+02 -0.42328620923E+02  0.45045682138E+02  0.00000000000E+00 0. -1.
         11    1    3    3    0    0  0.53494790667E+01 -0.78126399880E+01  0.16170862188E+02  0.18739024895E+02  0.51100000000E-03 0. -1.
        -11    1    3    3    0    0  0.85058414446E+00 -0.55961344202E+01  0.26154042476E+02  0.26759561879E+02  0.51100000000E-03 0.  1.
        -12    1    3    3    0    0  0.36412974458E+00 -0.53083465623E+00  0.37162592988E-02  0.64373108805E+00  0.00000000000E+00 0.  1.
</event>
<event>
 7    1  0.2097247E-008  0.4614232E+02  0.7816164E-02  0.1320468E+00
        -11   -1    0    0    0    0  0.00000000000E+00  0.00000000000E+00  0.45593999997E+02  0.45594000000E+02  0.51100000000E-03 0. -1.
         11   -1    0    0    0    0 -0.00000000000E+00 -0.00000000000E+00 -0.45593999997E+02  0.45594000000E+02  0.51100000000E-03 0.  1.
    9900012    2    1    2    0    0 -0.15394855441E+02 -0.36603908486E+02  0.21266541403E+02  0.46142317923E+02  0.10000001478E+02 0.  0.
         12    1    1    2    0    0  0.15394855441E+02  0.36603908486E+02 -0.21266541403E+02  0.45045682077E+02  0.00000000000E+00 0. -1.
         11    1    3    3    0    0 -0.54420859165E+01 -0.12582149170E+02  0.11436316505E+02  0.17852622001E+02  0.51100000000E-03 0. -1.
        -11    1    3    3    0    0 -0.18594214658E+01 -0.11140797502E+02  0.36547969421E+01  0.11871493508E+02  0.51100000000E-03 0.  1.
         12    1    3    3    0    0 -0.80933480586E+01 -0.12880961815E+02  0.61754279559E+01  0.16418202414E+02  0.00000000000E+00 0. -1.
</event>
<event>
 7    1  0.2097247E-008  0.4614231E+02  0.7816164E-02  0.1320468E+00
        -11   -1    0    0    0    0  0.00000000000E+00  0.00000000000E+00  0.45593999997E+02  0.45594000000E+02  0.51100000000E-03 0. -1.
         11   -1    0    0    0    0 -0.00000000000E+00 -0.00000000000E+00 -0.45593999997E+02  0.45594000000E+02  0.51100000000E-03 0.  1.
    9900012    2    1    2    0    0  0.92685724904E+01  0.42845832640E+02 -0.10365420451E+02  0.46142314837E+02  0.99999733375E+01 0.  0.
         12    1    1    2    0    0 -0.92685724904E+01 -0.42845832640E+02  0.10365420451E+02  0.45045685163E+02  0.00000000000E+00 0. -1.
         11    1    3    3    0    0  0.48393963299E+01  0.15392171498E+02 -0.82984944501E+01  0.18143971744E+02  0.51100000000E-03 0. -1.
        -11    1    3    3    0    0  0.22985980313E+01  0.89662465524E+01  0.14681412879E+00  0.92573584135E+01  0.51100000000E-03 0.  1.
         12    1    3    3    0    0  0.21305781291E+01  0.18487414590E+02 -0.22137401302E+01  0.18740984679E+02  0.00000000000E+00 0. -1.
</event>
<event>
 7    1  0.2097247E-008  0.4614232E+02  0.7816164E-02  0.1320468E+00
        -11   -1    0    0    0    0  0.00000000000E+00  0.00000000000E+00  0.45593999997E+02  0.45594000000E+02  0.51100000000E-03 0.  1.
         11   -1    0    0    0    0 -0.00000000000E+00 -0.00000000000E+00 -0.45593999997E+02  0.45594000000E+02  0.51100000000E-03 0. -1.
    9900012    2    1    2    0    0 -0.27278817193E+02 -0.34254946858E+02 -0.10563061304E+02  0.46142317457E+02  0.99999972241E+01 0.  0.
         12    1    1    2    0    0  0.27278817193E+02  0.34254946858E+02  0.10563061304E+02  0.45045682543E+02  0.00000000000E+00 0. -1.
         11    1    3    3    0    0 -0.75278943702E+01 -0.57606327966E+01 -0.89283823898E+00  0.95210946980E+01  0.51100000000E-03 0. -1.
        -11    1    3    3    0    0 -0.12205470016E+02 -0.20562781096E+02 -0.93317155729E+01  0.25668704301E+02  0.51100000000E-03 0.  1.
        -12    1    3    3    0    0 -0.75454528067E+01 -0.79315329659E+01 -0.33850749223E+00  0.10952518458E+02  0.00000000000E+00 0.  1.
</event>
<event>
 7    1  0.2097247E-008  0.4614232E+02  0.7816164E-02  0.1320468E+00
        -11   -1    0    0    0    0  0.00000000000E+00  0.00000000000E+00  0.45593999997E+02  0.45594000000E+02  0.51100000000E-03 0.  1.
         11   -1    0    0    0    0 -0.00000000000E+00 -0.00000000000E+00 -0.45593999997E+02  0.45594000000E+02  0.51100000000E-03 0. -1.
    9900012    2    1    2    0    0 -0.40969024223E+02  0.25729409714E+01  0.18548113968E+02  0.46142317601E+02  0.99999985396E+01 0.  0.
         12    1    1    2    0    0  0.40969024223E+02 -0.25729409714E+01 -0.18548113968E+02  0.45045682399E+02  0.00000000000E+00 0. -1.
         11    1    3    3    0    0 -0.14750024975E+02  0.21393235294E+01  0.44651712547E+01  0.15558846247E+02  0.51100000000E-03 0. -1.
        -11    1    3    3    0    0 -0.10552835267E+02  0.33482878354E+01  0.42507856839E+01  0.11859280872E+02  0.51100000000E-03 0.  1.
        -12    1    3    3    0    0 -0.15666163980E+02 -0.29146703935E+01  0.98321570299E+01  0.18724190482E+02  0.00000000000E+00 0.  1.
</event>
<event>
 7    1  0.2097247E-008  0.4614232E+02  0.7816164E-02  0.1320468E+00
        -11   -1    0    0    0    0  0.00000000000E+00  0.00000000000E+00  0.45593999997E+02  0.45594000000E+02  0.51100000000E-03 0. -1.
         11   -1    0    0    0    0 -0.00000000000E+00 -0.00000000000E+00 -0.45593999997E+02  0.45594000000E+02  0.51100000000E-03 0.  1.
    9900012    2    1    2    0    0 -0.23762915869E+02 -0.26709095948E+02 -0.27405502115E+02  0.46142317376E+02  0.99999964839E+01 0.  0.
         12    1    1    2    0    0  0.23762915869E+02  0.26709095948E+02  0.27405502115E+02  0.45045682624E+02  0.00000000000E+00 0. -1.
         11    1    3    3    0    0 -0.85689901128E+00 -0.34003488869E+01 -0.40433895760E+00  0.35298921686E+01  0.51100000000E-03 0. -1.
        -11    1    3    3    0    0 -0.26161187973E+01 -0.45182098462E+01 -0.31816088819E+01  0.61139948572E+01  0.51100000000E-03 0.  1.
        -12    1    3    3    0    0 -0.20289898060E+02 -0.18790537215E+02 -0.23819554276E+02  0.36498430350E+02  0.00000000000E+00 0.  1.
</event>
<event>
 7    1  0.2097247E-008  0.4614232E+02  0.7816164E-02  0.1320468E+00
        -11   -1    0    0    0    0  0.00000000000E+00  0.00000000000E+00  0.45593999997E+02  0.45594000000E+02  0.51100000000E-03 0. -1.
         11   -1    0    0    0    0 -0.00000000000E+00 -0.00000000000E+00 -0.45593999997E+02  0.45594000000E+02  0.51100000000E-03 0.  1.
    9900012    2    1    2    0    0 -0.22113486151E+02  0.28796087419E+02 -0.26662569497E+02  0.46142317271E+02  0.99999955267E+01 0.  0.
         12    1    1    2    0    0  0.22113486151E+02 -0.28796087419E+02  0.26662569497E+02  0.45045682729E+02  0.00000000000E+00 0. -1.
         11    1    3    3    0    0 -0.71756417521E+01  0.74658346896E+01 -0.10075248578E+02  0.14447808012E+02  0.51100000000E-03 0. -1.
        -11    1    3    3    0    0 -0.13253243723E+02  0.15649136881E+02 -0.15413249855E+02  0.25653698089E+02  0.51100000000E-03 0.  1.
         12    1    3    3    0    0 -0.16846006753E+01  0.56811158491E+01 -0.11740710634E+01  0.60408111697E+01  0.00000000000E+00 0. -1.
</event>
<event>
 7    1  0.2097247E-008  0.4614232E+02  0.7816164E-02  0.1320468E+00
        -11   -1    0    0    0    0  0.00000000000E+00  0.00000000000E+00  0.45593999997E+02  0.45594000000E+02  0.51100000000E-03 0. -1.
         11   -1    0    0    0    0 -0.00000000000E+00 -0.00000000000E+00 -0.45593999997E+02  0.45594000000E+02  0.51100000000E-03 0.  1.
    9900012    2    1    2    0    0  0.39670428572E+02 -0.19197710280E+02 -0.93176421158E+01  0.46142318323E+02  0.10000005126E+02 0.  0.
         12    1    1    2    0    0 -0.39670428572E+02  0.19197710280E+02  0.93176421158E+01  0.45045681677E+02  0.00000000000E+00 0. -1.
         11    1    3    3    0    0  0.36659290713E+01 -0.14788756374E+00 -0.20522751959E+01  0.42038958631E+01  0.51100000000E-03 0. -1.
        -11    1    3    3    0    0  0.17560470762E+02 -0.11833740815E+02 -0.63691631136E+01  0.22112751843E+02  0.51100000000E-03 0.  1.
        -12    1    3    3    0    0  0.18444028739E+02 -0.72160819018E+01 -0.89620380634E+00  0.19825670617E+02  0.00000000000E+00 0.  1.
</event>
<event>
 7    1  0.2097247E-008  0.4614232E+02  0.7816164E-02  0.1320468E+00
        -11   -1    0    0    0    0  0.00000000000E+00  0.00000000000E+00  0.45593999997E+02  0.45594000000E+02  0.51100000000E-03 0.  1.
         11   -1    0    0    0    0 -0.00000000000E+00 -0.00000000000E+00 -0.45593999997E+02  0.45594000000E+02  0.51100000000E-03 0. -1.
    9900012    2    1    2    0    0 -0.26244463697E+02 -0.26610603692E+02  0.25143936439E+02  0.46142316042E+02  0.99999843243E+01 0.  0.
         12    1    1    2    0    0  0.26244463697E+02  0.26610603692E+02 -0.25143936439E+02  0.45045683958E+02  0.00000000000E+00 0. -1.
         11    1    3    3    0    0 -0.68544995340E+00 -0.37727021715E+00 -0.47784502968E-01  0.78387376230E+00  0.51100000000E-03 0. -1.
        -11    1    3    3    0    0 -0.21840733224E+02 -0.16785566271E+02  0.19065851091E+02  0.33500440905E+02  0.51100000000E-03 0.  1.
        -12    1    3    3    0    0 -0.37182805202E+01 -0.94477672037E+01  0.61258698511E+01  0.11858001374E+02  0.00000000000E+00 0.  1.
</event>
<event>
 7    1  0.2097247E-008  0.4614232E+02  0.7816164E-02  0.1320468E+00
        -11   -1    0    0    0    0  0.00000000000E+00  0.00000000000E+00  0.45593999997E+02  0.45594000000E+02  0.51100000000E-03 0.  1.
         11   -1    0    0    0    0 -0.00000000000E+00 -0.00000000000E+00 -0.45593999997E+02  0.45594000000E+02  0.51100000000E-03 0. -1.
    9900012    2    1    2    0    0  0.30446318279E+02 -0.18822146984E+02  0.27347065263E+02  0.46142317717E+02  0.99999995977E+01 0.  0.
         12    1    1    2    0    0 -0.30446318279E+02  0.18822146984E+02 -0.27347065263E+02  0.45045682283E+02  0.00000000000E+00 0. -1.
         11    1    3    3    0    0  0.36185810702E+00 -0.17449331996E+01  0.24614406837E+01  0.30388194519E+01  0.51100000000E-03 0. -1.
        -11    1    3    3    0    0  0.14034542022E+02 -0.11236770497E+02  0.14650053091E+02  0.23191753638E+02  0.51100000000E-03 0.  1.
         12    1    3    3    0    0  0.16049918149E+02 -0.58404432883E+01  0.10235571489E+02  0.19911744627E+02  0.00000000000E+00 0. -1.
</event>
<event>
 7    1  0.2097247E-008  0.4614232E+02  0.7816164E-02  0.1320468E+00
        -11   -1    0    0    0    0  0.00000000000E+00  0.00000000000E+00  0.45593999997E+02  0.45594000000E+02  0.51100000000E-03 0. -1.
         11   -1    0    0    0    0 -0.00000000000E+00 -0.00000000000E+00 -0.45593999997E+02  0.45594000000E+02  0.51100000000E-03 0.  1.
    9900012    2    1    2    0    0 -0.44303736086E+02 -0.63872866846E+01  0.50492061121E+01  0.46142323796E+02  0.10000055027E+02 0.  0.
         12    1    1    2    0    0  0.44303736086E+02  0.63872866846E+01 -0.50492061121E+01  0.45045676204E+02  0.00000000000E+00 0. -1.
         11    1    3    3    0    0 -0.99588210131E+01 -0.48980926456E+00  0.40091161201E+01  0.10746675831E+02  0.51100000000E-03 0. -1.
        -11    1    3    3    0    0 -0.13260158888E+02  0.36085412116E+00  0.18114453090E+01  0.13388180003E+02  0.51100000000E-03 0.  1.
        -12    1    3    3    0    0 -0.21084756185E+02 -0.62583315412E+01 -0.77135531706E+00  0.22007467961E+02  0.00000000000E+00 0.  1.
</event>
<event>
 7    1  0.2097247E-008  0.4614232E+02  0.7816164E-02  0.1320468E+00
        -11   -1    0    0    0    0  0.00000000000E+00  0.00000000000E+00  0.45593999997E+02  0.45594000000E+02  0.51100000000E-03 0.  1.
         11   -1    0    0    0    0 -0.00000000000E+00 -0.00000000000E+00 -0.45593999997E+02  0.45594000000E+02  0.51100000000E-03 0. -1.
    9900012    2    1    2    0    0 -0.41025286634E+02  0.37674410929E+01  0.18216632963E+02  0.46142317939E+02  0.10000001625E+02 0.  0.
         12    1    1    2    0    0  0.41025286634E+02 -0.37674410929E+01 -0.18216632963E+02  0.45045682061E+02  0.00000000000E+00 0. -1.
         11    1    3    3    0    0 -0.34651601250E+02  0.34530928162E+01  0.12169301099E+02  0.36888334317E+02  0.51100000000E-03 0. -1.
        -11    1    3    3    0    0 -0.30436436073E+01 -0.11392696430E+01  0.20046908367E+01  0.38184404329E+01  0.51100000000E-03 0.  1.
         12    1    3    3    0    0 -0.33300417773E+01  0.14536179197E+01  0.40426410264E+01  0.54355431894E+01  0.00000000000E+00 0. -1.
</event>
