<event>
 7    1  0.2542335E-015  0.9000788E+02  0.7816164E-02  0.1186339E+00
        -11   -1    0    0    0    0  0.00000000000E+00  0.00000000000E+00  0.45593999997E+02  0.45594000000E+02  0.51100000000E-03 0.  1.
         11   -1    0    0    0    0 -0.00000000000E+00 -0.00000000000E+00 -0.45593999997E+02  0.45594000000E+02  0.51100000000E-03 0. -1.
    9900012    2    1    2    0    0  0.15579790192E+00  0.66530487980E+00 -0.96216844662E+00  0.90007884883E+02  0.90000148163E+02 0.  0.
        -12    1    1    2    0    0 -0.15579790192E+00 -0.66530487980E+00  0.96216844662E+00  0.11801151168E+01  0.00000000000E+00 0.  1.
         11    1    3    3    0    0 -0.98576858434E+01 -0.17299642381E+01 -0.18611772494E+01  0.10179917852E+02  0.51100000000E-03 0. -1.
        -11    1    3    3    0    0 -0.20641259354E+02  0.24341587368E+02  0.19898593113E+02  0.37610217646E+02  0.51100000000E-03 0.  1.
         12    1    3    3    0    0  0.30654743099E+02 -0.21946318250E+02 -0.18999584310E+02  0.42217749385E+02  0.00000000000E+00 0. -1.
</event>
<event>
 7    1  0.2542335E-015  0.9000764E+02  0.7816164E-02  0.1186339E+00
        -11   -1    0    0    0    0  0.00000000000E+00  0.00000000000E+00  0.45593999997E+02  0.45594000000E+02  0.51100000000E-03 0.  1.
         11   -1    0    0    0    0 -0.00000000000E+00 -0.00000000000E+00 -0.45593999997E+02  0.45594000000E+02  0.51100000000E-03 0. -1.
    9900012    2    1    2    0    0 -0.34828274449E+00  0.35083570946E-02 -0.11278038264E+01  0.90007637916E+02  0.89999897936E+02 0.  0.
        -12    1    1    2    0    0  0.34828274449E+00 -0.35083570946E-02  0.11278038264E+01  0.11803620840E+01  0.00000000000E+00 0.  1.
         11    1    3    3    0    0 -0.22018113997E+02  0.33147241897E+01 -0.30108080435E+02  0.37447045920E+02  0.51100000000E-03 0. -1.
        -11    1    3    3    0    0 -0.62416757279E+01  0.17157727780E+01 -0.50873723911E+01  0.82330887414E+01  0.51100000000E-03 0.  1.
        -12    1    3    3    0    0  0.27911506980E+02 -0.50269886106E+01  0.34067648999E+02  0.44327503254E+02  0.00000000000E+00 0.  1.
</event>
<event>
 7    1  0.2542335E-015  0.9000750E+02  0.7816164E-02  0.1186340E+00
        -11   -1    0    0    0    0  0.00000000000E+00  0.00000000000E+00  0.45593999997E+02  0.45594000000E+02  0.51100000000E-03 0.  1.
         11   -1    0    0    0    0 -0.00000000000E+00 -0.00000000000E+00 -0.45593999997E+02  0.45594000000E+02  0.51100000000E-03 0. -1.
    9900012    2    1    2    0    0 -0.95372036025E+00  0.51824851320E+00 -0.46413057482E+00  0.90007499582E+02  0.89999757776E+02 0.  0.
        -12    1    1    2    0    0  0.95372036025E+00 -0.51824851320E+00  0.46413057482E+00  0.11805004182E+01  0.00000000000E+00 0.  1.
         11    1    3    3    0    0 -0.25035505268E+02  0.11150781040E+02 -0.31257108568E+02  0.41570702161E+02  0.51100000000E-03 0. -1.
        -11    1    3    3    0    0 -0.33664060987E+01  0.44798655566E+01  0.76515129221E+01  0.94840674652E+01  0.51100000000E-03 0.  1.
        -12    1    3    3    0    0  0.27448191007E+02 -0.15112398083E+02  0.23141465071E+02  0.38952729956E+02  0.00000000000E+00 0.  1.
</event>
<event>
 7    1  0.2542335E-015  0.9000767E+02  0.7816164E-02  0.1186339E+00
        -11   -1    0    0    0    0  0.00000000000E+00  0.00000000000E+00  0.45593999997E+02  0.45594000000E+02  0.51100000000E-03 0. -1.
         11   -1    0    0    0    0 -0.00000000000E+00 -0.00000000000E+00 -0.45593999997E+02  0.45594000000E+02  0.51100000000E-03 0.  1.
    9900012    2    1    2    0    0  0.63478180581E+00  0.81184160313E+00  0.57545275963E+00  0.90007669280E+02  0.89999929715E+02 0.  0.
        -12    1    1    2    0    0 -0.63478180581E+00 -0.81184160313E+00 -0.57545275963E+00  0.11803307198E+01  0.00000000000E+00 0.  1.
         11    1    3    3    0    0 -0.63432711609E+01 -0.46905531355E+01 -0.63393091102E+01  0.10120534472E+02  0.51100000000E-03 0. -1.
        -11    1    3    3    0    0  0.26836020031E+02  0.20916163664E+02 -0.22806268297E+02  0.40960758628E+02  0.51100000000E-03 0.  1.
         12    1    3    3    0    0 -0.19857967064E+02 -0.15413768925E+02  0.29721030167E+02  0.38926376181E+02  0.00000000000E+00 0. -1.
</event>
<event>
 7    1  0.2542335E-015  0.9000879E+02  0.7816164E-02  0.1186337E+00
        -11   -1    0    0    0    0  0.00000000000E+00  0.00000000000E+00  0.45593999997E+02  0.45594000000E+02  0.51100000000E-03 0.  1.
         11   -1    0    0    0    0 -0.00000000000E+00 -0.00000000000E+00 -0.45593999997E+02  0.45594000000E+02  0.51100000000E-03 0. -1.
    9900012    2    1    2    0    0  0.11658736292E+01  0.53608151081E-01  0.16851140879E+00  0.90008792110E+02  0.90001067359E+02 0.  0.
        -12    1    1    2    0    0 -0.11658736292E+01 -0.53608151081E-01 -0.16851140879E+00  0.11792078901E+01  0.00000000000E+00 0.  1.
         11    1    3    3    0    0 -0.19207682363E+02  0.16877125062E+02 -0.25546219559E+02  0.36143903305E+02  0.51100000000E-03 0. -1.
        -11    1    3    3    0    0 -0.18180608872E+01  0.20517864842E+01 -0.84977232192E+01  0.89289682124E+01  0.51100000000E-03 0.  1.
        -12    1    3    3    0    0  0.22191616880E+02 -0.18875303395E+02  0.34212454187E+02  0.44935920592E+02  0.00000000000E+00 0.  1.
</event>
<event>
 7    1  0.2542335E-015  0.9000779E+02  0.7816164E-02  0.1186339E+00
        -11   -1    0    0    0    0  0.00000000000E+00  0.00000000000E+00  0.45593999997E+02  0.45594000000E+02  0.51100000000E-03 0. -1.
         11   -1    0    0    0    0 -0.00000000000E+00 -0.00000000000E+00 -0.45593999997E+02  0.45594000000E+02  0.51100000000E-03 0.  1.
    9900012    2    1    2    0    0 -0.21722348174E+00  0.72498572407E-01  0.11577755539E+01  0.90007793951E+02  0.90000056032E+02 0.  0.
        -12    1    1    2    0    0  0.21722348174E+00 -0.72498572407E-01 -0.11577755539E+01  0.11802060486E+01  0.00000000000E+00 0.  1.
         11    1    3    3    0    0 -0.11114791069E+02  0.14666784429E+02  0.92962750515E+01  0.20617319809E+02  0.51100000000E-03 0. -1.
        -11    1    3    3    0    0 -0.24472077639E+02  0.89918311485E+01  0.17679377627E+00  0.26072339129E+02  0.51100000000E-03 0.  1.
         12    1    3    3    0    0  0.35369645226E+02 -0.23586117005E+02 -0.83152932739E+01  0.43318135014E+02  0.00000000000E+00 0. -1.
</event>
<event>
 7    1  0.2542335E-015  0.9000778E+02  0.7816164E-02  0.1186339E+00
        -11   -1    0    0    0    0  0.00000000000E+00  0.00000000000E+00  0.45593999997E+02  0.45594000000E+02  0.51100000000E-03 0.  1.
         11   -1    0    0    0    0 -0.00000000000E+00 -0.00000000000E+00 -0.45593999997E+02  0.45594000000E+02  0.51100000000E-03 0. -1.
    9900012    2    1    2    0    0 -0.93752913449E+00 -0.69479726471E+00 -0.17667405580E+00  0.90007780597E+02  0.90000042501E+02 0.  0.
        -12    1    1    2    0    0  0.93752913449E+00  0.69479726471E+00  0.17667405580E+00  0.11802194029E+01  0.00000000000E+00 0.  1.
         11    1    3    3    0    0 -0.31595016773E+02 -0.14052863404E+02 -0.30177267263E+01  0.34710729315E+02  0.51100000000E-03 0. -1.
        -11    1    3    3    0    0 -0.95930349624E+01 -0.49672846979E+01 -0.12861054772E+01  0.10879076460E+02  0.51100000000E-03 0.  1.
        -12    1    3    3    0    0  0.40250522601E+02  0.18325350837E+02  0.41271581477E+01  0.44417974822E+02  0.00000000000E+00 0.  1.
</event>
<event>
 7    1  0.2542335E-015  0.9000773E+02  0.7816164E-02  0.1186339E+00
        -11   -1    0    0    0    0  0.00000000000E+00  0.00000000000E+00  0.45593999997E+02  0.45594000000E+02  0.51100000000E-03 0. -1.
         11   -1    0    0    0    0 -0.00000000000E+00 -0.00000000000E+00 -0.45593999997E+02  0.45594000000E+02  0.51100000000E-03 0.  1.
    9900012    2    1    2    0    0 -0.42098983484E+00 -0.94849364298E+00  0.56229516157E+00  0.90007725252E+02  0.89999986425E+02 0.  0.
        -12    1    1    2    0    0  0.42098983484E+00  0.94849364298E+00 -0.56229516157E+00  0.11802747479E+01  0.00000000000E+00 0.  1.
         11    1    3    3    0    0  0.15509826540E+01  0.19015900693E+02  0.28936647671E+02  0.34660346291E+02  0.51100000000E-03 0. -1.
        -11    1    3    3    0    0 -0.24254572180E+01  0.79326285879E+01  0.66050380493E+01  0.10603582740E+02  0.51100000000E-03 0.  1.
        -12    1    3    3    0    0  0.45348472920E+00 -0.27897022924E+02 -0.34979390559E+02  0.44743796221E+02  0.00000000000E+00 0.  1.
</event>
<event>
 7    1  0.2542335E-015  0.9000773E+02  0.7816164E-02  0.1186339E+00
        -11   -1    0    0    0    0  0.00000000000E+00  0.00000000000E+00  0.45593999997E+02  0.45594000000E+02  0.51100000000E-03 0.  1.
         11   -1    0    0    0    0 -0.00000000000E+00 -0.00000000000E+00 -0.45593999997E+02  0.45594000000E+02  0.51100000000E-03 0. -1.
    9900012    2    1    2    0    0 -0.83624550660E+00 -0.64173359976E+00 -0.53095057270E+00  0.90007730086E+02  0.89999991323E+02 0.  0.
        -12    1    1    2    0    0  0.83624550660E+00  0.64173359976E+00  0.53095057270E+00  0.11802699145E+01  0.00000000000E+00 0.  1.
         11    1    3    3    0    0  0.60539304759E+01  0.43243584109E+01  0.77057367392E+01  0.10711140407E+02  0.51100000000E-03 0. -1.
        -11    1    3    3    0    0 -0.48813430187E+01  0.29189292417E+02  0.19338894533E+02  0.35353007560E+02  0.51100000000E-03 0.  1.
         12    1    3    3    0    0 -0.20088329639E+01 -0.34155384428E+02 -0.27575581845E+02  0.43943582118E+02  0.00000000000E+00 0. -1.
</event>
<event>
 7    1  0.2542335E-015  0.9000777E+02  0.7816164E-02  0.1186339E+00
        -11   -1    0    0    0    0  0.00000000000E+00  0.00000000000E+00  0.45593999997E+02  0.45594000000E+02  0.51100000000E-03 0. -1.
         11   -1    0    0    0    0 -0.00000000000E+00 -0.00000000000E+00 -0.45593999997E+02  0.45594000000E+02  0.51100000000E-03 0.  1.
    9900012    2    1    2    0    0 -0.28141392928E+00 -0.57339408887E+00  0.99246084027E+00  0.90007765659E+02  0.90000027365E+02 0.  0.
        -12    1    1    2    0    0  0.28141392928E+00  0.57339408887E+00 -0.99246084027E+00  0.11802343412E+01  0.00000000000E+00 0.  1.
         11    1    3    3    0    0  0.88566467613E+01 -0.47584319271E+01  0.34866172045E+01  0.10641398689E+02  0.51100000000E-03 0. -1.
        -11    1    3    3    0    0  0.74036774326E+01 -0.35452247417E+02 -0.36484851803E+01  0.36400380916E+02  0.51100000000E-03 0.  1.
         12    1    3    3    0    0 -0.16541738123E+02  0.39637285256E+02  0.11543288162E+01  0.42965986054E+02  0.00000000000E+00 0. -1.
</event>
<event>
 7    1  0.2542335E-015  0.9000765E+02  0.7816164E-02  0.1186339E+00
        -11   -1    0    0    0    0  0.00000000000E+00  0.00000000000E+00  0.45593999997E+02  0.45594000000E+02  0.51100000000E-03 0.  1.
         11   -1    0    0    0    0 -0.00000000000E+00 -0.00000000000E+00 -0.45593999997E+02  0.45594000000E+02  0.51100000000E-03 0. -1.
    9900012    2    1    2    0    0 -0.84806835479E+00  0.63952114058E+00  0.51479464391E+00  0.90007652276E+02  0.89999912486E+02 0.  0.
        -12    1    1    2    0    0  0.84806835479E+00 -0.63952114058E+00 -0.51479464391E+00  0.11803477238E+01  0.00000000000E+00 0.  1.
         11    1    3    3    0    0 -0.29791941725E+02 -0.13598855305E+02  0.22299117780E+02  0.39619935782E+02  0.51100000000E-03 0. -1.
        -11    1    3    3    0    0 -0.97554855172E+00  0.80249818697E+01  0.52073483873E+01  0.96160546209E+01  0.51100000000E-03 0.  1.
        -12    1    3    3    0    0  0.29919421922E+02  0.62133945756E+01 -0.26991671523E+02  0.40771661873E+02  0.00000000000E+00 0.  1.
</event>
<event>
 8    1  0.2542335E-015  0.9000770E+02  0.7816164E-02  0.1186339E+00
        -11   -1    0    0    0    0  0.00000000000E+00  0.00000000000E+00  0.45593999997E+02  0.45594000000E+02  0.51100000000E-03 0.  1.
         11   -1    0    0    0    0 -0.00000000000E+00 -0.00000000000E+00 -0.45593999997E+02  0.45594000000E+02  0.51100000000E-03 0. -1.
    9900012    2    1    2    0    0  0.81207220689E+00  0.83908537984E+00  0.17197646680E+00  0.90007702813E+02  0.89999963690E+02 0.  0.
         23    2    3    3    0    0 -0.18869529356E+02  0.13907056357E+02 -0.14872583881E+02  0.61999202289E+02  0.55436828720E+02 0.  0.
        -12    1    1    2    0    0 -0.81207220689E+00 -0.83908537984E+00 -0.17197646680E+00  0.11802971867E+01  0.00000000000E+00 0.  1.
         11    1    4    4    0    0 -0.84822813122E+01  0.11014881388E+02 -0.35828967154E+02  0.38431648362E+02  0.51100000000E-03 0. -1.
        -11    1    4    4    0    0 -0.10387248044E+02  0.28921749688E+01  0.20956383273E+02  0.23567553927E+02  0.51100000000E-03 0.  1.
        -12    1    3    3    0    0  0.19681601563E+02 -0.13067970977E+02  0.15044560348E+02  0.28008500524E+02  0.00000000000E+00 0.  1.
</event>
<event>
 7    1  0.2542335E-015  0.9000774E+02  0.7816164E-02  0.1186339E+00
        -11   -1    0    0    0    0  0.00000000000E+00  0.00000000000E+00  0.45593999997E+02  0.45594000000E+02  0.51100000000E-03 0.  1.
         11   -1    0    0    0    0 -0.00000000000E+00 -0.00000000000E+00 -0.45593999997E+02  0.45594000000E+02  0.51100000000E-03 0. -1.
    9900012    2    1    2    0    0 -0.46419460220E+00 -0.72677519431E+00 -0.80581446369E+00  0.90007739113E+02  0.90000000469E+02 0.  0.
        -12    1    1    2    0    0  0.46419460220E+00  0.72677519431E+00  0.80581446369E+00  0.11802608871E+01  0.00000000000E+00 0.  1.
         11    1    3    3    0    0 -0.58641078922E+01  0.62617019082E+00 -0.61015739666E+01  0.84858149644E+01  0.51100000000E-03 0. -1.
        -11    1    3    3    0    0 -0.67650236823E+01  0.38382237057E+02  0.83354984803E+01  0.39855265676E+02  0.51100000000E-03 0.  1.
         12    1    3    3    0    0  0.12164936972E+02 -0.39735182442E+02 -0.30397389773E+01  0.41666658473E+02  0.00000000000E+00 0. -1.
</event>
<event>
 7    1  0.2542335E-015  0.9000773E+02  0.7816164E-02  0.1186339E+00
        -11   -1    0    0    0    0  0.00000000000E+00  0.00000000000E+00  0.45593999997E+02  0.45594000000E+02  0.51100000000E-03 0. -1.
         11   -1    0    0    0    0 -0.00000000000E+00 -0.00000000000E+00 -0.45593999997E+02  0.45594000000E+02  0.51100000000E-03 0.  1.
    9900012    2    1    2    0    0  0.64816704048E-01 -0.11030464954E+01 -0.41487281562E+00  0.90007732137E+02  0.89999993401E+02 0.  0.
        -12    1    1    2    0    0 -0.64816704048E-01  0.11030464954E+01  0.41487281562E+00  0.11802678633E+01  0.00000000000E+00 0.  1.
         11    1    3    3    0    0 -0.26704767934E+02 -0.14180567754E+02 -0.38642181716E+01  0.30482213085E+02  0.51100000000E-03 0. -1.
        -11    1    3    3    0    0 -0.20315203616E+01 -0.17349737899E+02  0.22420647288E+01  0.17611568205E+02  0.51100000000E-03 0.  1.
        -12    1    3    3    0    0  0.28801105000E+02  0.30427259157E+02  0.12072806272E+01  0.41913950846E+02  0.00000000000E+00 0.  1.
</event>
<event>
 7    1  0.2542335E-015  0.9000801E+02  0.7816164E-02  0.1186339E+00
        -11   -1    0    0    0    0  0.00000000000E+00  0.00000000000E+00  0.45593999997E+02  0.45594000000E+02  0.51100000000E-03 0.  1.
         11   -1    0    0    0    0 -0.00000000000E+00 -0.00000000000E+00 -0.45593999997E+02  0.45594000000E+02  0.51100000000E-03 0. -1.
    9900012    2    1    2    0    0 -0.40653773821E+00 -0.97682836579E+00 -0.52240368386E+00  0.90008011781E+02  0.90000276736E+02 0.  0.
        -12    1    1    2    0    0  0.40653773821E+00  0.97682836579E+00  0.52240368386E+00  0.11799882193E+01  0.00000000000E+00 0.  1.
         11    1    3    3    0    0  0.19774527174E+01 -0.22259898758E+02  0.14141551027E+02  0.26446112714E+02  0.51100000000E-03 0. -1.
        -11    1    3    3    0    0  0.16172371523E+02  0.24210225005E+02  0.11541035464E+02  0.31318941478E+02  0.51100000000E-03 0.  1.
         12    1    3    3    0    0 -0.18556361978E+02 -0.29271546124E+01 -0.26204990175E+02  0.32242957588E+02  0.00000000000E+00 0. -1.
</event>
<event>
 7    1  0.2542335E-015  0.9000772E+02  0.7816164E-02  0.1186339E+00
        -11   -1    0    0    0    0  0.00000000000E+00  0.00000000000E+00  0.45593999997E+02  0.45594000000E+02  0.51100000000E-03 0.  1.
         11   -1    0    0    0    0 -0.00000000000E+00 -0.00000000000E+00 -0.45593999997E+02  0.45594000000E+02  0.51100000000E-03 0. -1.
    9900012    2    1    2    0    0  0.11011773599E+00 -0.10622303198E+01  0.50259462209E+00  0.90007720151E+02  0.89999981257E+02 0.  0.
        -12    1    1    2    0    0 -0.11011773599E+00  0.10622303198E+01 -0.50259462209E+00  0.11802798491E+01  0.00000000000E+00 0.  1.
         11    1    3    3    0    0 -0.93361892369E+01  0.24171382401E+00 -0.34789602907E+02  0.36021373179E+02  0.51100000000E-03 0. -1.
        -11    1    3    3    0    0 -0.91087169629E+00  0.14580611813E+01 -0.86174488294E+01  0.87872665968E+01  0.51100000000E-03 0.  1.
        -12    1    3    3    0    0  0.10357178669E+02 -0.27620053251E+01  0.43909646358E+02  0.45199080375E+02  0.00000000000E+00 0.  1.
</event>
<event>
 7    1  0.2542335E-015  0.9000768E+02  0.7816164E-02  0.1186339E+00
        -11   -1    0    0    0    0  0.00000000000E+00  0.00000000000E+00  0.45593999997E+02  0.45594000000E+02  0.51100000000E-03 0.  1.
         11   -1    0    0    0    0 -0.00000000000E+00 -0.00000000000E+00 -0.45593999997E+02  0.45594000000E+02  0.51100000000E-03 0. -1.
    9900012    2    1    2    0    0 -0.94242870147E-01  0.66361004536E-01 -0.11746761563E+01  0.90007682427E+02  0.89999943035E+02 0.  0.
        -12    1    1    2    0    0  0.94242870147E-01 -0.66361004536E-01  0.11746761563E+01  0.11803175732E+01  0.00000000000E+00 0.  1.
         11    1    3    3    0    0  0.43020007702E+01 -0.40790211813E+01 -0.48922767887E+01  0.76863513361E+01  0.51100000000E-03 0. -1.
        -11    1    3    3    0    0  0.29357840300E+02 -0.23152199819E+02 -0.59179162538E+01  0.37854047031E+02  0.51100000000E-03 0.  1.
         12    1    3    3    0    0 -0.33754083941E+02  0.27297582005E+02  0.96355168862E+01  0.44467284060E+02  0.00000000000E+00 0. -1.
</event>
<event>
 7    1  0.2542335E-015  0.9000766E+02  0.7816164E-02  0.1186339E+00
        -11   -1    0    0    0    0  0.00000000000E+00  0.00000000000E+00  0.45593999997E+02  0.45594000000E+02  0.51100000000E-03 0.  1.
         11   -1    0    0    0    0 -0.00000000000E+00 -0.00000000000E+00 -0.45593999997E+02  0.45594000000E+02  0.51100000000E-03 0. -1.
    9900012    2    1    2    0    0  0.35474151893E+00  0.79435653721E+00  0.79771409190E+00  0.90007664613E+02  0.89999924986E+02 0.  0.
        -12    1    1    2    0    0 -0.35474151893E+00 -0.79435653721E+00 -0.79771409190E+00  0.11803353870E+01  0.00000000000E+00 0.  1.
         11    1    3    3    0    0  0.29604901192E+02 -0.97864319168E+01 -0.16240517748E+02  0.35156490742E+02  0.51100000000E-03 0. -1.
        -11    1    3    3    0    0  0.89011649037E+01 -0.35056213369E+01 -0.22690865410E+01  0.98320329328E+01  0.51100000000E-03 0.  1.
        -12    1    3    3    0    0 -0.38151324577E+02  0.14086409791E+02  0.19307318381E+02  0.45019140939E+02  0.00000000000E+00 0.  1.
</event>
<event>
 7    1  0.2542335E-015  0.9000787E+02  0.7816164E-02  0.1186339E+00
        -11   -1    0    0    0    0  0.00000000000E+00  0.00000000000E+00  0.45593999997E+02  0.45594000000E+02  0.51100000000E-03 0. -1.
         11   -1    0    0    0    0 -0.00000000000E+00 -0.00000000000E+00 -0.45593999997E+02  0.45594000000E+02  0.51100000000E-03 0.  1.
    9900012    2    1    2    0    0  0.13113056122E+00  0.64054741524E+00  0.98244670923E+00  0.90007873841E+02  0.90000136975E+02 0.  0.
        -12    1    1    2    0    0 -0.13113056122E+00 -0.64054741524E+00 -0.98244670923E+00  0.11801261592E+01  0.00000000000E+00 0.  1.
         11    1    3    3    0    0  0.14996485236E+01  0.59130699980E+01 -0.68527523562E+01  0.91746148482E+01  0.51100000000E-03 0. -1.
        -11    1    3    3    0    0  0.29387628388E+02  0.24865449941E+01 -0.22382323805E+02  0.37024100630E+02  0.51100000000E-03 0.  1.
         12    1    3    3    0    0 -0.30756146350E+02 -0.77590675768E+01  0.30217522871E+02  0.43809158363E+02  0.00000000000E+00 0. -1.
</event>
<event>
 7    1  0.2542335E-015  0.9000765E+02  0.7816164E-02  0.1186339E+00
        -11   -1    0    0    0    0  0.00000000000E+00  0.00000000000E+00  0.45593999997E+02  0.45594000000E+02  0.51100000000E-03 0.  1.
         11   -1    0    0    0    0 -0.00000000000E+00 -0.00000000000E+00 -0.45593999997E+02  0.45594000000E+02  0.51100000000E-03 0. -1.
    9900012    2    1    2    0    0 -0.25083917562E+00 -0.87346532109E+00  0.75323097055E+00  0.90007653079E+02  0.89999913299E+02 0.  0.
        -12    1    1    2    0    0  0.25083917562E+00  0.87346532109E+00 -0.75323097055E+00  0.11803469211E+01  0.00000000000E+00 0.  1.
         11    1    3    3    0    0  0.54968198644E+01 -0.60456525360E+01  0.74514282948E+01  0.11058423355E+02  0.51100000000E-03 0. -1.
        -11    1    3    3    0    0  0.24476825344E+02  0.29083439274E+02  0.57597582790E+01  0.38446537355E+02  0.51100000000E-03 0.  1.
         12    1    3    3    0    0 -0.30224484384E+02 -0.23911252059E+02 -0.12457955603E+02  0.40502692369E+02  0.00000000000E+00 0. -1.
</event>
<event>
 7    1  0.2542335E-015  0.9000773E+02  0.7816164E-02  0.1186339E+00
        -11   -1    0    0    0    0  0.00000000000E+00  0.00000000000E+00  0.45593999997E+02  0.45594000000E+02  0.51100000000E-03 0.  1.
         11   -1    0    0    0    0 -0.00000000000E+00 -0.00000000000E+00 -0.45593999997E+02  0.45594000000E+02  0.51100000000E-03 0. -1.
    9900012    2    1    2    0    0  0.10666557236E+01  0.89060255577E-01  0.49734914171E+00  0.90007727857E+02  0.89999989065E+02 0.  0.
        -12    1    1    2    0    0 -0.10666557236E+01 -0.89060255577E-01 -0.49734914171E+00  0.11802721426E+01  0.00000000000E+00 0.  1.
         11    1    3    3    0    0 -0.75451537588E+01 -0.55232713392E+01 -0.46364677540E+00  0.93622027389E+01  0.51100000000E-03 0. -1.
        -11    1    3    3    0    0 -0.22692735213E+02 -0.20313746046E+02 -0.18442430853E+02  0.35605221048E+02  0.51100000000E-03 0.  1.
         12    1    3    3    0    0  0.31304544695E+02  0.25926077640E+02  0.19403426770E+02  0.45040304071E+02  0.00000000000E+00 0. -1.
</event>
<event>
 7    1  0.2542335E-015  0.9000771E+02  0.7816164E-02  0.1186339E+00
        -11   -1    0    0    0    0  0.00000000000E+00  0.00000000000E+00  0.45593999997E+02  0.45594000000E+02  0.51100000000E-03 0.  1.
         11   -1    0    0    0    0 -0.00000000000E+00 -0.00000000000E+00 -0.45593999997E+02  0.45594000000E+02  0.51100000000E-03 0. -1.
    9900012    2    1    2    0    0 -0.11065682085E+01 -0.40779762470E+00  0.47931084347E-01  0.90007707879E+02  0.89999968823E+02 0.  0.
        -12    1    1    2    0    0  0.11065682085E+01  0.40779762470E+00 -0.47931084347E-01  0.11802921213E+01  0.00000000000E+00 0.  1.
         11    1    3    3    0    0  0.16530431273E+01  0.21801490606E+01 -0.99338339634E+01  0.10303720638E+02  0.51100000000E-03 0. -1.
        -11    1    3    3    0    0  0.37731290130E+02  0.40324298749E+01  0.68162504188E+01  0.38553495504E+02  0.51100000000E-03 0.  1.
         12    1    3    3    0    0 -0.40490901466E+02 -0.66203765602E+01  0.31655146290E+01  0.41150491737E+02  0.00000000000E+00 0. -1.
</event>
<event>
 7    1  0.2542335E-015  0.9000772E+02  0.7816164E-02  0.1186339E+00
        -11   -1    0    0    0    0  0.00000000000E+00  0.00000000000E+00  0.45593999997E+02  0.45594000000E+02  0.51100000000E-03 0. -1.
         11   -1    0    0    0    0 -0.00000000000E+00 -0.00000000000E+00 -0.45593999997E+02  0.45594000000E+02  0.51100000000E-03 0.  1.
    9900012    2    1    2    0    0 -0.91650563373E-01  0.44105564097E+00 -0.10909267555E+01  0.90007724147E+02  0.89999985305E+02 0.  0.
        -12    1    1    2    0    0  0.91650563373E-01 -0.44105564097E+00  0.10909267555E+01  0.11802758534E+01  0.00000000000E+00 0.  1.
         11    1    3    3    0    0  0.10464076719E+02 -0.38787846778E+01  0.30210565394E+01  0.11561516122E+02  0.51100000000E-03 0. -1.
        -11    1    3    3    0    0 -0.28366131801E+01 -0.15343887486E+02 -0.36546954221E+02  0.39738660277E+02  0.51100000000E-03 0.  1.
         12    1    3    3    0    0 -0.77191141024E+01  0.19663727805E+02  0.32434970926E+02  0.38707547748E+02  0.00000000000E+00 0. -1.
</event>
<event>
 7    1  0.2542335E-015  0.9000778E+02  0.7816164E-02  0.1186339E+00
        -11   -1    0    0    0    0  0.00000000000E+00  0.00000000000E+00  0.45593999997E+02  0.45594000000E+02  0.51100000000E-03 0. -1.
         11   -1    0    0    0    0 -0.00000000000E+00 -0.00000000000E+00 -0.45593999997E+02  0.45594000000E+02  0.51100000000E-03 0.  1.
    9900012    2    1    2    0    0 -0.98486928771E+00  0.60228543478E+00 -0.24537056557E+00  0.90007778846E+02  0.90000040726E+02 0.  0.
        -12    1    1    2    0    0  0.98486928771E+00 -0.60228543478E+00  0.24537056557E+00  0.11802211544E+01  0.00000000000E+00 0.  1.
         11    1    3    3    0    0 -0.16481796136E+02  0.12103357244E+02  0.29511068484E+02  0.35903259236E+02  0.51100000000E-03 0. -1.
        -11    1    3    3    0    0 -0.56455633873E+00  0.11211482322E+02 -0.22825010261E+02  0.25436138728E+02  0.51100000000E-03 0.  1.
        -12    1    3    3    0    0  0.16061483187E+02 -0.22712554131E+02 -0.69314287887E+01  0.28668380882E+02  0.00000000000E+00 0.  1.
</event>
<event>
 7    1  0.2542335E-015  0.9000767E+02  0.7816164E-02  0.1186339E+00
        -11   -1    0    0    0    0  0.00000000000E+00  0.00000000000E+00  0.45593999997E+02  0.45594000000E+02  0.51100000000E-03 0.  1.
         11   -1    0    0    0    0 -0.00000000000E+00 -0.00000000000E+00 -0.45593999997E+02  0.45594000000E+02  0.51100000000E-03 0. -1.
    9900012    2    1    2    0    0  0.97822448005E+00  0.28690357713E+00 -0.59492947045E+00  0.90007670440E+02  0.89999930890E+02 0.  0.
        -12    1    1    2    0    0 -0.97822448005E+00 -0.28690357713E+00  0.59492947045E+00  0.11803295602E+01  0.00000000000E+00 0.  1.
         11    1    3    3    0    0  0.13189112322E+00  0.32747200113E+02 -0.19980306744E+02  0.38361558471E+02  0.51100000000E-03 0. -1.
        -11    1    3    3    0    0 -0.79414872053E+00  0.76388272178E+01  0.40576182287E+01  0.86860013473E+01  0.51100000000E-03 0.  1.
        -12    1    3    3    0    0  0.16404820774E+01 -0.40099123754E+02  0.15327759045E+02  0.42960110621E+02  0.00000000000E+00 0.  1.
</event>
<event>
 7    1  0.2542335E-015  0.9000774E+02  0.7816164E-02  0.1186339E+00
        -11   -1    0    0    0    0  0.00000000000E+00  0.00000000000E+00  0.45593999997E+02  0.45594000000E+02  0.51100000000E-03 0. -1.
         11   -1    0    0    0    0 -0.00000000000E+00 -0.00000000000E+00 -0.45593999997E+02  0.45594000000E+02  0.51100000000E-03 0.  1.
    9900012    2    1    2    0    0  0.10986665395E+01  0.13813283976E+00  0.40848338094E+00  0.90007742605E+02  0.90000004007E+02 0.  0.
        -12    1    1    2    0    0 -0.10986665395E+01 -0.13813283976E+00 -0.40848338094E+00  0.11802573952E+01  0.00000000000E+00 0.  1.
         11    1    3    3    0    0 -0.10243614297E+02  0.27585592908E+02  0.20405190777E+02  0.35808775193E+02  0.51100000000E-03 0. -1.
        -11    1    3    3    0    0 -0.35613526098E+01  0.74512917371E+01  0.41269801424E+01  0.92323857328E+01  0.51100000000E-03 0.  1.
        -12    1    3    3    0    0  0.14903633446E+02 -0.34898751805E+02 -0.24123687538E+02  0.44966581679E+02  0.00000000000E+00 0.  1.
</event>
<event>
 7    1  0.2542335E-015  0.9000773E+02  0.7816164E-02  0.1186339E+00
        -11   -1    0    0    0    0  0.00000000000E+00  0.00000000000E+00  0.45593999997E+02  0.45594000000E+02  0.51100000000E-03 0.  1.
         11   -1    0    0    0    0 -0.00000000000E+00 -0.00000000000E+00 -0.45593999997E+02  0.45594000000E+02  0.51100000000E-03 0. -1.
    9900012    2    1    2    0    0  0.45709803221E+00  0.23425657406E+00 -0.10626489071E+01  0.90007729924E+02  0.89999991159E+02 0.  0.
        -12    1    1    2    0    0 -0.45709803221E+00 -0.23425657406E+00  0.10626489071E+01  0.11802700764E+01  0.00000000000E+00 0.  1.
         11    1    3    3    0    0 -0.52399301628E+01  0.15109549028E+02  0.52585304916E+01  0.16834710664E+02  0.51100000000E-03 0. -1.
        -11    1    3    3    0    0  0.10363090598E+02  0.22569678844E+02 -0.21158547143E+02  0.32626188367E+02  0.51100000000E-03 0.  1.
         12    1    3    3    0    0 -0.46660624026E+01 -0.37444971298E+02  0.14837367745E+02  0.40546830893E+02  0.00000000000E+00 0. -1.
</event>
<event>
 7    1  0.2542335E-015  0.9000773E+02  0.7816164E-02  0.1186339E+00
        -11   -1    0    0    0    0  0.00000000000E+00  0.00000000000E+00  0.45593999997E+02  0.45594000000E+02  0.51100000000E-03 0. -1.
         11   -1    0    0    0    0 -0.00000000000E+00 -0.00000000000E+00 -0.45593999997E+02  0.45594000000E+02  0.51100000000E-03 0.  1.
    9900012    2    1    2    0    0  0.26757442935E-01 -0.30458109015E+00  0.11399774219E+01  0.90007731334E+02  0.89999992588E+02 0.  0.
        -12    1    1    2    0    0 -0.26757442935E-01  0.30458109015E+00 -0.11399774219E+01  0.11802686659E+01  0.00000000000E+00 0.  1.
         11    1    3    3    0    0  0.15196257257E+01 -0.24358057518E+01 -0.10349566833E+02  0.10740388536E+02  0.51100000000E-03 0. -1.
        -11    1    3    3    0    0  0.28237462748E+02 -0.10426915240E+02 -0.18399586337E+02  0.35279167245E+02  0.51100000000E-03 0.  1.
         12    1    3    3    0    0 -0.29730331030E+02  0.12558139902E+02  0.29889130592E+02  0.43988175554E+02  0.00000000000E+00 0. -1.
</event>
<event>
 7    1  0.2542335E-015  0.9000770E+02  0.7816164E-02  0.1186339E+00
        -11   -1    0    0    0    0  0.00000000000E+00  0.00000000000E+00  0.45593999997E+02  0.45594000000E+02  0.51100000000E-03 0.  1.
         11   -1    0    0    0    0 -0.00000000000E+00 -0.00000000000E+00 -0.45593999997E+02  0.45594000000E+02  0.51100000000E-03 0. -1.
    9900012    2    1    2    0    0 -0.39309747387E+00 -0.71828539040E+00 -0.85008727010E+00  0.90007700084E+02  0.89999960925E+02 0.  0.
        -12    1    1    2    0    0  0.39309747387E+00  0.71828539040E+00  0.85008727010E+00  0.11802999165E+01  0.00000000000E+00 0.  1.
         11    1    3    3    0    0  0.13114708879E+02  0.31470183393E+02 -0.13862979576E+02  0.36804214904E+02  0.51100000000E-03 0. -1.
        -11    1    3    3    0    0  0.83954882943E+01 -0.43207461123E+01 -0.76703079260E+01  0.12164978200E+02  0.51100000000E-03 0.  1.
        -12    1    3    3    0    0 -0.21903294647E+02 -0.27867722671E+02  0.20683200232E+02  0.41038506979E+02  0.00000000000E+00 0.  1.
</event>
<event>
 7    1  0.2542335E-015  0.9000761E+02  0.7816164E-02  0.1186339E+00
        -11   -1    0    0    0    0  0.00000000000E+00  0.00000000000E+00  0.45593999997E+02  0.45594000000E+02  0.51100000000E-03 0.  1.
         11   -1    0    0    0    0 -0.00000000000E+00 -0.00000000000E+00 -0.45593999997E+02  0.45594000000E+02  0.51100000000E-03 0. -1.
    9900012    2    1    2    0    0 -0.66132745759E+00 -0.96224438037E+00  0.17335907320E+00  0.90007609547E+02  0.89999869193E+02 0.  0.
        -12    1    1    2    0    0  0.66132745759E+00  0.96224438037E+00 -0.17335907320E+00  0.11803904532E+01  0.00000000000E+00 0.  1.
         11    1    3    3    0    0 -0.17157079155E+02 -0.21029017375E+02 -0.24864745308E+02  0.36808158014E+02  0.51100000000E-03 0. -1.
        -11    1    3    3    0    0  0.51498522313E+01 -0.51294704318E+01 -0.75450151452E+01  0.10476626304E+02  0.51100000000E-03 0.  1.
        -12    1    3    3    0    0  0.11345899466E+02  0.25196243426E+02  0.32583119526E+02  0.42722825229E+02  0.00000000000E+00 0.  1.
</event>
<event>
 7    1  0.2542335E-015  0.9000771E+02  0.7816164E-02  0.1186339E+00
        -11   -1    0    0    0    0  0.00000000000E+00  0.00000000000E+00  0.45593999997E+02  0.45594000000E+02  0.51100000000E-03 0. -1.
         11   -1    0    0    0    0 -0.00000000000E+00 -0.00000000000E+00 -0.45593999997E+02  0.45594000000E+02  0.51100000000E-03 0.  1.
    9900012    2    1    2    0    0 -0.51696215957E+00  0.99578714908E+00 -0.36640675337E+00  0.90007705194E+02  0.89999966102E+02 0.  0.
        -12    1    1    2    0    0  0.51696215957E+00 -0.99578714908E+00  0.36640675337E+00  0.11802948062E+01  0.00000000000E+00 0.  1.
         11    1    3    3    0    0  0.26183766516E+02  0.23141214105E+02 -0.22480618869E+02  0.41550976453E+02  0.51100000000E-03 0. -1.
        -11    1    3    3    0    0 -0.65913594704E+01  0.37709223164E+01 -0.18700517976E+01  0.78206757234E+01  0.51100000000E-03 0.  1.
        -12    1    3    3    0    0 -0.20109369205E+02 -0.25916349272E+02  0.23984263913E+02  0.40636053018E+02  0.00000000000E+00 0.  1.
</event>
<event>
 7    1  0.2542335E-015  0.9000762E+02  0.7816164E-02  0.1186339E+00
        -11   -1    0    0    0    0  0.00000000000E+00  0.00000000000E+00  0.45593999997E+02  0.45594000000E+02  0.51100000000E-03 0.  1.
         11   -1    0    0    0    0 -0.00000000000E+00 -0.00000000000E+00 -0.45593999997E+02  0.45594000000E+02  0.51100000000E-03 0. -1.
    9900012    2    1    2    0    0  0.99249086350E-02  0.57852897716E+00 -0.10288370137E+01  0.90007618756E+02  0.89999878523E+02 0.  0.
        -12    1    1    2    0    0 -0.99249086350E-02 -0.57852897716E+00  0.10288370137E+01  0.11803812443E+01  0.00000000000E+00 0.  1.
         11    1    3    3    0    0  0.26919395193E+01  0.66538631649E+01 -0.12731425872E+01  0.72898097164E+01  0.51100000000E-03 0. -1.
        -11    1    3    3    0    0  0.63874661604E+01  0.37572025953E+02  0.11593682065E+01  0.38128742348E+02  0.51100000000E-03 0.  1.
         12    1    3    3    0    0 -0.90694807710E+01 -0.43647360141E+02 -0.91506263298E+00  0.44589066691E+02  0.00000000000E+00 0. -1.
</event>
<event>
 7    1  0.2542335E-015  0.9000780E+02  0.7816164E-02  0.1186339E+00
        -11   -1    0    0    0    0  0.00000000000E+00  0.00000000000E+00  0.45593999997E+02  0.45594000000E+02  0.51100000000E-03 0.  1.
         11   -1    0    0    0    0 -0.00000000000E+00 -0.00000000000E+00 -0.45593999997E+02  0.45594000000E+02  0.51100000000E-03 0. -1.
    9900012    2    1    2    0    0  0.67490983777E+00  0.29376330891E+00 -0.92253252056E+00  0.90007802380E+02  0.90000064571E+02 0.  0.
        -12    1    1    2    0    0 -0.67490983777E+00 -0.29376330891E+00  0.92253252056E+00  0.11801976200E+01  0.00000000000E+00 0.  1.
         11    1    3    3    0    0  0.78707862963E+01  0.70335760532E+01  0.25605386149E+01  0.10861713828E+02  0.51100000000E-03 0. -1.
        -11    1    3    3    0    0  0.31087934931E+02  0.76676684655E+01  0.13637331491E+02  0.34802724727E+02  0.51100000000E-03 0.  1.
         12    1    3    3    0    0 -0.38283811389E+02 -0.14407481210E+02 -0.17120402626E+02  0.44343363826E+02  0.00000000000E+00 0. -1.
</event>
<event>
 7    1  0.2542335E-015  0.9000772E+02  0.7816164E-02  0.1186339E+00
        -11   -1    0    0    0    0  0.00000000000E+00  0.00000000000E+00  0.45593999997E+02  0.45594000000E+02  0.51100000000E-03 0.  1.
         11   -1    0    0    0    0 -0.00000000000E+00 -0.00000000000E+00 -0.45593999997E+02  0.45594000000E+02  0.51100000000E-03 0. -1.
    9900012    2    1    2    0    0 -0.30013974044E+00 -0.29930590691E+00 -0.11015382412E+01  0.90007722750E+02  0.89999983890E+02 0.  0.
        -12    1    1    2    0    0  0.30013974044E+00  0.29930590691E+00  0.11015382412E+01  0.11802772499E+01  0.00000000000E+00 0.  1.
         11    1    3    3    0    0  0.13837453373E+02 -0.13028683249E+02 -0.35022068642E+02  0.39846794040E+02  0.51100000000E-03 0. -1.
        -11    1    3    3    0    0 -0.66530574080E+01  0.43219801645E+01 -0.51783129534E+01  0.94740493307E+01  0.51100000000E-03 0.  1.
        -12    1    3    3    0    0 -0.74845357051E+01  0.84073971773E+01  0.39098843354E+02  0.40686879380E+02  0.00000000000E+00 0.  1.
</event>
<event>
 7    1  0.2542335E-015  0.9000775E+02  0.7816164E-02  0.1186339E+00
        -11   -1    0    0    0    0  0.00000000000E+00  0.00000000000E+00  0.45593999997E+02  0.45594000000E+02  0.51100000000E-03 0.  1.
         11   -1    0    0    0    0 -0.00000000000E+00 -0.00000000000E+00 -0.45593999997E+02  0.45594000000E+02  0.51100000000E-03 0. -1.
    9900012    2    1    2    0    0  0.30381494811E+00 -0.10713768786E+01  0.39094806026E+00  0.90007749042E+02  0.90000010529E+02 0.  0.
        -12    1    1    2    0    0 -0.30381494811E+00  0.10713768786E+01 -0.39094806026E+00  0.11802509583E+01  0.00000000000E+00 0.  1.
         11    1    3    3    0    0  0.16572551185E+02 -0.16505881616E+01 -0.50495919581E+01  0.17403225944E+02  0.51100000000E-03 0. -1.
        -11    1    3    3    0    0  0.25881445988E+02  0.56633464080E+01 -0.86524048244E+01  0.27870896083E+02  0.51100000000E-03 0.  1.
         12    1    3    3    0    0 -0.42150182225E+02 -0.50841351250E+01  0.14092944843E+02  0.44733627015E+02  0.00000000000E+00 0. -1.
</event>
<event>
 7    1  0.2542335E-015  0.9000773E+02  0.7816164E-02  0.1186339E+00
        -11   -1    0    0    0    0  0.00000000000E+00  0.00000000000E+00  0.45593999997E+02  0.45594000000E+02  0.51100000000E-03 0.  1.
         11   -1    0    0    0    0 -0.00000000000E+00 -0.00000000000E+00 -0.45593999997E+02  0.45594000000E+02  0.51100000000E-03 0. -1.
    9900012    2    1    2    0    0  0.81560332181E+00 -0.83340886451E+00 -0.18236656300E+00  0.90007730252E+02  0.89999991492E+02 0.  0.
        -12    1    1    2    0    0 -0.81560332181E+00  0.83340886451E+00  0.18236656300E+00  0.11802697477E+01  0.00000000000E+00 0.  1.
         11    1    3    3    0    0  0.49629763236E+01 -0.63214132984E+00  0.48225066867E+01  0.69489069395E+01  0.51100000000E-03 0. -1.
        -11    1    3    3    0    0 -0.22435861010E+02 -0.34307287470E+02  0.88807699835E+01  0.41943127071E+02  0.51100000000E-03 0.  1.
         12    1    3    3    0    0  0.18288488008E+02  0.34106019935E+02 -0.13885643233E+02  0.41115696241E+02  0.00000000000E+00 0. -1.
</event>
<event>
 7    1  0.2542335E-015  0.9000775E+02  0.7816164E-02  0.1186339E+00
        -11   -1    0    0    0    0  0.00000000000E+00  0.00000000000E+00  0.45593999997E+02  0.45594000000E+02  0.51100000000E-03 0.  1.
         11   -1    0    0    0    0 -0.00000000000E+00 -0.00000000000E+00 -0.45593999997E+02  0.45594000000E+02  0.51100000000E-03 0. -1.
    9900012    2    1    2    0    0 -0.28892926793E+00 -0.58861000435E+00 -0.98134779025E+00  0.90007751999E+02  0.90000013525E+02 0.  0.
        -12    1    1    2    0    0  0.28892926793E+00  0.58861000435E+00  0.98134779025E+00  0.11802480013E+01  0.00000000000E+00 0.  1.
         11    1    3    3    0    0 -0.78666568788E+01  0.31225302808E+02 -0.90488867072E+00  0.32213702825E+02  0.51100000000E-03 0. -1.
        -11    1    3    3    0    0 -0.13066982984E+02 -0.17383103802E+02 -0.16868039331E+02  0.27521793060E+02  0.51100000000E-03 0.  1.
        -12    1    3    3    0    0  0.20644710594E+02 -0.14430809011E+02  0.16791580212E+02  0.30272256114E+02  0.00000000000E+00 0.  1.
</event>
<event>
 7    1  0.2542335E-015  0.9000774E+02  0.7816164E-02  0.1186339E+00
        -11   -1    0    0    0    0  0.00000000000E+00  0.00000000000E+00  0.45593999997E+02  0.45594000000E+02  0.51100000000E-03 0.  1.
         11   -1    0    0    0    0 -0.00000000000E+00 -0.00000000000E+00 -0.45593999997E+02  0.45594000000E+02  0.51100000000E-03 0. -1.
    9900012    2    1    2    0    0  0.73790689318E+00  0.83923448263E+00 -0.37972622282E+00  0.90007740239E+02  0.90000001610E+02 0.  0.
        -12    1    1    2    0    0 -0.73790689318E+00 -0.83923448263E+00  0.37972622282E+00  0.11802597613E+01  0.00000000000E+00 0.  1.
         11    1    3    3    0    0 -0.21759818770E+02  0.19918263093E+02  0.23571862449E+02  0.37760556367E+02  0.51100000000E-03 0. -1.
        -11    1    3    3    0    0  0.11308453190E+01 -0.38115846207E-01  0.87313804880E+01  0.88043892145E+01  0.51100000000E-03 0.  1.
        -12    1    3    3    0    0  0.21366880344E+02 -0.19040912764E+02 -0.32682969160E+02  0.43442794657E+02  0.00000000000E+00 0.  1.
</event>
<event>
 7    1  0.2542335E-015  0.9000770E+02  0.7816164E-02  0.1186339E+00
        -11   -1    0    0    0    0  0.00000000000E+00  0.00000000000E+00  0.45593999997E+02  0.45594000000E+02  0.51100000000E-03 0.  1.
         11   -1    0    0    0    0 -0.00000000000E+00 -0.00000000000E+00 -0.45593999997E+02  0.45594000000E+02  0.51100000000E-03 0. -1.
    9900012    2    1    2    0    0 -0.77820640333E+00 -0.20868434915E+00 -0.86252995260E+00  0.90007698224E+02  0.89999959040E+02 0.  0.
        -12    1    1    2    0    0  0.77820640333E+00  0.20868434915E+00  0.86252995260E+00  0.11803017762E+01  0.00000000000E+00 0.  1.
         11    1    3    3    0    0  0.20478087720E+02  0.26129067665E+02 -0.11728966648E+02  0.35208648264E+02  0.51100000000E-03 0. -1.
        -11    1    3    3    0    0 -0.16069812632E+02  0.83249896246E+01  0.74946523912E+01  0.19588622846E+02  0.51100000000E-03 0.  1.
        -12    1    3    3    0    0 -0.51864814914E+01 -0.34662741638E+02  0.33717843043E+01  0.35210427114E+02  0.00000000000E+00 0.  1.
</event>
<event>
 7    1  0.2542335E-015  0.9000771E+02  0.7816164E-02  0.1186339E+00
        -11   -1    0    0    0    0  0.00000000000E+00  0.00000000000E+00  0.45593999997E+02  0.45594000000E+02  0.51100000000E-03 0.  1.
         11   -1    0    0    0    0 -0.00000000000E+00 -0.00000000000E+00 -0.45593999997E+02  0.45594000000E+02  0.51100000000E-03 0. -1.
    9900012    2    1    2    0    0 -0.56692886404E+00  0.30314304667E+00 -0.98984059162E+00  0.90007708324E+02  0.89999969274E+02 0.  0.
        -12    1    1    2    0    0  0.56692886404E+00 -0.30314304667E+00  0.98984059162E+00  0.11802916760E+01  0.00000000000E+00 0.  1.
         11    1    3    3    0    0 -0.69528477317E+01 -0.53427189619E+01  0.72705937573E+01  0.11390709869E+02  0.51100000000E-03 0. -1.
        -11    1    3    3    0    0 -0.42402272455E+01  0.70343289698E+00  0.34251073265E+02  0.34519709804E+02  0.51100000000E-03 0.  1.
         12    1    3    3    0    0  0.10626146113E+02  0.49424291116E+01 -0.42511507613E+02  0.44097288650E+02  0.00000000000E+00 0. -1.
</event>
<event>
 7    1  0.2542335E-015  0.9000768E+02  0.7816164E-02  0.1186339E+00
        -11   -1    0    0    0    0  0.00000000000E+00  0.00000000000E+00  0.45593999997E+02  0.45594000000E+02  0.51100000000E-03 0. -1.
         11   -1    0    0    0    0 -0.00000000000E+00 -0.00000000000E+00 -0.45593999997E+02  0.45594000000E+02  0.51100000000E-03 0.  1.
    9900012    2    1    2    0    0 -0.82829084637E+00  0.65512811432E+00  0.52715172825E+00  0.90007683298E+02  0.89999943918E+02 0.  0.
        -12    1    1    2    0    0  0.82829084637E+00 -0.65512811432E+00 -0.52715172825E+00  0.11803167020E+01  0.00000000000E+00 0.  1.
         11    1    3    3    0    0 -0.38574425867E+02  0.89016629354E+01  0.69427277714E+01  0.40192379914E+02  0.51100000000E-03 0. -1.
        -11    1    3    3    0    0  0.40965304556E+01  0.82314518093E+01  0.52322073777E+01  0.10578958123E+02  0.51100000000E-03 0.  1.
        -12    1    3    3    0    0  0.33649604565E+02 -0.16477986630E+02 -0.11647783421E+02  0.39236345261E+02  0.00000000000E+00 0.  1.
</event>
<event>
 7    1  0.2542335E-015  0.9000774E+02  0.7816164E-02  0.1186339E+00
        -11   -1    0    0    0    0  0.00000000000E+00  0.00000000000E+00  0.45593999997E+02  0.45594000000E+02  0.51100000000E-03 0. -1.
         11   -1    0    0    0    0 -0.00000000000E+00 -0.00000000000E+00 -0.45593999997E+02  0.45594000000E+02  0.51100000000E-03 0.  1.
    9900012    2    1    2    0    0 -0.53276900102E+00 -0.50133199413E+00  0.92619300467E+00  0.90007741529E+02  0.90000002917E+02 0.  0.
        -12    1    1    2    0    0  0.53276900102E+00  0.50133199413E+00 -0.92619300467E+00  0.11802584711E+01  0.00000000000E+00 0.  1.
         11    1    3    3    0    0  0.20446883734E+02  0.16495743935E+02  0.25800092569E+02  0.36821588766E+02  0.51100000000E-03 0. -1.
        -11    1    3    3    0    0  0.50588513652E+01  0.24130960022E+01  0.61160820514E+01  0.82958706217E+01  0.51100000000E-03 0.  1.
        -12    1    3    3    0    0 -0.26038504100E+02 -0.19410171931E+02 -0.30989981616E+02  0.44890282141E+02  0.00000000000E+00 0.  1.
</event>
<event>
 7    1  0.2542335E-015  0.9000773E+02  0.7816164E-02  0.1186339E+00
        -11   -1    0    0    0    0  0.00000000000E+00  0.00000000000E+00  0.45593999997E+02  0.45594000000E+02  0.51100000000E-03 0. -1.
         11   -1    0    0    0    0 -0.00000000000E+00 -0.00000000000E+00 -0.45593999997E+02  0.45594000000E+02  0.51100000000E-03 0.  1.
    9900012    2    1    2    0    0 -0.74684047466E+00 -0.91389085520E+00 -0.83015572846E-02  0.90007730494E+02  0.89999991737E+02 0.  0.
        -12    1    1    2    0    0  0.74684047466E+00  0.91389085520E+00  0.83015572846E-02  0.11802695055E+01  0.00000000000E+00 0.  1.
         11    1    3    3    0    0 -0.29240760193E+01 -0.89982335925E+01  0.27944501088E+00  0.94655437312E+01  0.51100000000E-03 0. -1.
        -11    1    3    3    0    0 -0.57522078437E+01 -0.33182238667E+02 -0.13809830889E+02  0.36398630296E+02  0.51100000000E-03 0.  1.
         12    1    3    3    0    0  0.79294433884E+01  0.41266581404E+02  0.13522084320E+02  0.44143556467E+02  0.00000000000E+00 0. -1.
</event>
<event>
 7    1  0.2542335E-015  0.9000766E+02  0.7816164E-02  0.1186339E+00
        -11   -1    0    0    0    0  0.00000000000E+00  0.00000000000E+00  0.45593999997E+02  0.45594000000E+02  0.51100000000E-03 0.  1.
         11   -1    0    0    0    0 -0.00000000000E+00 -0.00000000000E+00 -0.45593999997E+02  0.45594000000E+02  0.51100000000E-03 0. -1.
    9900012    2    1    2    0    0 -0.13149711555E+00 -0.11091515507E+01  0.38168795000E+00  0.90007663461E+02  0.89999923819E+02 0.  0.
        -12    1    1    2    0    0  0.13149711555E+00  0.11091515507E+01 -0.38168795000E+00  0.11803365388E+01  0.00000000000E+00 0.  1.
         11    1    3    3    0    0  0.46192735328E+01  0.37370990153E+02 -0.65219888970E+01  0.38216029784E+02  0.51100000000E-03 0. -1.
        -11    1    3    3    0    0  0.68534981116E+01  0.10021225261E+01  0.80547756541E+01  0.10623280897E+02  0.51100000000E-03 0.  1.
        -12    1    3    3    0    0 -0.11604268760E+02 -0.39482264230E+02 -0.11510988072E+01  0.41168352780E+02  0.00000000000E+00 0.  1.
</event>
<event>
 7    1  0.2542335E-015  0.9000777E+02  0.7816164E-02  0.1186339E+00
        -11   -1    0    0    0    0  0.00000000000E+00  0.00000000000E+00  0.45593999997E+02  0.45594000000E+02  0.51100000000E-03 0. -1.
         11   -1    0    0    0    0 -0.00000000000E+00 -0.00000000000E+00 -0.45593999997E+02  0.45594000000E+02  0.51100000000E-03 0.  1.
    9900012    2    1    2    0    0 -0.23645338902E+00 -0.45434557615E+00  0.10633002514E+01  0.90007768018E+02  0.90000029755E+02 0.  0.
        -12    1    1    2    0    0  0.23645338902E+00  0.45434557615E+00 -0.10633002514E+01  0.11802319825E+01  0.00000000000E+00 0.  1.
         11    1    3    3    0    0  0.93738332655E+01 -0.32509148911E+02  0.18763005800E+02  0.38688033032E+02  0.51100000000E-03 0. -1.
        -11    1    3    3    0    0  0.49201274998E+01 -0.53227294532E+01 -0.63644260771E+01  0.96459848122E+01  0.51100000000E-03 0.  1.
        -12    1    3    3    0    0 -0.14530414154E+02  0.37377532788E+02 -0.11335279471E+02  0.41673750173E+02  0.00000000000E+00 0.  1.
</event>
<event>
 7    1  0.2542335E-015  0.9000777E+02  0.7816164E-02  0.1186339E+00
        -11   -1    0    0    0    0  0.00000000000E+00  0.00000000000E+00  0.45593999997E+02  0.45594000000E+02  0.51100000000E-03 0.  1.
         11   -1    0    0    0    0 -0.00000000000E+00 -0.00000000000E+00 -0.45593999997E+02  0.45594000000E+02  0.51100000000E-03 0. -1.
    9900012    2    1    2    0    0 -0.28147701313E+00  0.10568774321E+01 -0.44352627766E+00  0.90007773422E+02  0.90000035232E+02 0.  0.
        -12    1    1    2    0    0  0.28147701313E+00 -0.10568774321E+01  0.44352627766E+00  0.11802265775E+01  0.00000000000E+00 0.  1.
         11    1    3    3    0    0  0.16603649969E+02 -0.12403418831E+01  0.19057761836E+01  0.16758628327E+02  0.51100000000E-03 0. -1.
        -11    1    3    3    0    0  0.19753416897E+02 -0.15565286696E+02  0.14628081367E+02  0.29093923657E+02  0.51100000000E-03 0.  1.
         12    1    3    3    0    0 -0.36638543879E+02  0.17862506011E+02 -0.16977383828E+02  0.44155221438E+02  0.00000000000E+00 0. -1.
</event>
<event>
 7    1  0.2542335E-015  0.9000785E+02  0.7816164E-02  0.1186339E+00
        -11   -1    0    0    0    0  0.00000000000E+00  0.00000000000E+00  0.45593999997E+02  0.45594000000E+02  0.51100000000E-03 0.  1.
         11   -1    0    0    0    0 -0.00000000000E+00 -0.00000000000E+00 -0.45593999997E+02  0.45594000000E+02  0.51100000000E-03 0. -1.
    9900012    2    1    2    0    0 -0.33954975858E+00  0.52397186810E+00 -0.10014517860E+01  0.90007853299E+02  0.90000116162E+02 0.  0.
        -12    1    1    2    0    0  0.33954975858E+00 -0.52397186810E+00  0.10014517860E+01  0.11801467014E+01  0.00000000000E+00 0.  1.
         11    1    3    3    0    0  0.25386144215E+02  0.11453707555E+02 -0.23531733072E+02  0.36460748710E+02  0.51100000000E-03 0. -1.
        -11    1    3    3    0    0  0.77908385777E+01  0.70144229844E+01  0.61187178603E+01  0.12138286702E+02  0.51100000000E-03 0.  1.
        -12    1    3    3    0    0 -0.33516532551E+02 -0.17944158672E+02  0.16411563425E+02  0.41408817887E+02  0.00000000000E+00 0.  1.
</event>
<event>
 7    1  0.2542335E-015  0.9000773E+02  0.7816164E-02  0.1186339E+00
        -11   -1    0    0    0    0  0.00000000000E+00  0.00000000000E+00  0.45593999997E+02  0.45594000000E+02  0.51100000000E-03 0.  1.
         11   -1    0    0    0    0 -0.00000000000E+00 -0.00000000000E+00 -0.45593999997E+02  0.45594000000E+02  0.51100000000E-03 0. -1.
    9900012    2    1    2    0    0  0.42046575948E+00  0.10283511451E+01 -0.39841651696E+00  0.90007731703E+02  0.89999992961E+02 0.  0.
        -12    1    1    2    0    0 -0.42046575948E+00 -0.10283511451E+01  0.39841651696E+00  0.11802682973E+01  0.00000000000E+00 0.  1.
         11    1    3    3    0    0 -0.19130877543E+02 -0.17741953703E+02 -0.27985627495E+02  0.38261766077E+02  0.51100000000E-03 0. -1.
        -11    1    3    3    0    0  0.10862378667E+02 -0.81810109160E+01  0.23207757198E+01  0.13795151689E+02  0.51100000000E-03 0.  1.
        -12    1    3    3    0    0  0.86889646356E+01  0.26951315764E+02  0.25266435258E+02  0.37950813937E+02  0.00000000000E+00 0.  1.
</event>
<event>
 7    1  0.2542335E-015  0.9000778E+02  0.7816164E-02  0.1186339E+00
        -11   -1    0    0    0    0  0.00000000000E+00  0.00000000000E+00  0.45593999997E+02  0.45594000000E+02  0.51100000000E-03 0. -1.
         11   -1    0    0    0    0 -0.00000000000E+00 -0.00000000000E+00 -0.45593999997E+02  0.45594000000E+02  0.51100000000E-03 0.  1.
    9900012    2    1    2    0    0 -0.10747439829E+01  0.12040654164E+00  0.47259942788E+00  0.90007778587E+02  0.90000040465E+02 0.  0.
        -12    1    1    2    0    0  0.10747439829E+01 -0.12040654164E+00 -0.47259942788E+00  0.11802214128E+01  0.00000000000E+00 0.  1.
         11    1    3    3    0    0 -0.14997225868E+02  0.69621440478E+01  0.39363791548E+02  0.42695389901E+02  0.51100000000E-03 0. -1.
        -11    1    3    3    0    0 -0.31223438734E+01 -0.56913275842E+01 -0.22260140812E+01  0.68626073678E+01  0.51100000000E-03 0.  1.
        -12    1    3    3    0    0  0.17044825758E+02 -0.11504099220E+01 -0.36665178039E+02  0.40449781319E+02  0.00000000000E+00 0.  1.
</event>
<event>
 7    1  0.2542335E-015  0.9000773E+02  0.7816164E-02  0.1186339E+00
        -11   -1    0    0    0    0  0.00000000000E+00  0.00000000000E+00  0.45593999997E+02  0.45594000000E+02  0.51100000000E-03 0. -1.
         11   -1    0    0    0    0 -0.00000000000E+00 -0.00000000000E+00 -0.45593999997E+02  0.45594000000E+02  0.51100000000E-03 0.  1.
    9900012    2    1    2    0    0  0.96055291032E+00 -0.15930726843E+00  0.66707419788E+00  0.90007733638E+02  0.89999994922E+02 0.  0.
        -12    1    1    2    0    0 -0.96055291032E+00  0.15930726843E+00 -0.66707419788E+00  0.11802663618E+01  0.00000000000E+00 0.  1.
         11    1    3    3    0    0 -0.23219083983E+01 -0.11429355109E+02  0.39361896106E+02  0.41053383322E+02  0.51100000000E-03 0. -1.
        -11    1    3    3    0    0 -0.27064548848E+01 -0.81322522745E+01 -0.59823923469E+01  0.10452150188E+02  0.51100000000E-03 0.  1.
        -12    1    3    3    0    0  0.59889161935E+01  0.19402300115E+02 -0.32712429561E+02  0.38502200129E+02  0.00000000000E+00 0.  1.
</event>
<event>
 7    1  0.2542335E-015  0.9000770E+02  0.7816164E-02  0.1186339E+00
        -11   -1    0    0    0    0  0.00000000000E+00  0.00000000000E+00  0.45593999997E+02  0.45594000000E+02  0.51100000000E-03 0.  1.
         11   -1    0    0    0    0 -0.00000000000E+00 -0.00000000000E+00 -0.45593999997E+02  0.45594000000E+02  0.51100000000E-03 0. -1.
    9900012    2    1    2    0    0 -0.66994146338E+00 -0.95180817648E+00 -0.19583916869E+00  0.90007697772E+02  0.89999958583E+02 0.  0.
        -12    1    1    2    0    0  0.66994146338E+00  0.95180817648E+00  0.19583916869E+00  0.11803022279E+01  0.00000000000E+00 0.  1.
         11    1    3    3    0    0  0.16249025198E+01 -0.15144009488E+00  0.74513054733E+01  0.76279221167E+01  0.51100000000E-03 0. -1.
        -11    1    3    3    0    0  0.95723687191E+01  0.22530412406E+01  0.35857916592E+02  0.37181939437E+02  0.51100000000E-03 0.  1.
         12    1    3    3    0    0 -0.11867212702E+02 -0.30534093222E+01 -0.43505061234E+02  0.45197836218E+02  0.00000000000E+00 0. -1.
</event>
<event>
 7    1  0.2542335E-015  0.9000745E+02  0.7816164E-02  0.1186340E+00
        -11   -1    0    0    0    0  0.00000000000E+00  0.00000000000E+00  0.45593999997E+02  0.45594000000E+02  0.51100000000E-03 0.  1.
         11   -1    0    0    0    0 -0.00000000000E+00 -0.00000000000E+00 -0.45593999997E+02  0.45594000000E+02  0.51100000000E-03 0. -1.
    9900012    2    1    2    0    0 -0.40640782747E-01  0.28706065401E+00 -0.11443939373E+01  0.90007452256E+02  0.89999709825E+02 0.  0.
        -12    1    1    2    0    0  0.40640782747E-01 -0.28706065401E+00  0.11443939373E+01  0.11805477440E+01  0.00000000000E+00 0.  1.
         11    1    3    3    0    0 -0.60097171017E+01 -0.79438693781E+01 -0.70085911363E+01  0.12179577592E+02  0.51100000000E-03 0. -1.
        -11    1    3    3    0    0  0.10719050027E+02 -0.13348856588E+02  0.36348043958E+02  0.40177982845E+02  0.51100000000E-03 0.  1.
         12    1    3    3    0    0 -0.47499737083E+01  0.21579786620E+02 -0.30483846759E+02  0.37649891819E+02  0.00000000000E+00 0. -1.
</event>
<event>
 7    1  0.2542335E-015  0.9000774E+02  0.7816164E-02  0.1186339E+00
        -11   -1    0    0    0    0  0.00000000000E+00  0.00000000000E+00  0.45593999997E+02  0.45594000000E+02  0.51100000000E-03 0.  1.
         11   -1    0    0    0    0 -0.00000000000E+00 -0.00000000000E+00 -0.45593999997E+02  0.45594000000E+02  0.51100000000E-03 0. -1.
    9900012    2    1    2    0    0  0.23762442857E+00  0.31458649656E+00 -0.11124654972E+01  0.90007741759E+02  0.90000003150E+02 0.  0.
        -12    1    1    2    0    0 -0.23762442857E+00 -0.31458649656E+00  0.11124654972E+01  0.11802582410E+01  0.00000000000E+00 0.  1.
         11    1    3    3    0    0  0.71985509908E+01 -0.29452724760E+01 -0.82357719924E+01  0.11327917147E+02  0.51100000000E-03 0. -1.
        -11    1    3    3    0    0  0.26659733993E+02  0.98866996201E+01  0.26877161012E+02  0.39126334230E+02  0.51100000000E-03 0.  1.
         12    1    3    3    0    0 -0.33620660555E+02 -0.66268406476E+01 -0.19753854517E+02  0.39553490382E+02  0.00000000000E+00 0. -1.
</event>
<event>
 7    1  0.2542335E-015  0.9000775E+02  0.7816164E-02  0.1186339E+00
        -11   -1    0    0    0    0  0.00000000000E+00  0.00000000000E+00  0.45593999997E+02  0.45594000000E+02  0.51100000000E-03 0.  1.
         11   -1    0    0    0    0 -0.00000000000E+00 -0.00000000000E+00 -0.45593999997E+02  0.45594000000E+02  0.51100000000E-03 0. -1.
    9900012    2    1    2    0    0  0.15632018760E+00  0.94186369395E+00 -0.69386551281E+00  0.90007748938E+02  0.90000010424E+02 0.  0.
        -12    1    1    2    0    0 -0.15632018760E+00 -0.94186369395E+00  0.69386551281E+00  0.11802510618E+01  0.00000000000E+00 0.  1.
         11    1    3    3    0    0 -0.40369508922E+01 -0.36956821618E+01 -0.65421726076E+01  0.85296577795E+01  0.51100000000E-03 0. -1.
        -11    1    3    3    0    0 -0.40749919700E+01 -0.71991310248E+01  0.41865316877E+02  0.42674791207E+02  0.51100000000E-03 0.  1.
         12    1    3    3    0    0  0.82682630498E+01  0.11836676881E+02 -0.36017009783E+02  0.38803299951E+02  0.00000000000E+00 0. -1.
</event>
<event>
 7    1  0.2542335E-015  0.9000773E+02  0.7816164E-02  0.1186339E+00
        -11   -1    0    0    0    0  0.00000000000E+00  0.00000000000E+00  0.45593999997E+02  0.45594000000E+02  0.51100000000E-03 0. -1.
         11   -1    0    0    0    0 -0.00000000000E+00 -0.00000000000E+00 -0.45593999997E+02  0.45594000000E+02  0.51100000000E-03 0.  1.
    9900012    2    1    2    0    0 -0.63412508682E+00  0.50567491393E+00  0.85744334124E+00  0.90007732730E+02  0.89999994002E+02 0.  0.
        -12    1    1    2    0    0  0.63412508682E+00 -0.50567491393E+00 -0.85744334124E+00  0.11802672696E+01  0.00000000000E+00 0.  1.
         11    1    3    3    0    0 -0.77656773786E+01 -0.47058096736E+01  0.21992792439E+01  0.93427629364E+01  0.51100000000E-03 0. -1.
        -11    1    3    3    0    0  0.24313130820E+02  0.36829020069E+02 -0.53690060048E+01  0.44455947580E+02  0.51100000000E-03 0.  1.
         12    1    3    3    0    0 -0.17181578528E+02 -0.31617535482E+02  0.40271701022E+01  0.36209022214E+02  0.00000000000E+00 0. -1.
</event>
<event>
 7    1  0.2542335E-015  0.9000736E+02  0.7816164E-02  0.1186340E+00
        -11   -1    0    0    0    0  0.00000000000E+00  0.00000000000E+00  0.45593999997E+02  0.45594000000E+02  0.51100000000E-03 0.  1.
         11   -1    0    0    0    0 -0.00000000000E+00 -0.00000000000E+00 -0.45593999997E+02  0.45594000000E+02  0.51100000000E-03 0. -1.
    9900012    2    1    2    0    0  0.15865828662E+00 -0.37953381213E+00 -0.11066537841E+01  0.90007364169E+02  0.89999620576E+02 0.  0.
        -12    1    1    2    0    0 -0.15865828662E+00  0.37953381213E+00  0.11066537841E+01  0.11806358305E+01  0.00000000000E+00 0.  1.
         11    1    3    3    0    0 -0.82760064210E+01 -0.22559974530E+01 -0.44925293056E+01  0.96832136510E+01  0.51100000000E-03 0. -1.
        -11    1    3    3    0    0 -0.80220557799E+01  0.38795352768E+02  0.46208749746E+01  0.39884649443E+02  0.51100000000E-03 0.  1.
         12    1    3    3    0    0  0.16456720488E+02 -0.36918889128E+02 -0.12349994531E+01  0.40439501076E+02  0.00000000000E+00 0. -1.
</event>
<event>
 7    1  0.2542335E-015  0.9000770E+02  0.7816164E-02  0.1186339E+00
        -11   -1    0    0    0    0  0.00000000000E+00  0.00000000000E+00  0.45593999997E+02  0.45594000000E+02  0.51100000000E-03 0.  1.
         11   -1    0    0    0    0 -0.00000000000E+00 -0.00000000000E+00 -0.45593999997E+02  0.45594000000E+02  0.51100000000E-03 0. -1.
    9900012    2    1    2    0    0 -0.98747412117E+00  0.12029392701E-01  0.64642507384E+00  0.90007696979E+02  0.89999957779E+02 0.  0.
        -12    1    1    2    0    0  0.98747412117E+00 -0.12029392701E-01 -0.64642507384E+00  0.11803030214E+01  0.00000000000E+00 0.  1.
         11    1    3    3    0    0  0.33696052198E+01  0.86128103141E+01 -0.13336056895E+01  0.93441556729E+01  0.51100000000E-03 0. -1.
        -11    1    3    3    0    0 -0.24080962726E+02 -0.31758717424E+02  0.20735268693E+02  0.44927277530E+02  0.51100000000E-03 0.  1.
         12    1    3    3    0    0  0.19723883385E+02  0.23157936503E+02 -0.18755237930E+02  0.35736263776E+02  0.00000000000E+00 0. -1.
</event>
<event>
 7    1  0.2542335E-015  0.9000774E+02  0.7816164E-02  0.1186339E+00
        -11   -1    0    0    0    0  0.00000000000E+00  0.00000000000E+00  0.45593999997E+02  0.45594000000E+02  0.51100000000E-03 0.  1.
         11   -1    0    0    0    0 -0.00000000000E+00 -0.00000000000E+00 -0.45593999997E+02  0.45594000000E+02  0.51100000000E-03 0. -1.
    9900012    2    1    2    0    0 -0.44328398146E+00 -0.84403065316E-01 -0.10905896013E+01  0.90007741450E+02  0.90000002837E+02 0.  0.
        -12    1    1    2    0    0  0.44328398146E+00  0.84403065316E-01  0.10905896013E+01  0.11802585497E+01  0.00000000000E+00 0.  1.
         11    1    3    3    0    0 -0.97153848793E+01  0.21313629914E+02  0.28174689940E+02  0.36639769062E+02  0.51100000000E-03 0. -1.
        -11    1    3    3    0    0 -0.13288917353E+01  0.94057559405E+01  0.11425804336E+00  0.94998554314E+01  0.51100000000E-03 0.  1.
        -12    1    3    3    0    0  0.10600992633E+02 -0.30803788920E+02 -0.29379537585E+02  0.43868116957E+02  0.00000000000E+00 0.  1.
</event>
<event>
 7    1  0.2542335E-015  0.9000792E+02  0.7816164E-02  0.1186339E+00
        -11   -1    0    0    0    0  0.00000000000E+00  0.00000000000E+00  0.45593999997E+02  0.45594000000E+02  0.51100000000E-03 0. -1.
         11   -1    0    0    0    0 -0.00000000000E+00 -0.00000000000E+00 -0.45593999997E+02  0.45594000000E+02  0.51100000000E-03 0.  1.
    9900012    2    1    2    0    0 -0.25607490863E+00 -0.28060328343E-01  0.11516188795E+01  0.90007920433E+02  0.90000184183E+02 0.  0.
        -12    1    1    2    0    0  0.25607490863E+00  0.28060328343E-01 -0.11516188795E+01  0.11800795670E+01  0.00000000000E+00 0.  1.
         11    1    3    3    0    0  0.46488611831E+01 -0.31872048257E+01 -0.12332441743E+02  0.13559472870E+02  0.51100000000E-03 0. -1.
        -11    1    3    3    0    0 -0.18260357611E+02 -0.22198376348E+02 -0.17967615049E+02  0.33897548044E+02  0.51100000000E-03 0.  1.
         12    1    3    3    0    0  0.13355421519E+02  0.25357520845E+02  0.31451675672E+02  0.42550899520E+02  0.00000000000E+00 0. -1.
</event>
<event>
 7    1  0.2542335E-015  0.9000772E+02  0.7816164E-02  0.1186339E+00
        -11   -1    0    0    0    0  0.00000000000E+00  0.00000000000E+00  0.45593999997E+02  0.45594000000E+02  0.51100000000E-03 0. -1.
         11   -1    0    0    0    0 -0.00000000000E+00 -0.00000000000E+00 -0.45593999997E+02  0.45594000000E+02  0.51100000000E-03 0.  1.
    9900012    2    1    2    0    0 -0.11658888335E+01  0.90102628079E-01  0.16012008464E+00  0.90007723042E+02  0.89999984186E+02 0.  0.
        -12    1    1    2    0    0  0.11658888335E+01 -0.90102628079E-01 -0.16012008464E+00  0.11802769578E+01  0.00000000000E+00 0.  1.
         11    1    3    3    0    0 -0.25137259765E+01  0.85796382816E+01 -0.51613068855E+01  0.10323182666E+02  0.51100000000E-03 0. -1.
        -11    1    3    3    0    0 -0.33694221979E+02 -0.20473988254E+01  0.22053687202E+02  0.40321924014E+02  0.51100000000E-03 0.  1.
         12    1    3    3    0    0  0.35042059122E+02 -0.64421368281E+01 -0.16732260232E+02  0.39362616362E+02  0.00000000000E+00 0. -1.
</event>
<event>
 7    1  0.2542335E-015  0.9000779E+02  0.7816164E-02  0.1186339E+00
        -11   -1    0    0    0    0  0.00000000000E+00  0.00000000000E+00  0.45593999997E+02  0.45594000000E+02  0.51100000000E-03 0. -1.
         11   -1    0    0    0    0 -0.00000000000E+00 -0.00000000000E+00 -0.45593999997E+02  0.45594000000E+02  0.51100000000E-03 0.  1.
    9900012    2    1    2    0    0 -0.77770346106E+00 -0.50046637516E+00 -0.73321307924E+00  0.90007792101E+02  0.90000054156E+02 0.  0.
        -12    1    1    2    0    0  0.77770346106E+00  0.50046637516E+00  0.73321307924E+00  0.11802078993E+01  0.00000000000E+00 0.  1.
         11    1    3    3    0    0 -0.89348272981E+00  0.15454896503E+02  0.48693679249E+01  0.16228459001E+02  0.51100000000E-03 0. -1.
        -11    1    3    3    0    0 -0.32857647514E+02 -0.23556457583E+01 -0.16006732650E+02  0.36624985427E+02  0.51100000000E-03 0.  1.
         12    1    3    3    0    0  0.32973426783E+02 -0.13599717120E+02  0.10404151646E+02  0.37154347673E+02  0.00000000000E+00 0. -1.
</event>
<event>
 7    1  0.2542335E-015  0.9000772E+02  0.7816164E-02  0.1186339E+00
        -11   -1    0    0    0    0  0.00000000000E+00  0.00000000000E+00  0.45593999997E+02  0.45594000000E+02  0.51100000000E-03 0. -1.
         11   -1    0    0    0    0 -0.00000000000E+00 -0.00000000000E+00 -0.45593999997E+02  0.45594000000E+02  0.51100000000E-03 0.  1.
    9900012    2    1    2    0    0  0.81475183775E-02 -0.23130404681E+00  0.11573695107E+01  0.90007715234E+02  0.89999976275E+02 0.  0.
        -12    1    1    2    0    0 -0.81475183775E-02  0.23130404681E+00 -0.11573695107E+01  0.11802847658E+01  0.00000000000E+00 0.  1.
         11    1    3    3    0    0  0.38362383736E+01 -0.21376699675E+02 -0.30666801065E+02  0.37578354164E+02  0.51100000000E-03 0. -1.
        -11    1    3    3    0    0 -0.32794042898E+01  0.51767199314E+01 -0.76747257439E+01  0.98211169044E+01  0.51100000000E-03 0.  1.
        -12    1    3    3    0    0 -0.54868656537E+00  0.15968675697E+02  0.39498896319E+02  0.42608244166E+02  0.00000000000E+00 0.  1.
</event>
<event>
 7    1  0.2542335E-015  0.9000766E+02  0.7816164E-02  0.1186339E+00
        -11   -1    0    0    0    0  0.00000000000E+00  0.00000000000E+00  0.45593999997E+02  0.45594000000E+02  0.51100000000E-03 0. -1.
         11   -1    0    0    0    0 -0.00000000000E+00 -0.00000000000E+00 -0.45593999997E+02  0.45594000000E+02  0.51100000000E-03 0.  1.
    9900012    2    1    2    0    0 -0.93956057054E+00 -0.70147124161E+00  0.13548286210E+00  0.90007664635E+02  0.89999925008E+02 0.  0.
        -12    1    1    2    0    0  0.93956057054E+00  0.70147124161E+00 -0.13548286210E+00  0.11803353652E+01  0.00000000000E+00 0.  1.
         11    1    3    3    0    0 -0.13161648473E+01 -0.54952023393E+01  0.35808906296E+02  0.36251997311E+02  0.51100000000E-03 0. -1.
        -11    1    3    3    0    0  0.42760116388E+01 -0.69875220721E+01  0.60769734588E+01  0.10199967986E+02  0.51100000000E-03 0.  1.
        -12    1    3    3    0    0 -0.38994073621E+01  0.11781253170E+02 -0.41750396893E+02  0.43555699337E+02  0.00000000000E+00 0.  1.
</event>
<event>
 7    1  0.2542335E-015  0.9000773E+02  0.7816164E-02  0.1186339E+00
        -11   -1    0    0    0    0  0.00000000000E+00  0.00000000000E+00  0.45593999997E+02  0.45594000000E+02  0.51100000000E-03 0. -1.
         11   -1    0    0    0    0 -0.00000000000E+00 -0.00000000000E+00 -0.45593999997E+02  0.45594000000E+02  0.51100000000E-03 0.  1.
    9900012    2    1    2    0    0 -0.47023549212E+00 -0.88277896839E+00  0.62658453773E+00  0.90007733798E+02  0.89999995084E+02 0.  0.
        -12    1    1    2    0    0  0.47023549212E+00  0.88277896839E+00 -0.62658453773E+00  0.11802662022E+01  0.00000000000E+00 0.  1.
         11    1    3    3    0    0  0.35814439887E+02  0.46874876519E+00  0.13219931150E+02  0.38179319136E+02  0.51100000000E-03 0. -1.
        -11    1    3    3    0    0 -0.44020628103E+00 -0.27387907956E+01  0.93668241932E+01  0.97689381367E+01  0.51100000000E-03 0.  1.
        -12    1    3    3    0    0 -0.35844469098E+02  0.13872630621E+01 -0.21960170805E+02  0.42059476525E+02  0.00000000000E+00 0.  1.
</event>
<event>
 7    1  0.2542335E-015  0.9000788E+02  0.7816164E-02  0.1186339E+00
        -11   -1    0    0    0    0  0.00000000000E+00  0.00000000000E+00  0.45593999997E+02  0.45594000000E+02  0.51100000000E-03 0.  1.
         11   -1    0    0    0    0 -0.00000000000E+00 -0.00000000000E+00 -0.45593999997E+02  0.45594000000E+02  0.51100000000E-03 0. -1.
    9900012    2    1    2    0    0  0.89411195464E+00  0.75048966099E+00 -0.17326833710E+00  0.90007875924E+02  0.90000139086E+02 0.  0.
        -12    1    1    2    0    0 -0.89411195464E+00 -0.75048966099E+00  0.17326833710E+00  0.11801240762E+01  0.00000000000E+00 0.  1.
         11    1    3    3    0    0  0.59334034573E+00  0.19849369267E+01  0.84547507598E+01  0.87048743839E+01  0.51100000000E-03 0. -1.
        -11    1    3    3    0    0 -0.39708560456E+02  0.32286843854E+01  0.12206823308E+01  0.39858302045E+02  0.51100000000E-03 0.  1.
         12    1    3    3    0    0  0.40009332065E+02 -0.44631316511E+01 -0.98487014277E+01  0.41444699495E+02  0.00000000000E+00 0. -1.
</event>
<event>
 7    1  0.2913194E-015  0.9000793E+02  0.7816164E-02  0.1186339E+00
        -11   -1    0    0    0    0  0.00000000000E+00  0.00000000000E+00  0.45593999997E+02  0.45594000000E+02  0.51100000000E-03 0.  1.
         11   -1    0    0    0    0 -0.00000000000E+00 -0.00000000000E+00 -0.45593999997E+02  0.45594000000E+02  0.51100000000E-03 0. -1.
    9900012    2    1    2    0    0 -0.15825827686E-01 -0.10603173584E+01 -0.51772121784E+00  0.90007932791E+02  0.90000196704E+02 0.  0.
        -12    1    1    2    0    0  0.15825827686E-01  0.10603173584E+01  0.51772121784E+00  0.11800672086E+01  0.00000000000E+00 0.  1.
         11    1    3    3    0    0 -0.34904043197E+00  0.23282718440E+01 -0.95293181700E+01  0.98158333344E+01  0.51100000000E-03 0. -1.
        -11    1    3    3    0    0 -0.39003202861E+02  0.45387814887E+01  0.10369205644E+01  0.39280091335E+02  0.51100000000E-03 0.  1.
         12    1    3    3    0    0  0.39336417465E+02 -0.79273706910E+01  0.79746763878E+01  0.40912008122E+02  0.00000000000E+00 0. -1.
</event>
<event>
 7    1  0.2542335E-015  0.9000777E+02  0.7816164E-02  0.1186339E+00
        -11   -1    0    0    0    0  0.00000000000E+00  0.00000000000E+00  0.45593999997E+02  0.45594000000E+02  0.51100000000E-03 0. -1.
         11   -1    0    0    0    0 -0.00000000000E+00 -0.00000000000E+00 -0.45593999997E+02  0.45594000000E+02  0.51100000000E-03 0.  1.
    9900012    2    1    2    0    0  0.18260782259E+00 -0.10791567424E+01  0.44161295696E+00  0.90007768287E+02  0.90000030029E+02 0.  0.
        -12    1    1    2    0    0 -0.18260782259E+00  0.10791567424E+01 -0.44161295696E+00  0.11802317126E+01  0.00000000000E+00 0.  1.
         11    1    3    3    0    0 -0.41219967501E+01  0.10695915587E+02 -0.85733907507E+01  0.14314206114E+02  0.51100000000E-03 0. -1.
        -11    1    3    3    0    0 -0.82587467129E+01 -0.33705187783E+02 -0.17667968205E+02  0.38941028255E+02  0.51100000000E-03 0.  1.
         12    1    3    3    0    0  0.12563351286E+02  0.21930115454E+02  0.26682971913E+02  0.36752533919E+02  0.00000000000E+00 0. -1.
</event>
<event>
 7    1  0.2542335E-015  0.9000776E+02  0.7816164E-02  0.1186339E+00
        -11   -1    0    0    0    0  0.00000000000E+00  0.00000000000E+00  0.45593999997E+02  0.45594000000E+02  0.51100000000E-03 0. -1.
         11   -1    0    0    0    0 -0.00000000000E+00 -0.00000000000E+00 -0.45593999997E+02  0.45594000000E+02  0.51100000000E-03 0.  1.
    9900012    2    1    2    0    0 -0.36709005928E+00 -0.67075733359E+00  0.89904735739E+00  0.90007764149E+02  0.90000025836E+02 0.  0.
        -12    1    1    2    0    0  0.36709005928E+00  0.67075733359E+00 -0.89904735739E+00  0.11802358506E+01  0.00000000000E+00 0.  1.
         11    1    3    3    0    0  0.19177747250E+01 -0.21061719685E+02  0.11969144555E+02  0.24300911869E+02  0.51100000000E-03 0. -1.
        -11    1    3    3    0    0  0.11098437094E+02 -0.19429176919E+02 -0.46742379900E+00  0.22380498362E+02  0.51100000000E-03 0.  1.
        -12    1    3    3    0    0 -0.13383301878E+02  0.39820139270E+02 -0.10602673399E+02  0.43326353919E+02  0.00000000000E+00 0.  1.
</event>
<event>
 7    1  0.2542335E-015  0.9000779E+02  0.7816164E-02  0.1186339E+00
        -11   -1    0    0    0    0  0.00000000000E+00  0.00000000000E+00  0.45593999997E+02  0.45594000000E+02  0.51100000000E-03 0. -1.
         11   -1    0    0    0    0 -0.00000000000E+00 -0.00000000000E+00 -0.45593999997E+02  0.45594000000E+02  0.51100000000E-03 0.  1.
    9900012    2    1    2    0    0  0.14103644029E+00  0.32272894073E+00  0.11264318614E+01  0.90007790703E+02  0.90000052740E+02 0.  0.
        -12    1    1    2    0    0 -0.14103644029E+00 -0.32272894073E+00 -0.11264318614E+01  0.11802092971E+01  0.00000000000E+00 0.  1.
         11    1    3    3    0    0 -0.11177529540E+02 -0.34126845574E+02  0.36523603502E+01  0.36095962265E+02  0.51100000000E-03 0. -1.
        -11    1    3    3    0    0 -0.94447078180E+01 -0.28585724025E+01 -0.51569683366E+01  0.11134103674E+02  0.51100000000E-03 0.  1.
        -12    1    3    3    0    0  0.20763273799E+02  0.37308146917E+02  0.26310398478E+01  0.42777724763E+02  0.00000000000E+00 0.  1.
</event>
<event>
 7    1  0.2542335E-015  0.9000773E+02  0.7816164E-02  0.1186339E+00
        -11   -1    0    0    0    0  0.00000000000E+00  0.00000000000E+00  0.45593999997E+02  0.45594000000E+02  0.51100000000E-03 0.  1.
         11   -1    0    0    0    0 -0.00000000000E+00 -0.00000000000E+00 -0.45593999997E+02  0.45594000000E+02  0.51100000000E-03 0. -1.
    9900012    2    1    2    0    0 -0.47896721656E+00  0.95522405081E+00 -0.50116217935E+00  0.90007734728E+02  0.89999996027E+02 0.  0.
        -12    1    1    2    0    0  0.47896721656E+00 -0.95522405081E+00  0.50116217935E+00  0.11802652718E+01  0.00000000000E+00 0.  1.
         11    1    3    3    0    0 -0.57405592417E+01  0.63844739242E+01  0.30963152867E+02  0.32131485547E+02  0.51100000000E-03 0. -1.
        -11    1    3    3    0    0  0.19940883628E+02 -0.60278741141E+01  0.23927964304E+01  0.20969014789E+02  0.51100000000E-03 0.  1.
         12    1    3    3    0    0 -0.14679291603E+02  0.59862424073E+00 -0.33857111477E+02  0.36907234393E+02  0.00000000000E+00 0. -1.
</event>
<event>
 7    1  0.2542335E-015  0.9000772E+02  0.7816164E-02  0.1186339E+00
        -11   -1    0    0    0    0  0.00000000000E+00  0.00000000000E+00  0.45593999997E+02  0.45594000000E+02  0.51100000000E-03 0.  1.
         11   -1    0    0    0    0 -0.00000000000E+00 -0.00000000000E+00 -0.45593999997E+02  0.45594000000E+02  0.51100000000E-03 0. -1.
    9900012    2    1    2    0    0 -0.28329595916E+00  0.10293821633E+01 -0.50316924143E+00  0.90007718879E+02  0.89999979968E+02 0.  0.
        -12    1    1    2    0    0  0.28329595916E+00 -0.10293821633E+01  0.50316924143E+00  0.11802811208E+01  0.00000000000E+00 0.  1.
         11    1    3    3    0    0 -0.18530636884E+02 -0.16648762120E+02 -0.27120113131E+02  0.36824805769E+02  0.51100000000E-03 0. -1.
        -11    1    3    3    0    0 -0.47315025295E+01 -0.67498186271E+01 -0.26630037354E+01  0.86624913761E+01  0.51100000000E-03 0.  1.
        -12    1    3    3    0    0  0.22978843454E+02  0.24427962910E+02  0.29279947625E+02  0.44520421734E+02  0.00000000000E+00 0.  1.
</event>
<event>
 7    1  0.2542335E-015  0.9000785E+02  0.7816164E-02  0.1186339E+00
        -11   -1    0    0    0    0  0.00000000000E+00  0.00000000000E+00  0.45593999997E+02  0.45594000000E+02  0.51100000000E-03 0. -1.
         11   -1    0    0    0    0 -0.00000000000E+00 -0.00000000000E+00 -0.45593999997E+02  0.45594000000E+02  0.51100000000E-03 0.  1.
    9900012    2    1    2    0    0  0.52821312058E+00  0.18689936833E+00  0.10386627877E+01  0.90007847103E+02  0.90000109884E+02 0.  0.
        -12    1    1    2    0    0 -0.52821312058E+00 -0.18689936833E+00 -0.10386627877E+01  0.11801528974E+01  0.00000000000E+00 0.  1.
         11    1    3    3    0    0 -0.97145396515E+01  0.38623384205E+01  0.49412841740E+01  0.11563140934E+02  0.51100000000E-03 0. -1.
        -11    1    3    3    0    0  0.30908895854E+02 -0.10144510146E+02  0.25916186308E+02  0.41592302678E+02  0.51100000000E-03 0.  1.
         12    1    3    3    0    0 -0.20666143082E+02  0.64690710941E+01 -0.29818807695E+02  0.36852403491E+02  0.00000000000E+00 0. -1.
</event>
<event>
 7    1  0.2542335E-015  0.9000762E+02  0.7816164E-02  0.1186339E+00
        -11   -1    0    0    0    0  0.00000000000E+00  0.00000000000E+00  0.45593999997E+02  0.45594000000E+02  0.51100000000E-03 0. -1.
         11   -1    0    0    0    0 -0.00000000000E+00 -0.00000000000E+00 -0.45593999997E+02  0.45594000000E+02  0.51100000000E-03 0.  1.
    9900012    2    1    2    0    0 -0.10281169595E+01 -0.46649388595E+00  0.34447119352E+00  0.90007618099E+02  0.89999877858E+02 0.  0.
        -12    1    1    2    0    0  0.10281169595E+01  0.46649388595E+00 -0.34447119352E+00  0.11803819006E+01  0.00000000000E+00 0.  1.
         11    1    3    3    0    0 -0.29647371465E+02  0.10064404951E+01  0.20868767791E+02  0.36269615750E+02  0.51100000000E-03 0. -1.
        -11    1    3    3    0    0  0.29476691797E+01 -0.17173123830E+02 -0.19997381250E+00  0.17425410339E+02  0.51100000000E-03 0.  1.
        -12    1    3    3    0    0  0.25671585326E+02  0.15700189449E+02 -0.20324322785E+02  0.36312592011E+02  0.00000000000E+00 0.  1.
</event>
<event>
 7    1  0.2542335E-015  0.9000785E+02  0.7816164E-02  0.1186339E+00
        -11   -1    0    0    0    0  0.00000000000E+00  0.00000000000E+00  0.45593999997E+02  0.45594000000E+02  0.51100000000E-03 0. -1.
         11   -1    0    0    0    0 -0.00000000000E+00 -0.00000000000E+00 -0.45593999997E+02  0.45594000000E+02  0.51100000000E-03 0.  1.
    9900012    2    1    2    0    0  0.80550855508E+00 -0.98547144357E-01  0.85685054658E+00  0.90007852369E+02  0.90000115220E+02 0.  0.
        -12    1    1    2    0    0 -0.80550855508E+00  0.98547144357E-01 -0.85685054658E+00  0.11801476311E+01  0.00000000000E+00 0.  1.
         11    1    3    3    0    0  0.35724678658E+01 -0.36141605703E+01  0.46127274662E+01  0.68630851822E+01  0.51100000000E-03 0. -1.
        -11    1    3    3    0    0 -0.13487799920E+02  0.41294081076E+01 -0.41537221324E+02  0.43866998000E+02  0.51100000000E-03 0.  1.
         12    1    3    3    0    0  0.10720840609E+02 -0.61379468167E+00  0.37781344404E+02  0.39277769186E+02  0.00000000000E+00 0. -1.
</event>
<event>
 7    1  0.2542335E-015  0.9000773E+02  0.7816164E-02  0.1186339E+00
        -11   -1    0    0    0    0  0.00000000000E+00  0.00000000000E+00  0.45593999997E+02  0.45594000000E+02  0.51100000000E-03 0. -1.
         11   -1    0    0    0    0 -0.00000000000E+00 -0.00000000000E+00 -0.45593999997E+02  0.45594000000E+02  0.51100000000E-03 0.  1.
    9900012    2    1    2    0    0 -0.11572932120E+01 -0.14026044647E+00 -0.18450621786E+00  0.90007727525E+02  0.89999988728E+02 0.  0.
        -12    1    1    2    0    0  0.11572932120E+01  0.14026044647E+00  0.18450621786E+00  0.11802724752E+01  0.00000000000E+00 0.  1.
         11    1    3    3    0    0 -0.26701941197E+02  0.19848445950E+02  0.15927975507E+02  0.36887055647E+02  0.51100000000E-03 0. -1.
        -11    1    3    3    0    0 -0.70592493264E+01  0.43228061690E+01  0.21288490293E+01  0.85470259551E+01  0.51100000000E-03 0.  1.
        -12    1    3    3    0    0  0.32603897311E+02 -0.24311512566E+02 -0.18241330754E+02  0.44573645922E+02  0.00000000000E+00 0.  1.
</event>
<event>
 7    1  0.2542335E-015  0.9000773E+02  0.7816164E-02  0.1186339E+00
        -11   -1    0    0    0    0  0.00000000000E+00  0.00000000000E+00  0.45593999997E+02  0.45594000000E+02  0.51100000000E-03 0. -1.
         11   -1    0    0    0    0 -0.00000000000E+00 -0.00000000000E+00 -0.45593999997E+02  0.45594000000E+02  0.51100000000E-03 0.  1.
    9900012    2    1    2    0    0  0.11310401940E+00 -0.80792069137E+00  0.85294709201E+00  0.90007725835E+02  0.89999987016E+02 0.  0.
        -12    1    1    2    0    0 -0.11310401940E+00  0.80792069137E+00 -0.85294709201E+00  0.11802741650E+01  0.00000000000E+00 0.  1.
         11    1    3    3    0    0 -0.64077000072E+01  0.20919546624E+02  0.37513955501E+02  0.43427904715E+02  0.51100000000E-03 0. -1.
        -11    1    3    3    0    0  0.44596039235E+01 -0.86370995388E+01 -0.26452713667E+01  0.10073977192E+02  0.51100000000E-03 0.  1.
        -12    1    3    3    0    0  0.20612001030E+01 -0.13090367776E+02 -0.34015737042E+02  0.36505843928E+02  0.00000000000E+00 0.  1.
</event>
<event>
 7    1  0.2542335E-015  0.9000767E+02  0.7816164E-02  0.1186339E+00
        -11   -1    0    0    0    0  0.00000000000E+00  0.00000000000E+00  0.45593999997E+02  0.45594000000E+02  0.51100000000E-03 0. -1.
         11   -1    0    0    0    0 -0.00000000000E+00 -0.00000000000E+00 -0.45593999997E+02  0.45594000000E+02  0.51100000000E-03 0.  1.
    9900012    2    1    2    0    0 -0.10063580452E+01  0.58689715398E+00  0.18965219870E+00  0.90007672613E+02  0.89999933091E+02 0.  0.
        -12    1    1    2    0    0  0.10063580452E+01 -0.58689715398E+00 -0.18965219870E+00  0.11803273872E+01  0.00000000000E+00 0.  1.
         11    1    3    3    0    0  0.21390905110E+02 -0.14122912369E+02  0.28630482289E+02  0.38428270733E+02  0.51100000000E-03 0. -1.
        -11    1    3    3    0    0  0.38598351523E+01  0.14655896492E+01  0.53666318901E+01  0.67710426470E+01  0.51100000000E-03 0.  1.
        -12    1    3    3    0    0 -0.26257098308E+02  0.13244219873E+02 -0.33807461980E+02  0.44808359233E+02  0.00000000000E+00 0.  1.
</event>
<event>
 7    1  0.2623340E-015  0.9000778E+02  0.7816164E-02  0.1186339E+00
        -11   -1    0    0    0    0  0.00000000000E+00  0.00000000000E+00  0.45593999997E+02  0.45594000000E+02  0.51100000000E-03 0. -1.
         11   -1    0    0    0    0 -0.00000000000E+00 -0.00000000000E+00 -0.45593999997E+02  0.45594000000E+02  0.51100000000E-03 0.  1.
    9900012    2    1    2    0    0  0.89626967008E+00  0.70814863691E+00  0.29690654524E+00  0.90007776585E+02  0.90000038436E+02 0.  0.
        -12    1    1    2    0    0 -0.89626967008E+00 -0.70814863691E+00 -0.29690654524E+00  0.11802234153E+01  0.00000000000E+00 0.  1.
         11    1    3    3    0    0  0.11857564986E+01 -0.72503436618E+01  0.62458364428E+01  0.96428198583E+01  0.51100000000E-03 0. -1.
        -11    1    3    3    0    0 -0.24326760104E+02  0.35222568194E+02  0.30660861646E+01  0.42916447336E+02  0.51100000000E-03 0.  1.
         12    1    3    3    0    0  0.24037273276E+02 -0.27264075895E+02 -0.90150160621E+01  0.37448509390E+02  0.00000000000E+00 0. -1.
</event>
<event>
 7    1  0.2542335E-015  0.9000765E+02  0.7816164E-02  0.1186339E+00
        -11   -1    0    0    0    0  0.00000000000E+00  0.00000000000E+00  0.45593999997E+02  0.45594000000E+02  0.51100000000E-03 0. -1.
         11   -1    0    0    0    0 -0.00000000000E+00 -0.00000000000E+00 -0.45593999997E+02  0.45594000000E+02  0.51100000000E-03 0.  1.
    9900012    2    1    2    0    0 -0.68687747844E+00 -0.82783894313E-01  0.95632827290E+00  0.90007653606E+02  0.89999913834E+02 0.  0.
        -12    1    1    2    0    0  0.68687747844E+00  0.82783894313E-01 -0.95632827290E+00  0.11803463937E+01  0.00000000000E+00 0.  1.
         11    1    3    3    0    0 -0.73174243589E+01 -0.68461012525E+01  0.58263187553E+01  0.11591367137E+02  0.51100000000E-03 0. -1.
        -11    1    3    3    0    0 -0.31282305478E+01 -0.34965691723E+02 -0.56339453251E+01  0.35554560386E+02  0.51100000000E-03 0.  1.
         12    1    3    3    0    0  0.97587774283E+01  0.41729009082E+02  0.76395484277E+00  0.42861726083E+02  0.00000000000E+00 0. -1.
</event>
<event>
 7    1  0.2542335E-015  0.9000777E+02  0.7816164E-02  0.1186339E+00
        -11   -1    0    0    0    0  0.00000000000E+00  0.00000000000E+00  0.45593999997E+02  0.45594000000E+02  0.51100000000E-03 0.  1.
         11   -1    0    0    0    0 -0.00000000000E+00 -0.00000000000E+00 -0.45593999997E+02  0.45594000000E+02  0.51100000000E-03 0. -1.
    9900012    2    1    2    0    0  0.71544245368E+00 -0.85086851181E+00  0.39636844187E+00  0.90007769908E+02  0.90000031671E+02 0.  0.
        -12    1    1    2    0    0 -0.71544245368E+00  0.85086851181E+00 -0.39636844187E+00  0.11802300922E+01  0.00000000000E+00 0.  1.
         11    1    3    3    0    0  0.56359480070E+01  0.20419249642E+01 -0.81019503718E+01  0.10078440732E+02  0.51100000000E-03 0. -1.
        -11    1    3    3    0    0  0.21692427271E+02 -0.30208901896E+02 -0.85415213456E+01  0.38158835698E+02  0.51100000000E-03 0.  1.
         12    1    3    3    0    0 -0.26612932824E+02  0.27316108420E+02  0.17039840159E+02  0.41770493478E+02  0.00000000000E+00 0. -1.
</event>
<event>
 7    1  0.2542335E-015  0.9000774E+02  0.7816164E-02  0.1186339E+00
        -11   -1    0    0    0    0  0.00000000000E+00  0.00000000000E+00  0.45593999997E+02  0.45594000000E+02  0.51100000000E-03 0.  1.
         11   -1    0    0    0    0 -0.00000000000E+00 -0.00000000000E+00 -0.45593999997E+02  0.45594000000E+02  0.51100000000E-03 0. -1.
    9900012    2    1    2    0    0  0.11782523995E+01 -0.60354300533E-01  0.33018255758E-01  0.90007740891E+02  0.90000002271E+02 0.  0.
        -12    1    1    2    0    0 -0.11782523995E+01  0.60354300533E-01 -0.33018255758E-01  0.11802591088E+01  0.00000000000E+00 0.  1.
         11    1    3    3    0    0  0.35339507511E+02 -0.12254084526E+02  0.90829721834E+01  0.38490826993E+02  0.51100000000E-03 0. -1.
        -11    1    3    3    0    0  0.59475372826E+01  0.73089478947E+01 -0.56076717460E+01  0.10965395648E+02  0.51100000000E-03 0.  1.
        -12    1    3    3    0    0 -0.40108792394E+02  0.48847823305E+01 -0.34422821816E+01  0.40551518250E+02  0.00000000000E+00 0.  1.
</event>
<event>
 7    1  0.2542335E-015  0.9000773E+02  0.7816164E-02  0.1186339E+00
        -11   -1    0    0    0    0  0.00000000000E+00  0.00000000000E+00  0.45593999997E+02  0.45594000000E+02  0.51100000000E-03 0. -1.
         11   -1    0    0    0    0 -0.00000000000E+00 -0.00000000000E+00 -0.45593999997E+02  0.45594000000E+02  0.51100000000E-03 0.  1.
    9900012    2    1    2    0    0  0.70026603301E+00  0.39259882986E+00  0.86517095453E+00  0.90007734293E+02  0.89999995586E+02 0.  0.
        -12    1    1    2    0    0 -0.70026603301E+00 -0.39259882986E+00 -0.86517095453E+00  0.11802657068E+01  0.00000000000E+00 0.  1.
         11    1    3    3    0    0  0.68161836032E+00 -0.56287760218E+01 -0.10952641315E+02  0.12333210252E+02  0.51100000000E-03 0. -1.
        -11    1    3    3    0    0 -0.32052093712E+02  0.23410324154E+02  0.10986136683E+02  0.41183433415E+02  0.51100000000E-03 0.  1.
         12    1    3    3    0    0  0.32070741385E+02 -0.17388949303E+02  0.83167558595E+00  0.36491090626E+02  0.00000000000E+00 0. -1.
</event>
<event>
 7    1  0.2542335E-015  0.9000797E+02  0.7816164E-02  0.1186339E+00
        -11   -1    0    0    0    0  0.00000000000E+00  0.00000000000E+00  0.45593999997E+02  0.45594000000E+02  0.51100000000E-03 0. -1.
         11   -1    0    0    0    0 -0.00000000000E+00 -0.00000000000E+00 -0.45593999997E+02  0.45594000000E+02  0.51100000000E-03 0.  1.
    9900012    2    1    2    0    0  0.17990768145E-01 -0.52284533227E+00  0.10577194090E+01  0.90007974044E+02  0.90000238501E+02 0.  0.
        -12    1    1    2    0    0 -0.17990768145E-01  0.52284533227E+00 -0.10577194090E+01  0.11800259562E+01  0.00000000000E+00 0.  1.
         11    1    3    3    0    0 -0.54656703494E+00 -0.53092157633E+01 -0.72752740902E+01  0.90230882126E+01  0.51100000000E-03 0. -1.
        -11    1    3    3    0    0 -0.87552126859E+01 -0.21763679549E+02 -0.27031889609E+02  0.35791543034E+02  0.51100000000E-03 0.  1.
         12    1    3    3    0    0  0.93197704890E+01  0.26550049980E+02  0.35364883108E+02  0.45193342797E+02  0.00000000000E+00 0. -1.
</event>
<event>
 7    1  0.2542335E-015  0.9000768E+02  0.7816164E-02  0.1186339E+00
        -11   -1    0    0    0    0  0.00000000000E+00  0.00000000000E+00  0.45593999997E+02  0.45594000000E+02  0.51100000000E-03 0. -1.
         11   -1    0    0    0    0 -0.00000000000E+00 -0.00000000000E+00 -0.45593999997E+02  0.45594000000E+02  0.51100000000E-03 0.  1.
    9900012    2    1    2    0    0 -0.68992140690E+00  0.93769426722E+00  0.19463414079E+00  0.90007684561E+02  0.89999945197E+02 0.  0.
        -12    1    1    2    0    0  0.68992140690E+00 -0.93769426722E+00 -0.19463414079E+00  0.11803154389E+01  0.00000000000E+00 0.  1.
         11    1    3    3    0    0 -0.33039273542E+01 -0.56412082800E+01  0.57235560005E+01  0.86889734936E+01  0.51100000000E-03 0. -1.
        -11    1    3    3    0    0 -0.25496556518E+02  0.27443067769E+02 -0.21112752866E+02  0.42999356933E+02  0.51100000000E-03 0.  1.
         12    1    3    3    0    0  0.28110562465E+02 -0.20864165221E+02  0.15583831006E+02  0.38319354135E+02  0.00000000000E+00 0. -1.
</event>
<event>
 7    1  0.2542335E-015  0.9000775E+02  0.7816164E-02  0.1186339E+00
        -11   -1    0    0    0    0  0.00000000000E+00  0.00000000000E+00  0.45593999997E+02  0.45594000000E+02  0.51100000000E-03 0.  1.
         11   -1    0    0    0    0 -0.00000000000E+00 -0.00000000000E+00 -0.45593999997E+02  0.45594000000E+02  0.51100000000E-03 0. -1.
    9900012    2    1    2    0    0  0.33184029913E+00  0.11124269360E+01 -0.21303084101E+00  0.90007748412E+02  0.90000009891E+02 0.  0.
        -12    1    1    2    0    0 -0.33184029913E+00 -0.11124269360E+01  0.21303084101E+00  0.11802515881E+01  0.00000000000E+00 0.  1.
         11    1    3    3    0    0  0.27437542571E+02 -0.44418019118E+01 -0.20565681076E+02  0.34575939393E+02  0.51100000000E-03 0. -1.
        -11    1    3    3    0    0  0.19006535040E+01 -0.15563421643E+02  0.59727647842E+01  0.16778155334E+02  0.51100000000E-03 0.  1.
        -12    1    3    3    0    0 -0.29006355776E+02  0.21117650491E+02  0.14379885450E+02  0.38653653685E+02  0.00000000000E+00 0.  1.
</event>
<event>
 7    1  0.2542335E-015  0.9000734E+02  0.7816164E-02  0.1186340E+00
        -11   -1    0    0    0    0  0.00000000000E+00  0.00000000000E+00  0.45593999997E+02  0.45594000000E+02  0.51100000000E-03 0. -1.
         11   -1    0    0    0    0 -0.00000000000E+00 -0.00000000000E+00 -0.45593999997E+02  0.45594000000E+02  0.51100000000E-03 0.  1.
    9900012    2    1    2    0    0 -0.11584051253E+01 -0.20601513544E+00 -0.98029707821E-01  0.90007341500E+02  0.89999597607E+02 0.  0.
        -12    1    1    2    0    0  0.11584051253E+01  0.20601513544E+00  0.98029707821E-01  0.11806585001E+01  0.00000000000E+00 0.  1.
         11    1    3    3    0    0 -0.62850296269E+01 -0.53943805862E+01 -0.63423134311E+01  0.10431964304E+02  0.51100000000E-03 0. -1.
        -11    1    3    3    0    0  0.32055188630E+02  0.25047057319E+02 -0.10709046653E+02  0.42066303366E+02  0.51100000000E-03 0.  1.
         12    1    3    3    0    0 -0.26928564128E+02 -0.19858691868E+02  0.16953330376E+02  0.37509073830E+02  0.00000000000E+00 0. -1.
</event>
<event>
 7    1  0.2542335E-015  0.9000775E+02  0.7816164E-02  0.1186339E+00
        -11   -1    0    0    0    0  0.00000000000E+00  0.00000000000E+00  0.45593999997E+02  0.45594000000E+02  0.51100000000E-03 0.  1.
         11   -1    0    0    0    0 -0.00000000000E+00 -0.00000000000E+00 -0.45593999997E+02  0.45594000000E+02  0.51100000000E-03 0. -1.
    9900012    2    1    2    0    0  0.81762432905E+00  0.32370430289E+00  0.78720515681E+00  0.90007751730E+02  0.90000013253E+02 0.  0.
        -12    1    1    2    0    0 -0.81762432905E+00 -0.32370430289E+00 -0.78720515681E+00  0.11802482697E+01  0.00000000000E+00 0.  1.
         11    1    3    3    0    0 -0.12274376502E+01  0.64355840159E+01 -0.77146676518E+01  0.10121237180E+02  0.51100000000E-03 0. -1.
        -11    1    3    3    0    0 -0.20541749765E+02 -0.54704419081E+01  0.37510895025E+02  0.43115617401E+02  0.51100000000E-03 0.  1.
         12    1    3    3    0    0  0.22586811744E+02 -0.64143780495E+00 -0.29009022216E+02  0.36770897149E+02  0.00000000000E+00 0. -1.
</event>
<event>
 7    1  0.2542335E-015  0.9000776E+02  0.7816164E-02  0.1186339E+00
        -11   -1    0    0    0    0  0.00000000000E+00  0.00000000000E+00  0.45593999997E+02  0.45594000000E+02  0.51100000000E-03 0. -1.
         11   -1    0    0    0    0 -0.00000000000E+00 -0.00000000000E+00 -0.45593999997E+02  0.45594000000E+02  0.51100000000E-03 0.  1.
    9900012    2    1    2    0    0 -0.10007969539E+01 -0.37787190156E+00  0.49857392264E+00  0.90007763721E+02  0.90000025403E+02 0.  0.
        -12    1    1    2    0    0  0.10007969539E+01  0.37787190156E+00 -0.49857392264E+00  0.11802362785E+01  0.00000000000E+00 0.  1.
         11    1    3    3    0    0 -0.31446164605E+01 -0.80059775601E+01 -0.67240149572E+01  0.10917722601E+02  0.51100000000E-03 0. -1.
        -11    1    3    3    0    0  0.30642084327E+02 -0.44583114642E+00 -0.21810302334E+02  0.37614164692E+02  0.51100000000E-03 0.  1.
         12    1    3    3    0    0 -0.28498264821E+02  0.80739368050E+01  0.29032891214E+02  0.41475876429E+02  0.00000000000E+00 0. -1.
</event>
<event>
 7    1  0.2542335E-015  0.9000779E+02  0.7816164E-02  0.1186339E+00
        -11   -1    0    0    0    0  0.00000000000E+00  0.00000000000E+00  0.45593999997E+02  0.45594000000E+02  0.51100000000E-03 0. -1.
         11   -1    0    0    0    0 -0.00000000000E+00 -0.00000000000E+00 -0.45593999997E+02  0.45594000000E+02  0.51100000000E-03 0.  1.
    9900012    2    1    2    0    0 -0.83676057140E+00  0.64522088112E+00 -0.52576189050E+00  0.90007786543E+02  0.90000048525E+02 0.  0.
        -12    1    1    2    0    0  0.83676057140E+00 -0.64522088112E+00  0.52576189050E+00  0.11802134573E+01  0.00000000000E+00 0.  1.
         11    1    3    3    0    0 -0.14474576790E+02  0.23408191977E+02  0.30050640597E+02  0.40749206440E+02  0.51100000000E-03 0. -1.
        -11    1    3    3    0    0 -0.28608593615E+01 -0.91020181628E+01  0.24898402418E+01  0.98605555429E+01  0.51100000000E-03 0.  1.
        -12    1    3    3    0    0  0.16498675580E+02 -0.13660952934E+02 -0.33066242730E+02  0.39398024560E+02  0.00000000000E+00 0.  1.
</event>
<event>
 7    1  0.2542335E-015  0.9000780E+02  0.7816164E-02  0.1186339E+00
        -11   -1    0    0    0    0  0.00000000000E+00  0.00000000000E+00  0.45593999997E+02  0.45594000000E+02  0.51100000000E-03 0. -1.
         11   -1    0    0    0    0 -0.00000000000E+00 -0.00000000000E+00 -0.45593999997E+02  0.45594000000E+02  0.51100000000E-03 0.  1.
    9900012    2    1    2    0    0  0.76922570119E+00  0.89506154091E+00  0.57122090163E-02  0.90007798335E+02  0.90000060473E+02 0.  0.
        -12    1    1    2    0    0 -0.76922570119E+00 -0.89506154091E+00 -0.57122090163E-02  0.11802016653E+01  0.00000000000E+00 0.  1.
         11    1    3    3    0    0 -0.55016208788E+01 -0.27352314417E+02 -0.28162036961E+02  0.39642367012E+02  0.51100000000E-03 0. -1.
        -11    1    3    3    0    0 -0.80197126459E+01  0.57712266302E+01 -0.20439011241E+01  0.10089617426E+02  0.51100000000E-03 0.  1.
        -12    1    3    3    0    0  0.14290559226E+02  0.22476149327E+02  0.30211650294E+02  0.40275813897E+02  0.00000000000E+00 0.  1.
</event>
<event>
 7    1  0.2542335E-015  0.9000743E+02  0.7816164E-02  0.1186340E+00
        -11   -1    0    0    0    0  0.00000000000E+00  0.00000000000E+00  0.45593999997E+02  0.45594000000E+02  0.51100000000E-03 0.  1.
         11   -1    0    0    0    0 -0.00000000000E+00 -0.00000000000E+00 -0.45593999997E+02  0.45594000000E+02  0.51100000000E-03 0. -1.
    9900012    2    1    2    0    0  0.63470571045E+00 -0.67093394250E-01 -0.99317765698E+00  0.90007426105E+02  0.89999683329E+02 0.  0.
        -12    1    1    2    0    0 -0.63470571045E+00  0.67093394250E-01  0.99317765698E+00  0.11805738947E+01  0.00000000000E+00 0.  1.
         11    1    3    3    0    0  0.24089226114E+02  0.13372750200E+01  0.72118210223E+01  0.25181133453E+02  0.51100000000E-03 0. -1.
        -11    1    3    3    0    0 -0.96309569792E+00  0.16847360888E+02  0.18773620012E+02  0.25243017467E+02  0.51100000000E-03 0.  1.
         12    1    3    3    0    0 -0.22491424706E+02 -0.18251729303E+02 -0.26978618692E+02  0.39583275185E+02  0.00000000000E+00 0. -1.
</event>
<event>
 7    1  0.2542335E-015  0.9000794E+02  0.7816164E-02  0.1186339E+00
        -11   -1    0    0    0    0  0.00000000000E+00  0.00000000000E+00  0.45593999997E+02  0.45594000000E+02  0.51100000000E-03 0.  1.
         11   -1    0    0    0    0 -0.00000000000E+00 -0.00000000000E+00 -0.45593999997E+02  0.45594000000E+02  0.51100000000E-03 0. -1.
    9900012    2    1    2    0    0 -0.14599611475E+00  0.68089867505E+00 -0.95267724390E+00  0.90007944153E+02  0.90000208215E+02 0.  0.
        -12    1    1    2    0    0  0.14599611475E+00 -0.68089867505E+00  0.95267724390E+00  0.11800558471E+01  0.00000000000E+00 0.  1.
         11    1    3    3    0    0  0.18310268048E+01  0.99386838142E+01 -0.10828575285E+02  0.14811756752E+02  0.51100000000E-03 0. -1.
        -11    1    3    3    0    0  0.28956312522E+02 -0.25456317354E+02 -0.11698696918E+01  0.38572797713E+02  0.51100000000E-03 0.  1.
         12    1    3    3    0    0 -0.30933335441E+02  0.16198532215E+02  0.11045767733E+02  0.36623389688E+02  0.00000000000E+00 0. -1.
</event>
<event>
 7    1  0.2542335E-015  0.9000780E+02  0.7816164E-02  0.1186339E+00
        -11   -1    0    0    0    0  0.00000000000E+00  0.00000000000E+00  0.45593999997E+02  0.45594000000E+02  0.51100000000E-03 0.  1.
         11   -1    0    0    0    0 -0.00000000000E+00 -0.00000000000E+00 -0.45593999997E+02  0.45594000000E+02  0.51100000000E-03 0. -1.
    9900012    2    1    2    0    0 -0.44729769604E+00 -0.10634422781E+01  0.24875141693E+00  0.90007804264E+02  0.90000066480E+02 0.  0.
        -12    1    1    2    0    0  0.44729769604E+00  0.10634422781E+01 -0.24875141693E+00  0.11801957360E+01  0.00000000000E+00 0.  1.
         11    1    3    3    0    0  0.74278220152E+01 -0.27731918290E+01  0.64833192668E+01  0.10241902254E+02  0.51100000000E-03 0. -1.
        -11    1    3    3    0    0  0.26345107653E+02  0.70439368942E+01  0.22034529809E+02  0.35059980725E+02  0.51100000000E-03 0.  1.
         12    1    3    3    0    0 -0.34220227365E+02 -0.53341873433E+01 -0.28269097659E+02  0.44705921285E+02  0.00000000000E+00 0. -1.
</event>
<event>
 7    1  0.2542335E-015  0.9000784E+02  0.7816164E-02  0.1186339E+00
        -11   -1    0    0    0    0  0.00000000000E+00  0.00000000000E+00  0.45593999997E+02  0.45594000000E+02  0.51100000000E-03 0.  1.
         11   -1    0    0    0    0 -0.00000000000E+00 -0.00000000000E+00 -0.45593999997E+02  0.45594000000E+02  0.51100000000E-03 0. -1.
    9900012    2    1    2    0    0  0.85289264411E+00  0.58274240688E+00 -0.57074957101E+00  0.90007843380E+02  0.90000106112E+02 0.  0.
        -12    1    1    2    0    0 -0.85289264411E+00 -0.58274240688E+00  0.57074957101E+00  0.11801566201E+01  0.00000000000E+00 0.  1.
         11    1    3    3    0    0  0.19283743687E+02  0.26959367634E+02 -0.20313531426E+02  0.38875568588E+02  0.51100000000E-03 0. -1.
        -11    1    3    3    0    0  0.11868995818E+01 -0.19518667070E+01 -0.85925983523E+01  0.88910776042E+01  0.51100000000E-03 0.  1.
        -12    1    3    3    0    0 -0.19617750625E+02 -0.24424758520E+02  0.28335380207E+02  0.42241197187E+02  0.00000000000E+00 0.  1.
</event>
<event>
 7    1  0.2559128E-015  0.9000775E+02  0.7816164E-02  0.1186339E+00
        -11   -1    0    0    0    0  0.00000000000E+00  0.00000000000E+00  0.45593999997E+02  0.45594000000E+02  0.51100000000E-03 0.  1.
         11   -1    0    0    0    0 -0.00000000000E+00 -0.00000000000E+00 -0.45593999997E+02  0.45594000000E+02  0.51100000000E-03 0. -1.
    9900012    2    1    2    0    0 -0.63644333260E+00 -0.95213179665E+00 -0.28526774650E+00  0.90007748857E+02  0.90000010342E+02 0.  0.
        -12    1    1    2    0    0  0.63644333260E+00  0.95213179665E+00  0.28526774650E+00  0.11802511432E+01  0.00000000000E+00 0.  1.
         11    1    3    3    0    0  0.62548941557E+00 -0.56540014511E+01  0.80417958573E+01  0.98503528003E+01  0.51100000000E-03 0. -1.
        -11    1    3    3    0    0  0.38678032235E+02  0.30008316047E+01  0.20760622406E+01  0.38849777381E+02  0.51100000000E-03 0.  1.
         12    1    3    3    0    0 -0.39939964983E+02  0.17010380497E+01 -0.10403125844E+02  0.41307618675E+02  0.00000000000E+00 0. -1.
</event>
<event>
 7    1  0.2542335E-015  0.9000776E+02  0.7816164E-02  0.1186339E+00
        -11   -1    0    0    0    0  0.00000000000E+00  0.00000000000E+00  0.45593999997E+02  0.45594000000E+02  0.51100000000E-03 0.  1.
         11   -1    0    0    0    0 -0.00000000000E+00 -0.00000000000E+00 -0.45593999997E+02  0.45594000000E+02  0.51100000000E-03 0. -1.
    9900012    2    1    2    0    0 -0.40330689957E+00 -0.77994339562E+00 -0.78866302835E+00  0.90007763783E+02  0.90000025465E+02 0.  0.
        -12    1    1    2    0    0  0.40330689957E+00  0.77994339562E+00  0.78866302835E+00  0.11802362170E+01  0.00000000000E+00 0.  1.
         11    1    3    3    0    0 -0.15318395853E+02 -0.22356547342E+02 -0.25944815669E+02  0.37518021282E+02  0.51100000000E-03 0. -1.
        -11    1    3    3    0    0 -0.57554807326E+01  0.18724343203E+01 -0.71522620864E+01  0.93694408563E+01  0.51100000000E-03 0.  1.
        -12    1    3    3    0    0  0.20670569686E+02  0.19704169626E+02  0.32308414727E+02  0.43120301645E+02  0.00000000000E+00 0.  1.
</event>
<event>
 7    1  0.2542335E-015  0.9000774E+02  0.7816164E-02  0.1186339E+00
        -11   -1    0    0    0    0  0.00000000000E+00  0.00000000000E+00  0.45593999997E+02  0.45594000000E+02  0.51100000000E-03 0.  1.
         11   -1    0    0    0    0 -0.00000000000E+00 -0.00000000000E+00 -0.45593999997E+02  0.45594000000E+02  0.51100000000E-03 0. -1.
    9900012    2    1    2    0    0 -0.10929782729E+01 -0.38780582710E-01  0.44373127639E+00  0.90007744568E+02  0.90000005996E+02 0.  0.
        -12    1    1    2    0    0  0.10929782729E+01  0.38780582710E-01 -0.44373127639E+00  0.11802554318E+01  0.00000000000E+00 0.  1.
         11    1    3    3    0    0  0.55463293578E+01 -0.68366453905E+01 -0.30210084728E+01  0.93074154304E+01  0.51100000000E-03 0. -1.
        -11    1    3    3    0    0  0.10605182544E+02  0.43470908883E+01  0.39256483542E+02  0.40895459361E+02  0.51100000000E-03 0.  1.
         12    1    3    3    0    0 -0.17244490175E+02  0.24507739194E+01 -0.35791743793E+02  0.39804869777E+02  0.00000000000E+00 0. -1.
</event>
<event>
 7    1  0.2542335E-015  0.9000782E+02  0.7816164E-02  0.1186339E+00
        -11   -1    0    0    0    0  0.00000000000E+00  0.00000000000E+00  0.45593999997E+02  0.45594000000E+02  0.51100000000E-03 0.  1.
         11   -1    0    0    0    0 -0.00000000000E+00 -0.00000000000E+00 -0.45593999997E+02  0.45594000000E+02  0.51100000000E-03 0. -1.
    9900012    2    1    2    0    0 -0.67238098951E+00  0.57963623228E+00 -0.77765748838E+00  0.90007819706E+02  0.90000082126E+02 0.  0.
        -12    1    1    2    0    0  0.67238098951E+00 -0.57963623228E+00  0.77765748838E+00  0.11801802939E+01  0.00000000000E+00 0.  1.
         11    1    3    3    0    0  0.28620997965E+01 -0.97854771626E+01  0.23719206419E+01  0.10467721163E+02  0.51100000000E-03 0. -1.
        -11    1    3    3    0    0 -0.33620653351E+02 -0.15889863606E+02  0.80918295066E+01  0.38056718226E+02  0.51100000000E-03 0.  1.
         12    1    3    3    0    0  0.30086172565E+02  0.26254977000E+02 -0.11241407637E+02  0.41483380317E+02  0.00000000000E+00 0. -1.
</event>
<event>
 7    1  0.2579057E-015  0.9000763E+02  0.7816164E-02  0.1186339E+00
        -11   -1    0    0    0    0  0.00000000000E+00  0.00000000000E+00  0.45593999997E+02  0.45594000000E+02  0.51100000000E-03 0. -1.
         11   -1    0    0    0    0 -0.00000000000E+00 -0.00000000000E+00 -0.45593999997E+02  0.45594000000E+02  0.51100000000E-03 0.  1.
    9900012    2    1    2    0    0 -0.17117975121E+00  0.52954673978E+00  0.10409403743E+01  0.90007627550E+02  0.89999887434E+02 0.  0.
        -12    1    1    2    0    0  0.17117975121E+00 -0.52954673978E+00 -0.10409403743E+01  0.11803724496E+01  0.00000000000E+00 0.  1.
         11    1    3    3    0    0 -0.37800738010E+01 -0.94767083471E+01  0.29122221368E+00  0.10206947128E+02  0.51100000000E-03 0. -1.
        -11    1    3    3    0    0  0.33113585575E+02  0.14986890886E+02 -0.21754819133E+02  0.42360224312E+02  0.51100000000E-03 0.  1.
         12    1    3    3    0    0 -0.29504691525E+02 -0.49806357988E+01  0.22504537293E+02  0.37440456110E+02  0.00000000000E+00 0. -1.
</event>
<event>
 7    1  0.2542335E-015  0.9000775E+02  0.7816164E-02  0.1186339E+00
        -11   -1    0    0    0    0  0.00000000000E+00  0.00000000000E+00  0.45593999997E+02  0.45594000000E+02  0.51100000000E-03 0.  1.
         11   -1    0    0    0    0 -0.00000000000E+00 -0.00000000000E+00 -0.45593999997E+02  0.45594000000E+02  0.51100000000E-03 0. -1.
    9900012    2    1    2    0    0 -0.22819966644E+00 -0.51541382026E+00 -0.10369519804E+01  0.90007747526E+02  0.90000008993E+02 0.  0.
        -12    1    1    2    0    0  0.22819966644E+00  0.51541382026E+00  0.10369519804E+01  0.11802524745E+01  0.00000000000E+00 0.  1.
         11    1    3    3    0    0 -0.82236553218E+01 -0.33397196686E+01 -0.45274988749E+01  0.99639590846E+01  0.51100000000E-03 0. -1.
        -11    1    3    3    0    0  0.16839629385E+02  0.26030570801E+02  0.30403901003E+02  0.43423046076E+02  0.51100000000E-03 0.  1.
         12    1    3    3    0    0 -0.88441737293E+01 -0.23206264953E+02 -0.26913354108E+02  0.36620742365E+02  0.00000000000E+00 0. -1.
</event>
<event>
 7    1  0.2542335E-015  0.9000764E+02  0.7816164E-02  0.1186339E+00
        -11   -1    0    0    0    0  0.00000000000E+00  0.00000000000E+00  0.45593999997E+02  0.45594000000E+02  0.51100000000E-03 0.  1.
         11   -1    0    0    0    0 -0.00000000000E+00 -0.00000000000E+00 -0.45593999997E+02  0.45594000000E+02  0.51100000000E-03 0. -1.
    9900012    2    1    2    0    0  0.48039555660E+00 -0.65851968498E+00 -0.85371386459E+00  0.90007637586E+02  0.89999897602E+02 0.  0.
        -12    1    1    2    0    0 -0.48039555660E+00  0.65851968498E+00  0.85371386459E+00  0.11803624142E+01  0.00000000000E+00 0.  1.
         11    1    3    3    0    0  0.68895314397E+01  0.71471222925E+00  0.57604987790E+01  0.90088735962E+01  0.51100000000E-03 0. -1.
        -11    1    3    3    0    0 -0.18435696620E+02  0.42867333581E+01  0.33644179895E+02  0.38602873388E+02  0.51100000000E-03 0.  1.
         12    1    3    3    0    0  0.12026560737E+02 -0.56599652723E+01 -0.40258392539E+02  0.42395890601E+02  0.00000000000E+00 0. -1.
</event>
<event>
 7    1  0.2542335E-015  0.9000772E+02  0.7816164E-02  0.1186339E+00
        -11   -1    0    0    0    0  0.00000000000E+00  0.00000000000E+00  0.45593999997E+02  0.45594000000E+02  0.51100000000E-03 0. -1.
         11   -1    0    0    0    0 -0.00000000000E+00 -0.00000000000E+00 -0.45593999997E+02  0.45594000000E+02  0.51100000000E-03 0.  1.
    9900012    2    1    2    0    0  0.16075157972E-01  0.84932292871E+00  0.81941881397E+00  0.90007722473E+02  0.89999983610E+02 0.  0.
        -12    1    1    2    0    0 -0.16075157972E-01 -0.84932292871E+00 -0.81941881397E+00  0.11802775270E+01  0.00000000000E+00 0.  1.
         11    1    3    3    0    0  0.66512639751E+00 -0.89941273137E+00  0.69722907840E+01  0.70614570327E+01  0.51100000000E-03 0. -1.
        -11    1    3    3    0    0 -0.41019603252E+01 -0.40086808424E+02 -0.73037666568E+01  0.40952695831E+02  0.51100000000E-03 0.  1.
         12    1    3    3    0    0  0.34529090856E+01  0.41835544084E+02  0.11508946868E+01  0.41993569610E+02  0.00000000000E+00 0. -1.
</event>
<event>
 7    1  0.2542335E-015  0.9000773E+02  0.7816164E-02  0.1186339E+00
        -11   -1    0    0    0    0  0.00000000000E+00  0.00000000000E+00  0.45593999997E+02  0.45594000000E+02  0.51100000000E-03 0.  1.
         11   -1    0    0    0    0 -0.00000000000E+00 -0.00000000000E+00 -0.45593999997E+02  0.45594000000E+02  0.51100000000E-03 0. -1.
    9900012    2    1    2    0    0  0.89032955819E+00  0.77349369873E+00  0.45479892902E-01  0.90007725606E+02  0.89999986784E+02 0.  0.
        -12    1    1    2    0    0 -0.89032955819E+00 -0.77349369873E+00 -0.45479892902E-01  0.11802743939E+01  0.00000000000E+00 0.  1.
         11    1    3    3    0    0  0.37455363764E+02  0.21746588588E+01 -0.11417235303E+02  0.39217173254E+02  0.51100000000E-03 0. -1.
        -11    1    3    3    0    0  0.25799309026E+01  0.76763858275E+01 -0.21236835541E+01  0.83721547366E+01  0.51100000000E-03 0.  1.
        -12    1    3    3    0    0 -0.39144965108E+02 -0.90775509876E+01  0.13586398750E+02  0.42418397615E+02  0.00000000000E+00 0.  1.
</event>
<event>
 7    1  0.2542335E-015  0.9000777E+02  0.7816164E-02  0.1186339E+00
        -11   -1    0    0    0    0  0.00000000000E+00  0.00000000000E+00  0.45593999997E+02  0.45594000000E+02  0.51100000000E-03 0.  1.
         11   -1    0    0    0    0 -0.00000000000E+00 -0.00000000000E+00 -0.45593999997E+02  0.45594000000E+02  0.51100000000E-03 0. -1.
    9900012    2    1    2    0    0  0.41477538636E+00  0.98435160025E+00 -0.50195140207E+00  0.90007770402E+02  0.90000032171E+02 0.  0.
        -12    1    1    2    0    0 -0.41477538636E+00 -0.98435160025E+00  0.50195140207E+00  0.11802295980E+01  0.00000000000E+00 0.  1.
         11    1    3    3    0    0 -0.98549593964E+00  0.97751414478E-01 -0.94714798991E+01  0.95231134261E+01  0.51100000000E-03 0. -1.
        -11    1    3    3    0    0 -0.36642720103E+02  0.70928604192E+01  0.17159093216E+02  0.41078365178E+02  0.51100000000E-03 0.  1.
         12    1    3    3    0    0  0.38042991429E+02 -0.62062602335E+01 -0.81895647187E+01  0.39406291798E+02  0.00000000000E+00 0. -1.
</event>
<event>
 7    1  0.2542335E-015  0.9000775E+02  0.7816164E-02  0.1186339E+00
        -11   -1    0    0    0    0  0.00000000000E+00  0.00000000000E+00  0.45593999997E+02  0.45594000000E+02  0.51100000000E-03 0.  1.
         11   -1    0    0    0    0 -0.00000000000E+00 -0.00000000000E+00 -0.45593999997E+02  0.45594000000E+02  0.51100000000E-03 0. -1.
    9900012    2    1    2    0    0  0.60152056048E+00  0.46198329453E-01 -0.10144100797E+01  0.90007750416E+02  0.90000011922E+02 0.  0.
        -12    1    1    2    0    0 -0.60152056048E+00 -0.46198329453E-01  0.10144100797E+01  0.11802495838E+01  0.00000000000E+00 0.  1.
         11    1    3    3    0    0 -0.22079152795E+02  0.22514505975E+01 -0.29042616054E+02  0.36551765559E+02  0.51100000000E-03 0. -1.
        -11    1    3    3    0    0 -0.83586715290E+01 -0.74151499143E+01 -0.20385732236E+00  0.11175571397E+02  0.51100000000E-03 0.  1.
        -12    1    3    3    0    0  0.31039344884E+02  0.52098976462E+01  0.28232063297E+02  0.42280413460E+02  0.00000000000E+00 0.  1.
</event>
<event>
 7    1  0.2542335E-015  0.9000774E+02  0.7816164E-02  0.1186339E+00
        -11   -1    0    0    0    0  0.00000000000E+00  0.00000000000E+00  0.45593999997E+02  0.45594000000E+02  0.51100000000E-03 0.  1.
         11   -1    0    0    0    0 -0.00000000000E+00 -0.00000000000E+00 -0.45593999997E+02  0.45594000000E+02  0.51100000000E-03 0. -1.
    9900012    2    1    2    0    0 -0.82211170247E+00 -0.79572065575E+00 -0.28978638259E+00  0.90007739367E+02  0.90000000727E+02 0.  0.
        -12    1    1    2    0    0  0.82211170247E+00  0.79572065575E+00  0.28978638259E+00  0.11802606326E+01  0.00000000000E+00 0.  1.
         11    1    3    3    0    0 -0.30302531179E+02 -0.98272634113E+00 -0.31655864189E+02  0.43832669149E+02  0.51100000000E-03 0. -1.
        -11    1    3    3    0    0  0.60364926709E+01 -0.62346582982E+01  0.39495315674E+01  0.95346215302E+01  0.51100000000E-03 0.  1.
        -12    1    3    3    0    0  0.23443926806E+02  0.64216639836E+01  0.27416546239E+02  0.36640448688E+02  0.00000000000E+00 0.  1.
</event>
<event>
 7    1  0.2570170E-015  0.9000749E+02  0.7816164E-02  0.1186340E+00
        -11   -1    0    0    0    0  0.00000000000E+00  0.00000000000E+00  0.45593999997E+02  0.45594000000E+02  0.51100000000E-03 0. -1.
         11   -1    0    0    0    0 -0.00000000000E+00 -0.00000000000E+00 -0.45593999997E+02  0.45594000000E+02  0.51100000000E-03 0.  1.
    9900012    2    1    2    0    0  0.70275310953E+00 -0.70407002403E+00  0.63562293671E+00  0.90007494579E+02  0.89999752707E+02 0.  0.
        -12    1    1    2    0    0 -0.70275310953E+00  0.70407002403E+00 -0.63562293671E+00  0.11805054211E+01  0.00000000000E+00 0.  1.
         11    1    3    3    0    0 -0.42933704299E+01  0.57286883684E+01 -0.59821164898E+01  0.93293417790E+01  0.51100000000E-03 0. -1.
        -11    1    3    3    0    0  0.32207013232E+02  0.20487787876E+02 -0.91953426798E+01  0.39263156784E+02  0.51100000000E-03 0.  1.
         12    1    3    3    0    0 -0.27210889693E+02 -0.26920546269E+02  0.15813082106E+02  0.41414996016E+02  0.00000000000E+00 0. -1.
</event>
<event>
 7    1  0.2542335E-015  0.9000775E+02  0.7816164E-02  0.1186339E+00
        -11   -1    0    0    0    0  0.00000000000E+00  0.00000000000E+00  0.45593999997E+02  0.45594000000E+02  0.51100000000E-03 0.  1.
         11   -1    0    0    0    0 -0.00000000000E+00 -0.00000000000E+00 -0.45593999997E+02  0.45594000000E+02  0.51100000000E-03 0. -1.
    9900012    2    1    2    0    0  0.50058323472E+00 -0.41512986281E+00 -0.98492577864E+00  0.90007747837E+02  0.90000009309E+02 0.  0.
        -12    1    1    2    0    0 -0.50058323472E+00  0.41512986281E+00  0.98492577864E+00  0.11802521626E+01  0.00000000000E+00 0.  1.
         11    1    3    3    0    0 -0.10733976803E+02 -0.10105846707E+02 -0.38397342408E+02  0.41130308775E+02  0.51100000000E-03 0. -1.
        -11    1    3    3    0    0  0.39415495304E+01  0.55596346729E+01 -0.31143675502E+01  0.74929724339E+01  0.51100000000E-03 0.  1.
        -12    1    3    3    0    0  0.72930105070E+01  0.41310821709E+01  0.40526784180E+02  0.41384466628E+02  0.00000000000E+00 0.  1.
</event>
<event>
 7    1  0.2542335E-015  0.9000777E+02  0.7816164E-02  0.1186339E+00
        -11   -1    0    0    0    0  0.00000000000E+00  0.00000000000E+00  0.45593999997E+02  0.45594000000E+02  0.51100000000E-03 0.  1.
         11   -1    0    0    0    0 -0.00000000000E+00 -0.00000000000E+00 -0.45593999997E+02  0.45594000000E+02  0.51100000000E-03 0. -1.
    9900012    2    1    2    0    0  0.77344513511E+00  0.49985989167E+00 -0.73814952080E+00  0.90007770360E+02  0.90000032129E+02 0.  0.
        -12    1    1    2    0    0 -0.77344513511E+00 -0.49985989167E+00  0.73814952080E+00  0.11802296401E+01  0.00000000000E+00 0.  1.
         11    1    3    3    0    0 -0.29923438666E+02 -0.12669924979E+02 -0.21071929130E+02  0.38729386492E+02  0.51100000000E-03 0. -1.
        -11    1    3    3    0    0  0.49893550167E+01  0.22060837394E+01 -0.91504807005E+01  0.10653251441E+02  0.51100000000E-03 0.  1.
        -12    1    3    3    0    0  0.25707528784E+02  0.10963701131E+02  0.29484260309E+02  0.40625132427E+02  0.00000000000E+00 0.  1.
</event>
<event>
 7    1  0.2542335E-015  0.9000808E+02  0.7816164E-02  0.1186338E+00
        -11   -1    0    0    0    0  0.00000000000E+00  0.00000000000E+00  0.45593999997E+02  0.45594000000E+02  0.51100000000E-03 0.  1.
         11   -1    0    0    0    0 -0.00000000000E+00 -0.00000000000E+00 -0.45593999997E+02  0.45594000000E+02  0.51100000000E-03 0. -1.
    9900012    2    1    2    0    0  0.20904008313E+00  0.17114789328E+00 -0.11485722408E+01  0.90008081549E+02  0.90000347425E+02 0.  0.
        -12    1    1    2    0    0 -0.20904008313E+00 -0.17114789328E+00  0.11485722408E+01  0.11799184506E+01  0.00000000000E+00 0.  1.
         11    1    3    3    0    0  0.74761356709E+01  0.44149210988E+01 -0.36468588101E+01  0.94172029988E+01  0.51100000000E-03 0. -1.
        -11    1    3    3    0    0 -0.21997007775E+02 -0.23685289272E+02 -0.27139467228E+02  0.42206776241E+02  0.51100000000E-03 0.  1.
         12    1    3    3    0    0  0.14729912187E+02  0.19441516067E+02  0.29637753797E+02  0.38384102310E+02  0.00000000000E+00 0. -1.
</event>
<event>
 7    1  0.2542335E-015  0.9000777E+02  0.7816164E-02  0.1186339E+00
        -11   -1    0    0    0    0  0.00000000000E+00  0.00000000000E+00  0.45593999997E+02  0.45594000000E+02  0.51100000000E-03 0.  1.
         11   -1    0    0    0    0 -0.00000000000E+00 -0.00000000000E+00 -0.45593999997E+02  0.45594000000E+02  0.51100000000E-03 0. -1.
    9900012    2    1    2    0    0  0.20698038296E+00  0.11591387398E+01 -0.80682891524E-01  0.90007765605E+02  0.90000027311E+02 0.  0.
        -12    1    1    2    0    0 -0.20698038296E+00 -0.11591387398E+01  0.80682891524E-01  0.11802343945E+01  0.00000000000E+00 0.  1.
         11    1    3    3    0    0 -0.75746518174E-01  0.81938585566E+01  0.23839411120E+01  0.85339458088E+01  0.51100000000E-03 0. -1.
        -11    1    3    3    0    0  0.12966991266E+01 -0.76137897262E+01  0.39118828597E+02  0.39873976146E+02  0.51100000000E-03 0.  1.
         12    1    3    3    0    0 -0.10139722255E+01  0.57906990935E+00 -0.41583452600E+02  0.41599843651E+02  0.00000000000E+00 0. -1.
</event>
<event>
 7    1  0.2542335E-015  0.9000776E+02  0.7816164E-02  0.1186339E+00
        -11   -1    0    0    0    0  0.00000000000E+00  0.00000000000E+00  0.45593999997E+02  0.45594000000E+02  0.51100000000E-03 0.  1.
         11   -1    0    0    0    0 -0.00000000000E+00 -0.00000000000E+00 -0.45593999997E+02  0.45594000000E+02  0.51100000000E-03 0. -1.
    9900012    2    1    2    0    0 -0.83492232224E+00  0.83239015582E+00 -0.54720507493E-01  0.90007761469E+02  0.90000023121E+02 0.  0.
        -12    1    1    2    0    0  0.83492232224E+00 -0.83239015582E+00  0.54720507493E-01  0.11802385308E+01  0.00000000000E+00 0.  1.
         11    1    3    3    0    0  0.93578411540E+01 -0.24226369856E+01 -0.38956207646E+01  0.10421814738E+02  0.51100000000E-03 0. -1.
        -11    1    3    3    0    0  0.10993537126E+02  0.10405888536E+02  0.36780537737E+02  0.39773714074E+02  0.51100000000E-03 0.  1.
         12    1    3    3    0    0 -0.21186300602E+02 -0.71508613946E+01 -0.32939637479E+02  0.39812232658E+02  0.00000000000E+00 0. -1.
</event>
<event>
 7    1  0.2542335E-015  0.9000773E+02  0.7816164E-02  0.1186339E+00
        -11   -1    0    0    0    0  0.00000000000E+00  0.00000000000E+00  0.45593999997E+02  0.45594000000E+02  0.51100000000E-03 0. -1.
         11   -1    0    0    0    0 -0.00000000000E+00 -0.00000000000E+00 -0.45593999997E+02  0.45594000000E+02  0.51100000000E-03 0.  1.
    9900012    2    1    2    0    0 -0.32803487735E+00 -0.32433845999E-01  0.11332995996E+01  0.90007734429E+02  0.89999995724E+02 0.  0.
        -12    1    1    2    0    0  0.32803487735E+00  0.32433845999E-01 -0.11332995996E+01  0.11802655708E+01  0.00000000000E+00 0.  1.
         11    1    3    3    0    0 -0.32468723985E+02 -0.15560635155E+02  0.10550215766E+02  0.37518774722E+02  0.51100000000E-03 0. -1.
        -11    1    3    3    0    0 -0.67205368477E+01 -0.31691337864E+01 -0.53834065008E+01  0.91755158052E+01  0.51100000000E-03 0.  1.
        -12    1    3    3    0    0  0.38861225955E+02  0.18697335096E+02 -0.40335096653E+01  0.43313443902E+02  0.00000000000E+00 0.  1.
</event>
<event>
 7    1  0.2542335E-015  0.9000768E+02  0.7816164E-02  0.1186339E+00
        -11   -1    0    0    0    0  0.00000000000E+00  0.00000000000E+00  0.45593999997E+02  0.45594000000E+02  0.51100000000E-03 0.  1.
         11   -1    0    0    0    0 -0.00000000000E+00 -0.00000000000E+00 -0.45593999997E+02  0.45594000000E+02  0.51100000000E-03 0. -1.
    9900012    2    1    2    0    0 -0.98989507909E+00  0.61115536028E+00  0.19939461471E+00  0.90007677436E+02  0.89999937978E+02 0.  0.
        -12    1    1    2    0    0  0.98989507909E+00 -0.61115536028E+00 -0.19939461471E+00  0.11803225637E+01  0.00000000000E+00 0.  1.
         11    1    3    3    0    0 -0.29687805916E+02  0.18746401758E+02 -0.20488853861E+01  0.35170887543E+02  0.51100000000E-03 0. -1.
        -11    1    3    3    0    0 -0.96207886381E+01  0.38754167895E+01 -0.15339511428E+01  0.10484819297E+02  0.51100000000E-03 0.  1.
        -12    1    3    3    0    0  0.38318699475E+02 -0.22010663188E+02  0.37822311436E+01  0.44351970597E+02  0.00000000000E+00 0.  1.
</event>
<event>
 7    1  0.2542335E-015  0.9000790E+02  0.7816164E-02  0.1186339E+00
        -11   -1    0    0    0    0  0.00000000000E+00  0.00000000000E+00  0.45593999997E+02  0.45594000000E+02  0.51100000000E-03 0.  1.
         11   -1    0    0    0    0 -0.00000000000E+00 -0.00000000000E+00 -0.45593999997E+02  0.45594000000E+02  0.51100000000E-03 0. -1.
    9900012    2    1    2    0    0 -0.62729185359E+00  0.94219138765E+00 -0.33379490704E+00  0.90007898852E+02  0.90000162316E+02 0.  0.
        -12    1    1    2    0    0  0.62729185359E+00 -0.94219138765E+00  0.33379490704E+00  0.11801011484E+01  0.00000000000E+00 0.  1.
         11    1    3    3    0    0  0.25044308010E+02  0.22218450025E+02  0.12408842821E+02  0.35705129402E+02  0.51100000000E-03 0. -1.
        -11    1    3    3    0    0  0.65901657395E+01  0.34747999300E+01  0.59644172376E+01  0.95435209578E+01  0.51100000000E-03 0.  1.
        -12    1    3    3    0    0 -0.32261765603E+02 -0.24751058567E+02 -0.18707054966E+02  0.44759248491E+02  0.00000000000E+00 0.  1.
</event>
<event>
 7    1  0.2542335E-015  0.9000772E+02  0.7816164E-02  0.1186339E+00
        -11   -1    0    0    0    0  0.00000000000E+00  0.00000000000E+00  0.45593999997E+02  0.45594000000E+02  0.51100000000E-03 0.  1.
         11   -1    0    0    0    0 -0.00000000000E+00 -0.00000000000E+00 -0.45593999997E+02  0.45594000000E+02  0.51100000000E-03 0. -1.
    9900012    2    1    2    0    0 -0.42546035201E+00  0.10833010985E+01 -0.19623384648E+00  0.90007718041E+02  0.89999979119E+02 0.  0.
        -12    1    1    2    0    0  0.42546035201E+00 -0.10833010985E+01  0.19623384648E+00  0.11802819594E+01  0.00000000000E+00 0.  1.
         11    1    3    3    0    0 -0.46631092711E+01 -0.77305885178E+01 -0.61869431706E+01  0.10944626671E+02  0.51100000000E-03 0. -1.
        -11    1    3    3    0    0  0.66894372247E+01  0.43512244243E+02  0.23096407525E+01  0.44083992675E+02  0.51100000000E-03 0.  1.
         12    1    3    3    0    0 -0.24517883056E+01 -0.34698354627E+02  0.36810685716E+01  0.34979098695E+02  0.00000000000E+00 0. -1.
</event>
<event>
 7    1  0.2542335E-015  0.9000778E+02  0.7816164E-02  0.1186339E+00
        -11   -1    0    0    0    0  0.00000000000E+00  0.00000000000E+00  0.45593999997E+02  0.45594000000E+02  0.51100000000E-03 0.  1.
         11   -1    0    0    0    0 -0.00000000000E+00 -0.00000000000E+00 -0.45593999997E+02  0.45594000000E+02  0.51100000000E-03 0. -1.
    9900012    2    1    2    0    0  0.64471083429E+00 -0.76742492249E+00 -0.62315245650E+00  0.90007783047E+02  0.90000044983E+02 0.  0.
        -12    1    1    2    0    0 -0.64471083429E+00  0.76742492249E+00  0.62315245650E+00  0.11802169527E+01  0.00000000000E+00 0.  1.
         11    1    3    3    0    0  0.29938310790E+02 -0.28161161278E+02 -0.75533170887E+00  0.41108685016E+02  0.51100000000E-03 0. -1.
        -11    1    3    3    0    0 -0.26115511845E+01  0.40652949251E+01  0.10845473882E+02  0.11873126227E+02  0.51100000000E-03 0.  1.
        -12    1    3    3    0    0 -0.26682048772E+02  0.23328441430E+02 -0.10713294630E+02  0.37025971804E+02  0.00000000000E+00 0.  1.
</event>
<event>
 7    1  0.2542335E-015  0.9000775E+02  0.7816164E-02  0.1186339E+00
        -11   -1    0    0    0    0  0.00000000000E+00  0.00000000000E+00  0.45593999997E+02  0.45594000000E+02  0.51100000000E-03 0. -1.
         11   -1    0    0    0    0 -0.00000000000E+00 -0.00000000000E+00 -0.45593999997E+02  0.45594000000E+02  0.51100000000E-03 0.  1.
    9900012    2    1    2    0    0 -0.19759193447E+00 -0.75375858102E+00  0.88645617178E+00  0.90007746165E+02  0.90000007614E+02 0.  0.
        -12    1    1    2    0    0  0.19759193447E+00  0.75375858102E+00 -0.88645617178E+00  0.11802538352E+01  0.00000000000E+00 0.  1.
         11    1    3    3    0    0 -0.73594963319E+01 -0.35336674145E+00 -0.26587925894E+01  0.78330219333E+01  0.51100000000E-03 0. -1.
        -11    1    3    3    0    0  0.21909895584E+02 -0.13795421531E+02 -0.32160035455E+02  0.41287105256E+02  0.51100000000E-03 0.  1.
         12    1    3    3    0    0 -0.14747991186E+02  0.13395029691E+02  0.35705284216E+02  0.40887618975E+02  0.00000000000E+00 0. -1.
</event>
<event>
 7    1  0.2542335E-015  0.9000766E+02  0.7816164E-02  0.1186339E+00
        -11   -1    0    0    0    0  0.00000000000E+00  0.00000000000E+00  0.45593999997E+02  0.45594000000E+02  0.51100000000E-03 0. -1.
         11   -1    0    0    0    0 -0.00000000000E+00 -0.00000000000E+00 -0.45593999997E+02  0.45594000000E+02  0.51100000000E-03 0.  1.
    9900012    2    1    2    0    0 -0.80445824659E+00  0.85378346166E+00  0.13075726316E+00  0.90007662450E+02  0.89999922794E+02 0.  0.
        -12    1    1    2    0    0  0.80445824659E+00 -0.85378346166E+00 -0.13075726316E+00  0.11803375499E+01  0.00000000000E+00 0.  1.
         11    1    3    3    0    0 -0.99331423610E+01  0.37751914180E+02  0.17223174649E+02  0.42667459342E+02  0.51100000000E-03 0. -1.
        -11    1    3    3    0    0 -0.41925841753E+01 -0.28674802081E+01 -0.83345895003E+01  0.97604091723E+01  0.51100000000E-03 0.  1.
        -12    1    3    3    0    0  0.13321268290E+02 -0.34030650510E+02 -0.87578278853E+01  0.37579793936E+02  0.00000000000E+00 0.  1.
</event>
<event>
 7    1  0.2542335E-015  0.9000776E+02  0.7816164E-02  0.1186339E+00
        -11   -1    0    0    0    0  0.00000000000E+00  0.00000000000E+00  0.45593999997E+02  0.45594000000E+02  0.51100000000E-03 0.  1.
         11   -1    0    0    0    0 -0.00000000000E+00 -0.00000000000E+00 -0.45593999997E+02  0.45594000000E+02  0.51100000000E-03 0. -1.
    9900012    2    1    2    0    0  0.30534800191E+00  0.20974310266E+00 -0.11205935200E+01  0.90007762986E+02  0.90000024658E+02 0.  0.
        -12    1    1    2    0    0 -0.30534800191E+00 -0.20974310266E+00  0.11205935200E+01  0.11802370137E+01  0.00000000000E+00 0.  1.
         11    1    3    3    0    0 -0.61991246692E+01 -0.70346174232E+01  0.48385331137E+00  0.93887753857E+01  0.51100000000E-03 0. -1.
        -11    1    3    3    0    0  0.37911788591E+02  0.30058395759E+01  0.19305723338E+02  0.42650319338E+02  0.51100000000E-03 0.  1.
         12    1    3    3    0    0 -0.31407315920E+02  0.42385209499E+01 -0.20910170169E+02  0.37968668263E+02  0.00000000000E+00 0. -1.
</event>
<event>
 7    1  0.2542335E-015  0.9000781E+02  0.7816164E-02  0.1186339E+00
        -11   -1    0    0    0    0  0.00000000000E+00  0.00000000000E+00  0.45593999997E+02  0.45594000000E+02  0.51100000000E-03 0. -1.
         11   -1    0    0    0    0 -0.00000000000E+00 -0.00000000000E+00 -0.45593999997E+02  0.45594000000E+02  0.51100000000E-03 0.  1.
    9900012    2    1    2    0    0  0.68142963111E+00 -0.90954851973E+00  0.31815588511E+00  0.90007810177E+02  0.90000072471E+02 0.  0.
        -12    1    1    2    0    0 -0.68142963111E+00  0.90954851973E+00 -0.31815588511E+00  0.11801898233E+01  0.00000000000E+00 0.  1.
         11    1    3    3    0    0 -0.32610460092E+01 -0.39824993142E+01 -0.88119507701E+01  0.10205155486E+02  0.51100000000E-03 0. -1.
        -11    1    3    3    0    0  0.11710521347E+02 -0.29393892450E+02 -0.18338636825E+02  0.36571065399E+02  0.51100000000E-03 0.  1.
         12    1    3    3    0    0 -0.77680457066E+01  0.32466843244E+02  0.27468743480E+02  0.43231589292E+02  0.00000000000E+00 0. -1.
</event>
<event>
 7    1  0.2542335E-015  0.9000775E+02  0.7816164E-02  0.1186339E+00
        -11   -1    0    0    0    0  0.00000000000E+00  0.00000000000E+00  0.45593999997E+02  0.45594000000E+02  0.51100000000E-03 0.  1.
         11   -1    0    0    0    0 -0.00000000000E+00 -0.00000000000E+00 -0.45593999997E+02  0.45594000000E+02  0.51100000000E-03 0. -1.
    9900012    2    1    2    0    0 -0.59336402450E+00 -0.83601694252E+00 -0.58480094141E+00  0.90007746919E+02  0.90000008378E+02 0.  0.
        -12    1    1    2    0    0  0.59336402450E+00  0.83601694252E+00  0.58480094141E+00  0.11802530808E+01  0.00000000000E+00 0.  1.
         11    1    3    3    0    0  0.97424966992E+01 -0.72273795766E+01 -0.30010501216E+02  0.32369452281E+02  0.51100000000E-03 0. -1.
        -11    1    3    3    0    0 -0.57187997988E+01 -0.26988478230E+01 -0.12758413628E+02  0.14239577566E+02  0.51100000000E-03 0.  1.
        -12    1    3    3    0    0 -0.46170609249E+01  0.90902104571E+01  0.42184113902E+02  0.43398717072E+02  0.00000000000E+00 0.  1.
</event>
<event>
 7    1  0.2542335E-015  0.9000720E+02  0.7816164E-02  0.1186340E+00
        -11   -1    0    0    0    0  0.00000000000E+00  0.00000000000E+00  0.45593999997E+02  0.45594000000E+02  0.51100000000E-03 0.  1.
         11   -1    0    0    0    0 -0.00000000000E+00 -0.00000000000E+00 -0.45593999997E+02  0.45594000000E+02  0.51100000000E-03 0. -1.
    9900012    2    1    2    0    0 -0.81810331840E+00  0.69797678691E+00 -0.48768131620E+00  0.90007196163E+02  0.89999450351E+02 0.  0.
        -12    1    1    2    0    0  0.81810331840E+00 -0.69797678691E+00  0.48768131620E+00  0.11808038367E+01  0.00000000000E+00 0.  1.
         11    1    3    3    0    0 -0.39005343951E+01  0.63974871938E+01 -0.99081194463E+01  0.12422272022E+02  0.51100000000E-03 0. -1.
        -11    1    3    3    0    0  0.18236766915E+01  0.25749999448E+02 -0.21401408395E+02  0.33532201684E+02  0.51100000000E-03 0.  1.
         12    1    3    3    0    0  0.12587543852E+01 -0.31449509855E+02  0.30821846525E+02  0.44052722457E+02  0.00000000000E+00 0. -1.
</event>
<event>
 7    1  0.2542335E-015  0.9000778E+02  0.7816164E-02  0.1186339E+00
        -11   -1    0    0    0    0  0.00000000000E+00  0.00000000000E+00  0.45593999997E+02  0.45594000000E+02  0.51100000000E-03 0.  1.
         11   -1    0    0    0    0 -0.00000000000E+00 -0.00000000000E+00 -0.45593999997E+02  0.45594000000E+02  0.51100000000E-03 0. -1.
    9900012    2    1    2    0    0 -0.70492886093E+00  0.30219437245E+00 -0.89704002123E+00  0.90007776743E+02  0.90000038596E+02 0.  0.
        -12    1    1    2    0    0  0.70492886093E+00 -0.30219437245E+00  0.89704002123E+00  0.11802232574E+01  0.00000000000E+00 0.  1.
         11    1    3    3    0    0  0.12411471264E+02  0.37625109559E+02 -0.17588406683E+02  0.43347958870E+02  0.51100000000E-03 0. -1.
        -11    1    3    3    0    0 -0.10763794984E+01 -0.48534704200E+01 -0.39458615144E+01  0.63470143606E+01  0.51100000000E-03 0.  1.
        -12    1    3    3    0    0 -0.12040020627E+02 -0.32469444767E+02  0.20637228176E+02  0.40312803512E+02  0.00000000000E+00 0.  1.
</event>
<event>
 7    1  0.2542335E-015  0.9000767E+02  0.7816164E-02  0.1186339E+00
        -11   -1    0    0    0    0  0.00000000000E+00  0.00000000000E+00  0.45593999997E+02  0.45594000000E+02  0.51100000000E-03 0. -1.
         11   -1    0    0    0    0 -0.00000000000E+00 -0.00000000000E+00 -0.45593999997E+02  0.45594000000E+02  0.51100000000E-03 0.  1.
    9900012    2    1    2    0    0  0.11703460163E+01  0.14299852014E+00  0.54966219453E-01  0.90007669682E+02  0.89999930122E+02 0.  0.
        -12    1    1    2    0    0 -0.11703460163E+01 -0.14299852014E+00 -0.54966219453E-01  0.11803303181E+01  0.00000000000E+00 0.  1.
         11    1    3    3    0    0  0.19365776850E+02  0.30584150764E+01  0.23895247627E+02  0.30909061377E+02  0.51100000000E-03 0. -1.
        -11    1    3    3    0    0 -0.63309268884E+00 -0.11173491164E+02  0.13185720857E+02  0.17294824253E+02  0.51100000000E-03 0.  1.
        -12    1    3    3    0    0 -0.17562338145E+02  0.82580746080E+01 -0.37026002265E+02  0.41803784052E+02  0.00000000000E+00 0.  1.
</event>
<event>
 7    1  0.2542335E-015  0.9000766E+02  0.7816164E-02  0.1186339E+00
        -11   -1    0    0    0    0  0.00000000000E+00  0.00000000000E+00  0.45593999997E+02  0.45594000000E+02  0.51100000000E-03 0.  1.
         11   -1    0    0    0    0 -0.00000000000E+00 -0.00000000000E+00 -0.45593999997E+02  0.45594000000E+02  0.51100000000E-03 0. -1.
    9900012    2    1    2    0    0 -0.49167534874E+00 -0.10579719776E+01  0.17933232072E+00  0.90007657069E+02  0.89999917342E+02 0.  0.
        -12    1    1    2    0    0  0.49167534874E+00  0.10579719776E+01 -0.17933232072E+00  0.11803429311E+01  0.00000000000E+00 0.  1.
         11    1    3    3    0    0 -0.78385224519E+01 -0.10637929806E+01 -0.11032608061E+02  0.13575438505E+02  0.51100000000E-03 0. -1.
        -11    1    3    3    0    0 -0.16776044634E+02 -0.24656451670E+02 -0.14736177391E+02  0.33264563831E+02  0.51100000000E-03 0.  1.
         12    1    3    3    0    0  0.24122891737E+02  0.24662272673E+02  0.25948117772E+02  0.43167654732E+02  0.00000000000E+00 0. -1.
</event>
<event>
 7    1  0.2542335E-015  0.9000778E+02  0.7816164E-02  0.1186339E+00
        -11   -1    0    0    0    0  0.00000000000E+00  0.00000000000E+00  0.45593999997E+02  0.45594000000E+02  0.51100000000E-03 0. -1.
         11   -1    0    0    0    0 -0.00000000000E+00 -0.00000000000E+00 -0.45593999997E+02  0.45594000000E+02  0.51100000000E-03 0.  1.
    9900012    2    1    2    0    0 -0.67981955605E+00  0.52106452824E+00  0.81194752146E+00  0.90007778983E+02  0.90000040866E+02 0.  0.
        -12    1    1    2    0    0  0.67981955605E+00 -0.52106452824E+00 -0.81194752146E+00  0.11802210170E+01  0.00000000000E+00 0.  1.
         11    1    3    3    0    0 -0.26217670375E+02 -0.24416432318E+02  0.89260668662E+01  0.36921580099E+02  0.51100000000E-03 0. -1.
        -11    1    3    3    0    0 -0.33793044737E+01 -0.79539916876E+01 -0.73452311106E+00  0.86732466213E+01  0.51100000000E-03 0.  1.
        -12    1    3    3    0    0  0.28917155293E+02  0.32891488533E+02 -0.73795962337E+01  0.44412952263E+02  0.00000000000E+00 0.  1.
</event>
<event>
 7    1  0.2542335E-015  0.9000761E+02  0.7816164E-02  0.1186339E+00
        -11   -1    0    0    0    0  0.00000000000E+00  0.00000000000E+00  0.45593999997E+02  0.45594000000E+02  0.51100000000E-03 0. -1.
         11   -1    0    0    0    0 -0.00000000000E+00 -0.00000000000E+00 -0.45593999997E+02  0.45594000000E+02  0.51100000000E-03 0.  1.
    9900012    2    1    2    0    0 -0.38743257746E+00 -0.84201785906E+00 -0.73091219402E+00  0.90007605696E+02  0.89999865291E+02 0.  0.
        -12    1    1    2    0    0  0.38743257746E+00  0.84201785906E+00  0.73091219402E+00  0.11803943038E+01  0.00000000000E+00 0.  1.
         11    1    3    3    0    0  0.41549374027E+02  0.85617024200E+01  0.48120503374E+01  0.42694368001E+02  0.51100000000E-03 0. -1.
        -11    1    3    3    0    0  0.18403854081E+01  0.24696842127E+00 -0.13367972672E+01  0.22880207705E+01  0.51100000000E-03 0.  1.
        -12    1    3    3    0    0 -0.43777192012E+02 -0.96506887003E+01 -0.42061652643E+01  0.45025216924E+02  0.00000000000E+00 0.  1.
</event>
<event>
 7    1  0.2542335E-015  0.9000762E+02  0.7816164E-02  0.1186339E+00
        -11   -1    0    0    0    0  0.00000000000E+00  0.00000000000E+00  0.45593999997E+02  0.45594000000E+02  0.51100000000E-03 0. -1.
         11   -1    0    0    0    0 -0.00000000000E+00 -0.00000000000E+00 -0.45593999997E+02  0.45594000000E+02  0.51100000000E-03 0.  1.
    9900012    2    1    2    0    0  0.63951155836E+00  0.59369930047E+00  0.79489105305E+00  0.90007616300E+02  0.89999876035E+02 0.  0.
        -12    1    1    2    0    0 -0.63951155836E+00 -0.59369930047E+00 -0.79489105305E+00  0.11803836998E+01  0.00000000000E+00 0.  1.
         11    1    3    3    0    0 -0.53677811036E+01 -0.95322766682E+01 -0.56084045960E+01  0.12293558266E+02  0.51100000000E-03 0. -1.
        -11    1    3    3    0    0 -0.33272711235E+02 -0.78887770143E+01  0.15782531574E+01  0.34231520548E+02  0.51100000000E-03 0.  1.
         12    1    3    3    0    0  0.39280003897E+02  0.18014752983E+02  0.48250424917E+01  0.43482537487E+02  0.00000000000E+00 0. -1.
</event>
<event>
 7    1  0.2542335E-015  0.9000765E+02  0.7816164E-02  0.1186339E+00
        -11   -1    0    0    0    0  0.00000000000E+00  0.00000000000E+00  0.45593999997E+02  0.45594000000E+02  0.51100000000E-03 0. -1.
         11   -1    0    0    0    0 -0.00000000000E+00 -0.00000000000E+00 -0.45593999997E+02  0.45594000000E+02  0.51100000000E-03 0.  1.
    9900012    2    1    2    0    0  0.10036706998E+01  0.47982543772E+00  0.39450284051E+00  0.90007652672E+02  0.89999912887E+02 0.  0.
        -12    1    1    2    0    0 -0.10036706998E+01 -0.47982543772E+00 -0.39450284051E+00  0.11803473283E+01  0.00000000000E+00 0.  1.
         11    1    3    3    0    0  0.15264614329E+02 -0.27565538520E+02 -0.25696812756E+02  0.40659482911E+02  0.51100000000E-03 0. -1.
        -11    1    3    3    0    0 -0.12051764623E+01  0.40143420800E+01 -0.59146560999E+01  0.72491757933E+01  0.51100000000E-03 0.  1.
        -12    1    3    3    0    0 -0.13055767166E+02  0.24031021878E+02  0.32005971697E+02  0.42098993967E+02  0.00000000000E+00 0.  1.
</event>
<event>
 7    1  0.2590371E-015  0.9000777E+02  0.7816164E-02  0.1186339E+00
        -11   -1    0    0    0    0  0.00000000000E+00  0.00000000000E+00  0.45593999997E+02  0.45594000000E+02  0.51100000000E-03 0. -1.
         11   -1    0    0    0    0 -0.00000000000E+00 -0.00000000000E+00 -0.45593999997E+02  0.45594000000E+02  0.51100000000E-03 0.  1.
    9900012    2    1    2    0    0  0.37058736107E+00  0.10015596866E+01  0.50247945040E+00  0.90007770194E+02  0.90000031960E+02 0.  0.
        -12    1    1    2    0    0 -0.37058736107E+00 -0.10015596866E+01 -0.50247945040E+00  0.11802298065E+01  0.00000000000E+00 0.  1.
         11    1    3    3    0    0  0.10461256997E+01 -0.43908995868E+01  0.85142865383E+01  0.96367761040E+01  0.51100000000E-03 0. -1.
        -11    1    3    3    0    0 -0.28305564786E+02  0.21346835423E+02  0.17484340586E+02  0.39529666662E+02  0.51100000000E-03 0.  1.
         12    1    3    3    0    0  0.27630026448E+02 -0.15954376149E+02 -0.25496147674E+02  0.40841327427E+02  0.00000000000E+00 0. -1.
</event>
<event>
 7    1  0.2542335E-015  0.9000768E+02  0.7816164E-02  0.1186339E+00
        -11   -1    0    0    0    0  0.00000000000E+00  0.00000000000E+00  0.45593999997E+02  0.45594000000E+02  0.51100000000E-03 0. -1.
         11   -1    0    0    0    0 -0.00000000000E+00 -0.00000000000E+00 -0.45593999997E+02  0.45594000000E+02  0.51100000000E-03 0.  1.
    9900012    2    1    2    0    0 -0.18080603811E+00  0.11644450653E+01  0.67407360795E-01  0.90007675093E+02  0.89999935604E+02 0.  0.
        -12    1    1    2    0    0  0.18080603811E+00 -0.11644450653E+01 -0.67407360795E-01  0.11803249069E+01  0.00000000000E+00 0.  1.
         11    1    3    3    0    0  0.10358777984E+02 -0.17969200190E+02 -0.11557852298E+02  0.23744060032E+02  0.51100000000E-03 0. -1.
        -11    1    3    3    0    0  0.11698434428E+02 -0.17126782342E+02 -0.36657858981E+01  0.21062241760E+02  0.51100000000E-03 0.  1.
        -12    1    3    3    0    0 -0.22238018450E+02  0.36260427597E+02  0.15291045556E+02  0.45201373301E+02  0.00000000000E+00 0.  1.
</event>
<event>
 7    1  0.2542335E-015  0.9000776E+02  0.7816164E-02  0.1186339E+00
        -11   -1    0    0    0    0  0.00000000000E+00  0.00000000000E+00  0.45593999997E+02  0.45594000000E+02  0.51100000000E-03 0. -1.
         11   -1    0    0    0    0 -0.00000000000E+00 -0.00000000000E+00 -0.45593999997E+02  0.45594000000E+02  0.51100000000E-03 0.  1.
    9900012    2    1    2    0    0 -0.11152477206E+01  0.15978766251E+00  0.35164595899E+00  0.90007760848E+02  0.90000022491E+02 0.  0.
        -12    1    1    2    0    0  0.11152477206E+01 -0.15978766251E+00 -0.35164595899E+00  0.11802391520E+01  0.00000000000E+00 0.  1.
         11    1    3    3    0    0  0.77535457743E+01 -0.38362165181E+01 -0.10232587208E+02  0.13399248877E+02  0.51100000000E-03 0. -1.
        -11    1    3    3    0    0 -0.24424764410E+02  0.16471722485E+02 -0.23118851090E+02  0.37448204685E+02  0.51100000000E-03 0.  1.
         12    1    3    3    0    0  0.15555970915E+02 -0.12475718304E+02  0.33703084257E+02  0.39160307286E+02  0.00000000000E+00 0. -1.
</event>
<event>
 7    1  0.2542335E-015  0.9000773E+02  0.7816164E-02  0.1186339E+00
        -11   -1    0    0    0    0  0.00000000000E+00  0.00000000000E+00  0.45593999997E+02  0.45594000000E+02  0.51100000000E-03 0.  1.
         11   -1    0    0    0    0 -0.00000000000E+00 -0.00000000000E+00 -0.45593999997E+02  0.45594000000E+02  0.51100000000E-03 0. -1.
    9900012    2    1    2    0    0  0.80665883311E+00 -0.86702642594E-02 -0.86155367853E+00  0.90007725292E+02  0.89999986465E+02 0.  0.
        -12    1    1    2    0    0 -0.80665883311E+00  0.86702642594E-02  0.86155367853E+00  0.11802747085E+01  0.00000000000E+00 0.  1.
         11    1    3    3    0    0 -0.22069641401E+02 -0.33561780777E+02 -0.33085542313E+01  0.40303954295E+02  0.51100000000E-03 0. -1.
        -11    1    3    3    0    0 -0.67786162863E+01  0.67178914415E+01 -0.80517468366E+00  0.95774741299E+01  0.51100000000E-03 0.  1.
        -12    1    3    3    0    0  0.29654916520E+02  0.26835219071E+02  0.32521752364E+01  0.40126296866E+02  0.00000000000E+00 0.  1.
</event>
<event>
 7    1  0.2542335E-015  0.9000777E+02  0.7816164E-02  0.1186339E+00
        -11   -1    0    0    0    0  0.00000000000E+00  0.00000000000E+00  0.45593999997E+02  0.45594000000E+02  0.51100000000E-03 0. -1.
         11   -1    0    0    0    0 -0.00000000000E+00 -0.00000000000E+00 -0.45593999997E+02  0.45594000000E+02  0.51100000000E-03 0.  1.
    9900012    2    1    2    0    0  0.62195129684E+00  0.88503952589E+00  0.47204963455E+00  0.90007767296E+02  0.90000029024E+02 0.  0.
        -12    1    1    2    0    0 -0.62195129684E+00 -0.88503952589E+00 -0.47204963455E+00  0.11802327040E+01  0.00000000000E+00 0.  1.
         11    1    3    3    0    0  0.39634652566E+01 -0.52274127003E+01  0.84008720549E+00  0.66136712311E+01  0.51100000000E-03 0. -1.
        -11    1    3    3    0    0 -0.17065756634E+02  0.32329655321E+02  0.25105613136E+02  0.44347925249E+02  0.51100000000E-03 0.  1.
         12    1    3    3    0    0  0.13724242674E+02 -0.26217203095E+02 -0.25473650707E+02  0.39046170816E+02  0.00000000000E+00 0. -1.
</event>
<event>
 7    1  0.2542335E-015  0.9000766E+02  0.7816164E-02  0.1186339E+00
        -11   -1    0    0    0    0  0.00000000000E+00  0.00000000000E+00  0.45593999997E+02  0.45594000000E+02  0.51100000000E-03 0.  1.
         11   -1    0    0    0    0 -0.00000000000E+00 -0.00000000000E+00 -0.45593999997E+02  0.45594000000E+02  0.51100000000E-03 0. -1.
    9900012    2    1    2    0    0 -0.26048622469E+00 -0.99325113599E+00  0.58205763031E+00  0.90007664464E+02  0.89999924835E+02 0.  0.
        -12    1    1    2    0    0  0.26048622469E+00  0.99325113599E+00 -0.58205763031E+00  0.11803355359E+01  0.00000000000E+00 0.  1.
         11    1    3    3    0    0 -0.21647970556E+01 -0.72365987413E+01  0.56210174019E+01  0.94154418127E+01  0.51100000000E-03 0. -1.
        -11    1    3    3    0    0 -0.23050772399E-02  0.36741052783E+02  0.19322747837E+02  0.41512330086E+02  0.51100000000E-03 0.  1.
         12    1    3    3    0    0  0.19066159081E+01 -0.30497705178E+02 -0.24361707609E+02  0.39079892566E+02  0.00000000000E+00 0. -1.
</event>
<event>
 7    1  0.2542335E-015  0.9000735E+02  0.7816164E-02  0.1186340E+00
        -11   -1    0    0    0    0  0.00000000000E+00  0.00000000000E+00  0.45593999997E+02  0.45594000000E+02  0.51100000000E-03 0.  1.
         11   -1    0    0    0    0 -0.00000000000E+00 -0.00000000000E+00 -0.45593999997E+02  0.45594000000E+02  0.51100000000E-03 0. -1.
    9900012    2    1    2    0    0 -0.37148068388E+00 -0.80392660498E+00 -0.78079613024E+00  0.90007348281E+02  0.89999604477E+02 0.  0.
        -12    1    1    2    0    0  0.37148068388E+00  0.80392660498E+00  0.78079613024E+00  0.11806517190E+01  0.00000000000E+00 0.  1.
         11    1    3    3    0    0 -0.11761980558E+02  0.55933888849E+01  0.57556192163E+01  0.14239288560E+02  0.51100000000E-03 0. -1.
        -11    1    3    3    0    0  0.22559597214E+02 -0.33965467973E+02  0.96544200307E+01  0.41902222703E+02  0.51100000000E-03 0.  1.
         12    1    3    3    0    0 -0.11169097340E+02  0.27568152483E+02 -0.16190835377E+02  0.33865837018E+02  0.00000000000E+00 0. -1.
</event>
<event>
 7    1  0.2542335E-015  0.9000768E+02  0.7816164E-02  0.1186339E+00
        -11   -1    0    0    0    0  0.00000000000E+00  0.00000000000E+00  0.45593999997E+02  0.45594000000E+02  0.51100000000E-03 0. -1.
         11   -1    0    0    0    0 -0.00000000000E+00 -0.00000000000E+00 -0.45593999997E+02  0.45594000000E+02  0.51100000000E-03 0.  1.
    9900012    2    1    2    0    0 -0.92361442494E+00 -0.26970431183E+00 -0.68362476831E+00  0.90007683582E+02  0.89999944206E+02 0.  0.
        -12    1    1    2    0    0  0.92361442494E+00  0.26970431183E+00  0.68362476831E+00  0.11803164176E+01  0.00000000000E+00 0.  1.
         11    1    3    3    0    0  0.20100468474E+02 -0.25263053879E+01 -0.72310885360E+01  0.21510455445E+02  0.51100000000E-03 0. -1.
        -11    1    3    3    0    0 -0.19902587287E+02  0.15679844486E+02 -0.24132379321E+02  0.34990602106E+02  0.51100000000E-03 0.  1.
         12    1    3    3    0    0 -0.11214956117E+01 -0.13423243410E+02  0.30679843089E+02  0.33506626031E+02  0.00000000000E+00 0. -1.
</event>
<event>
 7    1  0.2542335E-015  0.9000792E+02  0.7816164E-02  0.1186339E+00
        -11   -1    0    0    0    0  0.00000000000E+00  0.00000000000E+00  0.45593999997E+02  0.45594000000E+02  0.51100000000E-03 0. -1.
         11   -1    0    0    0    0 -0.00000000000E+00 -0.00000000000E+00 -0.45593999997E+02  0.45594000000E+02  0.51100000000E-03 0.  1.
    9900012    2    1    2    0    0  0.49949906833E+00  0.58152891585E+00  0.89717495121E+00  0.90007916066E+02  0.90000179757E+02 0.  0.
        -12    1    1    2    0    0 -0.49949906833E+00 -0.58152891585E+00 -0.89717495121E+00  0.11800839344E+01  0.00000000000E+00 0.  1.
         11    1    3    3    0    0  0.27474902983E+01  0.35660417225E+02  0.60460000936E+01  0.36273518950E+02  0.51100000000E-03 0. -1.
        -11    1    3    3    0    0  0.50630459152E+00  0.88122148189E+01  0.23216423092E+01  0.91269654117E+01  0.51100000000E-03 0.  1.
        -12    1    3    3    0    0 -0.27542958214E+01 -0.43891103128E+02 -0.74704674516E+01  0.44607431704E+02  0.00000000000E+00 0.  1.
</event>
<event>
 7    1  0.2542335E-015  0.9000756E+02  0.7816164E-02  0.1186339E+00
        -11   -1    0    0    0    0  0.00000000000E+00  0.00000000000E+00  0.45593999997E+02  0.45594000000E+02  0.51100000000E-03 0. -1.
         11   -1    0    0    0    0 -0.00000000000E+00 -0.00000000000E+00 -0.45593999997E+02  0.45594000000E+02  0.51100000000E-03 0.  1.
    9900012    2    1    2    0    0 -0.59481584231E-01  0.62679412143E+00  0.99851626407E+00  0.90007557854E+02  0.89999816818E+02 0.  0.
        -12    1    1    2    0    0  0.59481584231E-01 -0.62679412143E+00 -0.99851626407E+00  0.11804421456E+01  0.00000000000E+00 0.  1.
         11    1    3    3    0    0  0.35618909871E+01  0.52516637850E+01  0.57618062011E+01  0.85711989170E+01  0.51100000000E-03 0. -1.
        -11    1    3    3    0    0  0.10050009154E+02  0.33747124341E+02 -0.16724553653E+02  0.38981813458E+02  0.51100000000E-03 0.  1.
         12    1    3    3    0    0 -0.13671381726E+02 -0.38371994005E+02  0.11961263716E+02  0.42454545480E+02  0.00000000000E+00 0. -1.
</event>
<event>
 7    1  0.2542335E-015  0.9000779E+02  0.7816164E-02  0.1186339E+00
        -11   -1    0    0    0    0  0.00000000000E+00  0.00000000000E+00  0.45593999997E+02  0.45594000000E+02  0.51100000000E-03 0. -1.
         11   -1    0    0    0    0 -0.00000000000E+00 -0.00000000000E+00 -0.45593999997E+02  0.45594000000E+02  0.51100000000E-03 0.  1.
    9900012    2    1    2    0    0  0.38522721224E+00  0.11153497627E+01 -0.22331161405E-01  0.90007786554E+02  0.90000048536E+02 0.  0.
        -12    1    1    2    0    0 -0.38522721224E+00 -0.11153497627E+01  0.22331161405E-01  0.11802134463E+01  0.00000000000E+00 0.  1.
         11    1    3    3    0    0  0.40526517616E+01 -0.16202334300E+02  0.20263814262E+02  0.26259508597E+02  0.51100000000E-03 0. -1.
        -11    1    3    3    0    0  0.21794875941E+02  0.83050606963E+01  0.79808214116E+01  0.24651250701E+02  0.51100000000E-03 0.  1.
        -12    1    3    3    0    0 -0.25462300490E+02  0.90126233660E+01 -0.28266966835E+02  0.39097027256E+02  0.00000000000E+00 0.  1.
</event>
<event>
 7    1  0.2542335E-015  0.9000785E+02  0.7816164E-02  0.1186339E+00
        -11   -1    0    0    0    0  0.00000000000E+00  0.00000000000E+00  0.45593999997E+02  0.45594000000E+02  0.51100000000E-03 0.  1.
         11   -1    0    0    0    0 -0.00000000000E+00 -0.00000000000E+00 -0.45593999997E+02  0.45594000000E+02  0.51100000000E-03 0. -1.
    9900012    2    1    2    0    0 -0.69886825031E+00 -0.75459190750E+00 -0.57873606177E+00  0.90007846956E+02  0.90000109736E+02 0.  0.
        -12    1    1    2    0    0  0.69886825031E+00  0.75459190750E+00  0.57873606177E+00  0.11801530440E+01  0.00000000000E+00 0.  1.
         11    1    3    3    0    0  0.11350299909E+02  0.29141348090E+02 -0.57762974274E+01  0.31802721405E+02  0.51100000000E-03 0. -1.
        -11    1    3    3    0    0  0.55459082006E+01  0.11564994380E+02 -0.30972452299E+00  0.12829735863E+02  0.51100000000E-03 0.  1.
        -12    1    3    3    0    0 -0.17595076360E+02 -0.41460934377E+02  0.55072858886E+01  0.45375389688E+02  0.00000000000E+00 0.  1.
</event>
<event>
 7    1  0.2542335E-015  0.9000768E+02  0.7816164E-02  0.1186339E+00
        -11   -1    0    0    0    0  0.00000000000E+00  0.00000000000E+00  0.45593999997E+02  0.45594000000E+02  0.51100000000E-03 0.  1.
         11   -1    0    0    0    0 -0.00000000000E+00 -0.00000000000E+00 -0.45593999997E+02  0.45594000000E+02  0.51100000000E-03 0. -1.
    9900012    2    1    2    0    0 -0.67577065703E+00 -0.51512157643E+00  0.81922375873E+00  0.90007684878E+02  0.89999945519E+02 0.  0.
        -12    1    1    2    0    0  0.67577065703E+00  0.51512157643E+00 -0.81922375873E+00  0.11803151216E+01  0.00000000000E+00 0.  1.
         11    1    3    3    0    0 -0.86794891263E+01  0.53648113074E+01 -0.35313482969E-01  0.10203723789E+02  0.51100000000E-03 0. -1.
        -11    1    3    3    0    0 -0.20780785933E+02  0.10784357430E+02  0.28266481137E+02  0.36703370218E+02  0.51100000000E-03 0.  1.
         12    1    3    3    0    0  0.28784504403E+02 -0.16664290314E+02 -0.27411943895E+02  0.43100590872E+02  0.00000000000E+00 0. -1.
</event>
<event>
 7    1  0.2542335E-015  0.9000776E+02  0.7816164E-02  0.1186339E+00
        -11   -1    0    0    0    0  0.00000000000E+00  0.00000000000E+00  0.45593999997E+02  0.45594000000E+02  0.51100000000E-03 0.  1.
         11   -1    0    0    0    0 -0.00000000000E+00 -0.00000000000E+00 -0.45593999997E+02  0.45594000000E+02  0.51100000000E-03 0. -1.
    9900012    2    1    2    0    0 -0.34243933323E+00 -0.87242776426E+00 -0.71733475158E+00  0.90007761021E+02  0.90000022667E+02 0.  0.
        -12    1    1    2    0    0  0.34243933323E+00  0.87242776426E+00  0.71733475158E+00  0.11802389786E+01  0.00000000000E+00 0.  1.
         11    1    3    3    0    0  0.33051291081E+02 -0.49851047447E+01  0.15488279324E+02  0.36839189841E+02  0.51100000000E-03 0. -1.
        -11    1    3    3    0    0  0.55260488190E+01 -0.50068916952E+01  0.39086820401E+01  0.84192621737E+01  0.51100000000E-03 0.  1.
        -12    1    3    3    0    0 -0.38919779233E+02  0.91195686756E+01 -0.20114296116E+02  0.44749309007E+02  0.00000000000E+00 0.  1.
</event>
<event>
 7    1  0.2542335E-015  0.9000773E+02  0.7816164E-02  0.1186339E+00
        -11   -1    0    0    0    0  0.00000000000E+00  0.00000000000E+00  0.45593999997E+02  0.45594000000E+02  0.51100000000E-03 0. -1.
         11   -1    0    0    0    0 -0.00000000000E+00 -0.00000000000E+00 -0.45593999997E+02  0.45594000000E+02  0.51100000000E-03 0.  1.
    9900012    2    1    2    0    0  0.28140602240E-01  0.10352224750E+01 -0.56617711381E+00  0.90007731391E+02  0.89999992645E+02 0.  0.
        -12    1    1    2    0    0 -0.28140602240E-01 -0.10352224750E+01  0.56617711381E+00  0.11802686094E+01  0.00000000000E+00 0.  1.
         11    1    3    3    0    0 -0.27714025888E+02  0.24760386876E+02  0.10561255519E+02  0.38635270253E+02  0.51100000000E-03 0. -1.
        -11    1    3    3    0    0  0.20887358534E+01  0.46738143883E+01  0.72846667710E+01  0.89035795401E+01  0.51100000000E-03 0.  1.
        -12    1    3    3    0    0  0.25653430636E+02 -0.28398978789E+02 -0.18412099404E+02  0.42468881597E+02  0.00000000000E+00 0.  1.
</event>
<event>
 7    1  0.2542335E-015  0.9000754E+02  0.7816164E-02  0.1186339E+00
        -11   -1    0    0    0    0  0.00000000000E+00  0.00000000000E+00  0.45593999997E+02  0.45594000000E+02  0.51100000000E-03 0. -1.
         11   -1    0    0    0    0 -0.00000000000E+00 -0.00000000000E+00 -0.45593999997E+02  0.45594000000E+02  0.51100000000E-03 0.  1.
    9900012    2    1    2    0    0  0.93037795654E+00  0.40638866954E+00 -0.60226972809E+00  0.90007540887E+02  0.89999799626E+02 0.  0.
        -12    1    1    2    0    0 -0.93037795654E+00 -0.40638866954E+00  0.60226972809E+00  0.11804591133E+01  0.00000000000E+00 0.  1.
         11    1    3    3    0    0 -0.16652852574E+01  0.11274466804E+02  0.32051257143E+02  0.34017199494E+02  0.51100000000E-03 0. -1.
        -11    1    3    3    0    0  0.13463523269E+02  0.56687333198E+01  0.32768079350E+01  0.14971254682E+02  0.51100000000E-03 0.  1.
        -12    1    3    3    0    0 -0.10867860055E+02 -0.16536811455E+02 -0.35930334806E+02  0.41019086710E+02  0.00000000000E+00 0.  1.
</event>
<event>
 7    1  0.2542335E-015  0.9000761E+02  0.7816164E-02  0.1186339E+00
        -11   -1    0    0    0    0  0.00000000000E+00  0.00000000000E+00  0.45593999997E+02  0.45594000000E+02  0.51100000000E-03 0.  1.
         11   -1    0    0    0    0 -0.00000000000E+00 -0.00000000000E+00 -0.45593999997E+02  0.45594000000E+02  0.51100000000E-03 0. -1.
    9900012    2    1    2    0    0 -0.87995687363E+00 -0.75116474633E+00 -0.23397388298E+00  0.90007611778E+02  0.89999871454E+02 0.  0.
        -12    1    1    2    0    0  0.87995687363E+00  0.75116474633E+00  0.23397388298E+00  0.11803882215E+01  0.00000000000E+00 0.  1.
         11    1    3    3    0    0  0.34993091655E+01  0.15831643186E+01  0.68245096068E+01  0.78310603069E+01  0.51100000000E-03 0. -1.
        -11    1    3    3    0    0 -0.21255906323E+02  0.22916599734E+02 -0.30605924647E+02  0.43745933762E+02  0.51100000000E-03 0.  1.
         12    1    3    3    0    0  0.16876640284E+02 -0.25250928799E+02  0.23547441157E+02  0.38430617709E+02  0.00000000000E+00 0. -1.
</event>
<event>
 7    1  0.2542335E-015  0.9000771E+02  0.7816164E-02  0.1186339E+00
        -11   -1    0    0    0    0  0.00000000000E+00  0.00000000000E+00  0.45593999997E+02  0.45594000000E+02  0.51100000000E-03 0.  1.
         11   -1    0    0    0    0 -0.00000000000E+00 -0.00000000000E+00 -0.45593999997E+02  0.45594000000E+02  0.51100000000E-03 0. -1.
    9900012    2    1    2    0    0 -0.32368391001E+00 -0.66130529544E+00 -0.92248535887E+00  0.90007713931E+02  0.89999974955E+02 0.  0.
        -12    1    1    2    0    0  0.32368391001E+00  0.66130529544E+00  0.92248535887E+00  0.11802860690E+01  0.00000000000E+00 0.  1.
         11    1    3    3    0    0  0.36221245725E+02  0.76835690613E+01  0.42449468888E+01  0.37269765894E+02  0.51100000000E-03 0. -1.
        -11    1    3    3    0    0 -0.56801557100E+01 -0.13493621639E+02 -0.13965774240E+02  0.20233260839E+02  0.51100000000E-03 0.  1.
        -12    1    3    3    0    0 -0.30864773925E+02  0.51487472823E+01  0.87983419918E+01  0.32504687198E+02  0.00000000000E+00 0.  1.
</event>
<event>
 7    1  0.2542335E-015  0.9000770E+02  0.7816164E-02  0.1186339E+00
        -11   -1    0    0    0    0  0.00000000000E+00  0.00000000000E+00  0.45593999997E+02  0.45594000000E+02  0.51100000000E-03 0. -1.
         11   -1    0    0    0    0 -0.00000000000E+00 -0.00000000000E+00 -0.45593999997E+02  0.45594000000E+02  0.51100000000E-03 0.  1.
    9900012    2    1    2    0    0  0.52646408927E+00 -0.75831757403E+00  0.73545940516E+00  0.90007698972E+02  0.89999959798E+02 0.  0.
        -12    1    1    2    0    0 -0.52646408927E+00  0.75831757403E+00 -0.73545940516E+00  0.11803010281E+01  0.00000000000E+00 0.  1.
         11    1    3    3    0    0 -0.33707135551E+01  0.27383520311E+01  0.77156749209E+01  0.88539212479E+01  0.51100000000E-03 0. -1.
        -11    1    3    3    0    0 -0.57945430217E+01  0.22374550806E+02  0.28174956603E+02  0.36442083261E+02  0.51100000000E-03 0.  1.
         12    1    3    3    0    0  0.96917206661E+01 -0.25871220411E+02 -0.35155172119E+02  0.44711694463E+02  0.00000000000E+00 0. -1.
</event>
<event>
 7    1  0.2542335E-015  0.9000764E+02  0.7816164E-02  0.1186339E+00
        -11   -1    0    0    0    0  0.00000000000E+00  0.00000000000E+00  0.45593999997E+02  0.45594000000E+02  0.51100000000E-03 0.  1.
         11   -1    0    0    0    0 -0.00000000000E+00 -0.00000000000E+00 -0.45593999997E+02  0.45594000000E+02  0.51100000000E-03 0. -1.
    9900012    2    1    2    0    0 -0.14335524847E+00 -0.22088780983E+00 -0.11506110464E+01  0.90007640762E+02  0.89999900819E+02 0.  0.
        -12    1    1    2    0    0  0.14335524847E+00  0.22088780983E+00  0.11506110464E+01  0.11803592385E+01  0.00000000000E+00 0.  1.
         11    1    3    3    0    0  0.21235178233E+01 -0.47665822444E+01  0.72905513476E+01  0.89655882936E+01  0.51100000000E-03 0. -1.
        -11    1    3    3    0    0 -0.79957804798E+01 -0.36975031142E+02  0.18783240135E+01  0.37876292516E+02  0.51100000000E-03 0.  1.
         12    1    3    3    0    0  0.57289074080E+01  0.41520725576E+02 -0.10319486407E+02  0.43165759952E+02  0.00000000000E+00 0. -1.
</event>
<event>
 7    1  0.2542335E-015  0.9000762E+02  0.7816164E-02  0.1186339E+00
        -11   -1    0    0    0    0  0.00000000000E+00  0.00000000000E+00  0.45593999997E+02  0.45594000000E+02  0.51100000000E-03 0. -1.
         11   -1    0    0    0    0 -0.00000000000E+00 -0.00000000000E+00 -0.45593999997E+02  0.45594000000E+02  0.51100000000E-03 0.  1.
    9900012    2    1    2    0    0  0.30223424922E+00 -0.10398458095E+01  0.46976968772E+00  0.90007615144E+02  0.89999874864E+02 0.  0.
        -12    1    1    2    0    0 -0.30223424922E+00  0.10398458095E+01 -0.46976968772E+00  0.11803848560E+01  0.00000000000E+00 0.  1.
         11    1    3    3    0    0 -0.79527455627E+01 -0.22512908679E+01 -0.37004459064E+01  0.90558143049E+01  0.51100000000E-03 0. -1.
        -11    1    3    3    0    0 -0.32930286634E+01 -0.63055294087E-02 -0.37525305861E+02  0.37669518948E+02  0.51100000000E-03 0.  1.
         12    1    3    3    0    0  0.11548008475E+02  0.12177505879E+01  0.41695521455E+02  0.43282281891E+02  0.00000000000E+00 0. -1.
</event>
<event>
 7    1  0.2542335E-015  0.9000776E+02  0.7816164E-02  0.1186339E+00
        -11   -1    0    0    0    0  0.00000000000E+00  0.00000000000E+00  0.45593999997E+02  0.45594000000E+02  0.51100000000E-03 0.  1.
         11   -1    0    0    0    0 -0.00000000000E+00 -0.00000000000E+00 -0.45593999997E+02  0.45594000000E+02  0.51100000000E-03 0. -1.
    9900012    2    1    2    0    0 -0.86521985264E+00  0.77309745852E+00  0.21606338265E+00  0.90007759152E+02  0.90000020773E+02 0.  0.
        -12    1    1    2    0    0  0.86521985264E+00 -0.77309745852E+00 -0.21606338265E+00  0.11802408479E+01  0.00000000000E+00 0.  1.
         11    1    3    3    0    0 -0.12359840550E+02 -0.40695075765E+00 -0.20652343382E+02  0.24071779219E+02  0.51100000000E-03 0. -1.
        -11    1    3    3    0    0 -0.21516082500E+02  0.15139753155E+02  0.51904985115E+01  0.26815950604E+02  0.51100000000E-03 0.  1.
         12    1    3    3    0    0  0.33010703197E+02 -0.13959704939E+02  0.15677908253E+02  0.39120029329E+02  0.00000000000E+00 0. -1.
</event>
<event>
 7    1  0.2542335E-015  0.9000746E+02  0.7816164E-02  0.1186340E+00
        -11   -1    0    0    0    0  0.00000000000E+00  0.00000000000E+00  0.45593999997E+02  0.45594000000E+02  0.51100000000E-03 0. -1.
         11   -1    0    0    0    0 -0.00000000000E+00 -0.00000000000E+00 -0.45593999997E+02  0.45594000000E+02  0.51100000000E-03 0.  1.
    9900012    2    1    2    0    0 -0.43713135935E+00  0.23914375221E+00  0.10702350950E+01  0.90007459142E+02  0.89999716802E+02 0.  0.
        -12    1    1    2    0    0  0.43713135935E+00 -0.23914375221E+00 -0.10702350950E+01  0.11805408583E+01  0.00000000000E+00 0.  1.
         11    1    3    3    0    0 -0.24614848154E+01 -0.24893276613E+02  0.30300577028E+02  0.39291972419E+02  0.51100000000E-03 0. -1.
        -11    1    3    3    0    0 -0.72071671973E+01  0.32283991197E+01  0.47731441815E+01  0.92276067062E+01  0.51100000000E-03 0.  1.
        -12    1    3    3    0    0  0.92315206534E+01  0.21904021246E+02 -0.34003486115E+02  0.41487880017E+02  0.00000000000E+00 0.  1.
</event>
<event>
 7    1  0.2542335E-015  0.9000772E+02  0.7816164E-02  0.1186339E+00
        -11   -1    0    0    0    0  0.00000000000E+00  0.00000000000E+00  0.45593999997E+02  0.45594000000E+02  0.51100000000E-03 0. -1.
         11   -1    0    0    0    0 -0.00000000000E+00 -0.00000000000E+00 -0.45593999997E+02  0.45594000000E+02  0.51100000000E-03 0.  1.
    9900012    2    1    2    0    0  0.33436537651E+00 -0.11289621066E+01 -0.81834772762E-01  0.90007723518E+02  0.89999984669E+02 0.  0.
        -12    1    1    2    0    0 -0.33436537651E+00  0.11289621066E+01  0.81834772762E-01  0.11802764817E+01  0.00000000000E+00 0.  1.
         11    1    3    3    0    0  0.18642942511E+01  0.26606753896E+02 -0.13862362614E+02  0.30059275498E+02  0.51100000000E-03 0.  1.
        -11    1    3    3    0    0 -0.76545318854E+01 -0.12046455229E+02 -0.18602755390E+02  0.23447205597E+02  0.51100000000E-03 0. -1.
         12    1    3    3    0    0  0.61246030108E+01 -0.15689260773E+02  0.32383283231E+02  0.36501242424E+02  0.00000000000E+00 0. -1.
</event>
<event>
 7    1  0.2542335E-015  0.9000774E+02  0.7816164E-02  0.1186339E+00
        -11   -1    0    0    0    0  0.00000000000E+00  0.00000000000E+00  0.45593999997E+02  0.45594000000E+02  0.51100000000E-03 0.  1.
         11   -1    0    0    0    0 -0.00000000000E+00 -0.00000000000E+00 -0.45593999997E+02  0.45594000000E+02  0.51100000000E-03 0. -1.
    9900012    2    1    2    0    0 -0.74018296765E+00 -0.68078986769E+00 -0.61778915787E+00  0.90007741929E+02  0.90000003323E+02 0.  0.
        -12    1    1    2    0    0  0.74018296765E+00  0.68078986769E+00  0.61778915787E+00  0.11802580706E+01  0.00000000000E+00 0.  1.
         11    1    3    3    0    0 -0.28522137650E+01 -0.11717312002E+02 -0.33481025857E+02  0.35586649415E+02  0.51100000000E-03 0. -1.
        -11    1    3    3    0    0 -0.23410623201E+01 -0.28647789438E+01 -0.91898563278E+01  0.99066134865E+01  0.51100000000E-03 0.  1.
        -12    1    3    3    0    0  0.44530931175E+01  0.13901301078E+02  0.42053093027E+02  0.44514479028E+02  0.00000000000E+00 0.  1.
</event>
<event>
 7    1  0.2542335E-015  0.9000775E+02  0.7816164E-02  0.1186339E+00
        -11   -1    0    0    0    0  0.00000000000E+00  0.00000000000E+00  0.45593999997E+02  0.45594000000E+02  0.51100000000E-03 0.  1.
         11   -1    0    0    0    0 -0.00000000000E+00 -0.00000000000E+00 -0.45593999997E+02  0.45594000000E+02  0.51100000000E-03 0. -1.
    9900012    2    1    2    0    0 -0.10499689030E+01  0.52640506959E+00  0.11599034716E+00  0.90007749707E+02  0.90000011203E+02 0.  0.
        -12    1    1    2    0    0  0.10499689030E+01 -0.52640506959E+00 -0.11599034716E+00  0.11802502934E+01  0.00000000000E+00 0.  1.
         11    1    3    3    0    0 -0.16725311690E+01 -0.36909397304E+01  0.81834664216E+01  0.91317862184E+01  0.51100000000E-03 0. -1.
        -11    1    3    3    0    0 -0.24448979223E+02 -0.22032479029E+02  0.16725407268E+02  0.36917773033E+02  0.51100000000E-03 0.  1.
         12    1    3    3    0    0  0.25071541489E+02  0.26249823828E+02 -0.24792883343E+02  0.43958190455E+02  0.00000000000E+00 0. -1.
</event>
<event>
 7    1  0.2542335E-015  0.9000767E+02  0.7816164E-02  0.1186339E+00
        -11   -1    0    0    0    0  0.00000000000E+00  0.00000000000E+00  0.45593999997E+02  0.45594000000E+02  0.51100000000E-03 0.  1.
         11   -1    0    0    0    0 -0.00000000000E+00 -0.00000000000E+00 -0.45593999997E+02  0.45594000000E+02  0.51100000000E-03 0. -1.
    9900012    2    1    2    0    0  0.22456133887E+00 -0.10893290969E+01 -0.39512636802E+00  0.90007665080E+02  0.89999925459E+02 0.  0.
        -12    1    1    2    0    0 -0.22456133887E+00  0.10893290969E+01  0.39512636802E+00  0.11803349198E+01  0.00000000000E+00 0.  1.
         11    1    3    3    0    0 -0.26142212114E+01 -0.30365244683E+01  0.10825681084E+02  0.11543396579E+02  0.51100000000E-03 0. -1.
        -11    1    3    3    0    0 -0.59982907815E+01  0.24430630107E+02  0.24648048207E+02  0.35218765742E+02  0.51100000000E-03 0.  1.
         12    1    3    3    0    0  0.88370733318E+01 -0.22483434735E+02 -0.35868855659E+02  0.43245502759E+02  0.00000000000E+00 0. -1.
</event>
<event>
 7    1  0.2542335E-015  0.9000778E+02  0.7816164E-02  0.1186339E+00
        -11   -1    0    0    0    0  0.00000000000E+00  0.00000000000E+00  0.45593999997E+02  0.45594000000E+02  0.51100000000E-03 0.  1.
         11   -1    0    0    0    0 -0.00000000000E+00 -0.00000000000E+00 -0.45593999997E+02  0.45594000000E+02  0.51100000000E-03 0. -1.
    9900012    2    1    2    0    0 -0.10161882201E+00  0.10632181254E+01 -0.50215776684E+00  0.90007779008E+02  0.90000040891E+02 0.  0.
        -12    1    1    2    0    0  0.10161882201E+00 -0.10632181254E+01  0.50215776684E+00  0.11802209920E+01  0.00000000000E+00 0.  1.
         11    1    3    3    0    0  0.67812206311E+01  0.53786105440E+01  0.36940278913E+01  0.94106454059E+01  0.51100000000E-03 0. -1.
        -11    1    3    3    0    0  0.16370996079E+02  0.26635548509E+02  0.17895974191E+02  0.36023989916E+02  0.51100000000E-03 0.  1.
         12    1    3    3    0    0 -0.23253835532E+02 -0.30950940927E+02 -0.22092159849E+02  0.44573143686E+02  0.00000000000E+00 0. -1.
</event>
<event>
 7    1  0.2542335E-015  0.9000803E+02  0.7816164E-02  0.1186338E+00
        -11   -1    0    0    0    0  0.00000000000E+00  0.00000000000E+00  0.45593999997E+02  0.45594000000E+02  0.51100000000E-03 0. -1.
         11   -1    0    0    0    0 -0.00000000000E+00 -0.00000000000E+00 -0.45593999997E+02  0.45594000000E+02  0.51100000000E-03 0.  1.
    9900012    2    1    2    0    0  0.98129364280E+00  0.64912805857E+00  0.89611850422E-01  0.90008027656E+02  0.90000292820E+02 0.  0.
        -12    1    1    2    0    0 -0.98129364280E+00 -0.64912805857E+00 -0.89611850422E-01  0.11799723444E+01  0.00000000000E+00 0.  1.
         11    1    3    3    0    0  0.72726363084E+01 -0.93725667300E+01 -0.28706024611E+01  0.12205597271E+02  0.51100000000E-03 0. -1.
        -11    1    3    3    0    0  0.15494796056E+02  0.32007798169E+02  0.21661889130E+02  0.41639227771E+02  0.51100000000E-03 0.  1.
         12    1    3    3    0    0 -0.21786138722E+02 -0.21986103381E+02 -0.18701674818E+02  0.36163202614E+02  0.00000000000E+00 0. -1.
</event>
<event>
 7    1  0.2542335E-015  0.9000771E+02  0.7816164E-02  0.1186339E+00
        -11   -1    0    0    0    0  0.00000000000E+00  0.00000000000E+00  0.45593999997E+02  0.45594000000E+02  0.51100000000E-03 0.  1.
         11   -1    0    0    0    0 -0.00000000000E+00 -0.00000000000E+00 -0.45593999997E+02  0.45594000000E+02  0.51100000000E-03 0. -1.
    9900012    2    1    2    0    0  0.71481265912E+00  0.72971245205E+00 -0.59131636709E+00  0.90007706627E+02  0.89999967554E+02 0.  0.
        -12    1    1    2    0    0 -0.71481265912E+00 -0.72971245205E+00  0.59131636709E+00  0.11802933730E+01  0.00000000000E+00 0.  1.
         11    1    3    3    0    0  0.21068258807E+02  0.15384808272E+02 -0.32153144164E+02  0.41405175215E+02  0.51100000000E-03 0. -1.
        -11    1    3    3    0    0 -0.10024048900E+02  0.48003233848E+01  0.13248565663E+01  0.11192850671E+02  0.51100000000E-03 0.  1.
        -12    1    3    3    0    0 -0.10329397247E+02 -0.19455419204E+02  0.30236971231E+02  0.37409680741E+02  0.00000000000E+00 0.  1.
</event>
<event>
 7    1  0.2666521E-015  0.9000765E+02  0.7816164E-02  0.1186339E+00
        -11   -1    0    0    0    0  0.00000000000E+00  0.00000000000E+00  0.45593999997E+02  0.45594000000E+02  0.51100000000E-03 0.  1.
         11   -1    0    0    0    0 -0.00000000000E+00 -0.00000000000E+00 -0.45593999997E+02  0.45594000000E+02  0.51100000000E-03 0. -1.
    9900012    2    1    2    0    0 -0.12126007331E+00  0.11360647788E+01 -0.29645433932E+00  0.90007647357E+02  0.89999907502E+02 0.  0.
        -12    1    1    2    0    0  0.12126007331E+00 -0.11360647788E+01  0.29645433932E+00  0.11803526432E+01  0.00000000000E+00 0.  1.
         11    1    3    3    0    0  0.52939392919E+01  0.25862055494E+01  0.71791802155E+01  0.92873506017E+01  0.51100000000E-03 0. -1.
        -11    1    3    3    0    0 -0.58908106613E+01 -0.10015580483E+02  0.35263590999E+02  0.37128619057E+02  0.51100000000E-03 0.  1.
         12    1    3    3    0    0  0.47561129610E+00  0.85654397128E+01 -0.42739225554E+02  0.43591677698E+02  0.00000000000E+00 0. -1.
</event>
<event>
 7    1  0.2542335E-015  0.9000795E+02  0.7816164E-02  0.1186339E+00
        -11   -1    0    0    0    0  0.00000000000E+00  0.00000000000E+00  0.45593999997E+02  0.45594000000E+02  0.51100000000E-03 0. -1.
         11   -1    0    0    0    0 -0.00000000000E+00 -0.00000000000E+00 -0.45593999997E+02  0.45594000000E+02  0.51100000000E-03 0.  1.
    9900012    2    1    2    0    0  0.91166256187E+00  0.34740360502E+00  0.66384838934E+00  0.90007952299E+02  0.90000216470E+02 0.  0.
        -12    1    1    2    0    0 -0.91166256187E+00 -0.34740360502E+00 -0.66384838934E+00  0.11800477005E+01  0.00000000000E+00 0.  1.
         11    1    3    3    0    0 -0.28075592307E+00 -0.43079753776E+02  0.12332406688E+01  0.43098316581E+02  0.51100000000E-03 0. -1.
        -11    1    3    3    0    0 -0.32541768852E+01  0.88946963630E+00  0.22375807438E+01  0.40481589989E+01  0.51100000000E-03 0.  1.
        -12    1    3    3    0    0  0.44465953702E+01  0.42537687745E+02 -0.28069730232E+01  0.42861476720E+02  0.00000000000E+00 0.  1.
</event>
<event>
 7    1  0.2542335E-015  0.9000759E+02  0.7816164E-02  0.1186339E+00
        -11   -1    0    0    0    0  0.00000000000E+00  0.00000000000E+00  0.45593999997E+02  0.45594000000E+02  0.51100000000E-03 0.  1.
         11   -1    0    0    0    0 -0.00000000000E+00 -0.00000000000E+00 -0.45593999997E+02  0.45594000000E+02  0.51100000000E-03 0. -1.
    9900012    2    1    2    0    0  0.11669909965E+01  0.39288092652E-01  0.17310591964E+00  0.90007586005E+02  0.89999845340E+02 0.  0.
        -12    1    1    2    0    0 -0.11669909965E+01 -0.39288092652E-01 -0.17310591964E+00  0.11804139950E+01  0.00000000000E+00 0.  1.
         11    1    3    3    0    0 -0.16635033366E+02 -0.31010306375E+02 -0.19126477001E+02  0.40052285320E+02  0.51100000000E-03 0. -1.
        -11    1    3    3    0    0 -0.61080146701E+01 -0.36618786480E+00  0.52109353077E+01  0.80371502291E+01  0.51100000000E-03 0.  1.
        -12    1    3    3    0    0  0.23910039033E+02  0.31415782333E+02  0.14088647613E+02  0.41918150456E+02  0.00000000000E+00 0.  1.
</event>
<event>
 7    1  0.3011508E-015  0.9000809E+02  0.7816164E-02  0.1186338E+00
        -11   -1    0    0    0    0  0.00000000000E+00  0.00000000000E+00  0.45593999997E+02  0.45594000000E+02  0.51100000000E-03 0.  1.
         11   -1    0    0    0    0 -0.00000000000E+00 -0.00000000000E+00 -0.45593999997E+02  0.45594000000E+02  0.51100000000E-03 0. -1.
    9900012    2    1    2    0    0 -0.70964435758E+00  0.78796107121E+00 -0.51740288885E+00  0.90008091735E+02  0.90000357745E+02 0.  0.
        -12    1    1    2    0    0  0.70964435758E+00 -0.78796107121E+00  0.51740288885E+00  0.11799082648E+01  0.00000000000E+00 0.  1.
         11    1    3    3    0    0 -0.82609494529E+01  0.21096157312E+01 -0.29793676261E+01  0.90316330809E+01  0.51100000000E-03 0. -1.
        -11    1    3    3    0    0 -0.27064314698E+02 -0.17018134138E+02  0.21439946070E+02  0.38493704775E+02  0.51100000000E-03 0.  1.
         12    1    3    3    0    0  0.34615619793E+02  0.15696479478E+02 -0.18977981332E+02  0.42482753879E+02  0.00000000000E+00 0. -1.
</event>
<event>
 7    1  0.2542335E-015  0.9000731E+02  0.7816164E-02  0.1186340E+00
        -11   -1    0    0    0    0  0.00000000000E+00  0.00000000000E+00  0.45593999997E+02  0.45594000000E+02  0.51100000000E-03 0.  1.
         11   -1    0    0    0    0 -0.00000000000E+00 -0.00000000000E+00 -0.45593999997E+02  0.45594000000E+02  0.51100000000E-03 0. -1.
    9900012    2    1    2    0    0 -0.46107418514E+00  0.10049413328E+01  0.41415223981E+00  0.90007314367E+02  0.89999570115E+02 0.  0.
        -12    1    1    2    0    0  0.46107418514E+00 -0.10049413328E+01 -0.41415223981E+00  0.11806856331E+01  0.00000000000E+00 0.  1.
         11    1    3    3    0    0 -0.14251657105E+02 -0.36137898586E+02 -0.14585547849E+01  0.38873960780E+02  0.51100000000E-03 0. -1.
        -11    1    3    3    0    0  0.75747958338E+01 -0.35032535705E+01 -0.45669345451E+01  0.95135276792E+01  0.51100000000E-03 0.  1.
        -12    1    3    3    0    0  0.62157870856E+01  0.40646093489E+02  0.64396415697E+01  0.41619825907E+02  0.00000000000E+00 0.  1.
</event>
<event>
 7    1  0.2542335E-015  0.9000751E+02  0.7816164E-02  0.1186340E+00
        -11   -1    0    0    0    0  0.00000000000E+00  0.00000000000E+00  0.45593999997E+02  0.45594000000E+02  0.51100000000E-03 0. -1.
         11   -1    0    0    0    0 -0.00000000000E+00 -0.00000000000E+00 -0.45593999997E+02  0.45594000000E+02  0.51100000000E-03 0.  1.
    9900012    2    1    2    0    0  0.11041412937E+01  0.32413555297E+00 -0.26336692158E+00  0.90007511123E+02  0.89999769470E+02 0.  0.
        -12    1    1    2    0    0 -0.11041412937E+01 -0.32413555297E+00  0.26336692158E+00  0.11804888769E+01  0.00000000000E+00 0.  1.
         11    1    3    3    0    0 -0.65749701301E+01  0.10845748733E+02  0.44984597257E+01  0.13457215089E+02  0.51100000000E-03 0. -1.
        -11    1    3    3    0    0  0.24264177771E+02  0.26405632212E+02 -0.37560698269E+01  0.36057118524E+02  0.51100000000E-03 0.  1.
         12    1    3    3    0    0 -0.16585066348E+02 -0.36927245393E+02 -0.10057568203E+01  0.40493177510E+02  0.00000000000E+00 0. -1.
</event>
<event>
 7    1  0.2542335E-015  0.9000773E+02  0.7816164E-02  0.1186339E+00
        -11   -1    0    0    0    0  0.00000000000E+00  0.00000000000E+00  0.45593999997E+02  0.45594000000E+02  0.51100000000E-03 0.  1.
         11   -1    0    0    0    0 -0.00000000000E+00 -0.00000000000E+00 -0.45593999997E+02  0.45594000000E+02  0.51100000000E-03 0. -1.
    9900012    2    1    2    0    0  0.91782061654E+00 -0.59874913828E+00 -0.43833748254E+00  0.90007730978E+02  0.89999992227E+02 0.  0.
        -12    1    1    2    0    0 -0.91782061654E+00  0.59874913828E+00  0.43833748254E+00  0.11802690216E+01  0.00000000000E+00 0.  1.
         11    1    3    3    0    0  0.40366533161E+01 -0.33998646285E+00  0.61367902495E+01  0.73532547635E+01  0.51100000000E-03 0. -1.
        -11    1    3    3    0    0  0.38232349332E+02  0.85055675273E+01 -0.94371355779E+01  0.40287923036E+02  0.51100000000E-03 0.  1.
         12    1    3    3    0    0 -0.41351182032E+02 -0.87643302027E+01  0.28620078458E+01  0.42366553178E+02  0.00000000000E+00 0. -1.
</event>
<event>
 7    1  0.2542335E-015  0.9000775E+02  0.7816164E-02  0.1186339E+00
        -11   -1    0    0    0    0  0.00000000000E+00  0.00000000000E+00  0.45593999997E+02  0.45594000000E+02  0.51100000000E-03 0.  1.
         11   -1    0    0    0    0 -0.00000000000E+00 -0.00000000000E+00 -0.45593999997E+02  0.45594000000E+02  0.51100000000E-03 0. -1.
    9900012    2    1    2    0    0  0.11191759641E+01  0.24075979604E+00  0.28716156970E+00  0.90007753464E+02  0.90000015010E+02 0.  0.
        -12    1    1    2    0    0 -0.11191759641E+01 -0.24075979604E+00 -0.28716156970E+00  0.11802465358E+01  0.00000000000E+00 0.  1.
         11    1    3    3    0    0  0.84953370950E+01 -0.10015690690E+01 -0.13482230365E+01  0.86597689678E+01  0.51100000000E-03 0. -1.
        -11    1    3    3    0    0 -0.64047768950E+01  0.17426296798E+02  0.37579995981E+02  0.41916024207E+02  0.51100000000E-03 0.  1.
         12    1    3    3    0    0 -0.97138423590E+00 -0.16183967933E+02 -0.35944611374E+02  0.39431960289E+02  0.00000000000E+00 0. -1.
</event>
<event>
 7    1  0.2542335E-015  0.9000682E+02  0.7816164E-02  0.1186341E+00
        -11   -1    0    0    0    0  0.00000000000E+00  0.00000000000E+00  0.45593999997E+02  0.45594000000E+02  0.51100000000E-03 0.  1.
         11   -1    0    0    0    0 -0.00000000000E+00 -0.00000000000E+00 -0.45593999997E+02  0.45594000000E+02  0.51100000000E-03 0. -1.
    9900012    2    1    2    0    0  0.72093345552E+00  0.70033060033E-01 -0.93302049014E+00  0.90006823929E+02  0.89999073200E+02 0.  0.
        -12    1    1    2    0    0 -0.72093345552E+00 -0.70033060033E-01  0.93302049014E+00  0.11811760715E+01  0.00000000000E+00 0.  1.
         11    1    3    3    0    0 -0.36552378914E+01  0.11449125839E+02 -0.27151508217E+02  0.29692552016E+02  0.51100000000E-03 0. -1.
        -11    1    3    3    0    0 -0.93664339010E+01  0.16440846704E+02 -0.11267388469E+01  0.18955238460E+02  0.51100000000E-03 0.  1.
        -12    1    3    3    0    0  0.13742605248E+02 -0.27819939483E+02  0.27345226573E+02  0.41359033453E+02  0.00000000000E+00 0.  1.
</event>
<event>
 7    1  0.2542335E-015  0.9000758E+02  0.7816164E-02  0.1186339E+00
        -11   -1    0    0    0    0  0.00000000000E+00  0.00000000000E+00  0.45593999997E+02  0.45594000000E+02  0.51100000000E-03 0. -1.
         11   -1    0    0    0    0 -0.00000000000E+00 -0.00000000000E+00 -0.45593999997E+02  0.45594000000E+02  0.51100000000E-03 0.  1.
    9900012    2    1    2    0    0 -0.11136100522E+01  0.37723957041E+00  0.10461036374E+00  0.90007584662E+02  0.89999843979E+02 0.  0.
        -12    1    1    2    0    0  0.11136100522E+01 -0.37723957041E+00 -0.10461036374E+00  0.11804153380E+01  0.00000000000E+00 0.  1.
         11    1    3    3    0    0 -0.31069459055E+01  0.10491365468E+02  0.49301322923E+01  0.12001169398E+02  0.51100000000E-03 0. -1.
        -11    1    3    3    0    0 -0.37783364658E+01  0.33575576879E+02 -0.21874552445E+01  0.33858236072E+02  0.51100000000E-03 0.  1.
         12    1    3    3    0    0  0.57716723190E+01 -0.43689702777E+02 -0.26380666841E+01  0.44148179191E+02  0.00000000000E+00 0. -1.
</event>
<event>
 7    1  0.2542335E-015  0.9000781E+02  0.7816164E-02  0.1186339E+00
        -11   -1    0    0    0    0  0.00000000000E+00  0.00000000000E+00  0.45593999997E+02  0.45594000000E+02  0.51100000000E-03 0.  1.
         11   -1    0    0    0    0 -0.00000000000E+00 -0.00000000000E+00 -0.45593999997E+02  0.45594000000E+02  0.51100000000E-03 0. -1.
    9900012    2    1    2    0    0 -0.99052750787E+00 -0.59874388722E+00 -0.23068684376E+00  0.90007807047E+02  0.90000069300E+02 0.  0.
        -12    1    1    2    0    0  0.99052750787E+00  0.59874388722E+00  0.23068684376E+00  0.11801929530E+01  0.00000000000E+00 0.  1.
         11    1    3    3    0    0  0.39947160715E+01  0.17690650494E+02 -0.35282792223E+02  0.39671051142E+02  0.51100000000E-03 0. -1.
        -11    1    3    3    0    0  0.58014065984E+00 -0.82566407184E+01 -0.43133560566E+01  0.93334730872E+01  0.51100000000E-03 0.  1.
        -12    1    3    3    0    0 -0.55653842392E+01 -0.10032753663E+02  0.39365461436E+02  0.41003282818E+02  0.00000000000E+00 0.  1.
</event>
<event>
 7    1  0.2542335E-015  0.9000784E+02  0.7816164E-02  0.1186339E+00
        -11   -1    0    0    0    0  0.00000000000E+00  0.00000000000E+00  0.45593999997E+02  0.45594000000E+02  0.51100000000E-03 0. -1.
         11   -1    0    0    0    0 -0.00000000000E+00 -0.00000000000E+00 -0.45593999997E+02  0.45594000000E+02  0.51100000000E-03 0.  1.
    9900012    2    1    2    0    0  0.60387499041E+00  0.45146612380E-01  0.10129571251E+01  0.90007836724E+02  0.90000099369E+02 0.  0.
        -12    1    1    2    0    0 -0.60387499041E+00 -0.45146612380E-01 -0.10129571251E+01  0.11801632759E+01  0.00000000000E+00 0.  1.
         11    1    3    3    0    0 -0.68122332055E-01 -0.10485054479E+02 -0.52633934488E+01  0.11732191566E+02  0.51100000000E-03 0. -1.
        -11    1    3    3    0    0 -0.19483046422E+02 -0.35555691216E+01  0.35153059817E+02  0.40348095177E+02  0.51100000000E-03 0.  1.
         12    1    3    3    0    0  0.20155043745E+02  0.14085770213E+02 -0.28876709243E+02  0.37927549981E+02  0.00000000000E+00 0. -1.
</event>
<event>
 7    1  0.2542335E-015  0.9000763E+02  0.7816164E-02  0.1186339E+00
        -11   -1    0    0    0    0  0.00000000000E+00  0.00000000000E+00  0.45593999997E+02  0.45594000000E+02  0.51100000000E-03 0.  1.
         11   -1    0    0    0    0 -0.00000000000E+00 -0.00000000000E+00 -0.45593999997E+02  0.45594000000E+02  0.51100000000E-03 0. -1.
    9900012    2    1    2    0    0  0.51431129238E+00  0.51307607193E+00 -0.93033019637E+00  0.90007628264E+02  0.89999888157E+02 0.  0.
        -12    1    1    2    0    0 -0.51431129238E+00 -0.51307607193E+00  0.93033019637E+00  0.11803717361E+01  0.00000000000E+00 0.  1.
         11    1    3    3    0    0  0.19745469436E+02  0.29270344457E+02 -0.10388814393E+02  0.36804403169E+02  0.51100000000E-03 0. -1.
        -11    1    3    3    0    0  0.35054601817E+00  0.94301381659E+01  0.19510815261E+01  0.96362392935E+01  0.51100000000E-03 0.  1.
        -12    1    3    3    0    0 -0.19581704162E+02 -0.38187406551E+02  0.75074026701E+01  0.43566985801E+02  0.00000000000E+00 0.  1.
</event>
<event>
 7    1  0.2542335E-015  0.9000776E+02  0.7816164E-02  0.1186339E+00
        -11   -1    0    0    0    0  0.00000000000E+00  0.00000000000E+00  0.45593999997E+02  0.45594000000E+02  0.51100000000E-03 0.  1.
         11   -1    0    0    0    0 -0.00000000000E+00 -0.00000000000E+00 -0.45593999997E+02  0.45594000000E+02  0.51100000000E-03 0. -1.
    9900012    2    1    2    0    0  0.11614327942E+01  0.15015847439E+00 -0.14656850696E+00  0.90007764418E+02  0.90000026108E+02 0.  0.
        -12    1    1    2    0    0 -0.11614327942E+01 -0.15015847439E+00  0.14656850696E+00  0.11802355825E+01  0.00000000000E+00 0.  1.
         11    1    3    3    0    0 -0.13653835722E+02  0.29671730463E+02 -0.16096252575E+02  0.36413296553E+02  0.51100000000E-03 0. -1.
        -11    1    3    3    0    0 -0.12383188973E+01  0.83017042021E+01 -0.21973376950E+01  0.86764059124E+01  0.51100000000E-03 0.  1.
        -12    1    3    3    0    0  0.16053587414E+02 -0.37823276191E+02  0.18147021763E+02  0.44918061952E+02  0.00000000000E+00 0.  1.
</event>
<event>
 7    1  0.2647007E-015  0.9000848E+02  0.7816164E-02  0.1186338E+00
        -11   -1    0    0    0    0  0.00000000000E+00  0.00000000000E+00  0.45593999997E+02  0.45594000000E+02  0.51100000000E-03 0. -1.
         11   -1    0    0    0    0 -0.00000000000E+00 -0.00000000000E+00 -0.45593999997E+02  0.45594000000E+02  0.51100000000E-03 0.  1.
    9900012    2    1    2    0    0  0.11435717658E+01  0.27880559987E+00 -0.75943315827E-01  0.90008484704E+02  0.90000755899E+02 0.  0.
        -12    1    1    2    0    0 -0.11435717658E+01 -0.27880559987E+00  0.75943315827E-01  0.11795152959E+01  0.00000000000E+00 0.  1.
         11    1    3    3    0    0  0.77714466059E+01  0.49920907120E+01 -0.39388299498E+01  0.10041450775E+02  0.51100000000E-03 0. -1.
        -11    1    3    3    0    0  0.30899209774E+02 -0.21555133134E+02  0.83530246744E+01  0.38589609360E+02  0.51100000000E-03 0.  1.
         12    1    3    3    0    0 -0.37527084614E+02  0.16841848021E+02 -0.44901380405E+01  0.41377424570E+02  0.00000000000E+00 0. -1.
</event>
<event>
 7    1  0.2542335E-015  0.9000777E+02  0.7816164E-02  0.1186339E+00
        -11   -1    0    0    0    0  0.00000000000E+00  0.00000000000E+00  0.45593999997E+02  0.45594000000E+02  0.51100000000E-03 0. -1.
         11   -1    0    0    0    0 -0.00000000000E+00 -0.00000000000E+00 -0.45593999997E+02  0.45594000000E+02  0.51100000000E-03 0.  1.
    9900012    2    1    2    0    0  0.45367842471E-02 -0.11712350846E+01  0.14533997383E+00  0.90007772940E+02  0.90000034743E+02 0.  0.
        -12    1    1    2    0    0 -0.45367842471E-02  0.11712350846E+01 -0.14533997383E+00  0.11802270603E+01  0.00000000000E+00 0.  1.
         11    1    3    3    0    0  0.55096601865E+01 -0.35582997620E+01  0.79830652705E+01  0.10331852880E+02  0.51100000000E-03 0. -1.
        -11    1    3    3    0    0  0.18994475812E+02  0.33115034210E+02  0.46079658742E+01  0.38452944645E+02  0.51100000000E-03 0.  1.
         12    1    3    3    0    0 -0.24499599215E+02 -0.30727969533E+02 -0.12445691171E+02  0.41222975414E+02  0.00000000000E+00 0. -1.
</event>
<event>
 7    1  0.2804375E-015  0.9000774E+02  0.7816164E-02  0.1186339E+00
        -11   -1    0    0    0    0  0.00000000000E+00  0.00000000000E+00  0.45593999997E+02  0.45594000000E+02  0.51100000000E-03 0. -1.
         11   -1    0    0    0    0 -0.00000000000E+00 -0.00000000000E+00 -0.45593999997E+02  0.45594000000E+02  0.51100000000E-03 0.  1.
    9900012    2    1    2    0    0  0.37859865711E+00  0.41952589815E+00  0.10361792913E+01  0.90007743059E+02  0.90000004468E+02 0.  0.
        -12    1    1    2    0    0 -0.37859865711E+00 -0.41952589815E+00 -0.10361792913E+01  0.11802569407E+01  0.00000000000E+00 0.  1.
         11    1    3    3    0    0  0.65917214971E+00  0.88085013128E+01 -0.47381853306E+01  0.10023702100E+02  0.51100000000E-03 0. -1.
        -11    1    3    3    0    0 -0.16691426243E+02  0.29248588961E+02 -0.11291756046E+02  0.35518831922E+02  0.51100000000E-03 0.  1.
         12    1    3    3    0    0  0.16410852750E+02 -0.37637564375E+02  0.17066120668E+02  0.44465209038E+02  0.00000000000E+00 0. -1.
</event>
<event>
 7    1  0.2542335E-015  0.9000774E+02  0.7816164E-02  0.1186339E+00
        -11   -1    0    0    0    0  0.00000000000E+00  0.00000000000E+00  0.45593999997E+02  0.45594000000E+02  0.51100000000E-03 0.  1.
         11   -1    0    0    0    0 -0.00000000000E+00 -0.00000000000E+00 -0.45593999997E+02  0.45594000000E+02  0.51100000000E-03 0. -1.
    9900012    2    1    2    0    0  0.38176837467E+00  0.80899573313E+00 -0.76992594490E+00  0.90007742762E+02  0.90000004166E+02 0.  0.
        -12    1    1    2    0    0 -0.38176837467E+00 -0.80899573313E+00  0.76992594490E+00  0.11802572384E+01  0.00000000000E+00 0.  1.
         11    1    3    3    0    0  0.17986997043E+02  0.36749473922E+02  0.10638084612E+02  0.42275580903E+02  0.51100000000E-03 0. -1.
        -11    1    3    3    0    0 -0.73206420652E+01  0.78605145706E+00 -0.53811184271E+01  0.91195456535E+01  0.51100000000E-03 0.  1.
        -12    1    3    3    0    0 -0.10284586604E+02 -0.36726529646E+02 -0.60268921300E+01  0.38612616205E+02  0.00000000000E+00 0.  1.
</event>
<event>
 7    1  0.2542335E-015  0.9000775E+02  0.7816164E-02  0.1186339E+00
        -11   -1    0    0    0    0  0.00000000000E+00  0.00000000000E+00  0.45593999997E+02  0.45594000000E+02  0.51100000000E-03 0. -1.
         11   -1    0    0    0    0 -0.00000000000E+00 -0.00000000000E+00 -0.45593999997E+02  0.45594000000E+02  0.51100000000E-03 0.  1.
    9900012    2    1    2    0    0 -0.68373046037E+00  0.94324295297E+00  0.18921688966E+00  0.90007746789E+02  0.90000008247E+02 0.  0.
        -12    1    1    2    0    0  0.68373046037E+00 -0.94324295297E+00 -0.18921688966E+00  0.11802532110E+01  0.00000000000E+00 0.  1.
         11    1    3    3    0    0 -0.28899573614E+02  0.16711246493E+02  0.15199142481E+02  0.36680581331E+02  0.51100000000E-03 0. -1.
        -11    1    3    3    0    0  0.28943869086E+00 -0.12126346337E+01  0.11862755461E+02  0.11928085551E+02  0.51100000000E-03 0.  1.
        -12    1    3    3    0    0  0.27926404462E+02 -0.14555368906E+02 -0.26872681052E+02  0.41399079907E+02  0.00000000000E+00 0.  1.
</event>
<event>
 7    1  0.2542335E-015  0.9000767E+02  0.7816164E-02  0.1186339E+00
        -11   -1    0    0    0    0  0.00000000000E+00  0.00000000000E+00  0.45593999997E+02  0.45594000000E+02  0.51100000000E-03 0. -1.
         11   -1    0    0    0    0 -0.00000000000E+00 -0.00000000000E+00 -0.45593999997E+02  0.45594000000E+02  0.51100000000E-03 0.  1.
    9900012    2    1    2    0    0  0.69187516564E+00  0.54959029551E+00  0.78258731222E+00  0.90007667996E+02  0.89999928414E+02 0.  0.
        -12    1    1    2    0    0 -0.69187516564E+00 -0.54959029551E+00 -0.78258731222E+00  0.11803320037E+01  0.00000000000E+00 0.  1.
         11    1    3    3    0    0  0.40380370430E+00  0.35348700159E+02  0.19015776336E+02  0.40140919400E+02  0.51100000000E-03 0. -1.
        -11    1    3    3    0    0 -0.78411158724E+01  0.10761355262E+01  0.16017963106E+01  0.80750800292E+01  0.51100000000E-03 0.  1.
        -12    1    3    3    0    0  0.81291873338E+01 -0.35875245389E+02 -0.19834985334E+02  0.41791668568E+02  0.00000000000E+00 0.  1.
</event>
<event>
 7    1  0.2542335E-015  0.9000789E+02  0.7816164E-02  0.1186339E+00
        -11   -1    0    0    0    0  0.00000000000E+00  0.00000000000E+00  0.45593999997E+02  0.45594000000E+02  0.51100000000E-03 0. -1.
         11   -1    0    0    0    0 -0.00000000000E+00 -0.00000000000E+00 -0.45593999997E+02  0.45594000000E+02  0.51100000000E-03 0.  1.
    9900012    2    1    2    0    0  0.37653558227E+00  0.11173206746E+01  0.49761259629E-01  0.90007889532E+02  0.90000152873E+02 0.  0.
        -12    1    1    2    0    0 -0.37653558227E+00 -0.11173206746E+01 -0.49761259629E-01  0.11801104684E+01  0.00000000000E+00 0.  1.
         11    1    3    3    0    0  0.33104255811E+01 -0.80889399861E+01  0.35067885360E+02  0.36140648189E+02  0.51100000000E-03 0. -1.
        -11    1    3    3    0    0  0.45374994188E+01 -0.43978568227E+01  0.67874083063E+01  0.92735622814E+01  0.51100000000E-03 0.  1.
        -12    1    3    3    0    0 -0.74713894177E+01  0.13604117483E+02 -0.41805532407E+02  0.44593679061E+02  0.00000000000E+00 0.  1.
</event>
<event>
 7    1  0.2542335E-015  0.9000769E+02  0.7816164E-02  0.1186339E+00
        -11   -1    0    0    0    0  0.00000000000E+00  0.00000000000E+00  0.45593999997E+02  0.45594000000E+02  0.51100000000E-03 0.  1.
         11   -1    0    0    0    0 -0.00000000000E+00 -0.00000000000E+00 -0.45593999997E+02  0.45594000000E+02  0.51100000000E-03 0. -1.
    9900012    2    1    2    0    0  0.10806268807E+01  0.11759444543E+00 -0.45994759762E+00  0.90007688727E+02  0.89999949418E+02 0.  0.
        -12    1    1    2    0    0 -0.10806268807E+01 -0.11759444543E+00  0.45994759762E+00  0.11803112732E+01  0.00000000000E+00 0.  1.
         11    1    3    3    0    0 -0.20011122209E+02 -0.22069421145E+02 -0.15814101645E+02  0.33728180693E+02  0.51100000000E-03 0. -1.
        -11    1    3    3    0    0  0.28399811335E+01 -0.64943326772E+01 -0.11122698397E+02  0.13189248260E+02  0.51100000000E-03 0.  1.
        -12    1    3    3    0    0  0.18251767957E+02  0.28681348268E+02  0.26476852445E+02  0.43090259774E+02  0.00000000000E+00 0.  1.
</event>
<event>
 7    1  0.2542335E-015  0.9000775E+02  0.7816164E-02  0.1186339E+00
        -11   -1    0    0    0    0  0.00000000000E+00  0.00000000000E+00  0.45593999997E+02  0.45594000000E+02  0.51100000000E-03 0. -1.
         11   -1    0    0    0    0 -0.00000000000E+00 -0.00000000000E+00 -0.45593999997E+02  0.45594000000E+02  0.51100000000E-03 0.  1.
    9900012    2    1    2    0    0 -0.65838503413E+00 -0.97697639887E+00  0.70903807050E-01  0.90007753802E+02  0.90000015353E+02 0.  0.
        -12    1    1    2    0    0  0.65838503413E+00  0.97697639887E+00 -0.70903807050E-01  0.11802461976E+01  0.00000000000E+00 0.  1.
         11    1    3    3    0    0 -0.13060194715E+02 -0.11645108515E+02  0.34037612838E+02  0.38271873828E+02  0.51100000000E-03 0. -1.
        -11    1    3    3    0    0  0.68739171299E+01  0.64810947316E+01  0.59870265356E+01  0.11184802753E+02  0.51100000000E-03 0.  1.
        -12    1    3    3    0    0  0.55278925506E+01  0.41870373841E+01 -0.39953735567E+02  0.40551077222E+02  0.00000000000E+00 0.  1.
</event>
<event>
 7    1  0.2542335E-015  0.9000816E+02  0.7816164E-02  0.1186338E+00
        -11   -1    0    0    0    0  0.00000000000E+00  0.00000000000E+00  0.45593999997E+02  0.45594000000E+02  0.51100000000E-03 0.  1.
         11   -1    0    0    0    0 -0.00000000000E+00 -0.00000000000E+00 -0.45593999997E+02  0.45594000000E+02  0.51100000000E-03 0. -1.
    9900012    2    1    2    0    0  0.89996048412E-01  0.61124374782E+00 -0.10051436500E+01  0.90008155957E+02  0.90000422815E+02 0.  0.
        -12    1    1    2    0    0 -0.89996048412E-01 -0.61124374782E+00  0.10051436500E+01  0.11798440427E+01  0.00000000000E+00 0.  1.
         11    1    3    3    0    0  0.89895791185E+01 -0.25817390408E+00  0.31480914811E+01  0.95283611774E+01  0.51100000000E-03 0. -1.
        -11    1    3    3    0    0  0.30394909064E+01  0.34384611008E+02 -0.21737956062E+02  0.40793120904E+02  0.51100000000E-03 0.  1.
         12    1    3    3    0    0 -0.11939073977E+02 -0.33515193356E+02  0.17584720931E+02  0.39686673875E+02  0.00000000000E+00 0. -1.
</event>
<event>
 7    1  0.2542335E-015  0.9000768E+02  0.7816164E-02  0.1186339E+00
        -11   -1    0    0    0    0  0.00000000000E+00  0.00000000000E+00  0.45593999997E+02  0.45594000000E+02  0.51100000000E-03 0.  1.
         11   -1    0    0    0    0 -0.00000000000E+00 -0.00000000000E+00 -0.45593999997E+02  0.45594000000E+02  0.51100000000E-03 0. -1.
    9900012    2    1    2    0    0  0.87775678730E+00  0.53991044342E-01 -0.78726450405E+00  0.90007679107E+02  0.89999939671E+02 0.  0.
        -12    1    1    2    0    0 -0.87775678730E+00 -0.53991044342E-01  0.78726450405E+00  0.11803208928E+01  0.00000000000E+00 0.  1.
         11    1    3    3    0    0  0.87502387389E+01 -0.68941799618E+01 -0.17652320076E+01  0.11278849216E+02  0.51100000000E-03 0. -1.
        -11    1    3    3    0    0  0.13133225825E+02 -0.25669313663E+02  0.20421412647E+02  0.35333120146E+02  0.51100000000E-03 0.  1.
         12    1    3    3    0    0 -0.21005707776E+02  0.32617484669E+02 -0.19443445143E+02  0.43395709746E+02  0.00000000000E+00 0. -1.
</event>
<event>
 7    1  0.2542335E-015  0.9000784E+02  0.7816164E-02  0.1186339E+00
        -11   -1    0    0    0    0  0.00000000000E+00  0.00000000000E+00  0.45593999997E+02  0.45594000000E+02  0.51100000000E-03 0.  1.
         11   -1    0    0    0    0 -0.00000000000E+00 -0.00000000000E+00 -0.45593999997E+02  0.45594000000E+02  0.51100000000E-03 0. -1.
    9900012    2    1    2    0    0 -0.34000390584E+00  0.11148419601E+01  0.18520901411E+00  0.90007839998E+02  0.90000102686E+02 0.  0.
        -12    1    1    2    0    0  0.34000390584E+00 -0.11148419601E+01 -0.18520901411E+00  0.11801600023E+01  0.00000000000E+00 0.  1.
         11    1    3    3    0    0  0.33979727989E+02  0.89880571058E+01  0.14566827427E+02  0.38047332972E+02  0.51100000000E-03 0. -1.
        -11    1    3    3    0    0  0.62194985354E+01 -0.70202490690E+01 -0.24667861059E+01  0.96979942759E+01  0.51100000000E-03 0.  1.
        -12    1    3    3    0    0 -0.40539230430E+02 -0.85296607660E+00 -0.11914832307E+02  0.42262512750E+02  0.00000000000E+00 0.  1.
</event>
<event>
 7    1  0.2542335E-015  0.9000773E+02  0.7816164E-02  0.1186339E+00
        -11   -1    0    0    0    0  0.00000000000E+00  0.00000000000E+00  0.45593999997E+02  0.45594000000E+02  0.51100000000E-03 0.  1.
         11   -1    0    0    0    0 -0.00000000000E+00 -0.00000000000E+00 -0.45593999997E+02  0.45594000000E+02  0.51100000000E-03 0. -1.
    9900012    2    1    2    0    0  0.24967630840E-01  0.30798956561E+00 -0.11390988895E+01  0.90007734252E+02  0.89999995544E+02 0.  0.
        -12    1    1    2    0    0 -0.24967630840E-01 -0.30798956561E+00  0.11390988895E+01  0.11802657477E+01  0.00000000000E+00 0.  1.
         11    1    3    3    0    0  0.79050585964E+01 -0.74355676445E+01 -0.62975859960E+00  0.10870796372E+02  0.51100000000E-03 0. -1.
        -11    1    3    3    0    0  0.20747756264E+02  0.96881875373E+01  0.29680260775E+02  0.37486640923E+02  0.51100000000E-03 0.  1.
         12    1    3    3    0    0 -0.28627847230E+02 -0.19446303272E+01 -0.30189601065E+02  0.41650296957E+02  0.00000000000E+00 0. -1.
</event>
<event>
 7    1  0.2542335E-015  0.9000812E+02  0.7816164E-02  0.1186338E+00
        -11   -1    0    0    0    0  0.00000000000E+00  0.00000000000E+00  0.45593999997E+02  0.45594000000E+02  0.51100000000E-03 0. -1.
         11   -1    0    0    0    0 -0.00000000000E+00 -0.00000000000E+00 -0.45593999997E+02  0.45594000000E+02  0.51100000000E-03 0.  1.
    9900012    2    1    2    0    0  0.83851940015E+00 -0.74248577120E+00  0.37109547788E+00  0.90008122143E+02  0.90000388554E+02 0.  0.
        -12    1    1    2    0    0 -0.83851940015E+00  0.74248577120E+00 -0.37109547788E+00  0.11798778575E+01  0.00000000000E+00 0.  1.
         11    1    3    3    0    0  0.35431969511E+01  0.95299293629E+00 -0.70423098902E+01  0.79408166471E+01  0.51100000000E-03 0. -1.
        -11    1    3    3    0    0  0.31297037014E+02  0.90677780919E+01 -0.18970578763E+02  0.37704270106E+02  0.51100000000E-03 0.  1.
         12    1    3    3    0    0 -0.34001714565E+02 -0.10763256799E+02  0.26383984131E+02  0.44363035389E+02  0.00000000000E+00 0. -1.
</event>
<event>
 7    1  0.2542335E-015  0.9000766E+02  0.7816164E-02  0.1186339E+00
        -11   -1    0    0    0    0  0.00000000000E+00  0.00000000000E+00  0.45593999997E+02  0.45594000000E+02  0.51100000000E-03 0.  1.
         11   -1    0    0    0    0 -0.00000000000E+00 -0.00000000000E+00 -0.45593999997E+02  0.45594000000E+02  0.51100000000E-03 0. -1.
    9900012    2    1    2    0    0 -0.10491103881E+01 -0.49103626368E+00  0.22682932074E+00  0.90007660744E+02  0.89999921066E+02 0.  0.
        -12    1    1    2    0    0  0.10491103881E+01  0.49103626368E+00 -0.22682932074E+00  0.11803392560E+01  0.00000000000E+00 0.  1.
         11    1    3    3    0    0  0.81443152452E+01  0.45655559218E+00  0.34789816820E+01  0.88680114810E+01  0.51100000000E-03 0. -1.
        -11    1    3    3    0    0 -0.79275747702E+01 -0.39054756055E+02  0.94407631277E+01  0.40954223481E+02  0.51100000000E-03 0.  1.
         12    1    3    3    0    0 -0.12658508630E+01  0.38107164199E+02 -0.12692915489E+02  0.40185425782E+02  0.00000000000E+00 0. -1.
</event>
<event>
 7    1  0.2542335E-015  0.9000765E+02  0.7816164E-02  0.1186339E+00
        -11   -1    0    0    0    0  0.00000000000E+00  0.00000000000E+00  0.45593999997E+02  0.45594000000E+02  0.51100000000E-03 0.  1.
         11   -1    0    0    0    0 -0.00000000000E+00 -0.00000000000E+00 -0.45593999997E+02  0.45594000000E+02  0.51100000000E-03 0. -1.
    9900012    2    1    2    0    0  0.10656001770E+01 -0.27489945002E-01 -0.50690793502E+00  0.90007654674E+02  0.89999914916E+02 0.  0.
        -12    1    1    2    0    0 -0.10656001770E+01  0.27489945002E-01  0.50690793502E+00  0.11803453261E+01  0.00000000000E+00 0.  1.
         11    1    3    3    0    0  0.37328655540E+01 -0.15525469674E+02 -0.21564591327E+02  0.26832929270E+02  0.51100000000E-03 0. -1.
        -11    1    3    3    0    0  0.25156232765E+02 -0.14234969793E+01  0.16173083522E+01  0.25248328205E+02  0.51100000000E-03 0.  1.
        -12    1    3    3    0    0 -0.27823498142E+02  0.16921476708E+02  0.19440375040E+02  0.37926397199E+02  0.00000000000E+00 0.  1.
</event>
<event>
 7    1  0.2542335E-015  0.9000735E+02  0.7816164E-02  0.1186340E+00
        -11   -1    0    0    0    0  0.00000000000E+00  0.00000000000E+00  0.45593999997E+02  0.45594000000E+02  0.51100000000E-03 0.  1.
         11   -1    0    0    0    0 -0.00000000000E+00 -0.00000000000E+00 -0.45593999997E+02  0.45594000000E+02  0.51100000000E-03 0. -1.
    9900012    2    1    2    0    0 -0.27522024087E+00  0.10950346937E+01  0.34508674309E+00  0.90007351017E+02  0.89999607249E+02 0.  0.
        -12    1    1    2    0    0  0.27522024087E+00 -0.10950346937E+01 -0.34508674309E+00  0.11806489833E+01  0.00000000000E+00 0.  1.
         11    1    3    3    0    0 -0.11918208813E+02  0.72422609397E+01  0.39142050793E+01  0.14484993838E+02  0.51100000000E-03 0. -1.
        -11    1    3    3    0    0 -0.15594754754E+02  0.20262787367E+02  0.18565447785E+02  0.31598303427E+02  0.51100000000E-03 0.  1.
         12    1    3    3    0    0  0.27237743326E+02 -0.26410013613E+02 -0.22134566122E+02  0.43924053751E+02  0.00000000000E+00 0. -1.
</event>
<event>
 7    1  0.2542335E-015  0.9000734E+02  0.7816164E-02  0.1186340E+00
        -11   -1    0    0    0    0  0.00000000000E+00  0.00000000000E+00  0.45593999997E+02  0.45594000000E+02  0.51100000000E-03 0.  1.
         11   -1    0    0    0    0 -0.00000000000E+00 -0.00000000000E+00 -0.45593999997E+02  0.45594000000E+02  0.51100000000E-03 0. -1.
    9900012    2    1    2    0    0  0.11778274530E+01 -0.52765759354E-01 -0.62448871022E-01  0.90007338492E+02  0.89999594559E+02 0.  0.
        -12    1    1    2    0    0 -0.11778274530E+01  0.52765759354E-01  0.62448871022E-01  0.11806615078E+01  0.00000000000E+00 0.  1.
         11    1    3    3    0    0 -0.14076417887E+02 -0.22910222754E+02 -0.34455651801E+02  0.43706015472E+02  0.51100000000E-03 0. -1.
        -11    1    3    3    0    0  0.84583802757E+01  0.25035475259E+01  0.58216189665E+01  0.10568973212E+02  0.51100000000E-03 0.  1.
        -12    1    3    3    0    0  0.67958650640E+01  0.20353909469E+02  0.28571583964E+02  0.35732349808E+02  0.00000000000E+00 0.  1.
</event>
<event>
 7    1  0.2542335E-015  0.9000772E+02  0.7816164E-02  0.1186339E+00
        -11   -1    0    0    0    0  0.00000000000E+00  0.00000000000E+00  0.45593999997E+02  0.45594000000E+02  0.51100000000E-03 0.  1.
         11   -1    0    0    0    0 -0.00000000000E+00 -0.00000000000E+00 -0.45593999997E+02  0.45594000000E+02  0.51100000000E-03 0. -1.
    9900012    2    1    2    0    0 -0.26952035319E+00  0.67615786007E+00 -0.92910620202E+00  0.90007716556E+02  0.89999977615E+02 0.  0.
        -12    1    1    2    0    0  0.26952035319E+00 -0.67615786007E+00  0.92910620202E+00  0.11802834436E+01  0.00000000000E+00 0.  1.
         11    1    3    3    0    0 -0.22349358402E+01 -0.35348218758E+02  0.11934921656E+02  0.37375578427E+02  0.51100000000E-03 0. -1.
        -11    1    3    3    0    0 -0.80853849479E+01 -0.37288654442E+01  0.18015748269E+01  0.90842478706E+01  0.51100000000E-03 0.  1.
        -12    1    3    3    0    0  0.10050800435E+02  0.39753242062E+02 -0.14665602685E+02  0.43547890258E+02  0.00000000000E+00 0.  1.
</event>
<event>
 7    1  0.2542335E-015  0.9000762E+02  0.7816164E-02  0.1186339E+00
        -11   -1    0    0    0    0  0.00000000000E+00  0.00000000000E+00  0.45593999997E+02  0.45594000000E+02  0.51100000000E-03 0. -1.
         11   -1    0    0    0    0 -0.00000000000E+00 -0.00000000000E+00 -0.45593999997E+02  0.45594000000E+02  0.51100000000E-03 0.  1.
    9900012    2    1    2    0    0  0.16978573451E+00 -0.11652810578E+01  0.81167017669E-01  0.90007620729E+02  0.89999880522E+02 0.  0.
        -12    1    1    2    0    0 -0.16978573451E+00  0.11652810578E+01 -0.81167017669E-01  0.11803792713E+01  0.00000000000E+00 0.  1.
         11    1    3    3    0    0  0.87001258781E+01 -0.46556200378E+01  0.40080910164E+02  0.41277673724E+02  0.51100000000E-03 0. -1.
        -11    1    3    3    0    0 -0.83263766646E+01  0.71364795821E+01 -0.27555113649E+01  0.11307109813E+02  0.51100000000E-03 0.  1.
        -12    1    3    3    0    0 -0.20396347896E+00 -0.36461406021E+01 -0.37244231782E+02  0.37422837191E+02  0.00000000000E+00 0.  1.
</event>
<event>
 7    1  0.2542335E-015  0.9000773E+02  0.7816164E-02  0.1186339E+00
        -11   -1    0    0    0    0  0.00000000000E+00  0.00000000000E+00  0.45593999997E+02  0.45594000000E+02  0.51100000000E-03 0. -1.
         11   -1    0    0    0    0 -0.00000000000E+00 -0.00000000000E+00 -0.45593999997E+02  0.45594000000E+02  0.51100000000E-03 0.  1.
    9900012    2    1    2    0    0 -0.70678850065E+00 -0.66140047418E+00  0.67530234960E+00  0.90007731456E+02  0.89999992712E+02 0.  0.
        -12    1    1    2    0    0  0.70678850065E+00  0.66140047418E+00 -0.67530234960E+00  0.11802685437E+01  0.00000000000E+00 0.  1.
         11    1    3    3    0    0  0.28870063013E+02  0.88000908437E+01  0.22992201303E+02  0.37941579543E+02  0.51100000000E-03 0. -1.
        -11    1    3    3    0    0  0.62142242884E+01  0.54293840028E+01 -0.45529469857E+01  0.94246549365E+01  0.51100000000E-03 0.  1.
        -12    1    3    3    0    0 -0.35791075802E+02 -0.14890875321E+02 -0.17763951967E+02  0.42641496976E+02  0.00000000000E+00 0.  1.
</event>
<event>
 8    1  0.2542335E-015  0.9000756E+02  0.7816164E-02  0.1186339E+00
        -11   -1    0    0    0    0  0.00000000000E+00  0.00000000000E+00  0.45593999997E+02  0.45594000000E+02  0.51100000000E-03 0.  1.
         11   -1    0    0    0    0 -0.00000000000E+00 -0.00000000000E+00 -0.45593999997E+02  0.45594000000E+02  0.51100000000E-03 0. -1.
    9900012    2    1    2    0    0  0.10925934175E+01  0.40475265862E+00  0.18932755753E+00  0.90007563634E+02  0.89999822674E+02 0.  0.
         23    2    3    3    0    0  0.13061421444E+01  0.20770676944E+02 -0.16123237693E+02  0.63913191441E+02  0.58239249810E+02 0.  0.
        -12    1    1    2    0    0 -0.10925934175E+01 -0.40475265862E+00 -0.18932755753E+00  0.11804363662E+01  0.00000000000E+00 0.  1.
         11    1    4    4    0    0 -0.25870572589E+02 -0.22868024654E+01 -0.95519327154E+01  0.27672285964E+02  0.51100000000E-03 0. -1.
        -11    1    4    4    0    0  0.27176714734E+02  0.23057479409E+02 -0.65713049781E+01  0.36240905477E+02  0.51100000000E-03 0.  1.
         12    1    3    3    0    0 -0.21354872698E+00 -0.20365924285E+02  0.16312565251E+02  0.26094372193E+02  0.00000000000E+00 0. -1.
</event>
<event>
 7    1  0.2542335E-015  0.9000756E+02  0.7816164E-02  0.1186339E+00
        -11   -1    0    0    0    0  0.00000000000E+00  0.00000000000E+00  0.45593999997E+02  0.45594000000E+02  0.51100000000E-03 0.  1.
         11   -1    0    0    0    0 -0.00000000000E+00 -0.00000000000E+00 -0.45593999997E+02  0.45594000000E+02  0.51100000000E-03 0. -1.
    9900012    2    1    2    0    0  0.31215361073E+00  0.19966683191E+00 -0.11207746236E+01  0.90007558355E+02  0.89999817325E+02 0.  0.
        -12    1    1    2    0    0 -0.31215361073E+00 -0.19966683191E+00  0.11207746236E+01  0.11804416450E+01  0.00000000000E+00 0.  1.
         11    1    3    3    0    0  0.96210366448E+01  0.75310291815E+00  0.39418933227E+01  0.10424491995E+02  0.51100000000E-03 0. -1.
        -11    1    3    3    0    0 -0.20209603174E+02  0.21329846524E+02  0.26562382479E+02  0.39609980768E+02  0.51100000000E-03 0.  1.
         12    1    3    3    0    0  0.10900720140E+02 -0.21883282611E+02 -0.31625050425E+02  0.39973085592E+02  0.00000000000E+00 0. -1.
</event>
<event>
 7    1  0.2542335E-015  0.9000801E+02  0.7816164E-02  0.1186339E+00
        -11   -1    0    0    0    0  0.00000000000E+00  0.00000000000E+00  0.45593999997E+02  0.45594000000E+02  0.51100000000E-03 0. -1.
         11   -1    0    0    0    0 -0.00000000000E+00 -0.00000000000E+00 -0.45593999997E+02  0.45594000000E+02  0.51100000000E-03 0.  1.
    9900012    2    1    2    0    0 -0.10167617728E+01  0.36215581878E+00  0.47688669860E+00  0.90008007516E+02  0.90000272414E+02 0.  0.
        -12    1    1    2    0    0  0.10167617728E+01 -0.36215581878E+00 -0.47688669860E+00  0.11799924843E+01  0.00000000000E+00 0.  1.
         11    1    3    3    0    0  0.62073226351E+01 -0.37553735266E+01 -0.68809487621E+01  0.99990569930E+01  0.51100000000E-03 0. -1.
        -11    1    3    3    0    0 -0.54965620718E+00 -0.21570800870E+02 -0.28281112947E+02  0.35572783443E+02  0.51100000000E-03 0.  1.
         12    1    3    3    0    0 -0.66744282007E+01  0.25688330216E+02  0.35638948408E+02  0.44436167079E+02  0.00000000000E+00 0. -1.
</event>
<event>
 7    1  0.2542335E-015  0.9000758E+02  0.7816164E-02  0.1186339E+00
        -11   -1    0    0    0    0  0.00000000000E+00  0.00000000000E+00  0.45593999997E+02  0.45594000000E+02  0.51100000000E-03 0. -1.
         11   -1    0    0    0    0 -0.00000000000E+00 -0.00000000000E+00 -0.45593999997E+02  0.45594000000E+02  0.51100000000E-03 0.  1.
    9900012    2    1    2    0    0 -0.80440920353E+00  0.48475466956E+00  0.71506680698E+00  0.90007584059E+02  0.89999843368E+02 0.  0.
        -12    1    1    2    0    0  0.80440920353E+00 -0.48475466956E+00 -0.71506680698E+00  0.11804159414E+01  0.00000000000E+00 0.  1.
         11    1    3    3    0    0  0.46536510907E+01 -0.39715672839E+02  0.56867314997E+01  0.40389727072E+02  0.51100000000E-03 0. -1.
        -11    1    3    3    0    0  0.81086995221E+01  0.35474161105E+01  0.36853218857E+01  0.95873232272E+01  0.51100000000E-03 0.  1.
        -12    1    3    3    0    0 -0.13566759816E+02  0.36653011398E+02 -0.86569865785E+01  0.40030533760E+02  0.00000000000E+00 0.  1.
</event>
<event>
 7    1  0.2542335E-015  0.9000788E+02  0.7816164E-02  0.1186339E+00
        -11   -1    0    0    0    0  0.00000000000E+00  0.00000000000E+00  0.45593999997E+02  0.45594000000E+02  0.51100000000E-03 0. -1.
         11   -1    0    0    0    0 -0.00000000000E+00 -0.00000000000E+00 -0.45593999997E+02  0.45594000000E+02  0.51100000000E-03 0.  1.
    9900012    2    1    2    0    0  0.27991892600E-01  0.10211353514E+01  0.59091024453E+00  0.90007883112E+02  0.90000146369E+02 0.  0.
        -12    1    1    2    0    0 -0.27991892600E-01 -0.10211353514E+01 -0.59091024453E+00  0.11801168878E+01  0.00000000000E+00 0.  1.
         11    1    3    3    0    0 -0.31716727308E+01  0.13158675277E+02 -0.27093529519E+01  0.13804015236E+02  0.51100000000E-03 0. -1.
        -11    1    3    3    0    0 -0.28673754253E+02 -0.99638030861E+01 -0.20271183594E+02  0.36501814195E+02  0.51100000000E-03 0.  1.
         12    1    3    3    0    0  0.31873418877E+02 -0.21737368392E+01  0.23571446791E+02  0.39702053682E+02  0.00000000000E+00 0. -1.
</event>
<event>
 7    1  0.2542335E-015  0.9000770E+02  0.7816164E-02  0.1186339E+00
        -11   -1    0    0    0    0  0.00000000000E+00  0.00000000000E+00  0.45593999997E+02  0.45594000000E+02  0.51100000000E-03 0. -1.
         11   -1    0    0    0    0 -0.00000000000E+00 -0.00000000000E+00 -0.45593999997E+02  0.45594000000E+02  0.51100000000E-03 0.  1.
    9900012    2    1    2    0    0  0.74285253208E+00 -0.90979164605E+00  0.11639001530E+00  0.90007704546E+02  0.89999965446E+02 0.  0.
        -12    1    1    2    0    0 -0.74285253208E+00  0.90979164605E+00 -0.11639001530E+00  0.11802954542E+01  0.00000000000E+00 0.  1.
         11    1    3    3    0    0 -0.11087335955E+02 -0.54869905005E+01  0.76514903844E+01  0.14545837504E+02  0.51100000000E-03 0. -1.
        -11    1    3    3    0    0 -0.80218740683E+01  0.32504353112E+02 -0.20002770195E+02  0.38999926288E+02  0.51100000000E-03 0.  1.
         12    1    3    3    0    0  0.19852062556E+02 -0.27927154257E+02  0.12467669825E+02  0.36461940753E+02  0.00000000000E+00 0. -1.
</event>
<event>
 7    1  0.2542335E-015  0.9000779E+02  0.7816164E-02  0.1186339E+00
        -11   -1    0    0    0    0  0.00000000000E+00  0.00000000000E+00  0.45593999997E+02  0.45594000000E+02  0.51100000000E-03 0.  1.
         11   -1    0    0    0    0 -0.00000000000E+00 -0.00000000000E+00 -0.45593999997E+02  0.45594000000E+02  0.51100000000E-03 0. -1.
    9900012    2    1    2    0    0  0.11117599761E+01  0.11291874989E+00 -0.37965005744E+00  0.90007790250E+02  0.90000052281E+02 0.  0.
        -12    1    1    2    0    0 -0.11117599761E+01 -0.11291874989E+00  0.37965005744E+00  0.11802097502E+01  0.00000000000E+00 0.  1.
         11    1    3    3    0    0  0.34999463230E+02  0.40484190412E+01 -0.13465785824E+02  0.37718424030E+02  0.51100000000E-03 0. -1.
        -11    1    3    3    0    0 -0.76979233470E-01  0.89382346553E+01 -0.65909622326E+01  0.11105797944E+02  0.51100000000E-03 0.  1.
        -12    1    3    3    0    0 -0.33810724021E+02 -0.12873734947E+02  0.19677098000E+02  0.41183568276E+02  0.00000000000E+00 0.  1.
</event>
<event>
 7    1  0.2542335E-015  0.9000747E+02  0.7816164E-02  0.1186340E+00
        -11   -1    0    0    0    0  0.00000000000E+00  0.00000000000E+00  0.45593999997E+02  0.45594000000E+02  0.51100000000E-03 0.  1.
         11   -1    0    0    0    0 -0.00000000000E+00 -0.00000000000E+00 -0.45593999997E+02  0.45594000000E+02  0.51100000000E-03 0. -1.
    9900012    2    1    2    0    0  0.74071806296E+00 -0.77060277557E+00 -0.50116462747E+00  0.90007467124E+02  0.89999724890E+02 0.  0.
        -12    1    1    2    0    0 -0.74071806296E+00  0.77060277557E+00  0.50116462747E+00  0.11805328756E+01  0.00000000000E+00 0.  1.
         11    1    3    3    0    0 -0.20527208050E+00  0.19250631066E+01 -0.39855061376E+02  0.39902054109E+02  0.51100000000E-03 0. -1.
        -11    1    3    3    0    0 -0.86176302136E+01  0.32676844833E+01  0.48940889890E-01  0.92164910814E+01  0.51100000000E-03 0.  1.
        -12    1    3    3    0    0  0.95636203571E+01 -0.59633503655E+01  0.39304955858E+02  0.40888921934E+02  0.00000000000E+00 0.  1.
</event>
<event>
 7    1  0.2542335E-015  0.9000774E+02  0.7816164E-02  0.1186339E+00
        -11   -1    0    0    0    0  0.00000000000E+00  0.00000000000E+00  0.45593999997E+02  0.45594000000E+02  0.51100000000E-03 0.  1.
         11   -1    0    0    0    0 -0.00000000000E+00 -0.00000000000E+00 -0.45593999997E+02  0.45594000000E+02  0.51100000000E-03 0. -1.
    9900012    2    1    2    0    0 -0.12237629637E+00  0.79858985001E+00 -0.86039571331E+00  0.90007744735E+02  0.90000006166E+02 0.  0.
        -12    1    1    2    0    0  0.12237629637E+00 -0.79858985001E+00  0.86039571331E+00  0.11802552647E+01  0.00000000000E+00 0.  1.
         11    1    3    3    0    0  0.90499939712E+01  0.26175144254E+01 -0.38476573992E+01  0.10176356930E+02  0.51100000000E-03 0. -1.
        -11    1    3    3    0    0  0.17899203717E+02  0.18714650119E+02  0.27621918799E+02  0.37862778836E+02  0.51100000000E-03 0.  1.
         12    1    3    3    0    0 -0.27071573985E+02 -0.20533574694E+02 -0.24634657113E+02  0.41968608969E+02  0.00000000000E+00 0. -1.
</event>
<event>
 7    1  0.2542335E-015  0.9000827E+02  0.7816164E-02  0.1186338E+00
        -11   -1    0    0    0    0  0.00000000000E+00  0.00000000000E+00  0.45593999997E+02  0.45594000000E+02  0.51100000000E-03 0. -1.
         11   -1    0    0    0    0 -0.00000000000E+00 -0.00000000000E+00 -0.45593999997E+02  0.45594000000E+02  0.51100000000E-03 0.  1.
    9900012    2    1    2    0    0 -0.11167958356E+01 -0.33606215789E+00 -0.17774973147E+00  0.90008268811E+02  0.90000537157E+02 0.  0.
        -12    1    1    2    0    0  0.11167958356E+01  0.33606215789E+00  0.17774973147E+00  0.11797311895E+01  0.00000000000E+00 0.  1.
         11    1    3    3    0    0 -0.19635663910E+02  0.32192462822E+02 -0.13594775921E+02  0.40084060327E+02  0.51100000000E-03 0. -1.
        -11    1    3    3    0    0 -0.73168919456E-01  0.54255998476E+01 -0.44860160687E+00  0.54446056845E+01  0.51100000000E-03 0.  1.
        -12    1    3    3    0    0  0.18592036994E+02 -0.37954124827E+02  0.13865627796E+02  0.44479602799E+02  0.00000000000E+00 0.  1.
</event>
<event>
 7    1  0.2542335E-015  0.9000780E+02  0.7816164E-02  0.1186339E+00
        -11   -1    0    0    0    0  0.00000000000E+00  0.00000000000E+00  0.45593999997E+02  0.45594000000E+02  0.51100000000E-03 0.  1.
         11   -1    0    0    0    0 -0.00000000000E+00 -0.00000000000E+00 -0.45593999997E+02  0.45594000000E+02  0.51100000000E-03 0. -1.
    9900012    2    1    2    0    0 -0.84506173983E+00  0.52809471045E+00  0.63234738909E+00  0.90007798073E+02  0.90000060208E+02 0.  0.
        -12    1    1    2    0    0  0.84506173983E+00 -0.52809471045E+00 -0.63234738909E+00  0.11802019267E+01  0.00000000000E+00 0.  1.
         11    1    3    3    0    0 -0.50543097417E+01 -0.47737078068E+01  0.99152794058E+01  0.12109793522E+02  0.51100000000E-03 0. -1.
        -11    1    3    3    0    0 -0.21903173047E+02 -0.21525802314E+02  0.14063753025E+02  0.33777186150E+02  0.51100000000E-03 0.  1.
         12    1    3    3    0    0  0.26112421049E+02  0.26827604831E+02 -0.23346685041E+02  0.44120818402E+02  0.00000000000E+00 0. -1.
</event>
<event>
 7    1  0.2542335E-015  0.9000777E+02  0.7816164E-02  0.1186339E+00
        -11   -1    0    0    0    0  0.00000000000E+00  0.00000000000E+00  0.45593999997E+02  0.45594000000E+02  0.51100000000E-03 0.  1.
         11   -1    0    0    0    0 -0.00000000000E+00 -0.00000000000E+00 -0.45593999997E+02  0.45594000000E+02  0.51100000000E-03 0. -1.
    9900012    2    1    2    0    0 -0.20427824328E+00 -0.10886329211E+01 -0.40753918746E+00  0.90007771451E+02  0.90000033235E+02 0.  0.
        -12    1    1    2    0    0  0.20427824328E+00  0.10886329211E+01  0.40753918746E+00  0.11802285486E+01  0.00000000000E+00 0.  1.
         11    1    3    3    0    0 -0.30113148070E+02 -0.21624345800E+02  0.14735863620E+02  0.39894356679E+02  0.51100000000E-03 0. -1.
        -11    1    3    3    0    0 -0.40834514536E+01  0.63960995424E+01  0.40427588314E+01  0.85981721523E+01  0.51100000000E-03 0.  1.
        -12    1    3    3    0    0  0.33992321280E+02  0.14139613337E+02 -0.19186161639E+02  0.41515242620E+02  0.00000000000E+00 0.  1.
</event>
<event>
 7    1  0.2542335E-015  0.9000770E+02  0.7816164E-02  0.1186339E+00
        -11   -1    0    0    0    0  0.00000000000E+00  0.00000000000E+00  0.45593999997E+02  0.45594000000E+02  0.51100000000E-03 0. -1.
         11   -1    0    0    0    0 -0.00000000000E+00 -0.00000000000E+00 -0.45593999997E+02  0.45594000000E+02  0.51100000000E-03 0.  1.
    9900012    2    1    2    0    0  0.95296424796E+00 -0.29027037434E+00  0.63301405289E+00  0.90007701504E+02  0.89999962364E+02 0.  0.
        -12    1    1    2    0    0 -0.95296424796E+00  0.29027037434E+00 -0.63301405289E+00  0.11802984958E+01  0.00000000000E+00 0.  1.
         11    1    3    3    0    0  0.38621735768E+02 -0.24129812264E+01  0.19759815518E+01  0.38747457407E+02  0.51100000000E-03 0. -1.
        -11    1    3    3    0    0  0.34746356183E+01 -0.73683111688E+01 -0.37492159071E+01  0.89678159180E+01  0.51100000000E-03 0.  1.
        -12    1    3    3    0    0 -0.41143407138E+02  0.94910220209E+01  0.24062484083E+01  0.42292428180E+02  0.00000000000E+00 0.  1.
</event>
<event>
 7    1  0.2542335E-015  0.9000771E+02  0.7816164E-02  0.1186339E+00
        -11   -1    0    0    0    0  0.00000000000E+00  0.00000000000E+00  0.45593999997E+02  0.45594000000E+02  0.51100000000E-03 0. -1.
         11   -1    0    0    0    0 -0.00000000000E+00 -0.00000000000E+00 -0.45593999997E+02  0.45594000000E+02  0.51100000000E-03 0.  1.
    9900012    2    1    2    0    0  0.11234498592E+01  0.33055884564E+00  0.14726189730E+00  0.90007705629E+02  0.89999966543E+02 0.  0.
        -12    1    1    2    0    0 -0.11234498592E+01 -0.33055884564E+00 -0.14726189730E+00  0.11802943713E+01  0.00000000000E+00 0.  1.
         11    1    3    3    0    0 -0.63122584647E+01 -0.68827420078E+01  0.29142976399E+00  0.93435365917E+01  0.51100000000E-03 0. -1.
        -11    1    3    3    0    0 -0.34989637983E+02 -0.46164369468E+01  0.71793749151E+01  0.36015686593E+02  0.51100000000E-03 0.  1.
         12    1    3    3    0    0  0.42425346307E+02  0.11829737800E+02 -0.73235427818E+01  0.44648482445E+02  0.00000000000E+00 0. -1.
</event>
<event>
 7    1  0.2542335E-015  0.9000767E+02  0.7816164E-02  0.1186339E+00
        -11   -1    0    0    0    0  0.00000000000E+00  0.00000000000E+00  0.45593999997E+02  0.45594000000E+02  0.51100000000E-03 0.  1.
         11   -1    0    0    0    0 -0.00000000000E+00 -0.00000000000E+00 -0.45593999997E+02  0.45594000000E+02  0.51100000000E-03 0. -1.
    9900012    2    1    2    0    0 -0.19415619424E+00 -0.11450994946E+01 -0.21030820766E+00  0.90007669952E+02  0.89999930395E+02 0.  0.
        -12    1    1    2    0    0  0.19415619424E+00  0.11450994946E+01  0.21030820766E+00  0.11803300482E+01  0.00000000000E+00 0.  1.
         11    1    3    3    0    0 -0.62389882030E+01 -0.25575409332E+02 -0.28286250903E+02  0.38641150690E+02  0.51100000000E-03 0. -1.
        -11    1    3    3    0    0  0.66283548997E+01 -0.78506331704E+01  0.37333237250E+01  0.10931845048E+02  0.51100000000E-03 0.  1.
        -12    1    3    3    0    0 -0.58352289099E+00  0.32280943008E+02  0.24342618970E+02  0.40434674214E+02  0.00000000000E+00 0.  1.
</event>
<event>
 7    1  0.2542335E-015  0.9000785E+02  0.7816164E-02  0.1186339E+00
        -11   -1    0    0    0    0  0.00000000000E+00  0.00000000000E+00  0.45593999997E+02  0.45594000000E+02  0.51100000000E-03 0.  1.
         11   -1    0    0    0    0 -0.00000000000E+00 -0.00000000000E+00 -0.45593999997E+02  0.45594000000E+02  0.51100000000E-03 0. -1.
    9900012    2    1    2    0    0  0.25742676716E+00  0.11467076738E+01 -0.10749376011E+00  0.90007846646E+02  0.90000109422E+02 0.  0.
        -12    1    1    2    0    0 -0.25742676716E+00 -0.11467076738E+01  0.10749376011E+00  0.11801533536E+01  0.00000000000E+00 0.  1.
         11    1    3    3    0    0 -0.85396497229E+01  0.35223647742E+02 -0.34149770790E+01  0.36404574525E+02  0.51100000000E-03 0. -1.
        -11    1    3    3    0    0 -0.27503035894E+01  0.85455366674E+01  0.29279789784E+01  0.94426388222E+01  0.51100000000E-03 0.  1.
        -12    1    3    3    0    0  0.11547380080E+02 -0.42622476736E+02  0.37950434051E+00  0.44160633299E+02  0.00000000000E+00 0.  1.
</event>
<event>
 7    1  0.2542335E-015  0.9000780E+02  0.7816164E-02  0.1186339E+00
        -11   -1    0    0    0    0  0.00000000000E+00  0.00000000000E+00  0.45593999997E+02  0.45594000000E+02  0.51100000000E-03 0.  1.
         11   -1    0    0    0    0 -0.00000000000E+00 -0.00000000000E+00 -0.45593999997E+02  0.45594000000E+02  0.51100000000E-03 0. -1.
    9900012    2    1    2    0    0  0.96106701075E+00 -0.55579607923E+00 -0.40039940684E+00  0.90007797151E+02  0.90000059273E+02 0.  0.
        -12    1    1    2    0    0 -0.96106701075E+00  0.55579607923E+00  0.40039940684E+00  0.11802028494E+01  0.00000000000E+00 0.  1.
         11    1    3    3    0    0  0.23280806512E+02  0.19683700978E+02 -0.26270158955E+02  0.40243822977E+02  0.51100000000E-03 0. -1.
        -11    1    3    3    0    0 -0.94500251550E+01  0.57059955046E+01  0.16522130448E+00  0.11040319672E+02  0.51100000000E-03 0.  1.
        -12    1    3    3    0    0 -0.12869714346E+02 -0.25945492562E+02  0.25704538243E+02  0.38723654501E+02  0.00000000000E+00 0.  1.
</event>
<event>
 7    1  0.2542335E-015  0.9000767E+02  0.7816164E-02  0.1186339E+00
        -11   -1    0    0    0    0  0.00000000000E+00  0.00000000000E+00  0.45593999997E+02  0.45594000000E+02  0.51100000000E-03 0.  1.
         11   -1    0    0    0    0 -0.00000000000E+00 -0.00000000000E+00 -0.45593999997E+02  0.45594000000E+02  0.51100000000E-03 0. -1.
    9900012    2    1    2    0    0 -0.12479669984E+00  0.33599906727E+00 -0.11245930612E+01  0.90007669901E+02  0.89999930344E+02 0.  0.
        -12    1    1    2    0    0  0.12479669984E+00 -0.33599906727E+00  0.11245930612E+01  0.11803300991E+01  0.00000000000E+00 0.  1.
         11    1    3    3    0    0  0.12580835419E+01  0.36574017223E+02 -0.25575475527E+01  0.36684909156E+02  0.51100000000E-03 0. -1.
        -11    1    3    3    0    0 -0.28295843452E-01  0.80275698246E+01  0.39863455669E+01  0.89629029440E+01  0.51100000000E-03 0.  1.
        -12    1    3    3    0    0 -0.13545843983E+01 -0.44265587980E+02 -0.25533910755E+01  0.44359857801E+02  0.00000000000E+00 0.  1.
</event>
<event>
 7    1  0.2542335E-015  0.9000763E+02  0.7816164E-02  0.1186339E+00
        -11   -1    0    0    0    0  0.00000000000E+00  0.00000000000E+00  0.45593999997E+02  0.45594000000E+02  0.51100000000E-03 0. -1.
         11   -1    0    0    0    0 -0.00000000000E+00 -0.00000000000E+00 -0.45593999997E+02  0.45594000000E+02  0.51100000000E-03 0.  1.
    9900012    2    1    2    0    0 -0.10960966324E+01  0.40145666469E+00 -0.17518402465E+00  0.90007625177E+02  0.89999885029E+02 0.  0.
        -12    1    1    2    0    0  0.10960966324E+01 -0.40145666469E+00  0.17518402465E+00  0.11803748233E+01  0.00000000000E+00 0.  1.
         11    1    3    3    0    0 -0.31118446771E+01  0.37546376345E+02  0.80305426732E+01  0.38521468947E+02  0.51100000000E-03 0. -1.
        -11    1    3    3    0    0  0.50118509765E+01  0.31851326935E+01 -0.92953534339E+01  0.11030290849E+02  0.51100000000E-03 0.  1.
        -12    1    3    3    0    0 -0.29961029317E+01 -0.40330052374E+02  0.10896267361E+01  0.40455865381E+02  0.00000000000E+00 0.  1.
</event>
<event>
 7    1  0.2542335E-015  0.9000770E+02  0.7816164E-02  0.1186339E+00
        -11   -1    0    0    0    0  0.00000000000E+00  0.00000000000E+00  0.45593999997E+02  0.45594000000E+02  0.51100000000E-03 0. -1.
         11   -1    0    0    0    0 -0.00000000000E+00 -0.00000000000E+00 -0.45593999997E+02  0.45594000000E+02  0.51100000000E-03 0.  1.
    9900012    2    1    2    0    0  0.92755677159E+00 -0.15603658115E+00  0.71302210957E+00  0.90007699399E+02  0.89999960231E+02 0.  0.
        -12    1    1    2    0    0 -0.92755677159E+00  0.15603658115E+00 -0.71302210957E+00  0.11803006007E+01  0.00000000000E+00 0.  1.
         11    1    3    3    0    0 -0.29224322317E+02  0.23444145483E+02 -0.13530444498E+02  0.39834180058E+02  0.51100000000E-03 0. -1.
        -11    1    3    3    0    0 -0.50630985822E+01 -0.67224800212E+01  0.57988944374E+01  0.10220268188E+02  0.51100000000E-03 0.  1.
        -12    1    3    3    0    0  0.35214977671E+02 -0.16877702043E+02  0.84445721700E+01  0.39953251153E+02  0.00000000000E+00 0.  1.
</event>
<event>
 7    1  0.2542335E-015  0.9000766E+02  0.7816164E-02  0.1186339E+00
        -11   -1    0    0    0    0  0.00000000000E+00  0.00000000000E+00  0.45593999997E+02  0.45594000000E+02  0.51100000000E-03 0.  1.
         11   -1    0    0    0    0 -0.00000000000E+00 -0.00000000000E+00 -0.45593999997E+02  0.45594000000E+02  0.51100000000E-03 0. -1.
    9900012    2    1    2    0    0  0.10080123263E+00  0.86854285555E+00  0.79288666566E+00  0.90007662402E+02  0.89999922746E+02 0.  0.
        -12    1    1    2    0    0 -0.10080123263E+00 -0.86854285555E+00 -0.79288666566E+00  0.11803375979E+01  0.00000000000E+00 0.  1.
         11    1    3    3    0    0  0.89913533557E+01  0.38703947059E+02 -0.13059376445E+02  0.41825677119E+02  0.51100000000E-03 0. -1.
        -11    1    3    3    0    0 -0.24335355094E+01 -0.72722368255E-01  0.92862589066E+01  0.96001035598E+01  0.51100000000E-03 0.  1.
        -12    1    3    3    0    0 -0.64570166137E+01 -0.37762681835E+02  0.45660042043E+01  0.38581881723E+02  0.00000000000E+00 0.  1.
</event>
<event>
 7    1  0.2542335E-015  0.9000759E+02  0.7816164E-02  0.1186339E+00
        -11   -1    0    0    0    0  0.00000000000E+00  0.00000000000E+00  0.45593999997E+02  0.45594000000E+02  0.51100000000E-03 0.  1.
         11   -1    0    0    0    0 -0.00000000000E+00 -0.00000000000E+00 -0.45593999997E+02  0.45594000000E+02  0.51100000000E-03 0. -1.
    9900012    2    1    2    0    0  0.46321075416E+00  0.10231876028E+01 -0.36318327590E+00  0.90007585172E+02  0.89999844497E+02 0.  0.
        -12    1    1    2    0    0 -0.46321075416E+00 -0.10231876028E+01  0.36318327590E+00  0.11804148276E+01  0.00000000000E+00 0.  1.
         11    1    3    3    0    0 -0.24127283096E+02  0.50622124526E+01 -0.28922649080E+02  0.38003571076E+02  0.51100000000E-03 0. -1.
        -11    1    3    3    0    0 -0.19111303933E+01 -0.89042753989E+01 -0.38236145931E+01  0.98771741190E+01  0.51100000000E-03 0.  1.
        -12    1    3    3    0    0  0.26501624243E+02  0.48652505491E+01  0.32383080397E+02  0.42126839977E+02  0.00000000000E+00 0.  1.
</event>
<event>
 7    1  0.2542335E-015  0.9000781E+02  0.7816164E-02  0.1186339E+00
        -11   -1    0    0    0    0  0.00000000000E+00  0.00000000000E+00  0.45593999997E+02  0.45594000000E+02  0.51100000000E-03 0. -1.
         11   -1    0    0    0    0 -0.00000000000E+00 -0.00000000000E+00 -0.45593999997E+02  0.45594000000E+02  0.51100000000E-03 0.  1.
    9900012    2    1    2    0    0 -0.42835771046E+00 -0.10405309459E+01 -0.35589412850E+00  0.90007806961E+02  0.90000069213E+02 0.  0.
        -12    1    1    2    0    0  0.42835771046E+00  0.10405309459E+01  0.35589412850E+00  0.11801930385E+01  0.00000000000E+00 0.  1.
         11    1    3    3    0    0 -0.59419708801E+01 -0.70090814384E+01 -0.34104271381E+01  0.98012883885E+01  0.51100000000E-03 0. -1.
        -11    1    3    3    0    0  0.77855614650E+01 -0.20564476439E+02 -0.30354857370E+02  0.37482396198E+02  0.51100000000E-03 0.  1.
         12    1    3    3    0    0 -0.22719482954E+01  0.26533026931E+02  0.33409390380E+02  0.42724122375E+02  0.00000000000E+00 0. -1.
</event>
<event>
 7    1  0.2542335E-015  0.9000765E+02  0.7816164E-02  0.1186339E+00
        -11   -1    0    0    0    0  0.00000000000E+00  0.00000000000E+00  0.45593999997E+02  0.45594000000E+02  0.51100000000E-03 0. -1.
         11   -1    0    0    0    0 -0.00000000000E+00 -0.00000000000E+00 -0.45593999997E+02  0.45594000000E+02  0.51100000000E-03 0.  1.
    9900012    2    1    2    0    0  0.10463751073E+01 -0.53542204415E+00 -0.10794343334E+00  0.90007648605E+02  0.89999908767E+02 0.  0.
        -12    1    1    2    0    0 -0.10463751073E+01  0.53542204415E+00  0.10794343334E+00  0.11803513948E+01  0.00000000000E+00 0.  1.
         11    1    3    3    0    0 -0.57162668385E+01 -0.80607269088E+01  0.35726967784E+00  0.98883096003E+01  0.51100000000E-03 0. -1.
        -11    1    3    3    0    0  0.76155662602E+01 -0.35739412091E+02  0.32556913246E+01  0.36686536390E+02  0.51100000000E-03 0.  1.
         12    1    3    3    0    0 -0.85292431441E+00  0.43264716956E+02 -0.37209044358E+01  0.43432802614E+02  0.00000000000E+00 0. -1.
</event>
<event>
 7    1  0.2542335E-015  0.9000763E+02  0.7816164E-02  0.1186339E+00
        -11   -1    0    0    0    0  0.00000000000E+00  0.00000000000E+00  0.45593999997E+02  0.45594000000E+02  0.51100000000E-03 0. -1.
         11   -1    0    0    0    0 -0.00000000000E+00 -0.00000000000E+00 -0.45593999997E+02  0.45594000000E+02  0.51100000000E-03 0.  1.
    9900012    2    1    2    0    0 -0.29614698176E-02 -0.84243828337E+00  0.82678336340E+00  0.90007626431E+02  0.89999886300E+02 0.  0.
        -12    1    1    2    0    0  0.29614698176E-02  0.84243828337E+00 -0.82678336340E+00  0.11803735687E+01  0.00000000000E+00 0.  1.
         11    1    3    3    0    0 -0.18872065649E+01  0.13817869451E+02  0.15823530761E+02  0.21092159463E+02  0.51100000000E-03 0. -1.
        -11    1    3    3    0    0  0.27868196141E+02  0.56455368378E+01  0.69898771009E+01  0.29280826910E+02  0.51100000000E-03 0.  1.
        -12    1    3    3    0    0 -0.25983951046E+02 -0.20305844572E+02 -0.21986624499E+02  0.39634640059E+02  0.00000000000E+00 0.  1.
</event>
<event>
 7    1  0.3259231E-015  0.9000765E+02  0.7816164E-02  0.1186339E+00
        -11   -1    0    0    0    0  0.00000000000E+00  0.00000000000E+00  0.45593999997E+02  0.45594000000E+02  0.51100000000E-03 0.  1.
         11   -1    0    0    0    0 -0.00000000000E+00 -0.00000000000E+00 -0.45593999997E+02  0.45594000000E+02  0.51100000000E-03 0. -1.
    9900012    2    1    2    0    0  0.10327534247E+01 -0.33352433369E+00 -0.46410954377E+00  0.90007654379E+02  0.89999914616E+02 0.  0.
        -12    1    1    2    0    0 -0.10327534247E+01  0.33352433369E+00  0.46410954377E+00  0.11803456215E+01  0.00000000000E+00 0.  1.
         11    1    3    3    0    0  0.52345248500E+01 -0.69659889364E+01  0.41754807808E+01  0.96622922891E+01  0.51100000000E-03 0. -1.
        -11    1    3    3    0    0  0.43510156423E+01 -0.63076331777E+01  0.36020792563E+02  0.36826825421E+02  0.51100000000E-03 0.  1.
         12    1    3    3    0    0 -0.85527870675E+01  0.12940097780E+02 -0.40660382888E+02  0.43518536669E+02  0.00000000000E+00 0. -1.
</event>
<event>
 7    1  0.2542335E-015  0.9000781E+02  0.7816164E-02  0.1186339E+00
        -11   -1    0    0    0    0  0.00000000000E+00  0.00000000000E+00  0.45593999997E+02  0.45594000000E+02  0.51100000000E-03 0. -1.
         11   -1    0    0    0    0 -0.00000000000E+00 -0.00000000000E+00 -0.45593999997E+02  0.45594000000E+02  0.51100000000E-03 0.  1.
    9900012    2    1    2    0    0  0.39930163517E+00 -0.77531681686E+00  0.79516274535E+00  0.90007812831E+02  0.90000075160E+02 0.  0.
        -12    1    1    2    0    0 -0.39930163517E+00  0.77531681686E+00 -0.79516274535E+00  0.11801871690E+01  0.00000000000E+00 0.  1.
         11    1    3    3    0    0 -0.17379619177E+02 -0.40953086989E+01  0.14325069452E+02  0.22891708786E+02  0.51100000000E-03 0. -1.
        -11    1    3    3    0    0 -0.13974904791E+02  0.24050033798E+02 -0.59266955194E+01  0.28439898200E+02  0.51100000000E-03 0.  1.
        -12    1    3    3    0    0  0.31753825603E+02 -0.20730041916E+02 -0.76032111870E+01  0.38676205845E+02  0.00000000000E+00 0.  1.
</event>
<event>
 7    1  0.2542335E-015  0.9000777E+02  0.7816164E-02  0.1186339E+00
        -11   -1    0    0    0    0  0.00000000000E+00  0.00000000000E+00  0.45593999997E+02  0.45594000000E+02  0.51100000000E-03 0.  1.
         11   -1    0    0    0    0 -0.00000000000E+00 -0.00000000000E+00 -0.45593999997E+02  0.45594000000E+02  0.51100000000E-03 0. -1.
    9900012    2    1    2    0    0  0.58720192733E-01  0.34727922274E+00 -0.11264497329E+01  0.90007771242E+02  0.90000033023E+02 0.  0.
        -12    1    1    2    0    0 -0.58720192733E-01 -0.34727922274E+00  0.11264497329E+01  0.11802287576E+01  0.00000000000E+00 0.  1.
         11    1    3    3    0    0 -0.25577240731E+02  0.25049686345E+01 -0.31730365283E+02  0.40832415952E+02  0.51100000000E-03 0. -1.
        -11    1    3    3    0    0 -0.91967657733E+00 -0.10578612394E+02  0.90527468877E+01  0.13953675919E+02  0.51100000000E-03 0.  1.
        -12    1    3    3    0    0  0.26555637501E+02  0.84209229823E+01  0.21551168662E+02  0.35221679370E+02  0.00000000000E+00 0.  1.
</event>
<event>
 7    1  0.2542335E-015  0.9000782E+02  0.7816164E-02  0.1186339E+00
        -11   -1    0    0    0    0  0.00000000000E+00  0.00000000000E+00  0.45593999997E+02  0.45594000000E+02  0.51100000000E-03 0. -1.
         11   -1    0    0    0    0 -0.00000000000E+00 -0.00000000000E+00 -0.45593999997E+02  0.45594000000E+02  0.51100000000E-03 0.  1.
    9900012    2    1    2    0    0 -0.11411942247E+00 -0.10938680966E+01  0.42809096562E+00  0.90007816739E+02  0.90000079120E+02 0.  0.
        -12    1    1    2    0    0  0.11411942247E+00  0.10938680966E+01 -0.42809096562E+00  0.11801832612E+01  0.00000000000E+00 0.  1.
         11    1    3    3    0    0 -0.40237524576E+01 -0.87952783357E+00 -0.87300417194E+01  0.96528639135E+01  0.51100000000E-03 0. -1.
        -11    1    3    3    0    0  0.18790404930E+02 -0.28200950830E+02 -0.18216435358E+02  0.38473516379E+02  0.51100000000E-03 0.  1.
         12    1    3    3    0    0 -0.14880771895E+02  0.27986610567E+02  0.27374568043E+02  0.41881436446E+02  0.00000000000E+00 0. -1.
</event>
<event>
 7    1  0.2542335E-015  0.9000782E+02  0.7816164E-02  0.1186339E+00
        -11   -1    0    0    0    0  0.00000000000E+00  0.00000000000E+00  0.45593999997E+02  0.45594000000E+02  0.51100000000E-03 0.  1.
         11   -1    0    0    0    0 -0.00000000000E+00 -0.00000000000E+00 -0.45593999997E+02  0.45594000000E+02  0.51100000000E-03 0. -1.
    9900012    2    1    2    0    0 -0.56921293680E-01  0.40495056158E+00 -0.11070698406E+01  0.90007818394E+02  0.90000080797E+02 0.  0.
        -12    1    1    2    0    0  0.56921293680E-01 -0.40495056158E+00  0.11070698406E+01  0.11801816059E+01  0.00000000000E+00 0.  1.
         11    1    3    3    0    0 -0.13017984120E+01  0.17279509706E+02 -0.34109227295E+02  0.38258535280E+02  0.51100000000E-03 0. -1.
        -11    1    3    3    0    0 -0.79593929145E+01  0.63704767330E+01 -0.18785663731E+00  0.10196577845E+02  0.51100000000E-03 0.  1.
        -12    1    3    3    0    0  0.92042700328E+01 -0.23245035878E+02  0.33190014092E+02  0.41552705270E+02  0.00000000000E+00 0.  1.
</event>
<event>
 7    1  0.2542335E-015  0.9000771E+02  0.7816164E-02  0.1186339E+00
        -11   -1    0    0    0    0  0.00000000000E+00  0.00000000000E+00  0.45593999997E+02  0.45594000000E+02  0.51100000000E-03 0.  1.
         11   -1    0    0    0    0 -0.00000000000E+00 -0.00000000000E+00 -0.45593999997E+02  0.45594000000E+02  0.51100000000E-03 0. -1.
    9900012    2    1    2    0    0 -0.10236744878E+00  0.11310737903E+01 -0.32138546154E+00  0.90007705279E+02  0.89999966189E+02 0.  0.
        -12    1    1    2    0    0  0.10236744878E+00 -0.11310737903E+01  0.32138546154E+00  0.11802947211E+01  0.00000000000E+00 0.  1.
         11    1    3    3    0    0  0.10493345552E+01 -0.77976784803E+01 -0.16662784537E+01  0.80424733035E+01  0.51100000000E-03 0. -1.
        -11    1    3    3    0    0  0.10809708430E+02 -0.28276877440E+02  0.22319757941E+02  0.37611210947E+02  0.51100000000E-03 0.  1.
         12    1    3    3    0    0 -0.11961410434E+02  0.37205629711E+02 -0.20974864949E+02  0.44354021028E+02  0.00000000000E+00 0. -1.
</event>
<event>
 7    1  0.2542335E-015  0.9000774E+02  0.7816164E-02  0.1186339E+00
        -11   -1    0    0    0    0  0.00000000000E+00  0.00000000000E+00  0.45593999997E+02  0.45594000000E+02  0.51100000000E-03 0. -1.
         11   -1    0    0    0    0 -0.00000000000E+00 -0.00000000000E+00 -0.45593999997E+02  0.45594000000E+02  0.51100000000E-03 0.  1.
    9900012    2    1    2    0    0  0.87688930378E-02  0.11407309472E+01  0.30277662800E+00  0.90007738303E+02  0.89999999648E+02 0.  0.
        -12    1    1    2    0    0 -0.87688930378E-02 -0.11407309472E+01 -0.30277662800E+00  0.11802616972E+01  0.00000000000E+00 0.  1.
         11    1    3    3    0    0 -0.30185497961E+02 -0.14766460198E+02  0.23198676514E+02  0.40833702088E+02  0.51100000000E-03 0. -1.
        -11    1    3    3    0    0  0.56605866229E+01  0.67544015917E+01  0.56255595006E+01  0.10455194964E+02  0.51100000000E-03 0.  1.
        -12    1    3    3    0    0  0.24533680231E+02  0.91527895536E+01 -0.28521459386E+02  0.38718841251E+02  0.00000000000E+00 0.  1.
</event>
<event>
 7    1  0.2542335E-015  0.9000773E+02  0.7816164E-02  0.1186339E+00
        -11   -1    0    0    0    0  0.00000000000E+00  0.00000000000E+00  0.45593999997E+02  0.45594000000E+02  0.51100000000E-03 0.  1.
         11   -1    0    0    0    0 -0.00000000000E+00 -0.00000000000E+00 -0.45593999997E+02  0.45594000000E+02  0.51100000000E-03 0. -1.
    9900012    2    1    2    0    0  0.10989874988E+01  0.26915953095E+00  0.33588123898E+00  0.90007730293E+02  0.89999991532E+02 0.  0.
        -12    1    1    2    0    0 -0.10989874988E+01 -0.26915953095E+00 -0.33588123898E+00  0.11802697075E+01  0.00000000000E+00 0.  1.
         11    1    3    3    0    0  0.76253159321E+00  0.80462532054E+01  0.39806324156E+01  0.90093884234E+01  0.51100000000E-03 0. -1.
        -11    1    3    3    0    0  0.36192724170E+02  0.13335073866E+02 -0.71971783689E+01  0.39236932278E+02  0.51100000000E-03 0.  1.
         12    1    3    3    0    0 -0.35856268264E+02 -0.21112167541E+02  0.35524271923E+01  0.41761409591E+02  0.00000000000E+00 0. -1.
</event>
<event>
 7    1  0.2542335E-015  0.9000754E+02  0.7816164E-02  0.1186339E+00
        -11   -1    0    0    0    0  0.00000000000E+00  0.00000000000E+00  0.45593999997E+02  0.45594000000E+02  0.51100000000E-03 0.  1.
         11   -1    0    0    0    0 -0.00000000000E+00 -0.00000000000E+00 -0.45593999997E+02  0.45594000000E+02  0.51100000000E-03 0. -1.
    9900012    2    1    2    0    0 -0.10245578945E+01  0.70314777979E-01 -0.58207622391E+00  0.90007544250E+02  0.89999803034E+02 0.  0.
        -12    1    1    2    0    0  0.10245578945E+01 -0.70314777979E-01  0.58207622391E+00  0.11804557500E+01  0.00000000000E+00 0.  1.
         11    1    3    3    0    0  0.16942336137E+01 -0.59272097145E+01  0.55828979236E+01  0.83169100045E+01  0.51100000000E-03 0. -1.
        -11    1    3    3    0    0  0.18521563537E+02  0.40014663459E+01  0.32448190860E+02  0.37575858462E+02  0.51100000000E-03 0.  1.
         12    1    3    3    0    0 -0.21240355045E+02  0.19960581466E+01 -0.38613165008E+02  0.44114775784E+02  0.00000000000E+00 0. -1.
</event>
<event>
 7    1  0.2542335E-015  0.9000779E+02  0.7816164E-02  0.1186339E+00
        -11   -1    0    0    0    0  0.00000000000E+00  0.00000000000E+00  0.45593999997E+02  0.45594000000E+02  0.51100000000E-03 0. -1.
         11   -1    0    0    0    0 -0.00000000000E+00 -0.00000000000E+00 -0.45593999997E+02  0.45594000000E+02  0.51100000000E-03 0.  1.
    9900012    2    1    2    0    0 -0.18379508328E+00 -0.18892714568E+00  0.11503971593E+01  0.90007793356E+02  0.90000055428E+02 0.  0.
        -12    1    1    2    0    0  0.18379508328E+00  0.18892714568E+00 -0.11503971593E+01  0.11802066442E+01  0.00000000000E+00 0.  1.
         11    1    3    3    0    0 -0.94696757034E+01  0.34855943599E+02  0.15326940013E+02  0.39236802272E+02  0.51100000000E-03 0. -1.
        -11    1    3    3    0    0  0.36663908695E+01  0.61530414562E+01 -0.24427293967E+01  0.75676461556E+01  0.51100000000E-03 0.  1.
        -12    1    3    3    0    0  0.56194897507E+01 -0.41197912201E+02 -0.11733813457E+02  0.43203344928E+02  0.00000000000E+00 0.  1.
</event>
<event>
 7    1  0.2542335E-015  0.9000768E+02  0.7816164E-02  0.1186339E+00
        -11   -1    0    0    0    0  0.00000000000E+00  0.00000000000E+00  0.45593999997E+02  0.45594000000E+02  0.51100000000E-03 0.  1.
         11   -1    0    0    0    0 -0.00000000000E+00 -0.00000000000E+00 -0.45593999997E+02  0.45594000000E+02  0.51100000000E-03 0. -1.
    9900012    2    1    2    0    0 -0.43518723114E+00  0.77470163292E+00 -0.77691278042E+00  0.90007684782E+02  0.89999945421E+02 0.  0.
        -12    1    1    2    0    0  0.43518723114E+00 -0.77470163292E+00  0.77691278042E+00  0.11803152183E+01  0.00000000000E+00 0.  1.
         11    1    3    3    0    0  0.46843920916E+01  0.10436932341E+02 -0.50619063981E+01  0.12509835435E+02  0.51100000000E-03 0. -1.
        -11    1    3    3    0    0  0.21285082078E+02  0.12536348670E+02  0.26687771669E+02  0.36365531949E+02  0.51100000000E-03 0.  1.
         12    1    3    3    0    0 -0.26404661400E+02 -0.22198579379E+02 -0.22402778051E+02  0.41132317398E+02  0.00000000000E+00 0. -1.
</event>
<event>
 7    1  0.2542335E-015  0.9000757E+02  0.7816164E-02  0.1186339E+00
        -11   -1    0    0    0    0  0.00000000000E+00  0.00000000000E+00  0.45593999997E+02  0.45594000000E+02  0.51100000000E-03 0.  1.
         11   -1    0    0    0    0 -0.00000000000E+00 -0.00000000000E+00 -0.45593999997E+02  0.45594000000E+02  0.51100000000E-03 0. -1.
    9900012    2    1    2    0    0 -0.90087762137E+00 -0.13323760631E-01  0.76267176961E+00  0.90007565233E+02  0.89999824294E+02 0.  0.
        -12    1    1    2    0    0  0.90087762137E+00  0.13323760631E-01 -0.76267176961E+00  0.11804347671E+01  0.00000000000E+00 0.  1.
         11    1    3    3    0    0 -0.67785659314E+01 -0.10423782045E+02 -0.94647943850E+01  0.15626468610E+02  0.51100000000E-03 0. -1.
        -11    1    3    3    0    0 -0.13450599584E+02  0.27609118955E+02  0.29138037003E+02  0.42334469163E+02  0.51100000000E-03 0.  1.
         12    1    3    3    0    0  0.19328287894E+02 -0.17198660670E+02 -0.18910570848E+02  0.32046627460E+02  0.00000000000E+00 0. -1.
</event>
<event>
 7    1  0.2542335E-015  0.9000897E+02  0.7816164E-02  0.1186337E+00
        -11   -1    0    0    0    0  0.00000000000E+00  0.00000000000E+00  0.45593999997E+02  0.45594000000E+02  0.51100000000E-03 0. -1.
         11   -1    0    0    0    0 -0.00000000000E+00 -0.00000000000E+00 -0.45593999997E+02  0.45594000000E+02  0.51100000000E-03 0.  1.
    9900012    2    1    2    0    0  0.42868673803E+00 -0.38632279295E+00  0.10281466919E+01  0.90008973605E+02  0.90001251248E+02 0.  0.
        -12    1    1    2    0    0 -0.42868673803E+00  0.38632279295E+00 -0.10281466919E+01  0.11790263949E+01  0.00000000000E+00 0.  1.
         11    1    3    3    0    0 -0.37124155640E+01  0.39300696112E+02  0.44291376064E+01  0.39723343319E+02  0.51100000000E-03 0. -1.
        -11    1    3    3    0    0  0.65575784980E+01 -0.65193628649E+01 -0.12741480357E+02  0.15743228699E+02  0.51100000000E-03 0.  1.
        -12    1    3    3    0    0 -0.24164761960E+01 -0.33167656040E+02  0.93404894427E+01  0.34542401587E+02  0.00000000000E+00 0.  1.
</event>
<event>
 7    1  0.2542335E-015  0.9000769E+02  0.7816164E-02  0.1186339E+00
        -11   -1    0    0    0    0  0.00000000000E+00  0.00000000000E+00  0.45593999997E+02  0.45594000000E+02  0.51100000000E-03 0.  1.
         11   -1    0    0    0    0 -0.00000000000E+00 -0.00000000000E+00 -0.45593999997E+02  0.45594000000E+02  0.51100000000E-03 0. -1.
    9900012    2    1    2    0    0 -0.33549115998E-02  0.11735164099E+01 -0.12639629651E+00  0.90007691547E+02  0.89999952276E+02 0.  0.
        -12    1    1    2    0    0  0.33549115998E-02 -0.11735164099E+01  0.12639629651E+00  0.11803084527E+01  0.00000000000E+00 0.  1.
         11    1    3    3    0    0  0.66580406091E+00  0.97765603352E+00  0.95793791527E+01  0.96521298987E+01  0.51100000000E-03 0. -1.
        -11    1    3    3    0    0 -0.52625054253E+01 -0.88358356294E+01  0.33984078447E+02  0.35506105711E+02  0.51100000000E-03 0.  1.
         12    1    3    3    0    0  0.45933464528E+01  0.90316960058E+01 -0.43689853896E+02  0.44849455937E+02  0.00000000000E+00 0. -1.
</event>
<event>
 7    1  0.2542335E-015  0.9000778E+02  0.7816164E-02  0.1186339E+00
        -11   -1    0    0    0    0  0.00000000000E+00  0.00000000000E+00  0.45593999997E+02  0.45594000000E+02  0.51100000000E-03 0. -1.
         11   -1    0    0    0    0 -0.00000000000E+00 -0.00000000000E+00 -0.45593999997E+02  0.45594000000E+02  0.51100000000E-03 0.  1.
    9900012    2    1    2    0    0 -0.34450224269E+00 -0.38230945881E+00  0.10621112795E+01  0.90007778543E+02  0.90000040420E+02 0.  0.
        -12    1    1    2    0    0  0.34450224269E+00  0.38230945881E+00 -0.10621112795E+01  0.11802214570E+01  0.00000000000E+00 0.  1.
         11    1    3    3    0    0 -0.29122020749E+02  0.92715183967E+01  0.19376596079E+02  0.36187091922E+02  0.51100000000E-03 0. -1.
        -11    1    3    3    0    0  0.17957606913E+01  0.11957234883E+02  0.39284472646E+01  0.12713493646E+02  0.51100000000E-03 0.  1.
        -12    1    3    3    0    0  0.26981757815E+02 -0.21611062739E+02 -0.22242932064E+02  0.41107192975E+02  0.00000000000E+00 0.  1.
</event>
<event>
 7    1  0.3596229E-015  0.9000797E+02  0.7816164E-02  0.1186339E+00
        -11   -1    0    0    0    0  0.00000000000E+00  0.00000000000E+00  0.45593999997E+02  0.45594000000E+02  0.51100000000E-03 0. -1.
         11   -1    0    0    0    0 -0.00000000000E+00 -0.00000000000E+00 -0.45593999997E+02  0.45594000000E+02  0.51100000000E-03 0.  1.
    9900012    2    1    2    0    0  0.83092315194E+00  0.71283358307E+00  0.44033534809E+00  0.90007974483E+02  0.90000238946E+02 0.  0.
        -12    1    1    2    0    0 -0.83092315194E+00 -0.71283358307E+00 -0.44033534809E+00  0.11800255168E+01  0.00000000000E+00 0.  1.
         11    1    3    3    0    0 -0.37511174656E+01 -0.81524692204E+01 -0.18645454454E+01  0.91657060071E+01  0.51100000000E-03 0. -1.
        -11    1    3    3    0    0 -0.30713922552E+02  0.63352674242E+01 -0.21652009021E+02  0.38108924766E+02  0.51100000000E-03 0.  1.
         12    1    3    3    0    0  0.35295963170E+02  0.25300353792E+01  0.23956889815E+02  0.42733343711E+02  0.00000000000E+00 0. -1.
</event>
<event>
 7    1  0.2542335E-015  0.9000863E+02  0.7816164E-02  0.1186337E+00
        -11   -1    0    0    0    0  0.00000000000E+00  0.00000000000E+00  0.45593999997E+02  0.45594000000E+02  0.51100000000E-03 0.  1.
         11   -1    0    0    0    0 -0.00000000000E+00 -0.00000000000E+00 -0.45593999997E+02  0.45594000000E+02  0.51100000000E-03 0. -1.
    9900012    2    1    2    0    0  0.10646019024E+01 -0.46811060707E+00  0.19595419410E+00  0.90008634579E+02  0.90000907750E+02 0.  0.
        -12    1    1    2    0    0 -0.10646019024E+01  0.46811060707E+00 -0.19595419410E+00  0.11793654214E+01  0.00000000000E+00 0.  1.
         11    1    3    3    0    0  0.71426192193E+00 -0.67040431542E+01  0.62031133084E+01  0.91614944023E+01  0.51100000000E-03 0. -1.
        -11    1    3    3    0    0  0.77079351784E+01 -0.31964142300E+02  0.15549366029E+02  0.36371712110E+02  0.51100000000E-03 0.  1.
         12    1    3    3    0    0 -0.73575951980E+01  0.38200074847E+02 -0.21556525143E+02  0.44475428066E+02  0.00000000000E+00 0. -1.
</event>
<event>
 7    1  0.2542335E-015  0.9000774E+02  0.7816164E-02  0.1186339E+00
        -11   -1    0    0    0    0  0.00000000000E+00  0.00000000000E+00  0.45593999997E+02  0.45594000000E+02  0.51100000000E-03 0.  1.
         11   -1    0    0    0    0 -0.00000000000E+00 -0.00000000000E+00 -0.45593999997E+02  0.45594000000E+02  0.51100000000E-03 0. -1.
    9900012    2    1    2    0    0  0.17116974775E-01  0.10955951595E+01  0.43862689177E+00  0.90007739311E+02  0.90000000670E+02 0.  0.
        -12    1    1    2    0    0 -0.17116974775E-01 -0.10955951595E+01 -0.43862689177E+00  0.11802606892E+01  0.00000000000E+00 0.  1.
         11    1    3    3    0    0  0.37302566120E+02 -0.12004266307E+02  0.16141720044E+02  0.42380879827E+02  0.51100000000E-03 0. -1.
        -11    1    3    3    0    0  0.15167935929E+01  0.52269755793E+00 -0.52914815735E+01  0.55293447211E+01  0.51100000000E-03 0.  1.
        -12    1    3    3    0    0 -0.38802242738E+02  0.12577163909E+02 -0.10411611579E+02  0.42097514762E+02  0.00000000000E+00 0.  1.
</event>
<event>
 7    1  0.2542335E-015  0.9000864E+02  0.7816164E-02  0.1186337E+00
        -11   -1    0    0    0    0  0.00000000000E+00  0.00000000000E+00  0.45593999997E+02  0.45594000000E+02  0.51100000000E-03 0.  1.
         11   -1    0    0    0    0 -0.00000000000E+00 -0.00000000000E+00 -0.45593999997E+02  0.45594000000E+02  0.51100000000E-03 0. -1.
    9900012    2    1    2    0    0 -0.36174914817E-01  0.11728710423E+01  0.11809064229E+00  0.90008644029E+02  0.90000917326E+02 0.  0.
        -12    1    1    2    0    0  0.36174914817E-01 -0.11728710423E+01 -0.11809064229E+00  0.11793559709E+01  0.00000000000E+00 0.  1.
         11    1    3    3    0    0 -0.63798346941E+01  0.79427443863E+01  0.29817972928E+01  0.10615111609E+02  0.51100000000E-03 0. -1.
        -11    1    3    3    0    0  0.19953487419E+02  0.22584965840E+02  0.23048555681E+02  0.37940193218E+02  0.51100000000E-03 0.  1.
         12    1    3    3    0    0 -0.13609827639E+02 -0.29354839184E+02 -0.25912262332E+02  0.41453339202E+02  0.00000000000E+00 0. -1.
</event>
<event>
 7    1  0.2542335E-015  0.9000772E+02  0.7816164E-02  0.1186339E+00
        -11   -1    0    0    0    0  0.00000000000E+00  0.00000000000E+00  0.45593999997E+02  0.45594000000E+02  0.51100000000E-03 0. -1.
         11   -1    0    0    0    0 -0.00000000000E+00 -0.00000000000E+00 -0.45593999997E+02  0.45594000000E+02  0.51100000000E-03 0.  1.
    9900012    2    1    2    0    0  0.10223715038E+01 -0.57839247944E+00  0.11520502390E+00  0.90007723105E+02  0.89999984250E+02 0.  0.
        -12    1    1    2    0    0 -0.10223715038E+01  0.57839247944E+00 -0.11520502390E+00  0.11802768953E+01  0.00000000000E+00 0.  1.
         11    1    3    3    0    0 -0.14919109078E+02 -0.71562191533E+01  0.35678773834E+02  0.39328948509E+02  0.51100000000E-03 0. -1.
        -11    1    3    3    0    0 -0.35057120327E+01 -0.13837249267E+01  0.42374191804E+01  0.56710169370E+01  0.51100000000E-03 0.  1.
        -12    1    3    3    0    0  0.19447192614E+02  0.79615516006E+01 -0.39800987991E+02  0.45007757659E+02  0.00000000000E+00 0.  1.
</event>
<event>
 7    1  0.2542335E-015  0.9000776E+02  0.7816164E-02  0.1186339E+00
        -11   -1    0    0    0    0  0.00000000000E+00  0.00000000000E+00  0.45593999997E+02  0.45594000000E+02  0.51100000000E-03 0.  1.
         11   -1    0    0    0    0 -0.00000000000E+00 -0.00000000000E+00 -0.45593999997E+02  0.45594000000E+02  0.51100000000E-03 0. -1.
    9900012    2    1    2    0    0 -0.77883935473E+00 -0.71736390013E+00 -0.52130069384E+00  0.90007764380E+02  0.90000026070E+02 0.  0.
        -12    1    1    2    0    0  0.77883935473E+00  0.71736390013E+00  0.52130069384E+00  0.11802356202E+01  0.00000000000E+00 0.  1.
         11    1    3    3    0    0 -0.33306596612E+02  0.21977052770E+02 -0.10394873384E+02  0.41235586806E+02  0.51100000000E-03 0. -1.
        -11    1    3    3    0    0  0.21277377685E+01 -0.43935685218E+01 -0.77451663894E+01  0.91552342967E+01  0.51100000000E-03 0.  1.
        -12    1    3    3    0    0  0.30400019489E+02 -0.18300848148E+02  0.17618739080E+02  0.39616943277E+02  0.00000000000E+00 0.  1.
</event>
<event>
 7    1  0.2542335E-015  0.9000775E+02  0.7816164E-02  0.1186339E+00
        -11   -1    0    0    0    0  0.00000000000E+00  0.00000000000E+00  0.45593999997E+02  0.45594000000E+02  0.51100000000E-03 0.  1.
         11   -1    0    0    0    0 -0.00000000000E+00 -0.00000000000E+00 -0.45593999997E+02  0.45594000000E+02  0.51100000000E-03 0. -1.
    9900012    2    1    2    0    0 -0.35100995990E+00 -0.21203616619E+00 -0.11067182639E+01  0.90007748907E+02  0.90000010392E+02 0.  0.
        -12    1    1    2    0    0  0.35100995990E+00  0.21203616619E+00  0.11067182639E+01  0.11802510934E+01  0.00000000000E+00 0.  1.
         11    1    3    3    0    0 -0.27160758938E+01  0.53519328275E+01 -0.37680076057E+02  0.38155057138E+02  0.51100000000E-03 0. -1.
        -11    1    3    3    0    0  0.66576434516E+01  0.65798153571E+01 -0.33198490243E+01  0.99317462849E+01  0.51100000000E-03 0.  1.
        -12    1    3    3    0    0 -0.42925775177E+01 -0.12143784351E+02  0.39893206817E+02  0.41920945484E+02  0.00000000000E+00 0.  1.
</event>
<event>
 7    1  0.2542335E-015  0.9000773E+02  0.7816164E-02  0.1186339E+00
        -11   -1    0    0    0    0  0.00000000000E+00  0.00000000000E+00  0.45593999997E+02  0.45594000000E+02  0.51100000000E-03 0. -1.
         11   -1    0    0    0    0 -0.00000000000E+00 -0.00000000000E+00 -0.45593999997E+02  0.45594000000E+02  0.51100000000E-03 0.  1.
    9900012    2    1    2    0    0  0.76417215431E+00 -0.80505261359E+00 -0.40121280642E+00  0.90007728629E+02  0.89999989847E+02 0.  0.
        -12    1    1    2    0    0 -0.76417215431E+00  0.80505261359E+00  0.40121280642E+00  0.11802713705E+01  0.00000000000E+00 0.  1.
         11    1    3    3    0    0 -0.70026374244E+01 -0.34067494578E+01  0.73457493776E+01  0.10705274725E+02  0.51100000000E-03 0. -1.
        -11    1    3    3    0    0 -0.22980470331E+02 -0.62375250418E+01 -0.31477485692E+02  0.39469492536E+02  0.51100000000E-03 0.  1.
         12    1    3    3    0    0  0.30747279910E+02  0.88392218860E+01  0.23730523508E+02  0.39832961368E+02  0.00000000000E+00 0. -1.
</event>
<event>
 7    1  0.2542335E-015  0.9000773E+02  0.7816164E-02  0.1186339E+00
        -11   -1    0    0    0    0  0.00000000000E+00  0.00000000000E+00  0.45593999997E+02  0.45594000000E+02  0.51100000000E-03 0.  1.
         11   -1    0    0    0    0 -0.00000000000E+00 -0.00000000000E+00 -0.45593999997E+02  0.45594000000E+02  0.51100000000E-03 0. -1.
    9900012    2    1    2    0    0 -0.59740628983E+00  0.10019370602E+01 -0.17959651753E+00  0.90007734328E+02  0.89999995621E+02 0.  0.
        -12    1    1    2    0    0  0.59740628983E+00 -0.10019370602E+01  0.17959651753E+00  0.11802656722E+01  0.00000000000E+00 0.  1.
         11    1    3    3    0    0 -0.22051328261E+02 -0.27351780531E+02 -0.13281807749E+02  0.37560449859E+02  0.51100000000E-03 0. -1.
        -11    1    3    3    0    0 -0.48146748129E+01 -0.31958490885E+01 -0.49412520460E+01  0.76033227600E+01  0.51100000000E-03 0.  1.
        -12    1    3    3    0    0  0.26268596784E+02  0.31549566680E+02  0.18043463277E+02  0.44843961709E+02  0.00000000000E+00 0.  1.
</event>
<event>
 7    1  0.2542335E-015  0.9000773E+02  0.7816164E-02  0.1186339E+00
        -11   -1    0    0    0    0  0.00000000000E+00  0.00000000000E+00  0.45593999997E+02  0.45594000000E+02  0.51100000000E-03 0.  1.
         11   -1    0    0    0    0 -0.00000000000E+00 -0.00000000000E+00 -0.45593999997E+02  0.45594000000E+02  0.51100000000E-03 0. -1.
    9900012    2    1    2    0    0 -0.50726650571E+00 -0.61431563230E+00 -0.87082391418E+00  0.90007729991E+02  0.89999991227E+02 0.  0.
        -12    1    1    2    0    0  0.50726650571E+00  0.61431563230E+00  0.87082391418E+00  0.11802700087E+01  0.00000000000E+00 0.  1.
         11    1    3    3    0    0  0.18014234273E+02  0.33231143621E+02  0.23278053493E+01  0.37871364127E+02  0.51100000000E-03 0. -1.
        -11    1    3    3    0    0  0.50771148584E+01  0.59714381635E+00  0.74621567146E+01  0.90453003885E+01  0.51100000000E-03 0.  1.
        -12    1    3    3    0    0 -0.23598615638E+02 -0.34442603069E+02 -0.10660785978E+02  0.43091065476E+02  0.00000000000E+00 0.  1.
</event>
<event>
 7    1  0.2542335E-015  0.9000770E+02  0.7816164E-02  0.1186339E+00
        -11   -1    0    0    0    0  0.00000000000E+00  0.00000000000E+00  0.45593999997E+02  0.45594000000E+02  0.51100000000E-03 0. -1.
         11   -1    0    0    0    0 -0.00000000000E+00 -0.00000000000E+00 -0.45593999997E+02  0.45594000000E+02  0.51100000000E-03 0.  1.
    9900012    2    1    2    0    0 -0.72144987239E+00  0.75539133585E+00  0.54955785065E+00  0.90007695031E+02  0.89999955805E+02 0.  0.
        -12    1    1    2    0    0  0.72144987239E+00 -0.75539133585E+00 -0.54955785065E+00  0.11803049690E+01  0.00000000000E+00 0.  1.
         11    1    3    3    0    0 -0.94429928347E+01  0.33871353417E+01 -0.56766096747E+01  0.11526781735E+02  0.51100000000E-03 0. -1.
        -11    1    3    3    0    0 -0.10975125848E+02 -0.36980241008E+02  0.46578021073E+01  0.38854687402E+02  0.51100000000E-03 0.  1.
         12    1    3    3    0    0  0.19696668810E+02  0.34348497002E+02  0.15683654180E+01  0.39626225894E+02  0.00000000000E+00 0. -1.
</event>
<event>
 7    1  0.2542335E-015  0.9000773E+02  0.7816164E-02  0.1186339E+00
        -11   -1    0    0    0    0  0.00000000000E+00  0.00000000000E+00  0.45593999997E+02  0.45594000000E+02  0.51100000000E-03 0. -1.
         11   -1    0    0    0    0 -0.00000000000E+00 -0.00000000000E+00 -0.45593999997E+02  0.45594000000E+02  0.51100000000E-03 0.  1.
    9900012    2    1    2    0    0  0.84479748679E+00 -0.44806180890E+00 -0.69180472293E+00  0.90007730559E+02  0.89999991803E+02 0.  0.
        -12    1    1    2    0    0 -0.84479748679E+00  0.44806180890E+00  0.69180472293E+00  0.11802694408E+01  0.00000000000E+00 0.  1.
         11    1    3    3    0    0  0.91811052447E+01 -0.25594167109E+01  0.45671939726E+00  0.95421119404E+01  0.51100000000E-03 0. -1.
        -11    1    3    3    0    0  0.16725988172E+02 -0.30680609448E+02  0.12318585274E+02  0.37051397002E+02  0.51100000000E-03 0.  1.
         12    1    3    3    0    0 -0.25062295929E+02  0.32791964350E+02 -0.13467109394E+02  0.43414221617E+02  0.00000000000E+00 0. -1.
</event>
<event>
 7    1  0.2542335E-015  0.9000776E+02  0.7816164E-02  0.1186339E+00
        -11   -1    0    0    0    0  0.00000000000E+00  0.00000000000E+00  0.45593999997E+02  0.45594000000E+02  0.51100000000E-03 0.  1.
         11   -1    0    0    0    0 -0.00000000000E+00 -0.00000000000E+00 -0.45593999997E+02  0.45594000000E+02  0.51100000000E-03 0. -1.
    9900012    2    1    2    0    0 -0.63419860214E+00 -0.85102178862E+00  0.51625231735E+00  0.90007761716E+02  0.90000023371E+02 0.  0.
        -12    1    1    2    0    0  0.63419860214E+00  0.85102178862E+00 -0.51625231735E+00  0.11802382839E+01  0.00000000000E+00 0.  1.
         11    1    3    3    0    0  0.52196445679E+00 -0.30549216277E+02  0.17204719140E+02  0.35064646340E+02  0.51100000000E-03 0. -1.
        -11    1    3    3    0    0  0.17745521074E+01 -0.92653736411E+01  0.45463804017E+01  0.10472142040E+02  0.51100000000E-03 0.  1.
        -12    1    3    3    0    0 -0.29307151663E+01  0.38963568130E+02 -0.21234847224E+02  0.44470973336E+02  0.00000000000E+00 0.  1.
</event>
<event>
 7    1  0.2542335E-015  0.9000782E+02  0.7816164E-02  0.1186339E+00
        -11   -1    0    0    0    0  0.00000000000E+00  0.00000000000E+00  0.45593999997E+02  0.45594000000E+02  0.51100000000E-03 0.  1.
         11   -1    0    0    0    0 -0.00000000000E+00 -0.00000000000E+00 -0.45593999997E+02  0.45594000000E+02  0.51100000000E-03 0. -1.
    9900012    2    1    2    0    0 -0.10769586754E+00 -0.27804184921E+00 -0.11418904858E+01  0.90007822237E+02  0.90000084691E+02 0.  0.
        -12    1    1    2    0    0  0.10769586754E+00  0.27804184921E+00  0.11418904858E+01  0.11801777626E+01  0.00000000000E+00 0.  1.
         11    1    3    3    0    0  0.12574060013E+02  0.25505609472E+02 -0.23441256890E+02  0.36852891672E+02  0.51100000000E-03 0. -1.
        -11    1    3    3    0    0  0.40437082329E+01  0.87969672401E+01  0.28143721189E+01  0.10082603810E+02  0.51100000000E-03 0.  1.
        -12    1    3    3    0    0 -0.16725464113E+02 -0.34580618561E+02  0.19484994286E+02  0.43072326756E+02  0.00000000000E+00 0.  1.
</event>
<event>
 7    1  0.2542335E-015  0.9000781E+02  0.7816164E-02  0.1186339E+00
        -11   -1    0    0    0    0  0.00000000000E+00  0.00000000000E+00  0.45593999997E+02  0.45594000000E+02  0.51100000000E-03 0.  1.
         11   -1    0    0    0    0 -0.00000000000E+00 -0.00000000000E+00 -0.45593999997E+02  0.45594000000E+02  0.51100000000E-03 0. -1.
    9900012    2    1    2    0    0 -0.96683834080E+00  0.34990107793E+00  0.57935480643E+00  0.90007805468E+02  0.90000067700E+02 0.  0.
        -12    1    1    2    0    0  0.96683834080E+00 -0.34990107793E+00 -0.57935480643E+00  0.11801945320E+01  0.00000000000E+00 0.  1.
         11    1    3    3    0    0 -0.28875370323E+02  0.11620330786E+02 -0.72834405756E+01  0.31966663975E+02  0.51100000000E-03 0. -1.
        -11    1    3    3    0    0 -0.85456386274E+01  0.94614044849E+01  0.97675616577E+01  0.16060864714E+02  0.51100000000E-03 0.  1.
        -12    1    3    3    0    0  0.36454170609E+02 -0.20731834193E+02 -0.19047662757E+01  0.41980276778E+02  0.00000000000E+00 0.  1.
</event>
<event>
 8    1  0.2542335E-015  0.9000785E+02  0.7816164E-02  0.1186339E+00
        -11   -1    0    0    0    0  0.00000000000E+00  0.00000000000E+00  0.45593999997E+02  0.45594000000E+02  0.51100000000E-03 0. -1.
         11   -1    0    0    0    0 -0.00000000000E+00 -0.00000000000E+00 -0.45593999997E+02  0.45594000000E+02  0.51100000000E-03 0.  1.
    9900012    2    1    2    0    0  0.39375120948E+00 -0.57394016228E+00  0.95304643610E+00  0.90007853893E+02  0.90000116764E+02 0.  0.
         23    2    3    3    0    0 -0.18143773980E+02 -0.18827701609E+02  0.12012971173E+02  0.61738407802E+02  0.54622711754E+02 0.  0.
        -12    1    1    2    0    0 -0.39375120948E+00  0.57394016228E+00 -0.95304643610E+00  0.11801461071E+01  0.00000000000E+00 0.  1.
         11    1    4    4    0    0 -0.21298238237E+02 -0.90548540907E+01  0.31867939965E+02  0.39384907420E+02  0.51100000000E-03 0. -1.
        -11    1    4    4    0    0  0.31544642576E+01 -0.97728475182E+01 -0.19854968791E+02  0.22353500382E+02  0.51100000000E-03 0.  1.
        -12    1    3    3    0    0  0.18537525189E+02  0.18253761447E+02 -0.11059924737E+02  0.28269446091E+02  0.00000000000E+00 0.  1.
</event>
<event>
 7    1  0.2542335E-015  0.9000745E+02  0.7816164E-02  0.1186340E+00
        -11   -1    0    0    0    0  0.00000000000E+00  0.00000000000E+00  0.45593999997E+02  0.45594000000E+02  0.51100000000E-03 0. -1.
         11   -1    0    0    0    0 -0.00000000000E+00 -0.00000000000E+00 -0.45593999997E+02  0.45594000000E+02  0.51100000000E-03 0.  1.
    9900012    2    1    2    0    0  0.81078809188E-01 -0.15722695218E+00  0.11672210897E+01  0.90007449637E+02  0.89999707172E+02 0.  0.
        -12    1    1    2    0    0 -0.81078809188E-01  0.15722695218E+00 -0.11672210897E+01  0.11805503632E+01  0.00000000000E+00 0.  1.
         11    1    3    3    0    0 -0.80704163131E+01  0.86759919681E+00  0.71388024050E+01  0.10809572048E+02  0.51100000000E-03 0. -1.
        -11    1    3    3    0    0 -0.10151536988E+02 -0.22715900384E+02 -0.32104748396E+02  0.40617492578E+02  0.51100000000E-03 0.  1.
         12    1    3    3    0    0  0.18303032110E+02  0.21691074235E+02  0.26133167081E+02  0.38580385011E+02  0.00000000000E+00 0. -1.
</event>
<event>
 7    1  0.2542335E-015  0.9000776E+02  0.7816164E-02  0.1186339E+00
        -11   -1    0    0    0    0  0.00000000000E+00  0.00000000000E+00  0.45593999997E+02  0.45594000000E+02  0.51100000000E-03 0.  1.
         11   -1    0    0    0    0 -0.00000000000E+00 -0.00000000000E+00 -0.45593999997E+02  0.45594000000E+02  0.51100000000E-03 0. -1.
    9900012    2    1    2    0    0  0.42146408957E-01  0.10046622487E+01  0.61793153989E+00  0.90007761913E+02  0.90000023570E+02 0.  0.
        -12    1    1    2    0    0 -0.42146408957E-01 -0.10046622487E+01 -0.61793153989E+00  0.11802380869E+01  0.00000000000E+00 0.  1.
         11    1    3    3    0    0 -0.25951797856E+02 -0.92281475165E+01  0.24678465244E+02  0.36982173619E+02  0.51100000000E-03 0. -1.
        -11    1    3    3    0    0 -0.19104802260E+01  0.78728158597E+01  0.73538847868E+01  0.10941242433E+02  0.51100000000E-03 0.  1.
        -12    1    3    3    0    0  0.27904424491E+02  0.23599939054E+01 -0.31414418491E+02  0.42084345861E+02  0.00000000000E+00 0.  1.
</event>
<event>
 7    1  0.2542335E-015  0.9000759E+02  0.7816164E-02  0.1186339E+00
        -11   -1    0    0    0    0  0.00000000000E+00  0.00000000000E+00  0.45593999997E+02  0.45594000000E+02  0.51100000000E-03 0.  1.
         11   -1    0    0    0    0 -0.00000000000E+00 -0.00000000000E+00 -0.45593999997E+02  0.45594000000E+02  0.51100000000E-03 0. -1.
    9900012    2    1    2    0    0 -0.55384425998E+00 -0.10373382827E+01 -0.10267774996E+00  0.90007594605E+02  0.89999854053E+02 0.  0.
        -12    1    1    2    0    0  0.55384425998E+00  0.10373382827E+01  0.10267774996E+00  0.11804053954E+01  0.00000000000E+00 0.  1.
         11    1    3    3    0    0 -0.50954204107E+01  0.31111234722E+02 -0.15477066438E+02  0.35119963281E+02  0.51100000000E-03 0. -1.
        -11    1    3    3    0    0  0.66456406622E+01  0.11183509382E+01 -0.10646751180E+02  0.12600339661E+02  0.51100000000E-03 0.  1.
        -12    1    3    3    0    0 -0.21040645115E+01 -0.33266923943E+02  0.26021139868E+02  0.42287291662E+02  0.00000000000E+00 0.  1.
</event>
<event>
 7    1  0.2542335E-015  0.9000773E+02  0.7816164E-02  0.1186339E+00
        -11   -1    0    0    0    0  0.00000000000E+00  0.00000000000E+00  0.45593999997E+02  0.45594000000E+02  0.51100000000E-03 0.  1.
         11   -1    0    0    0    0 -0.00000000000E+00 -0.00000000000E+00 -0.45593999997E+02  0.45594000000E+02  0.51100000000E-03 0. -1.
    9900012    2    1    2    0    0 -0.53272983760E+00  0.82106820384E+00 -0.65961147641E+00  0.90007728262E+02  0.89999989475E+02 0.  0.
        -12    1    1    2    0    0  0.53272983760E+00 -0.82106820384E+00  0.65961147641E+00  0.11802717378E+01  0.00000000000E+00 0.  1.
         11    1    3    3    0    0  0.57286084790E+01  0.11227587313E+02 -0.41152338213E+01  0.13259367316E+02  0.51100000000E-03 0. -1.
        -11    1    3    3    0    0 -0.36037018887E+02  0.13180397071E+02 -0.17264666561E+01  0.38410549131E+02  0.51100000000E-03 0.  1.
         12    1    3    3    0    0  0.29775680570E+02 -0.23586916180E+02  0.51820890010E+01  0.38337811814E+02  0.00000000000E+00 0. -1.
</event>
<event>
 7    1  0.2542335E-015  0.9000787E+02  0.7816164E-02  0.1186339E+00
        -11   -1    0    0    0    0  0.00000000000E+00  0.00000000000E+00  0.45593999997E+02  0.45594000000E+02  0.51100000000E-03 0. -1.
         11   -1    0    0    0    0 -0.00000000000E+00 -0.00000000000E+00 -0.45593999997E+02  0.45594000000E+02  0.51100000000E-03 0.  1.
    9900012    2    1    2    0    0 -0.44445790475E+00  0.89800595620E+00  0.62349965032E+00  0.90007868931E+02  0.90000132001E+02 0.  0.
        -12    1    1    2    0    0  0.44445790475E+00 -0.89800595620E+00 -0.62349965032E+00  0.11801310692E+01  0.00000000000E+00 0.  1.
         11    1    3    3    0    0  0.94206642037E+01  0.95249892030E+01  0.28871074928E+02  0.31827869880E+02  0.51100000000E-03 0. -1.
        -11    1    3    3    0    0  0.14687761941E+02 -0.75371156099E+01  0.46168679627E+01  0.17142168258E+02  0.51100000000E-03 0.  1.
         12    1    3    3    0    0 -0.24552884049E+02 -0.10898676369E+01 -0.32864443240E+02  0.41037830792E+02  0.00000000000E+00 0. -1.
</event>
<event>
 7    1  0.2542335E-015  0.9000768E+02  0.7816164E-02  0.1186339E+00
        -11   -1    0    0    0    0  0.00000000000E+00  0.00000000000E+00  0.45593999997E+02  0.45594000000E+02  0.51100000000E-03 0.  1.
         11   -1    0    0    0    0 -0.00000000000E+00 -0.00000000000E+00 -0.45593999997E+02  0.45594000000E+02  0.51100000000E-03 0. -1.
    9900012    2    1    2    0    0  0.10135328258E+01  0.60035985062E+00 -0.73996708172E-01  0.90007679598E+02  0.89999940168E+02 0.  0.
        -12    1    1    2    0    0 -0.10135328258E+01 -0.60035985062E+00  0.73996708172E-01  0.11803204023E+01  0.00000000000E+00 0.  1.
         11    1    3    3    0    0 -0.80632915718E+01  0.16457858570E+02  0.21850170405E+01  0.18456762430E+02  0.51100000000E-03 0. -1.
        -11    1    3    3    0    0 -0.29883920228E+02 -0.75843557066E+01  0.44808589075E+01  0.31155244125E+02  0.51100000000E-03 0.  1.
         12    1    3    3    0    0  0.38960744626E+02 -0.82731430124E+01 -0.67398726562E+01  0.40395673042E+02  0.00000000000E+00 0. -1.
</event>
<event>
 7    1  0.2542335E-015  0.9000781E+02  0.7816164E-02  0.1186339E+00
        -11   -1    0    0    0    0  0.00000000000E+00  0.00000000000E+00  0.45593999997E+02  0.45594000000E+02  0.51100000000E-03 0.  1.
         11   -1    0    0    0    0 -0.00000000000E+00 -0.00000000000E+00 -0.45593999997E+02  0.45594000000E+02  0.51100000000E-03 0. -1.
    9900012    2    1    2    0    0  0.85138834769E+00 -0.74348624428E+00 -0.33944538719E+00  0.90007806336E+02  0.90000068579E+02 0.  0.
        -12    1    1    2    0    0 -0.85138834769E+00  0.74348624428E+00  0.33944538719E+00  0.11801936642E+01  0.00000000000E+00 0.  1.
         11    1    3    3    0    0 -0.86500199883E+01  0.34766505505E+01 -0.38032464390E+02  0.39158374490E+02  0.51100000000E-03 0. -1.
        -11    1    3    3    0    0 -0.88964823904E+01  0.25641378312E+01  0.10870000518E+01  0.93222192161E+01  0.51100000000E-03 0.  1.
        -12    1    3    3    0    0  0.18397890726E+02 -0.67842746260E+01  0.36606018951E+02  0.41527212630E+02  0.00000000000E+00 0.  1.
</event>
<event>
 7    1  0.2542335E-015  0.9000775E+02  0.7816164E-02  0.1186339E+00
        -11   -1    0    0    0    0  0.00000000000E+00  0.00000000000E+00  0.45593999997E+02  0.45594000000E+02  0.51100000000E-03 0. -1.
         11   -1    0    0    0    0 -0.00000000000E+00 -0.00000000000E+00 -0.45593999997E+02  0.45594000000E+02  0.51100000000E-03 0.  1.
    9900012    2    1    2    0    0 -0.10822422380E+01  0.46925769480E+00  0.39108094254E-01  0.90007754056E+02  0.90000015609E+02 0.  0.
        -12    1    1    2    0    0  0.10822422380E+01 -0.46925769480E+00 -0.39108094254E-01  0.11802459442E+01  0.00000000000E+00 0.  1.
         11    1    3    3    0    0  0.86182820161E+01  0.34725301483E+02  0.35423846635E+01  0.35953717991E+02  0.51100000000E-03 0. -1.
        -11    1    3    3    0    0 -0.15849814659E+02  0.10722326817E+01 -0.82182768428E+01  0.17885926930E+02  0.51100000000E-03 0.  1.
        -12    1    3    3    0    0  0.61492904046E+01 -0.35328276470E+02  0.47150002735E+01  0.36168109135E+02  0.00000000000E+00 0.  1.
</event>
<event>
 7    1  0.2542335E-015  0.9000786E+02  0.7816164E-02  0.1186339E+00
        -11   -1    0    0    0    0  0.00000000000E+00  0.00000000000E+00  0.45593999997E+02  0.45594000000E+02  0.51100000000E-03 0.  1.
         11   -1    0    0    0    0 -0.00000000000E+00 -0.00000000000E+00 -0.45593999997E+02  0.45594000000E+02  0.51100000000E-03 0. -1.
    9900012    2    1    2    0    0  0.10807669256E+01  0.30766751007E+00  0.36056885090E+00  0.90007861728E+02  0.90000124703E+02 0.  0.
        -12    1    1    2    0    0 -0.10807669256E+01 -0.30766751007E+00 -0.36056885090E+00  0.11801382718E+01  0.00000000000E+00 0.  1.
         11    1    3    3    0    0  0.61934015831E+00 -0.11990385201E+02 -0.74081800629E+01  0.14107942855E+02  0.51100000000E-03 0. -1.
        -11    1    3    3    0    0  0.24798432784E+02 -0.20324957660E+02  0.13515220790E+02  0.34795507838E+02  0.51100000000E-03 0.  1.
         12    1    3    3    0    0 -0.24337006017E+02  0.32623010371E+02 -0.57464718761E+01  0.41104411035E+02  0.00000000000E+00 0. -1.
</event>
<event>
 7    1  0.2542335E-015  0.9000745E+02  0.7816164E-02  0.1186340E+00
        -11   -1    0    0    0    0  0.00000000000E+00  0.00000000000E+00  0.45593999997E+02  0.45594000000E+02  0.51100000000E-03 0. -1.
         11   -1    0    0    0    0 -0.00000000000E+00 -0.00000000000E+00 -0.45593999997E+02  0.45594000000E+02  0.51100000000E-03 0.  1.
    9900012    2    1    2    0    0 -0.43697225297E+00 -0.29942185055E+00  0.10550389001E+01  0.90007447047E+02  0.89999704547E+02 0.  0.
        -12    1    1    2    0    0  0.43697225297E+00  0.29942185055E+00 -0.10550389001E+01  0.11805529532E+01  0.00000000000E+00 0.  1.
         11    1    3    3    0    0 -0.38282407371E+02  0.54919510927E+01  0.87332307934E+01  0.39648121787E+02  0.51100000000E-03 0. -1.
        -11    1    3    3    0    0 -0.23759518939E+00 -0.46820853180E+01  0.79096977625E+01  0.91946556952E+01  0.51100000000E-03 0.  1.
        -12    1    3    3    0    0  0.38083030307E+02 -0.11092876253E+01 -0.15587889656E+02  0.41164669564E+02  0.00000000000E+00 0.  1.
</event>
<event>
 7    1  0.2542335E-015  0.9000778E+02  0.7816164E-02  0.1186339E+00
        -11   -1    0    0    0    0  0.00000000000E+00  0.00000000000E+00  0.45593999997E+02  0.45594000000E+02  0.51100000000E-03 0. -1.
         11   -1    0    0    0    0 -0.00000000000E+00 -0.00000000000E+00 -0.45593999997E+02  0.45594000000E+02  0.51100000000E-03 0.  1.
    9900012    2    1    2    0    0  0.18233657616E+00  0.14139503254E+00  0.11574416416E+01  0.90007783776E+02  0.90000045722E+02 0.  0.
        -12    1    1    2    0    0 -0.18233657616E+00 -0.14139503254E+00 -0.11574416416E+01  0.11802162243E+01  0.00000000000E+00 0.  1.
         11    1    3    3    0    0 -0.31351861815E+02  0.17534928929E+02 -0.14187655362E+02  0.38622565124E+02  0.51100000000E-03 0. -1.
        -11    1    3    3    0    0 -0.26359920889E+01  0.58459259775E+01  0.64886285918E+01  0.91228069196E+01  0.51100000000E-03 0.  1.
        -12    1    3    3    0    0  0.34170190480E+02 -0.23239459874E+02  0.88564684121E+01  0.42262411732E+02  0.00000000000E+00 0.  1.
</event>
<event>
 7    1  0.2542335E-015  0.9000778E+02  0.7816164E-02  0.1186339E+00
        -11   -1    0    0    0    0  0.00000000000E+00  0.00000000000E+00  0.45593999997E+02  0.45594000000E+02  0.51100000000E-03 0.  1.
         11   -1    0    0    0    0 -0.00000000000E+00 -0.00000000000E+00 -0.45593999997E+02  0.45594000000E+02  0.51100000000E-03 0. -1.
    9900012    2    1    2    0    0  0.37992877523E-01  0.14414636670E+00 -0.11707709795E+01  0.90007777004E+02  0.90000038860E+02 0.  0.
        -12    1    1    2    0    0 -0.37992877523E-01 -0.14414636670E+00  0.11707709795E+01  0.11802229960E+01  0.00000000000E+00 0.  1.
         11    1    3    3    0    0 -0.11431461633E+01 -0.74039424737E+01 -0.73999604870E+01  0.10530173919E+02  0.51100000000E-03 0. -1.
        -11    1    3    3    0    0  0.67016058946E+01 -0.20031579181E+02  0.33951065156E+02  0.39985628812E+02  0.51100000000E-03 0.  1.
         12    1    3    3    0    0 -0.55204668538E+01  0.27579668021E+02 -0.27721875648E+02  0.39491974272E+02  0.00000000000E+00 0. -1.
</event>
<event>
 7    1  0.2542335E-015  0.9000769E+02  0.7816164E-02  0.1186339E+00
        -11   -1    0    0    0    0  0.00000000000E+00  0.00000000000E+00  0.45593999997E+02  0.45594000000E+02  0.51100000000E-03 0.  1.
         11   -1    0    0    0    0 -0.00000000000E+00 -0.00000000000E+00 -0.45593999997E+02  0.45594000000E+02  0.51100000000E-03 0. -1.
    9900012    2    1    2    0    0 -0.35899050639E+00  0.68771663730E+00 -0.88954639008E+00  0.90007694473E+02  0.89999955240E+02 0.  0.
        -12    1    1    2    0    0  0.35899050639E+00 -0.68771663730E+00  0.88954639008E+00  0.11803055270E+01  0.00000000000E+00 0.  1.
         11    1    3    3    0    0 -0.12233074302E+01 -0.55599689505E+01  0.14951461111E+00  0.56949179696E+01  0.51100000000E-03 0. -1.
        -11    1    3    3    0    0 -0.41229327215E+02 -0.15590650872E+01 -0.36624186352E+01  0.41421026268E+02  0.51100000000E-03 0.  1.
         12    1    3    3    0    0  0.42093644139E+02  0.78067506750E+01  0.26233576340E+01  0.42891750236E+02  0.00000000000E+00 0. -1.
</event>
<event>
 7    1  0.2578434E-015  0.9000727E+02  0.7816164E-02  0.1186340E+00
        -11   -1    0    0    0    0  0.00000000000E+00  0.00000000000E+00  0.45593999997E+02  0.45594000000E+02  0.51100000000E-03 0.  1.
         11   -1    0    0    0    0 -0.00000000000E+00 -0.00000000000E+00 -0.45593999997E+02  0.45594000000E+02  0.51100000000E-03 0. -1.
    9900012    2    1    2    0    0 -0.41684635365E+00  0.38829126679E+00 -0.10342063900E+01  0.90007274017E+02  0.89999529233E+02 0.  0.
        -12    1    1    2    0    0  0.41684635365E+00 -0.38829126679E+00  0.10342063900E+01  0.11807259832E+01  0.00000000000E+00 0.  1.
         11    1    3    3    0    0  0.42111984542E+01  0.78126186474E+01 -0.33678962077E+01  0.94928355973E+01  0.51100000000E-03 0. -1.
        -11    1    3    3    0    0  0.30002368206E+02  0.12733590281E+02  0.18302037059E+02  0.37379820494E+02  0.51100000000E-03 0.  1.
         12    1    3    3    0    0 -0.34630413014E+02 -0.20157917661E+02 -0.15968347241E+02  0.43134617925E+02  0.00000000000E+00 0. -1.
</event>
<event>
 7    1  0.2542335E-015  0.9000791E+02  0.7816164E-02  0.1186339E+00
        -11   -1    0    0    0    0  0.00000000000E+00  0.00000000000E+00  0.45593999997E+02  0.45594000000E+02  0.51100000000E-03 0. -1.
         11   -1    0    0    0    0 -0.00000000000E+00 -0.00000000000E+00 -0.45593999997E+02  0.45594000000E+02  0.51100000000E-03 0.  1.
    9900012    2    1    2    0    0 -0.46496306305E+00  0.13399469426E+00  0.10763204045E+01  0.90007910664E+02  0.90000174284E+02 0.  0.
        -12    1    1    2    0    0  0.46496306305E+00 -0.13399469426E+00 -0.10763204045E+01  0.11800893361E+01  0.00000000000E+00 0.  1.
         11    1    3    3    0    0  0.24975579311E+02 -0.28592917577E+02 -0.57266374564E+01  0.38394385974E+02  0.51100000000E-03 0. -1.
        -11    1    3    3    0    0  0.99990648852E+00 -0.95419452547E+00 -0.88022017108E+01  0.89100536136E+01  0.51100000000E-03 0.  1.
        -12    1    3    3    0    0 -0.26440448862E+02  0.29681106797E+02  0.15605159572E+02  0.42703471077E+02  0.00000000000E+00 0.  1.
</event>
<event>
 7    1  0.2542335E-015  0.9000769E+02  0.7816164E-02  0.1186339E+00
        -11   -1    0    0    0    0  0.00000000000E+00  0.00000000000E+00  0.45593999997E+02  0.45594000000E+02  0.51100000000E-03 0. -1.
         11   -1    0    0    0    0 -0.00000000000E+00 -0.00000000000E+00 -0.45593999997E+02  0.45594000000E+02  0.51100000000E-03 0.  1.
    9900012    2    1    2    0    0  0.45266782787E+00  0.46148852936E+00  0.98754783600E+00  0.90007690484E+02  0.89999951198E+02 0.  0.
        -12    1    1    2    0    0 -0.45266782787E+00 -0.46148852936E+00 -0.98754783600E+00  0.11803095160E+01  0.00000000000E+00 0.  1.
         11    1    3    3    0    0 -0.33650527849E+02  0.84460802728E+01  0.23139128762E+02  0.41702680688E+02  0.51100000000E-03 0. -1.
        -11    1    3    3    0    0  0.68025225759E+01 -0.36680980838E+01  0.52827463458E+01  0.93614457304E+01  0.51100000000E-03 0.  1.
        -12    1    3    3    0    0  0.27300673101E+02 -0.43164936596E+01 -0.27434327272E+02  0.38943564065E+02  0.00000000000E+00 0.  1.
</event>
<event>
 7    1  0.2542335E-015  0.9000786E+02  0.7816164E-02  0.1186339E+00
        -11   -1    0    0    0    0  0.00000000000E+00  0.00000000000E+00  0.45593999997E+02  0.45594000000E+02  0.51100000000E-03 0. -1.
         11   -1    0    0    0    0 -0.00000000000E+00 -0.00000000000E+00 -0.45593999997E+02  0.45594000000E+02  0.51100000000E-03 0.  1.
    9900012    2    1    2    0    0 -0.75442081581E+00  0.88215490505E+00  0.21302048640E+00  0.90007861969E+02  0.90000124947E+02 0.  0.
        -12    1    1    2    0    0  0.75442081581E+00 -0.88215490505E+00 -0.21302048640E+00  0.11801380307E+01  0.00000000000E+00 0.  1.
         11    1    3    3    0    0  0.19917652018E+02  0.29067981075E+02  0.24175519524E+02  0.42733080046E+02  0.51100000000E-03 0. -1.
        -11    1    3    3    0    0  0.34876463556E+01 -0.85242060400E+01 -0.28352805299E+01  0.96366270893E+01  0.51100000000E-03 0.  1.
        -12    1    3    3    0    0 -0.24159719190E+02 -0.19661620130E+02 -0.21127218508E+02  0.37638154834E+02  0.00000000000E+00 0.  1.
</event>
<event>
 7    1  0.2542335E-015  0.9000777E+02  0.7816164E-02  0.1186339E+00
        -11   -1    0    0    0    0  0.00000000000E+00  0.00000000000E+00  0.45593999997E+02  0.45594000000E+02  0.51100000000E-03 0. -1.
         11   -1    0    0    0    0 -0.00000000000E+00 -0.00000000000E+00 -0.45593999997E+02  0.45594000000E+02  0.51100000000E-03 0.  1.
    9900012    2    1    2    0    0 -0.30990188785E+00  0.11317394858E+01  0.12679767990E+00  0.90007766508E+02  0.90000028226E+02 0.  0.
        -12    1    1    2    0    0  0.30990188785E+00 -0.11317394858E+01 -0.12679767990E+00  0.11802334919E+01  0.00000000000E+00 0.  1.
         11    1    3    3    0    0 -0.12384808941E+02 -0.16975360562E+02  0.25212228473E+02  0.32820768174E+02  0.51100000000E-03 0. -1.
        -11    1    3    3    0    0 -0.39199526825E+01 -0.67247240331E+01  0.91221410021E+01  0.11991722106E+02  0.51100000000E-03 0.  1.
        -12    1    3    3    0    0  0.15994859736E+02  0.24831824081E+02 -0.34207571795E+02  0.45195276227E+02  0.00000000000E+00 0.  1.
</event>
<event>
 7    1  0.2542335E-015  0.9000779E+02  0.7816164E-02  0.1186339E+00
        -11   -1    0    0    0    0  0.00000000000E+00  0.00000000000E+00  0.45593999997E+02  0.45594000000E+02  0.51100000000E-03 0. -1.
         11   -1    0    0    0    0 -0.00000000000E+00 -0.00000000000E+00 -0.45593999997E+02  0.45594000000E+02  0.51100000000E-03 0.  1.
    9900012    2    1    2    0    0 -0.65107412835E+00 -0.70587081745E+00 -0.68611136276E+00  0.90007788183E+02  0.90000050187E+02 0.  0.
        -12    1    1    2    0    0  0.65107412835E+00  0.70587081745E+00  0.68611136276E+00  0.11802118173E+01  0.00000000000E+00 0.  1.
         11    1    3    3    0    0  0.83502397747E+00 -0.23358273621E+01 -0.89233184618E+01  0.92616935352E+01  0.51100000000E-03 0. -1.
        -11    1    3    3    0    0  0.77427868681E+00 -0.25352826152E+02 -0.26513034299E+02  0.36692046678E+02  0.51100000000E-03 0.  1.
         12    1    3    3    0    0 -0.22603767926E+01  0.26982782696E+02  0.34750241399E+02  0.44054047970E+02  0.00000000000E+00 0. -1.
</event>
<event>
 7    1  0.2542335E-015  0.9000766E+02  0.7816164E-02  0.1186339E+00
        -11   -1    0    0    0    0  0.00000000000E+00  0.00000000000E+00  0.45593999997E+02  0.45594000000E+02  0.51100000000E-03 0. -1.
         11   -1    0    0    0    0 -0.00000000000E+00 -0.00000000000E+00 -0.45593999997E+02  0.45594000000E+02  0.51100000000E-03 0.  1.
    9900012    2    1    2    0    0  0.70479389702E+00 -0.88128225368E+00 -0.34614500991E+00  0.90007657162E+02  0.89999917436E+02 0.  0.
        -12    1    1    2    0    0 -0.70479389702E+00  0.88128225368E+00  0.34614500991E+00  0.11803428383E+01  0.00000000000E+00 0.  1.
         11    1    3    3    0    0  0.50596681509E+01 -0.64252326886E+01  0.16917517195E+02  0.18790589272E+02  0.51100000000E-03 0. -1.
        -11    1    3    3    0    0 -0.23767080113E+02 -0.14911153675E+02  0.12054970366E+02  0.30537500091E+02  0.51100000000E-03 0.  1.
         12    1    3    3    0    0  0.19412205859E+02  0.20455104110E+02 -0.29318632571E+02  0.40679567799E+02  0.00000000000E+00 0. -1.
</event>
<event>
 7    1  0.2542335E-015  0.9000765E+02  0.7816164E-02  0.1186339E+00
        -11   -1    0    0    0    0  0.00000000000E+00  0.00000000000E+00  0.45593999997E+02  0.45594000000E+02  0.51100000000E-03 0.  1.
         11   -1    0    0    0    0 -0.00000000000E+00 -0.00000000000E+00 -0.45593999997E+02  0.45594000000E+02  0.51100000000E-03 0. -1.
    9900012    2    1    2    0    0 -0.66872920629E-01  0.11217346102E+01 -0.36118626784E+00  0.90007654270E+02  0.89999914506E+02 0.  0.
        -12    1    1    2    0    0  0.66872920629E-01 -0.11217346102E+01  0.36118626784E+00  0.11803457305E+01  0.00000000000E+00 0.  1.
         11    1    3    3    0    0 -0.26542701284E+02  0.11861081543E+02 -0.15696272702E+02  0.33038965235E+02  0.51100000000E-03 0. -1.
        -11    1    3    3    0    0 -0.46445078188E+01 -0.13912983676E+02 -0.91116322101E+01  0.17267437836E+02  0.51100000000E-03 0.  1.
        -12    1    3    3    0    0  0.31120336182E+02  0.31736367435E+01  0.24446718644E+02  0.39701251198E+02  0.00000000000E+00 0.  1.
</event>
<event>
 7    1  0.2542335E-015  0.9000783E+02  0.7816164E-02  0.1186339E+00
        -11   -1    0    0    0    0  0.00000000000E+00  0.00000000000E+00  0.45593999997E+02  0.45594000000E+02  0.51100000000E-03 0.  1.
         11   -1    0    0    0    0 -0.00000000000E+00 -0.00000000000E+00 -0.45593999997E+02  0.45594000000E+02  0.51100000000E-03 0. -1.
    9900012    2    1    2    0    0 -0.11561983436E+01 -0.14993740701E+00 -0.18307505865E+00  0.90007833777E+02  0.90000096383E+02 0.  0.
        -12    1    1    2    0    0  0.11561983436E+01  0.14993740701E+00  0.18307505865E+00  0.11801662225E+01  0.00000000000E+00 0.  1.
         11    1    3    3    0    0  0.19113922028E+01 -0.48138936853E+00  0.89404909507E+01  0.91551916734E+01  0.51100000000E-03 0. -1.
        -11    1    3    3    0    0 -0.12076454042E+01  0.22711560156E+02  0.28849195032E+02  0.36736214100E+02  0.51100000000E-03 0.  1.
         12    1    3    3    0    0 -0.18599451421E+01 -0.22380108194E+02 -0.37972761041E+02  0.44116428004E+02  0.00000000000E+00 0. -1.
</event>
<event>
 7    1  0.2691276E-015  0.9000764E+02  0.7816164E-02  0.1186339E+00
        -11   -1    0    0    0    0  0.00000000000E+00  0.00000000000E+00  0.45593999997E+02  0.45594000000E+02  0.51100000000E-03 0. -1.
         11   -1    0    0    0    0 -0.00000000000E+00 -0.00000000000E+00 -0.45593999997E+02  0.45594000000E+02  0.51100000000E-03 0.  1.
    9900012    2    1    2    0    0  0.39644281340E+00  0.11109968409E+01 -0.42068654516E-01  0.90007639607E+02  0.89999899650E+02 0.  0.
        -12    1    1    2    0    0 -0.39644281340E+00 -0.11109968409E+01  0.42068654516E-01  0.11803603926E+01  0.00000000000E+00 0.  1.
         11    1    3    3    0    0  0.85668459648E+00  0.93123109456E+01  0.22133763092E+01  0.96099988862E+01  0.51100000000E-03 0. -1.
        -11    1    3    3    0    0  0.25610040335E+02  0.10662906173E+02 -0.27828792503E+02  0.39293936256E+02  0.51100000000E-03 0.  1.
         12    1    3    3    0    0 -0.26070282119E+02 -0.18864220278E+02  0.25573347539E+02  0.41103704465E+02  0.00000000000E+00 0. -1.
</event>
<event>
 7    1  0.2542335E-015  0.9000773E+02  0.7816164E-02  0.1186339E+00
        -11   -1    0    0    0    0  0.00000000000E+00  0.00000000000E+00  0.45593999997E+02  0.45594000000E+02  0.51100000000E-03 0. -1.
         11   -1    0    0    0    0 -0.00000000000E+00 -0.00000000000E+00 -0.45593999997E+02  0.45594000000E+02  0.51100000000E-03 0.  1.
    9900012    2    1    2    0    0 -0.11279866528E+01 -0.33784978724E+00 -0.80861374968E-01  0.90007730993E+02  0.89999992242E+02 0.  0.
        -12    1    1    2    0    0  0.11279866528E+01  0.33784978724E+00  0.80861374968E-01  0.11802690073E+01  0.00000000000E+00 0.  1.
         11    1    3    3    0    0  0.38563255779E+02  0.12555926649E+02  0.10752415864E+01  0.40570089167E+02  0.51100000000E-03 0. -1.
        -11    1    3    3    0    0 -0.44344627609E+01  0.10207025556E+01  0.90974594585E+01  0.10172023523E+02  0.51100000000E-03 0.  1.
        -12    1    3    3    0    0 -0.35256779671E+02 -0.13914478992E+02 -0.10253562420E+02  0.39265618303E+02  0.00000000000E+00 0.  1.
</event>
<event>
 7    1  0.2542335E-015  0.9000772E+02  0.7816164E-02  0.1186339E+00
        -11   -1    0    0    0    0  0.00000000000E+00  0.00000000000E+00  0.45593999997E+02  0.45594000000E+02  0.51100000000E-03 0. -1.
         11   -1    0    0    0    0 -0.00000000000E+00 -0.00000000000E+00 -0.45593999997E+02  0.45594000000E+02  0.51100000000E-03 0.  1.
    9900012    2    1    2    0    0  0.65383043734E+00 -0.25828440478E+00  0.94808289709E+00  0.90007717723E+02  0.89999978797E+02 0.  0.
        -12    1    1    2    0    0 -0.65383043734E+00  0.25828440478E+00 -0.94808289709E+00  0.11802822774E+01  0.00000000000E+00 0.  1.
         11    1    3    3    0    0 -0.13708618071E+02 -0.65292823857E+01  0.36855042676E+02  0.39860405276E+02  0.51100000000E-03 0. -1.
        -11    1    3    3    0    0 -0.66702239118E+00 -0.94021629346E+01 -0.16222415359E+01  0.95643742389E+01  0.51100000000E-03 0.  1.
        -12    1    3    3    0    0  0.15029470899E+02  0.15673160916E+02 -0.34284718243E+02  0.40582938208E+02  0.00000000000E+00 0.  1.
</event>
<event>
 7    1  0.2542335E-015  0.9000768E+02  0.7816164E-02  0.1186339E+00
        -11   -1    0    0    0    0  0.00000000000E+00  0.00000000000E+00  0.45593999997E+02  0.45594000000E+02  0.51100000000E-03 0. -1.
         11   -1    0    0    0    0 -0.00000000000E+00 -0.00000000000E+00 -0.45593999997E+02  0.45594000000E+02  0.51100000000E-03 0.  1.
    9900012    2    1    2    0    0 -0.50937858387E+00 -0.71355767130E+00 -0.79026957823E+00  0.90007679239E+02  0.89999939805E+02 0.  0.
        -12    1    1    2    0    0  0.50937858387E+00  0.71355767130E+00  0.79026957823E+00  0.11803207607E+01  0.00000000000E+00 0.  1.
         11    1    3    3    0    0 -0.18956410545E+02  0.24511914572E+02  0.14300979392E+02  0.34127664271E+02  0.51100000000E-03 0. -1.
        -11    1    3    3    0    0 -0.99256984442E+01  0.44838459731E+01  0.25263232551E+01  0.11180638343E+02  0.51100000000E-03 0.  1.
        -12    1    3    3    0    0  0.28372730406E+02 -0.29709318216E+02 -0.17617572225E+02  0.44699376625E+02  0.00000000000E+00 0.  1.
</event>
<event>
 7    1  0.3000817E-015  0.9000768E+02  0.7816164E-02  0.1186339E+00
        -11   -1    0    0    0    0  0.00000000000E+00  0.00000000000E+00  0.45593999997E+02  0.45594000000E+02  0.51100000000E-03 0. -1.
         11   -1    0    0    0    0 -0.00000000000E+00 -0.00000000000E+00 -0.45593999997E+02  0.45594000000E+02  0.51100000000E-03 0.  1.
    9900012    2    1    2    0    0 -0.71673842842E+00  0.81071124631E+00  0.47138029498E+00  0.90007675434E+02  0.89999935949E+02 0.  0.
        -12    1    1    2    0    0  0.71673842842E+00 -0.81071124631E+00 -0.47138029498E+00  0.11803245664E+01  0.00000000000E+00 0.  1.
         11    1    3    3    0    0  0.36479850398E+01 -0.82672741870E+01  0.98852935974E+00  0.90902589562E+01  0.51100000000E-03 0. -1.
        -11    1    3    3    0    0  0.20263663567E+02  0.27465612972E+01 -0.33513296386E+02  0.39259402632E+02  0.51100000000E-03 0.  1.
         12    1    3    3    0    0 -0.24628387035E+02  0.63314241361E+01  0.32996147321E+02  0.41658013846E+02  0.00000000000E+00 0. -1.
</event>
<event>
 7    1  0.2542335E-015  0.9000772E+02  0.7816164E-02  0.1186339E+00
        -11   -1    0    0    0    0  0.00000000000E+00  0.00000000000E+00  0.45593999997E+02  0.45594000000E+02  0.51100000000E-03 0.  1.
         11   -1    0    0    0    0 -0.00000000000E+00 -0.00000000000E+00 -0.45593999997E+02  0.45594000000E+02  0.51100000000E-03 0. -1.
    9900012    2    1    2    0    0  0.28472220937E+00  0.86235209644E+00 -0.75387886230E+00  0.90007724094E+02  0.89999985252E+02 0.  0.
        -12    1    1    2    0    0 -0.28472220937E+00 -0.86235209644E+00  0.75387886230E+00  0.11802759058E+01  0.00000000000E+00 0.  1.
         11    1    3    3    0    0 -0.27579600369E+02  0.64503308439E+01 -0.27657181413E+02  0.39587381935E+02  0.51100000000E-03 0. -1.
        -11    1    3    3    0    0 -0.19689508093E+01 -0.91224167433E+01 -0.10419018385E+01  0.93904640050E+01  0.51100000000E-03 0.  1.
        -12    1    3    3    0    0  0.29833273387E+02  0.35344379958E+01  0.27945204389E+02  0.41029878154E+02  0.00000000000E+00 0.  1.
</event>
<event>
 7    1  0.2542335E-015  0.9000776E+02  0.7816164E-02  0.1186339E+00
        -11   -1    0    0    0    0  0.00000000000E+00  0.00000000000E+00  0.45593999997E+02  0.45594000000E+02  0.51100000000E-03 0. -1.
         11   -1    0    0    0    0 -0.00000000000E+00 -0.00000000000E+00 -0.45593999997E+02  0.45594000000E+02  0.51100000000E-03 0.  1.
    9900012    2    1    2    0    0 -0.30005895465E+00 -0.51599241843E+00 -0.10181795580E+01  0.90007757159E+02  0.90000018753E+02 0.  0.
        -12    1    1    2    0    0  0.30005895465E+00  0.51599241843E+00  0.10181795580E+01  0.11802428413E+01  0.00000000000E+00 0.  1.
         11    1    3    3    0    0 -0.22266967710E+02 -0.26212500373E+02  0.17828153579E+02  0.38739593275E+02  0.51100000000E-03 0. -1.
        -11    1    3    3    0    0 -0.87921060327E+01  0.49556488181E+01 -0.11272196070E+01  0.10155304427E+02  0.51100000000E-03 0.  1.
        -12    1    3    3    0    0  0.30759014788E+02  0.20740859136E+02 -0.17719113530E+02  0.41112859457E+02  0.00000000000E+00 0.  1.
</event>
<event>
 7    1  0.2542335E-015  0.9000778E+02  0.7816164E-02  0.1186339E+00
        -11   -1    0    0    0    0  0.00000000000E+00  0.00000000000E+00  0.45593999997E+02  0.45594000000E+02  0.51100000000E-03 0.  1.
         11   -1    0    0    0    0 -0.00000000000E+00 -0.00000000000E+00 -0.45593999997E+02  0.45594000000E+02  0.51100000000E-03 0. -1.
    9900012    2    1    2    0    0  0.65145279527E+00 -0.76110915445E-01 -0.98119114725E+00  0.90007779816E+02  0.90000041709E+02 0.  0.
        -12    1    1    2    0    0 -0.65145279527E+00  0.76110915445E-01  0.98119114725E+00  0.11802201843E+01  0.00000000000E+00 0.  1.
         11    1    3    3    0    0  0.32397572511E+02 -0.42708784184E+01 -0.17196099441E+02  0.36926263599E+02  0.51100000000E-03 0. -1.
        -11    1    3    3    0    0  0.82860129558E+01 -0.47049655615E+01  0.33831328538E+01  0.10111394553E+02  0.51100000000E-03 0.  1.
        -12    1    3    3    0    0 -0.40032132672E+02  0.88997330644E+01  0.12831775440E+02  0.42970121664E+02  0.00000000000E+00 0.  1.
</event>
<event>
 7    1  0.2542335E-015  0.9000769E+02  0.7816164E-02  0.1186339E+00
        -11   -1    0    0    0    0  0.00000000000E+00  0.00000000000E+00  0.45593999997E+02  0.45594000000E+02  0.51100000000E-03 0. -1.
         11   -1    0    0    0    0 -0.00000000000E+00 -0.00000000000E+00 -0.45593999997E+02  0.45594000000E+02  0.51100000000E-03 0.  1.
    9900012    2    1    2    0    0 -0.27206665897E+00 -0.10444675790E+01  0.47769748661E+00  0.90007691702E+02  0.89999952432E+02 0.  0.
        -12    1    1    2    0    0  0.27206665897E+00  0.10444675790E+01 -0.47769748661E+00  0.11803082983E+01  0.00000000000E+00 0.  1.
         11    1    3    3    0    0  0.15207358532E+01 -0.31383877797E+02  0.19535052755E+02  0.36998360903E+02  0.51100000000E-03 0. -1.
        -11    1    3    3    0    0 -0.62579065862E+01 -0.76102781136E+01  0.91118837775E+00  0.98948467562E+01  0.51100000000E-03 0.  1.
        -12    1    3    3    0    0  0.44651040741E+01  0.37949688332E+02 -0.19968543646E+02  0.43114484042E+02  0.00000000000E+00 0.  1.
</event>
<event>
 7    1  0.2542335E-015  0.9000771E+02  0.7816164E-02  0.1186339E+00
        -11   -1    0    0    0    0  0.00000000000E+00  0.00000000000E+00  0.45593999997E+02  0.45594000000E+02  0.51100000000E-03 0. -1.
         11   -1    0    0    0    0 -0.00000000000E+00 -0.00000000000E+00 -0.45593999997E+02  0.45594000000E+02  0.51100000000E-03 0.  1.
    9900012    2    1    2    0    0  0.68949263269E+00 -0.37584022952E+00 -0.88115630211E+00  0.90007706648E+02  0.89999967575E+02 0.  0.
        -12    1    1    2    0    0 -0.68949263269E+00  0.37584022952E+00  0.88115630211E+00  0.11802933523E+01  0.00000000000E+00 0.  1.
         11    1    3    3    0    0 -0.19133946873E+02  0.10385441014E+02  0.36493274025E+02  0.42493815519E+02  0.51100000000E-03 0. -1.
        -11    1    3    3    0    0  0.10292627758E+02  0.18676583940E+01 -0.52491650445E+01  0.11703848426E+02  0.51100000000E-03 0.  1.
        -12    1    3    3    0    0  0.95308117471E+01 -0.12628939638E+02 -0.32125265283E+02  0.35810042704E+02  0.00000000000E+00 0.  1.
</event>
<event>
 7    1  0.2542335E-015  0.9000787E+02  0.7816164E-02  0.1186339E+00
        -11   -1    0    0    0    0  0.00000000000E+00  0.00000000000E+00  0.45593999997E+02  0.45594000000E+02  0.51100000000E-03 0. -1.
         11   -1    0    0    0    0 -0.00000000000E+00 -0.00000000000E+00 -0.45593999997E+02  0.45594000000E+02  0.51100000000E-03 0.  1.
    9900012    2    1    2    0    0 -0.77018828589E+00  0.88053164262E+00 -0.15548994097E+00  0.90007871579E+02  0.90000134683E+02 0.  0.
        -12    1    1    2    0    0  0.77018828589E+00 -0.88053164262E+00  0.15548994097E+00  0.11801284215E+01  0.00000000000E+00 0.  1.
         11    1    3    3    0    0  0.14808604209E+02  0.47103846223E+01  0.21717778259E+02  0.26704763146E+02  0.51100000000E-03 0. -1.
        -11    1    3    3    0    0 -0.18261052037E+01 -0.98755576953E+01  0.18045044957E+02  0.20651511997E+02  0.51100000000E-03 0.  1.
        -12    1    3    3    0    0 -0.13752687291E+02  0.60457047157E+01 -0.39918313157E+02  0.42651596436E+02  0.00000000000E+00 0.  1.
</event>
<event>
 7    1  0.2542335E-015  0.9000776E+02  0.7816164E-02  0.1186339E+00
        -11   -1    0    0    0    0  0.00000000000E+00  0.00000000000E+00  0.45593999997E+02  0.45594000000E+02  0.51100000000E-03 0.  1.
         11   -1    0    0    0    0 -0.00000000000E+00 -0.00000000000E+00 -0.45593999997E+02  0.45594000000E+02  0.51100000000E-03 0. -1.
    9900012    2    1    2    0    0 -0.10013593543E+01  0.54201173142E+00 -0.31057805373E+00  0.90007764430E+02  0.90000026120E+02 0.  0.
        -12    1    1    2    0    0  0.10013593543E+01 -0.54201173142E+00  0.31057805373E+00  0.11802355701E+01  0.00000000000E+00 0.  1.
         11    1    3    3    0    0 -0.66864019369E+01  0.64153060607E+01 -0.39210894382E+01  0.10061762537E+02  0.51100000000E-03 0. -1.
        -11    1    3    3    0    0  0.26441325159E+02  0.28878025644E+02 -0.12668314726E+01  0.39175105660E+02  0.51100000000E-03 0.  1.
         12    1    3    3    0    0 -0.20756282576E+02 -0.34751319973E+02  0.48773428570E+01  0.40770896233E+02  0.00000000000E+00 0. -1.
</event>
<event>
 7    1  0.2542335E-015  0.9000770E+02  0.7816164E-02  0.1186339E+00
        -11   -1    0    0    0    0  0.00000000000E+00  0.00000000000E+00  0.45593999997E+02  0.45594000000E+02  0.51100000000E-03 0.  1.
         11   -1    0    0    0    0 -0.00000000000E+00 -0.00000000000E+00 -0.45593999997E+02  0.45594000000E+02  0.51100000000E-03 0. -1.
    9900012    2    1    2    0    0  0.40230862898E+00  0.41826168817E+00 -0.10277690756E+01  0.90007701586E+02  0.89999962447E+02 0.  0.
        -12    1    1    2    0    0 -0.40230862898E+00 -0.41826168817E+00  0.10277690756E+01  0.11802984137E+01  0.00000000000E+00 0.  1.
         11    1    3    3    0    0  0.85803011849E+01  0.11983714853E+01  0.18032633685E+01  0.88492610809E+01  0.51100000000E-03 0. -1.
        -11    1    3    3    0    0 -0.21261736527E+02  0.29015096918E+02  0.20234220353E+02  0.41271793792E+02  0.51100000000E-03 0.  1.
         12    1    3    3    0    0  0.13083743971E+02 -0.29795206715E+02 -0.23065252797E+02  0.39886646713E+02  0.00000000000E+00 0. -1.
</event>
<event>
 7    1  0.2542335E-015  0.9000873E+02  0.7816164E-02  0.1186337E+00
        -11   -1    0    0    0    0  0.00000000000E+00  0.00000000000E+00  0.45593999997E+02  0.45594000000E+02  0.51100000000E-03 0.  1.
         11   -1    0    0    0    0 -0.00000000000E+00 -0.00000000000E+00 -0.45593999997E+02  0.45594000000E+02  0.51100000000E-03 0. -1.
    9900012    2    1    2    0    0 -0.70303402307E+00 -0.28404391242E+00 -0.90318793125E+00  0.90008726401E+02  0.90001000784E+02 0.  0.
        -12    1    1    2    0    0  0.70303402307E+00  0.28404391242E+00  0.90318793125E+00  0.11792735988E+01  0.00000000000E+00 0.  1.
         11    1    3    3    0    0  0.26101425022E+02  0.21047875177E+02 -0.16580436142E+02  0.37405992843E+02  0.51100000000E-03 0. -1.
        -11    1    3    3    0    0 -0.62837461350E+01  0.45781770604E+01 -0.85995805768E+01  0.11593013286E+02  0.51100000000E-03 0.  1.
        -12    1    3    3    0    0 -0.20520712910E+02 -0.25910096150E+02  0.24276828788E+02  0.41009720272E+02  0.00000000000E+00 0.  1.
</event>
<event>
 7    1  0.2542335E-015  0.9000775E+02  0.7816164E-02  0.1186339E+00
        -11   -1    0    0    0    0  0.00000000000E+00  0.00000000000E+00  0.45593999997E+02  0.45594000000E+02  0.51100000000E-03 0. -1.
         11   -1    0    0    0    0 -0.00000000000E+00 -0.00000000000E+00 -0.45593999997E+02  0.45594000000E+02  0.51100000000E-03 0.  1.
    9900012    2    1    2    0    0  0.10914293925E+01  0.44457665191E+00 -0.64171964695E-01  0.90007752331E+02  0.90000013862E+02 0.  0.
        -12    1    1    2    0    0 -0.10914293925E+01 -0.44457665191E+00  0.64171964695E-01  0.11802476686E+01  0.00000000000E+00 0.  1.
         11    1    3    3    0    0 -0.32652540024E+01  0.41284857245E+01  0.81973571160E+01  0.97418141034E+01  0.51100000000E-03 0. -1.
        -11    1    3    3    0    0  0.31412090619E+02 -0.28799383214E+02 -0.91313656406E+00  0.42625787139E+02  0.51100000000E-03 0.  1.
         12    1    3    3    0    0 -0.27055407224E+02  0.25115474142E+02 -0.73483925166E+01  0.37640151089E+02  0.00000000000E+00 0. -1.
</event>
<event>
 7    1  0.2542335E-015  0.9000774E+02  0.7816164E-02  0.1186339E+00
        -11   -1    0    0    0    0  0.00000000000E+00  0.00000000000E+00  0.45593999997E+02  0.45594000000E+02  0.51100000000E-03 0.  1.
         11   -1    0    0    0    0 -0.00000000000E+00 -0.00000000000E+00 -0.45593999997E+02  0.45594000000E+02  0.51100000000E-03 0. -1.
    9900012    2    1    2    0    0  0.31079625204E+00  0.95192033351E+00 -0.62471761625E+00  0.90007737855E+02  0.89999999194E+02 0.  0.
        -12    1    1    2    0    0 -0.31079625204E+00 -0.95192033351E+00  0.62471761625E+00  0.11802621453E+01  0.00000000000E+00 0.  1.
         11    1    3    3    0    0  0.15835910301E+02  0.20888897328E+02 -0.25994943598E+02  0.36916922672E+02  0.51100000000E-03 0. -1.
        -11    1    3    3    0    0  0.32557366064E+01  0.76845577641E+01 -0.33952142177E+01  0.90099793965E+01  0.51100000000E-03 0.  1.
        -12    1    3    3    0    0 -0.18780850655E+02 -0.27621534758E+02  0.28765440200E+02  0.44080835786E+02  0.00000000000E+00 0.  1.
</event>
<event>
 7    1  0.2542335E-015  0.9000772E+02  0.7816164E-02  0.1186339E+00
        -11   -1    0    0    0    0  0.00000000000E+00  0.00000000000E+00  0.45593999997E+02  0.45594000000E+02  0.51100000000E-03 0. -1.
         11   -1    0    0    0    0 -0.00000000000E+00 -0.00000000000E+00 -0.45593999997E+02  0.45594000000E+02  0.51100000000E-03 0.  1.
    9900012    2    1    2    0    0  0.11277640051E+01 -0.43772181936E-01  0.34538928346E+00  0.90007719774E+02  0.89999980875E+02 0.  0.
        -12    1    1    2    0    0 -0.11277640051E+01  0.43772181936E-01 -0.34538928346E+00  0.11802802261E+01  0.00000000000E+00 0.  1.
         11    1    3    3    0    0 -0.10916447564E+01 -0.79337131049E+01  0.65879872856E+00  0.80355154116E+01  0.51100000000E-03 0. -1.
        -11    1    3    3    0    0  0.29873509625E+01 -0.34184303367E+02 -0.14933959172E+02  0.37423441842E+02  0.51100000000E-03 0.  1.
         12    1    3    3    0    0 -0.76794220099E+00  0.42074244290E+02  0.14620549727E+02  0.44548762521E+02  0.00000000000E+00 0. -1.
</event>
<event>
 7    1  0.2542335E-015  0.9000743E+02  0.7816164E-02  0.1186340E+00
        -11   -1    0    0    0    0  0.00000000000E+00  0.00000000000E+00  0.45593999997E+02  0.45594000000E+02  0.51100000000E-03 0. -1.
         11   -1    0    0    0    0 -0.00000000000E+00 -0.00000000000E+00 -0.45593999997E+02  0.45594000000E+02  0.51100000000E-03 0.  1.
    9900012    2    1    2    0    0 -0.58571880014E-01 -0.11489626289E+01 -0.26495417713E+00  0.90007429585E+02  0.89999686855E+02 0.  0.
        -12    1    1    2    0    0  0.58571880014E-01  0.11489626289E+01  0.26495417713E+00  0.11805704146E+01  0.00000000000E+00 0.  1.
         11    1    3    3    0    0 -0.29818645383E+02 -0.11615645195E+02  0.22715667738E+02  0.39243806987E+02  0.51100000000E-03 0. -1.
        -11    1    3    3    0    0 -0.98536141667E+00  0.61977248005E+01  0.57175774875E+01  0.84896067289E+01  0.51100000000E-03 0.  1.
        -12    1    3    3    0    0  0.30745434920E+02  0.42689577651E+01 -0.28698199403E+02  0.42274015870E+02  0.00000000000E+00 0.  1.
</event>
<event>
 7    1  0.2542335E-015  0.9000776E+02  0.7816164E-02  0.1186339E+00
        -11   -1    0    0    0    0  0.00000000000E+00  0.00000000000E+00  0.45593999997E+02  0.45594000000E+02  0.51100000000E-03 0.  1.
         11   -1    0    0    0    0 -0.00000000000E+00 -0.00000000000E+00 -0.45593999997E+02  0.45594000000E+02  0.51100000000E-03 0. -1.
    9900012    2    1    2    0    0  0.38025566401E+00 -0.92695425682E+00 -0.62380391695E+00  0.90007758545E+02  0.90000020158E+02 0.  0.
        -12    1    1    2    0    0 -0.38025566401E+00  0.92695425682E+00  0.62380391695E+00  0.11802414546E+01  0.00000000000E+00 0.  1.
         11    1    3    3    0    0  0.82236638772E+01 -0.80215941359E+00 -0.64876508615E+01  0.10505318712E+02  0.51100000000E-03 0. -1.
        -11    1    3    3    0    0  0.32094618824E+02  0.15688678372E+02 -0.22231654537E+01  0.35793039148E+02  0.51100000000E-03 0.  1.
         12    1    3    3    0    0 -0.39938027037E+02 -0.15813473215E+02  0.80870123983E+01  0.43709400685E+02  0.00000000000E+00 0. -1.
</event>
<event>
 7    1  0.2542335E-015  0.9000796E+02  0.7816164E-02  0.1186339E+00
        -11   -1    0    0    0    0  0.00000000000E+00  0.00000000000E+00  0.45593999997E+02  0.45594000000E+02  0.51100000000E-03 0.  1.
         11   -1    0    0    0    0 -0.00000000000E+00 -0.00000000000E+00 -0.45593999997E+02  0.45594000000E+02  0.51100000000E-03 0. -1.
    9900012    2    1    2    0    0  0.89438083583E+00  0.12360539704E+00 -0.75980911244E+00  0.90007955399E+02  0.90000219610E+02 0.  0.
        -12    1    1    2    0    0 -0.89438083583E+00 -0.12360539704E+00  0.75980911244E+00  0.11800446013E+01  0.00000000000E+00 0.  1.
         11    1    3    3    0    0 -0.62327178401E+01  0.25329264260E+01 -0.52502294555E+01  0.85338969733E+01  0.51100000000E-03 0. -1.
        -11    1    3    3    0    0  0.28145609021E+02  0.20959007574E+02  0.25752566618E+02  0.43527577389E+02  0.51100000000E-03 0.  1.
         12    1    3    3    0    0 -0.21018510345E+02 -0.23368328603E+02 -0.21262146275E+02  0.37946481037E+02  0.00000000000E+00 0. -1.
</event>
<event>
 7    1  0.2542335E-015  0.9000782E+02  0.7816164E-02  0.1186339E+00
        -11   -1    0    0    0    0  0.00000000000E+00  0.00000000000E+00  0.45593999997E+02  0.45594000000E+02  0.51100000000E-03 0.  1.
         11   -1    0    0    0    0 -0.00000000000E+00 -0.00000000000E+00 -0.45593999997E+02  0.45594000000E+02  0.51100000000E-03 0. -1.
    9900012    2    1    2    0    0  0.62748275687E+00  0.79019356130E+00  0.61211249395E+00  0.90007821124E+02  0.90000083563E+02 0.  0.
        -12    1    1    2    0    0 -0.62748275687E+00 -0.79019356130E+00 -0.61211249395E+00  0.11801788762E+01  0.00000000000E+00 0.  1.
         11    1    3    3    0    0  0.33139793588E+02 -0.17610685940E+02  0.36949404930E+01  0.37709876211E+02  0.51100000000E-03 0. -1.
        -11    1    3    3    0    0 -0.90764565008E+01 -0.11030749486E+02  0.16454365296E+01  0.14379393536E+02  0.51100000000E-03 0.  1.
        -12    1    3    3    0    0 -0.23435854331E+02  0.29431628987E+02 -0.47282645287E+01  0.37918551377E+02  0.00000000000E+00 0.  1.
</event>
<event>
 7    1  0.2542335E-015  0.9000777E+02  0.7816164E-02  0.1186339E+00
        -11   -1    0    0    0    0  0.00000000000E+00  0.00000000000E+00  0.45593999997E+02  0.45594000000E+02  0.51100000000E-03 0.  1.
         11   -1    0    0    0    0 -0.00000000000E+00 -0.00000000000E+00 -0.45593999997E+02  0.45594000000E+02  0.51100000000E-03 0. -1.
    9900012    2    1    2    0    0  0.10107684269E+01  0.21922884470E+00  0.56852786246E+00  0.90007772043E+02  0.90000033834E+02 0.  0.
        -12    1    1    2    0    0 -0.10107684269E+01 -0.21922884470E+00 -0.56852786246E+00  0.11802279566E+01  0.00000000000E+00 0.  1.
         11    1    3    3    0    0 -0.74191908565E+01 -0.38115834224E+01 -0.35790391843E+02  0.36749485842E+02  0.51100000000E-03 0. -1.
        -11    1    3    3    0    0 -0.11350930746E+02  0.16287343589E+01 -0.36908059963E+00  0.11473126216E+02  0.51100000000E-03 0.  1.
        -12    1    3    3    0    0  0.19780890029E+02  0.24020779082E+01  0.36728000305E+02  0.41785159986E+02  0.00000000000E+00 0.  1.
</event>
<event>
 7    1  0.2542335E-015  0.9000778E+02  0.7816164E-02  0.1186339E+00
        -11   -1    0    0    0    0  0.00000000000E+00  0.00000000000E+00  0.45593999997E+02  0.45594000000E+02  0.51100000000E-03 0. -1.
         11   -1    0    0    0    0 -0.00000000000E+00 -0.00000000000E+00 -0.45593999997E+02  0.45594000000E+02  0.51100000000E-03 0.  1.
    9900012    2    1    2    0    0 -0.10109259824E+01 -0.34631831501E+00  0.50102202636E+00  0.90007775111E+02  0.90000036943E+02 0.  0.
        -12    1    1    2    0    0  0.10109259824E+01  0.34631831501E+00 -0.50102202636E+00  0.11802248888E+01  0.00000000000E+00 0.  1.
         11    1    3    3    0    0  0.35515226883E+02 -0.30992969851E+01  0.47975396225E+01  0.35971563339E+02  0.51100000000E-03 0. -1.
        -11    1    3    3    0    0  0.69016726225E+01  0.71178601934E+01 -0.30453542633E+01  0.10371653753E+02  0.51100000000E-03 0.  1.
        -12    1    3    3    0    0 -0.43427825488E+02 -0.43648815234E+01 -0.12511633329E+01  0.43664558019E+02  0.00000000000E+00 0.  1.
</event>
<event>
 7    1  0.2542335E-015  0.9000737E+02  0.7816164E-02  0.1186340E+00
        -11   -1    0    0    0    0  0.00000000000E+00  0.00000000000E+00  0.45593999997E+02  0.45594000000E+02  0.51100000000E-03 0.  1.
         11   -1    0    0    0    0 -0.00000000000E+00 -0.00000000000E+00 -0.45593999997E+02  0.45594000000E+02  0.51100000000E-03 0. -1.
    9900012    2    1    2    0    0 -0.92157850853E+00  0.71901354418E+00  0.16612984069E+00  0.90007370275E+02  0.89999626762E+02 0.  0.
        -12    1    1    2    0    0  0.92157850853E+00 -0.71901354418E+00 -0.16612984069E+00  0.11806297252E+01  0.00000000000E+00 0.  1.
         11    1    3    3    0    0 -0.33333224330E+02 -0.85272609936E+01 -0.15639350393E+02  0.37794276091E+02  0.51100000000E-03 0. -1.
        -11    1    3    3    0    0 -0.68140851679E+01  0.79997333952E+01  0.29257485182E+01  0.10908138967E+02  0.51100000000E-03 0.  1.
        -12    1    3    3    0    0  0.39225730989E+02  0.12465411426E+01  0.12879731715E+02  0.41304955217E+02  0.00000000000E+00 0.  1.
</event>
<event>
 7    1  0.2542335E-015  0.9000772E+02  0.7816164E-02  0.1186339E+00
        -11   -1    0    0    0    0  0.00000000000E+00  0.00000000000E+00  0.45593999997E+02  0.45594000000E+02  0.51100000000E-03 0.  1.
         11   -1    0    0    0    0 -0.00000000000E+00 -0.00000000000E+00 -0.45593999997E+02  0.45594000000E+02  0.51100000000E-03 0. -1.
    9900012    2    1    2    0    0  0.43902567059E+00  0.10882744803E+01 -0.12635207568E+00  0.90007724722E+02  0.89999985889E+02 0.  0.
        -12    1    1    2    0    0 -0.43902567059E+00 -0.10882744803E+01  0.12635207568E+00  0.11802752776E+01  0.00000000000E+00 0.  1.
         11    1    3    3    0    0  0.22552674115E+01 -0.91237273568E+01  0.77336472274E+00  0.94300967776E+01  0.51100000000E-03 0. -1.
        -11    1    3    3    0    0 -0.27625029764E+02 -0.12669772871E+02  0.23424698621E+02  0.38371629100E+02  0.51100000000E-03 0.  1.
         12    1    3    3    0    0  0.25808788023E+02  0.22881774708E+02 -0.24324415420E+02  0.42205998845E+02  0.00000000000E+00 0. -1.
</event>
<event>
 7    1  0.2542335E-015  0.9000707E+02  0.7816164E-02  0.1186340E+00
        -11   -1    0    0    0    0  0.00000000000E+00  0.00000000000E+00  0.45593999997E+02  0.45594000000E+02  0.51100000000E-03 0. -1.
         11   -1    0    0    0    0 -0.00000000000E+00 -0.00000000000E+00 -0.45593999997E+02  0.45594000000E+02  0.51100000000E-03 0.  1.
    9900012    2    1    2    0    0 -0.76076245074E+00 -0.85768573987E+00  0.28322219844E+00  0.90007068525E+02  0.89999321027E+02 0.  0.
        -12    1    1    2    0    0  0.76076245074E+00  0.85768573987E+00 -0.28322219844E+00  0.11809314749E+01  0.00000000000E+00 0.  1.
         11    1    3    3    0    0 -0.32916664344E+02  0.97139609573E+01  0.19104213178E+02  0.39278986627E+02  0.51100000000E-03 0. -1.
        -11    1    3    3    0    0  0.62393210042E+01 -0.95932450333E+00  0.93365521756E+01  0.11270343246E+02  0.51100000000E-03 0.  1.
        -12    1    3    3    0    0  0.25916580889E+02 -0.96123221938E+01 -0.28157543156E+02  0.39457738652E+02  0.00000000000E+00 0.  1.
</event>
<event>
 7    1  0.2542335E-015  0.9000771E+02  0.7816164E-02  0.1186339E+00
        -11   -1    0    0    0    0  0.00000000000E+00  0.00000000000E+00  0.45593999997E+02  0.45594000000E+02  0.51100000000E-03 0. -1.
         11   -1    0    0    0    0 -0.00000000000E+00 -0.00000000000E+00 -0.45593999997E+02  0.45594000000E+02  0.51100000000E-03 0.  1.
    9900012    2    1    2    0    0 -0.58885919373E+00 -0.45152149675E+00  0.91785405165E+00  0.90007710683E+02  0.89999971664E+02 0.  0.
        -12    1    1    2    0    0  0.58885919373E+00  0.45152149675E+00 -0.91785405165E+00  0.11802893172E+01  0.00000000000E+00 0.  1.
         11    1    3    3    0    0 -0.14776668204E+02 -0.41334019518E+01  0.61844469162E+01  0.16543346664E+02  0.51100000000E-03 0. -1.
        -11    1    3    3    0    0  0.21451392670E+02 -0.30282887396E+02  0.45048090568E+01  0.37383269271E+02  0.51100000000E-03 0.  1.
         12    1    3    3    0    0 -0.72635836591E+01  0.33964767851E+02 -0.97714019213E+01  0.36081094748E+02  0.00000000000E+00 0. -1.
</event>
<event>
 7    1  0.2542335E-015  0.9000769E+02  0.7816164E-02  0.1186339E+00
        -11   -1    0    0    0    0  0.00000000000E+00  0.00000000000E+00  0.45593999997E+02  0.45594000000E+02  0.51100000000E-03 0. -1.
         11   -1    0    0    0    0 -0.00000000000E+00 -0.00000000000E+00 -0.45593999997E+02  0.45594000000E+02  0.51100000000E-03 0.  1.
    9900012    2    1    2    0    0 -0.10095782311E+01  0.24558505156E+00  0.55996994282E+00  0.90007692176E+02  0.89999952913E+02 0.  0.
        -12    1    1    2    0    0  0.10095782311E+01 -0.24558505156E+00 -0.55996994282E+00  0.11803078239E+01  0.00000000000E+00 0.  1.
         11    1    3    3    0    0 -0.23427979066E+02 -0.27696551935E+02 -0.16953783072E+02  0.40042476858E+02  0.51100000000E-03 0. -1.
        -11    1    3    3    0    0 -0.45793215656E+01 -0.25813838362E+01  0.52029260447E+01  0.73962266189E+01  0.51100000000E-03 0.  1.
        -12    1    3    3    0    0  0.26997722400E+02  0.30523520823E+02  0.12310826970E+02  0.42568988699E+02  0.00000000000E+00 0.  1.
</event>
<event>
 7    1  0.2542335E-015  0.9000785E+02  0.7816164E-02  0.1186339E+00
        -11   -1    0    0    0    0  0.00000000000E+00  0.00000000000E+00  0.45593999997E+02  0.45594000000E+02  0.51100000000E-03 0.  1.
         11   -1    0    0    0    0 -0.00000000000E+00 -0.00000000000E+00 -0.45593999997E+02  0.45594000000E+02  0.51100000000E-03 0. -1.
    9900012    2    1    2    0    0  0.44725788091E+00 -0.46763396467E+00 -0.98693581483E+00  0.90007846010E+02  0.90000108778E+02 0.  0.
        -12    1    1    2    0    0 -0.44725788091E+00  0.46763396467E+00  0.98693581483E+00  0.11801539898E+01  0.00000000000E+00 0.  1.
         11    1    3    3    0    0 -0.70273640388E+01 -0.25645136687E+02  0.24665858910E+02  0.36269291102E+02  0.51100000000E-03 0. -1.
        -11    1    3    3    0    0 -0.50380450971E+01 -0.69528445426E+01  0.28029914975E+01  0.90322038966E+01  0.51100000000E-03 0.  1.
        -12    1    3    3    0    0  0.12512667017E+02  0.32130347265E+02 -0.28455786223E+02  0.44706351011E+02  0.00000000000E+00 0.  1.
</event>
<event>
 7    1  0.2542335E-015  0.9000770E+02  0.7816164E-02  0.1186339E+00
        -11   -1    0    0    0    0  0.00000000000E+00  0.00000000000E+00  0.45593999997E+02  0.45594000000E+02  0.51100000000E-03 0. -1.
         11   -1    0    0    0    0 -0.00000000000E+00 -0.00000000000E+00 -0.45593999997E+02  0.45594000000E+02  0.51100000000E-03 0.  1.
    9900012    2    1    2    0    0 -0.94964871634E+00 -0.48048694126E+00  0.51029503713E+00  0.90007702830E+02  0.89999963707E+02 0.  0.
        -12    1    1    2    0    0  0.94964871634E+00  0.48048694126E+00 -0.51029503713E+00  0.11802971702E+01  0.00000000000E+00 0.  1.
         11    1    3    3    0    0 -0.73951260399E+01  0.28023841508E+02  0.23671527075E+02  0.37421448079E+02  0.51100000000E-03 0. -1.
        -11    1    3    3    0    0  0.19318655520E+01 -0.96956882065E+00  0.94346335797E+01  0.96790742973E+01  0.51100000000E-03 0.  1.
        -12    1    3    3    0    0  0.45136117716E+01 -0.27534759629E+02 -0.32595865618E+02  0.42907180453E+02  0.00000000000E+00 0.  1.
</event>
<event>
 7    1  0.5753232E-015  0.9000770E+02  0.7816164E-02  0.1186339E+00
        -11   -1    0    0    0    0  0.00000000000E+00  0.00000000000E+00  0.45593999997E+02  0.45594000000E+02  0.51100000000E-03 0. -1.
         11   -1    0    0    0    0 -0.00000000000E+00 -0.00000000000E+00 -0.45593999997E+02  0.45594000000E+02  0.51100000000E-03 0.  1.
    9900012    2    1    2    0    0 -0.62306643506E+00  0.88406788379E-01  0.99854317631E+00  0.90007696642E+02  0.89999957437E+02 0.  0.
        -12    1    1    2    0    0  0.62306643506E+00 -0.88406788379E-01 -0.99854317631E+00  0.11803033583E+01  0.00000000000E+00 0.  1.
         11    1    3    3    0    0  0.89519375846E+01  0.15240155849E+01  0.25947713385E+01  0.94441859671E+01  0.51100000000E-03 0. -1.
        -11    1    3    3    0    0  0.10207989036E+02  0.18407040387E+02 -0.32581016593E+02  0.38788462440E+02  0.51100000000E-03 0.  1.
         12    1    3    3    0    0 -0.19782993055E+02 -0.19842649184E+02  0.30984788431E+02  0.41775048234E+02  0.00000000000E+00 0. -1.
</event>
<event>
 7    1  0.2542335E-015  0.9000782E+02  0.7816164E-02  0.1186339E+00
        -11   -1    0    0    0    0  0.00000000000E+00  0.00000000000E+00  0.45593999997E+02  0.45594000000E+02  0.51100000000E-03 0.  1.
         11   -1    0    0    0    0 -0.00000000000E+00 -0.00000000000E+00 -0.45593999997E+02  0.45594000000E+02  0.51100000000E-03 0. -1.
    9900012    2    1    2    0    0  0.86324471652E+00 -0.45087782622E+00 -0.66658686203E+00  0.90007821920E+02  0.90000084370E+02 0.  0.
        -12    1    1    2    0    0 -0.86324471652E+00  0.45087782622E+00  0.66658686203E+00  0.11801780795E+01  0.00000000000E+00 0.  1.
         11    1    3    3    0    0 -0.28014132962E+01  0.37894784822E+02  0.60326967478E+01  0.38474096005E+02  0.51100000000E-03 0. -1.
        -11    1    3    3    0    0 -0.78385104880E+01  0.23444091415E+01  0.18623183220E+01  0.83908718669E+01  0.51100000000E-03 0.  1.
        -12    1    3    3    0    0  0.11503168501E+02 -0.40690071789E+02 -0.85616019318E+01  0.43142854048E+02  0.00000000000E+00 0.  1.
</event>
<event>
 7    1  0.2542335E-015  0.9000777E+02  0.7816164E-02  0.1186339E+00
        -11   -1    0    0    0    0  0.00000000000E+00  0.00000000000E+00  0.45593999997E+02  0.45594000000E+02  0.51100000000E-03 0.  1.
         11   -1    0    0    0    0 -0.00000000000E+00 -0.00000000000E+00 -0.45593999997E+02  0.45594000000E+02  0.51100000000E-03 0. -1.
    9900012    2    1    2    0    0 -0.23985317410E+00  0.30098357002E+00 -0.11157194428E+01  0.90007766748E+02  0.90000028469E+02 0.  0.
        -12    1    1    2    0    0  0.23985317410E+00 -0.30098357002E+00  0.11157194428E+01  0.11802332522E+01  0.00000000000E+00 0.  1.
         11    1    3    3    0    0 -0.13956564197E+02  0.18353876504E+01 -0.24314771834E+01  0.14285181608E+02  0.51100000000E-03 0. -1.
        -11    1    3    3    0    0 -0.26185904711E+02  0.16275226707E+02 -0.60217681241E+01  0.31414109911E+02  0.51100000000E-03 0.  1.
         12    1    3    3    0    0  0.39902615735E+02 -0.17809630787E+02  0.73375258647E+01  0.44308475228E+02  0.00000000000E+00 0. -1.
</event>
<event>
 7    1  0.2542335E-015  0.9000811E+02  0.7816164E-02  0.1186338E+00
        -11   -1    0    0    0    0  0.00000000000E+00  0.00000000000E+00  0.45593999997E+02  0.45594000000E+02  0.51100000000E-03 0.  1.
         11   -1    0    0    0    0 -0.00000000000E+00 -0.00000000000E+00 -0.45593999997E+02  0.45594000000E+02  0.51100000000E-03 0. -1.
    9900012    2    1    2    0    0  0.41128299132E+00 -0.10967030325E+01 -0.14221919197E+00  0.90008111217E+02  0.90000377485E+02 0.  0.
        -12    1    1    2    0    0 -0.41128299132E+00  0.10967030325E+01  0.14221919197E+00  0.11798887825E+01  0.00000000000E+00 0.  1.
         11    1    3    3    0    0  0.18734465551E+02 -0.14444553605E+02 -0.22465719899E+02  0.32624130627E+02  0.51100000000E-03 0. -1.
        -11    1    3    3    0    0  0.49740798555E+01 -0.17064618576E+01 -0.12089613054E+02  0.13183786502E+02  0.51100000000E-03 0.  1.
        -12    1    3    3    0    0 -0.23297262415E+02  0.15054312430E+02  0.34413113761E+02  0.44200194089E+02  0.00000000000E+00 0.  1.
</event>
<event>
 7    1  0.2542335E-015  0.9000771E+02  0.7816164E-02  0.1186339E+00
        -11   -1    0    0    0    0  0.00000000000E+00  0.00000000000E+00  0.45593999997E+02  0.45594000000E+02  0.51100000000E-03 0. -1.
         11   -1    0    0    0    0 -0.00000000000E+00 -0.00000000000E+00 -0.45593999997E+02  0.45594000000E+02  0.51100000000E-03 0.  1.
    9900012    2    1    2    0    0  0.75485446256E+00  0.30501261266E+00  0.85454014160E+00  0.90007713252E+02  0.89999974267E+02 0.  0.
        -12    1    1    2    0    0 -0.75485446256E+00 -0.30501261266E+00 -0.85454014160E+00  0.11802867478E+01  0.00000000000E+00 0.  1.
         11    1    3    3    0    0  0.13800508884E+02  0.29193289138E+02 -0.24633689218E+02  0.40614293308E+02  0.51100000000E-03 0. -1.
        -11    1    3    3    0    0  0.79572129262E+01 -0.54616471411E+01  0.13661730314E+01  0.97474743427E+01  0.51100000000E-03 0.  1.
        -12    1    3    3    0    0 -0.21002867347E+02 -0.23426629384E+02  0.24122056328E+02  0.39645945601E+02  0.00000000000E+00 0.  1.
</event>
<event>
 7    1  0.2542335E-015  0.9000773E+02  0.7816164E-02  0.1186339E+00
        -11   -1    0    0    0    0  0.00000000000E+00  0.00000000000E+00  0.45593999997E+02  0.45594000000E+02  0.51100000000E-03 0. -1.
         11   -1    0    0    0    0 -0.00000000000E+00 -0.00000000000E+00 -0.45593999997E+02  0.45594000000E+02  0.51100000000E-03 0.  1.
    9900012    2    1    2    0    0  0.15898102928E+00  0.11694839212E+01 -0.80677338557E-02  0.90007731938E+02  0.89999993200E+02 0.  0.
        -12    1    1    2    0    0 -0.15898102928E+00 -0.11694839212E+01  0.80677338557E-02  0.11802680619E+01  0.00000000000E+00 0.  1.
         11    1    3    3    0    0 -0.79868756567E+01 -0.14460169939E+02  0.40287472929E+02  0.43542705160E+02  0.51100000000E-03 0. -1.
        -11    1    3    3    0    0  0.10819890101E+01  0.96206881782E+01 -0.71198931882E+01  0.12017538039E+02  0.51100000000E-03 0.  1.
        -12    1    3    3    0    0  0.70638676759E+01  0.60089656821E+01 -0.33175647474E+02  0.34447488739E+02  0.00000000000E+00 0.  1.
</event>
<event>
 7    1  0.2542335E-015  0.9000789E+02  0.7816164E-02  0.1186339E+00
        -11   -1    0    0    0    0  0.00000000000E+00  0.00000000000E+00  0.45593999997E+02  0.45594000000E+02  0.51100000000E-03 0.  1.
         11   -1    0    0    0    0 -0.00000000000E+00 -0.00000000000E+00 -0.45593999997E+02  0.45594000000E+02  0.51100000000E-03 0. -1.
    9900012    2    1    2    0    0 -0.72582216256E-01 -0.49303386103E+00 -0.10697219289E+01  0.90007891712E+02  0.90000155082E+02 0.  0.
        -12    1    1    2    0    0  0.72582216256E-01  0.49303386103E+00  0.10697219289E+01  0.11801082880E+01  0.00000000000E+00 0.  1.
         11    1    3    3    0    0 -0.36733356536E+02 -0.44394773724E+01  0.98153044878E+01  0.38280395037E+02  0.51100000000E-03 0. -1.
        -11    1    3    3    0    0 -0.37299227886E+01  0.43333649176E+01  0.56900374101E+01  0.80664057366E+01  0.51100000000E-03 0.  1.
        -12    1    3    3    0    0  0.40390697108E+02 -0.38692140631E+00 -0.16575063827E+02  0.43661090938E+02  0.00000000000E+00 0.  1.
</event>
<event>
 7    1  0.2542335E-015  0.9000771E+02  0.7816164E-02  0.1186339E+00
        -11   -1    0    0    0    0  0.00000000000E+00  0.00000000000E+00  0.45593999997E+02  0.45594000000E+02  0.51100000000E-03 0. -1.
         11   -1    0    0    0    0 -0.00000000000E+00 -0.00000000000E+00 -0.45593999997E+02  0.45594000000E+02  0.51100000000E-03 0.  1.
    9900012    2    1    2    0    0 -0.76458833083E+00  0.77605832134E+00  0.45411072864E+00  0.90007712583E+02  0.89999973589E+02 0.  0.
        -12    1    1    2    0    0  0.76458833083E+00 -0.77605832134E+00 -0.45411072864E+00  0.11802874174E+01  0.00000000000E+00 0.  1.
         11    1    3    3    0    0  0.16279707244E+02 -0.14919225880E+02 -0.29597606507E+02  0.36927367629E+02  0.51100000000E-03 0. -1.
        -11    1    3    3    0    0  0.42721839851E+01  0.56634951798E+01 -0.64817737967E+01  0.96093769552E+01  0.51100000000E-03 0.  1.
        -12    1    3    3    0    0 -0.21316479560E+02  0.10031789021E+02  0.36533491032E+02  0.43470967999E+02  0.00000000000E+00 0.  1.
</event>
<event>
 7    1  0.2542335E-015  0.9000779E+02  0.7816164E-02  0.1186339E+00
        -11   -1    0    0    0    0  0.00000000000E+00  0.00000000000E+00  0.45593999997E+02  0.45594000000E+02  0.51100000000E-03 0. -1.
         11   -1    0    0    0    0 -0.00000000000E+00 -0.00000000000E+00 -0.45593999997E+02  0.45594000000E+02  0.51100000000E-03 0.  1.
    9900012    2    1    2    0    0 -0.47973470845E+00  0.10706628001E+01  0.12821691932E+00  0.90007786545E+02  0.90000048527E+02 0.  0.
        -12    1    1    2    0    0  0.47973470845E+00 -0.10706628001E+01 -0.12821691932E+00  0.11802134555E+01  0.00000000000E+00 0.  1.
         11    1    3    3    0    0  0.64382832232E+01 -0.53973091941E+01  0.36853184388E+02  0.37798672426E+02  0.51100000000E-03 0. -1.
        -11    1    3    3    0    0  0.71913822061E+01  0.66788897017E+01  0.28285070210E+01  0.10213911979E+02  0.51100000000E-03 0.  1.
        -12    1    3    3    0    0 -0.14109400138E+02 -0.21091770751E+00 -0.39553474490E+02  0.41995202139E+02  0.00000000000E+00 0.  1.
</event>
<event>
 7    1  0.2542335E-015  0.9000770E+02  0.7816164E-02  0.1186339E+00
        -11   -1    0    0    0    0  0.00000000000E+00  0.00000000000E+00  0.45593999997E+02  0.45594000000E+02  0.51100000000E-03 0. -1.
         11   -1    0    0    0    0 -0.00000000000E+00 -0.00000000000E+00 -0.45593999997E+02  0.45594000000E+02  0.51100000000E-03 0.  1.
    9900012    2    1    2    0    0  0.76482402122E+00 -0.70630830255E+00  0.55612371300E+00  0.90007703094E+02  0.89999963975E+02 0.  0.
        -12    1    1    2    0    0 -0.76482402122E+00  0.70630830255E+00 -0.55612371300E+00  0.11802969058E+01  0.00000000000E+00 0.  1.
         11    1    3    3    0    0 -0.94094818861E+01  0.51060270863E+01  0.41829074014E+01  0.11493762507E+02  0.51100000000E-03 0. -1.
        -11    1    3    3    0    0 -0.83391273336E+01  0.11452423588E+02 -0.35259533782E+02  0.37999128588E+02  0.51100000000E-03 0.  1.
         12    1    3    3    0    0  0.18513433241E+02 -0.17264758977E+02  0.31632750093E+02  0.40514811999E+02  0.00000000000E+00 0. -1.
</event>
<event>
 7    1  0.2542335E-015  0.9000781E+02  0.7816164E-02  0.1186339E+00
        -11   -1    0    0    0    0  0.00000000000E+00  0.00000000000E+00  0.45593999997E+02  0.45594000000E+02  0.51100000000E-03 0.  1.
         11   -1    0    0    0    0 -0.00000000000E+00 -0.00000000000E+00 -0.45593999997E+02  0.45594000000E+02  0.51100000000E-03 0. -1.
    9900012    2    1    2    0    0 -0.21702105671E+00 -0.16862602616E+00 -0.11477397385E+01  0.90007813835E+02  0.90000076178E+02 0.  0.
        -12    1    1    2    0    0  0.21702105671E+00  0.16862602616E+00  0.11477397385E+01  0.11801861646E+01  0.00000000000E+00 0.  1.
         11    1    3    3    0    0 -0.75571106813E+00 -0.82065983110E+01 -0.24426217405E+01  0.85956824211E+01  0.51100000000E-03 0. -1.
        -11    1    3    3    0    0 -0.24853025287E+02 -0.25731710067E+01  0.31725632238E+02  0.40383286346E+02  0.51100000000E-03 0.  1.
         12    1    3    3    0    0  0.25391715298E+02  0.10611143292E+02 -0.30430750236E+02  0.41028845068E+02  0.00000000000E+00 0. -1.
</event>
<event>
 7    1  0.2542335E-015  0.9000773E+02  0.7816164E-02  0.1186339E+00
        -11   -1    0    0    0    0  0.00000000000E+00  0.00000000000E+00  0.45593999997E+02  0.45594000000E+02  0.51100000000E-03 0.  1.
         11   -1    0    0    0    0 -0.00000000000E+00 -0.00000000000E+00 -0.45593999997E+02  0.45594000000E+02  0.51100000000E-03 0. -1.
    9900012    2    1    2    0    0 -0.54550641544E+00 -0.22769208473E+00 -0.10215705673E+01  0.90007734200E+02  0.89999995491E+02 0.  0.
        -12    1    1    2    0    0  0.54550641544E+00  0.22769208473E+00  0.10215705673E+01  0.11802658000E+01  0.00000000000E+00 0.  1.
         11    1    3    3    0    0  0.90225148271E+01 -0.56636152514E+01 -0.34507211171E+02  0.36114123755E+02  0.51100000000E-03 0. -1.
        -11    1    3    3    0    0  0.41857247144E+01 -0.73985984671E+01 -0.58309573753E+01  0.10308230442E+02  0.51100000000E-03 0.  1.
        -12    1    3    3    0    0 -0.13753745957E+02  0.12834521634E+02  0.39316597979E+02  0.43585380004E+02  0.00000000000E+00 0.  1.
</event>
<event>
 7    1  0.2542335E-015  0.9000777E+02  0.7816164E-02  0.1186339E+00
        -11   -1    0    0    0    0  0.00000000000E+00  0.00000000000E+00  0.45593999997E+02  0.45594000000E+02  0.51100000000E-03 0.  1.
         11   -1    0    0    0    0 -0.00000000000E+00 -0.00000000000E+00 -0.45593999997E+02  0.45594000000E+02  0.51100000000E-03 0. -1.
    9900012    2    1    2    0    0  0.52618163078E+00 -0.70667188008E+00  0.78529336886E+00  0.90007772086E+02  0.90000033877E+02 0.  0.
        -12    1    1    2    0    0 -0.52618163078E+00  0.70667188008E+00 -0.78529336886E+00  0.11802279144E+01  0.00000000000E+00 0.  1.
         11    1    3    3    0    0 -0.21689989957E+02  0.75502499361E+01 -0.35271641114E+02  0.42089792178E+02  0.51100000000E-03 0. -1.
        -11    1    3    3    0    0 -0.20378649642E+01  0.27068018022E+01  0.10440981359E+02  0.10976965046E+02  0.51100000000E-03 0.  1.
        -12    1    3    3    0    0  0.24254036552E+02 -0.10963723618E+02  0.25615953124E+02  0.36941014862E+02  0.00000000000E+00 0.  1.
</event>
<event>
 7    1  0.2542335E-015  0.9000774E+02  0.7816164E-02  0.1186339E+00
        -11   -1    0    0    0    0  0.00000000000E+00  0.00000000000E+00  0.45593999997E+02  0.45594000000E+02  0.51100000000E-03 0.  1.
         11   -1    0    0    0    0 -0.00000000000E+00 -0.00000000000E+00 -0.45593999997E+02  0.45594000000E+02  0.51100000000E-03 0. -1.
    9900012    2    1    2    0    0  0.86315567031E+00 -0.43317388612E+00 -0.67848566160E+00  0.90007737267E+02  0.89999998599E+02 0.  0.
        -12    1    1    2    0    0 -0.86315567031E+00  0.43317388612E+00  0.67848566160E+00  0.11802627334E+01  0.00000000000E+00 0.  1.
         11    1    3    3    0    0 -0.78478760751E+01  0.82475745244E+01  0.54830438257E+01  0.12636273750E+02  0.51100000000E-03 0. -1.
        -11    1    3    3    0    0  0.31430090306E+02 -0.25812704054E+02  0.13422482086E+02  0.42828837164E+02  0.51100000000E-03 0.  1.
         12    1    3    3    0    0 -0.22719058560E+02  0.17131955643E+02 -0.19584011574E+02  0.34542626353E+02  0.00000000000E+00 0. -1.
</event>
<event>
 7    1  0.2542335E-015  0.9000776E+02  0.7816164E-02  0.1186339E+00
        -11   -1    0    0    0    0  0.00000000000E+00  0.00000000000E+00  0.45593999997E+02  0.45594000000E+02  0.51100000000E-03 0. -1.
         11   -1    0    0    0    0 -0.00000000000E+00 -0.00000000000E+00 -0.45593999997E+02  0.45594000000E+02  0.51100000000E-03 0.  1.
    9900012    2    1    2    0    0  0.68111389668E+00 -0.86532403616E+00  0.42458567781E+00  0.90007756455E+02  0.90000018040E+02 0.  0.
        -12    1    1    2    0    0 -0.68111389668E+00  0.86532403616E+00 -0.42458567781E+00  0.11802435450E+01  0.00000000000E+00 0.  1.
         11    1    3    3    0    0  0.11721743225E+02 -0.36067890945E+02  0.42524343074E-01  0.37924844496E+02  0.51100000000E-03 0. -1.
        -11    1    3    3    0    0 -0.10091820151E+02 -0.27476290913E+01  0.82412306510E+01  0.13315862063E+02  0.51100000000E-03 0.  1.
        -12    1    3    3    0    0 -0.94880917761E+00  0.37950196000E+02 -0.78591693163E+01  0.38767049896E+02  0.00000000000E+00 0.  1.
</event>
<event>
 7    1  0.2542335E-015  0.9000776E+02  0.7816164E-02  0.1186339E+00
        -11   -1    0    0    0    0  0.00000000000E+00  0.00000000000E+00  0.45593999997E+02  0.45594000000E+02  0.51100000000E-03 0. -1.
         11   -1    0    0    0    0 -0.00000000000E+00 -0.00000000000E+00 -0.45593999997E+02  0.45594000000E+02  0.51100000000E-03 0.  1.
    9900012    2    1    2    0    0 -0.45966142666E+00  0.11186658994E+00  0.10812771869E+01  0.90007761416E+02  0.90000023066E+02 0.  0.
        -12    1    1    2    0    0  0.45966142666E+00 -0.11186658994E+00 -0.10812771869E+01  0.11802385844E+01  0.00000000000E+00 0.  1.
         11    1    3    3    0    0 -0.72911598101E+01 -0.46493658811E+01 -0.33911146878E+01  0.92885560535E+01  0.51100000000E-03 0. -1.
        -11    1    3    3    0    0 -0.28488640830E+02  0.18057681972E+02 -0.16493886695E+02  0.37546382424E+02  0.51100000000E-03 0.  1.
         12    1    3    3    0    0  0.35320139214E+02 -0.13296449501E+02  0.20966278569E+02  0.43172822938E+02  0.00000000000E+00 0. -1.
</event>
<event>
 7    1  0.2542335E-015  0.9000776E+02  0.7816164E-02  0.1186339E+00
        -11   -1    0    0    0    0  0.00000000000E+00  0.00000000000E+00  0.45593999997E+02  0.45594000000E+02  0.51100000000E-03 0.  1.
         11   -1    0    0    0    0 -0.00000000000E+00 -0.00000000000E+00 -0.45593999997E+02  0.45594000000E+02  0.51100000000E-03 0. -1.
    9900012    2    1    2    0    0 -0.19141105470E+00  0.10819410983E+00 -0.11595779210E+01  0.90007760570E+02  0.90000022210E+02 0.  0.
        -12    1    1    2    0    0  0.19141105470E+00 -0.10819410983E+00  0.11595779210E+01  0.11802394300E+01  0.00000000000E+00 0.  1.
         11    1    3    3    0    0  0.31509272449E+02  0.59784130920E+01 -0.18938152103E+02  0.37245526962E+02  0.51100000000E-03 0. -1.
        -11    1    3    3    0    0  0.64161549766E+01 -0.91155925366E+00 -0.49073081272E+01  0.81289395540E+01  0.51100000000E-03 0.  1.
        -12    1    3    3    0    0 -0.38116838480E+02 -0.49586597285E+01  0.22685882309E+02  0.44633294054E+02  0.00000000000E+00 0.  1.
</event>
<event>
 7    1  0.2542335E-015  0.9000787E+02  0.7816164E-02  0.1186339E+00
        -11   -1    0    0    0    0  0.00000000000E+00  0.00000000000E+00  0.45593999997E+02  0.45594000000E+02  0.51100000000E-03 0. -1.
         11   -1    0    0    0    0 -0.00000000000E+00 -0.00000000000E+00 -0.45593999997E+02  0.45594000000E+02  0.51100000000E-03 0.  1.
    9900012    2    1    2    0    0 -0.75199388404E+00  0.84032749826E+00 -0.34795519833E+00  0.90007865293E+02  0.90000128315E+02 0.  0.
        -12    1    1    2    0    0  0.75199388404E+00 -0.84032749826E+00  0.34795519833E+00  0.11801347067E+01  0.00000000000E+00 0.  1.
         11    1    3    3    0    0 -0.59797628645E+01 -0.20029337174E+02  0.29516104206E+02  0.36168111912E+02  0.51100000000E-03 0. -1.
        -11    1    3    3    0    0  0.43124033009E+01 -0.44893605378E+01  0.68203612380E+01  0.92340948634E+01  0.51100000000E-03 0.  1.
        -12    1    3    3    0    0  0.91536567955E+00  0.25359025210E+02 -0.36684420643E+02  0.44605658518E+02  0.00000000000E+00 0.  1.
</event>
<event>
 7    1  0.2542335E-015  0.9000769E+02  0.7816164E-02  0.1186339E+00
        -11   -1    0    0    0    0  0.00000000000E+00  0.00000000000E+00  0.45593999997E+02  0.45594000000E+02  0.51100000000E-03 0.  1.
         11   -1    0    0    0    0 -0.00000000000E+00 -0.00000000000E+00 -0.45593999997E+02  0.45594000000E+02  0.51100000000E-03 0. -1.
    9900012    2    1    2    0    0 -0.23511866893E+00  0.11359360037E+01 -0.21793477159E+00  0.90007692007E+02  0.89999952742E+02 0.  0.
        -12    1    1    2    0    0  0.23511866893E+00 -0.11359360037E+01  0.21793477159E+00  0.11803079927E+01  0.00000000000E+00 0.  1.
         11    1    3    3    0    0 -0.45676634154E+01 -0.29313972843E+02 -0.21792052676E+02  0.36811222650E+02  0.51100000000E-03 0. -1.
        -11    1    3    3    0    0 -0.69605303860E+01 -0.66371061455E+01  0.22425264627E+01  0.98756815682E+01  0.51100000000E-03 0.  1.
        -12    1    3    3    0    0  0.11293075132E+02  0.37087014992E+02  0.19331591442E+02  0.43320787789E+02  0.00000000000E+00 0.  1.
</event>
<event>
 7    1  0.2542335E-015  0.9000681E+02  0.7816164E-02  0.1186341E+00
        -11   -1    0    0    0    0  0.00000000000E+00  0.00000000000E+00  0.45593999997E+02  0.45594000000E+02  0.51100000000E-03 0. -1.
         11   -1    0    0    0    0 -0.00000000000E+00 -0.00000000000E+00 -0.45593999997E+02  0.45594000000E+02  0.51100000000E-03 0.  1.
    9900012    2    1    2    0    0  0.37198967790E+00  0.50144231030E+00  0.10026889130E+01  0.90006811714E+02  0.89999060824E+02 0.  0.
        -12    1    1    2    0    0 -0.37198967790E+00 -0.50144231030E+00 -0.10026889130E+01  0.11811882861E+01  0.00000000000E+00 0.  1.
         11    1    3    3    0    0 -0.28758340832E+01 -0.40358438331E+01  0.35879294145E+02  0.36219914491E+02  0.51100000000E-03 0. -1.
        -11    1    3    3    0    0  0.74258548000E+01  0.24657067422E+01  0.76869154127E+01  0.10968668929E+02  0.51100000000E-03 0.  1.
        -12    1    3    3    0    0 -0.41780310389E+01  0.20715794012E+01 -0.42563520645E+02  0.42818228294E+02  0.00000000000E+00 0.  1.
</event>
<event>
 7    1  0.2542335E-015  0.9000772E+02  0.7816164E-02  0.1186339E+00
        -11   -1    0    0    0    0  0.00000000000E+00  0.00000000000E+00  0.45593999997E+02  0.45594000000E+02  0.51100000000E-03 0.  1.
         11   -1    0    0    0    0 -0.00000000000E+00 -0.00000000000E+00 -0.45593999997E+02  0.45594000000E+02  0.51100000000E-03 0. -1.
    9900012    2    1    2    0    0  0.10682015494E+01 -0.42435174604E+00 -0.26821259073E+00  0.90007717429E+02  0.89999978499E+02 0.  0.
        -12    1    1    2    0    0 -0.10682015494E+01  0.42435174604E+00  0.26821259073E+00  0.11802825714E+01  0.00000000000E+00 0.  1.
         11    1    3    3    0    0  0.40716029169E+02  0.65928238881E+01  0.10958982457E+02  0.42677390441E+02  0.51100000000E-03 0. -1.
        -11    1    3    3    0    0  0.44455327402E+00 -0.96616742313E+00 -0.64112687916E+01  0.64988825872E+01  0.51100000000E-03 0.  1.
        -12    1    3    3    0    0 -0.40092380894E+02 -0.60510082111E+01 -0.48159262562E+01  0.40831444400E+02  0.00000000000E+00 0.  1.
</event>
<event>
 7    1  0.2542335E-015  0.9000770E+02  0.7816164E-02  0.1186339E+00
        -11   -1    0    0    0    0  0.00000000000E+00  0.00000000000E+00  0.45593999997E+02  0.45594000000E+02  0.51100000000E-03 0.  1.
         11   -1    0    0    0    0 -0.00000000000E+00 -0.00000000000E+00 -0.45593999997E+02  0.45594000000E+02  0.51100000000E-03 0. -1.
    9900012    2    1    2    0    0  0.16531643865E+00  0.19945018901E+00 -0.11515198209E+01  0.90007700123E+02  0.89999960964E+02 0.  0.
        -12    1    1    2    0    0 -0.16531643865E+00 -0.19945018901E+00  0.11515198209E+01  0.11802998775E+01  0.00000000000E+00 0.  1.
         11    1    3    3    0    0 -0.71204182894E+00 -0.60003903768E+01 -0.45917627968E+01  0.75892011493E+01  0.51100000000E-03 0. -1.
        -11    1    3    3    0    0 -0.26794817769E+02  0.30274002834E+01  0.32456879209E+02  0.42196876899E+02  0.51100000000E-03 0.  1.
         12    1    3    3    0    0  0.27672176037E+02  0.31724402824E+01 -0.29016636233E+02  0.40221622074E+02  0.00000000000E+00 0. -1.
</event>
<event>
 7    1  0.2542335E-015  0.9000773E+02  0.7816164E-02  0.1186339E+00
        -11   -1    0    0    0    0  0.00000000000E+00  0.00000000000E+00  0.45593999997E+02  0.45594000000E+02  0.51100000000E-03 0. -1.
         11   -1    0    0    0    0 -0.00000000000E+00 -0.00000000000E+00 -0.45593999997E+02  0.45594000000E+02  0.51100000000E-03 0.  1.
    9900012    2    1    2    0    0 -0.95554667413E+00 -0.24124218920E+00  0.64943068139E+00  0.90007734161E+02  0.89999995452E+02 0.  0.
        -12    1    1    2    0    0  0.95554667413E+00  0.24124218920E+00 -0.64943068139E+00  0.11802658388E+01  0.00000000000E+00 0.  1.
         11    1    3    3    0    0  0.27035061488E+02  0.76826119058E+01  0.28806719260E+02  0.40246045149E+02  0.51100000000E-03 0. -1.
        -11    1    3    3    0    0 -0.37377182266E+01 -0.57052959775E+01  0.51171834719E+01  0.85268110497E+01  0.51100000000E-03 0.  1.
        -12    1    3    3    0    0 -0.24252889936E+02 -0.22185581175E+01 -0.33274472050E+02  0.41234877962E+02  0.00000000000E+00 0.  1.
</event>
<event>
 7    1  0.3716842E-015  0.9000790E+02  0.7816164E-02  0.1186339E+00
        -11   -1    0    0    0    0  0.00000000000E+00  0.00000000000E+00  0.45593999997E+02  0.45594000000E+02  0.51100000000E-03 0. -1.
         11   -1    0    0    0    0 -0.00000000000E+00 -0.00000000000E+00 -0.45593999997E+02  0.45594000000E+02  0.51100000000E-03 0.  1.
    9900012    2    1    2    0    0 -0.28896256947E+00 -0.59857345370E+00  0.97511283399E+00  0.90007900604E+02  0.90000164092E+02 0.  0.
        -12    1    1    2    0    0  0.28896256947E+00  0.59857345370E+00 -0.97511283399E+00  0.11800993963E+01  0.00000000000E+00 0.  1.
         11    1    3    3    0    0 -0.25360639956E+01  0.81484511371E+01  0.41969646080E+01  0.95101729062E+01  0.51100000000E-03 0. -1.
        -11    1    3    3    0    0 -0.53660215089E+01  0.35299958180E+02 -0.24799821673E+01  0.35791501033E+02  0.51100000000E-03 0.  1.
         12    1    3    3    0    0  0.76131229350E+01 -0.44046982771E+02 -0.74186960668E+00  0.44706226665E+02  0.00000000000E+00 0. -1.
</event>
<event>
 7    1  0.2542335E-015  0.9000787E+02  0.7816164E-02  0.1186339E+00
        -11   -1    0    0    0    0  0.00000000000E+00  0.00000000000E+00  0.45593999997E+02  0.45594000000E+02  0.51100000000E-03 0.  1.
         11   -1    0    0    0    0 -0.00000000000E+00 -0.00000000000E+00 -0.45593999997E+02  0.45594000000E+02  0.51100000000E-03 0. -1.
    9900012    2    1    2    0    0 -0.61503277419E+00  0.66738318611E+00 -0.75435118831E+00  0.90007868081E+02  0.90000131140E+02 0.  0.
        -12    1    1    2    0    0  0.61503277419E+00 -0.66738318611E+00  0.75435118831E+00  0.11801319188E+01  0.00000000000E+00 0.  1.
         11    1    3    3    0    0 -0.13414117252E+02  0.17205443075E+02 -0.28797369247E+02  0.36128303155E+02  0.51100000000E-03 0. -1.
        -11    1    3    3    0    0 -0.12776387179E+02  0.86879905466E+00  0.10969012867E+01  0.12852784673E+02  0.51100000000E-03 0.  1.
        -12    1    3    3    0    0  0.25575471658E+02 -0.17406858943E+02  0.26946116772E+02  0.41026780253E+02  0.00000000000E+00 0.  1.
</event>
<event>
 7    1  0.2542335E-015  0.9000798E+02  0.7816164E-02  0.1186339E+00
        -11   -1    0    0    0    0  0.00000000000E+00  0.00000000000E+00  0.45593999997E+02  0.45594000000E+02  0.51100000000E-03 0.  1.
         11   -1    0    0    0    0 -0.00000000000E+00 -0.00000000000E+00 -0.45593999997E+02  0.45594000000E+02  0.51100000000E-03 0. -1.
    9900012    2    1    2    0    0  0.26024338576E+00 -0.77787908015E+00  0.84831129818E+00  0.90007976889E+02  0.90000241384E+02 0.  0.
        -12    1    1    2    0    0 -0.26024338576E+00  0.77787908015E+00 -0.84831129818E+00  0.11800231107E+01  0.00000000000E+00 0.  1.
         11    1    3    3    0    0  0.12669163040E+02 -0.91402394985E+00  0.29051831282E+01  0.13030089071E+02  0.51100000000E-03 0. -1.
        -11    1    3    3    0    0  0.28070089232E+02 -0.16510426549E+02  0.39304833883E+01  0.32802024240E+02  0.51100000000E-03 0.  1.
         12    1    3    3    0    0 -0.40479008886E+02  0.16646571419E+02 -0.59873552183E+01  0.44175863579E+02  0.00000000000E+00 0. -1.
</event>
<event>
 7    1  0.2542335E-015  0.9000832E+02  0.7816164E-02  0.1186338E+00
        -11   -1    0    0    0    0  0.00000000000E+00  0.00000000000E+00  0.45593999997E+02  0.45594000000E+02  0.51100000000E-03 0.  1.
         11   -1    0    0    0    0 -0.00000000000E+00 -0.00000000000E+00 -0.45593999997E+02  0.45594000000E+02  0.51100000000E-03 0. -1.
    9900012    2    1    2    0    0  0.89876777349E+00 -0.50456088417E+00 -0.57382448769E+00  0.90008322188E+02  0.90000591239E+02 0.  0.
        -12    1    1    2    0    0 -0.89876777349E+00  0.50456088417E+00  0.57382448769E+00  0.11796778116E+01  0.00000000000E+00 0.  1.
         11    1    3    3    0    0 -0.32273864408E+02  0.32681844521E+01 -0.14903820757E+02  0.35698840693E+02  0.51100000000E-03 0. -1.
        -11    1    3    3    0    0 -0.82522667386E+01  0.83118650299E+00 -0.34662974402E+01  0.89892155126E+01  0.51100000000E-03 0.  1.
        -12    1    3    3    0    0  0.41424898920E+02 -0.46039318392E+01  0.17796293710E+02  0.45320265982E+02  0.00000000000E+00 0.  1.
</event>
<event>
 7    1  0.2542335E-015  0.9000789E+02  0.7816164E-02  0.1186339E+00
        -11   -1    0    0    0    0  0.00000000000E+00  0.00000000000E+00  0.45593999997E+02  0.45594000000E+02  0.51100000000E-03 0. -1.
         11   -1    0    0    0    0 -0.00000000000E+00 -0.00000000000E+00 -0.45593999997E+02  0.45594000000E+02  0.51100000000E-03 0.  1.
    9900012    2    1    2    0    0  0.89730473392E+00  0.26746783206E+00  0.71830050022E+00  0.90007893888E+02  0.90000157287E+02 0.  0.
        -12    1    1    2    0    0 -0.89730473392E+00 -0.26746783206E+00 -0.71830050022E+00  0.11801061119E+01  0.00000000000E+00 0.  1.
         11    1    3    3    0    0 -0.22514755719E+02 -0.23047893939E+02  0.26857124067E+02  0.41945497417E+02  0.51100000000E-03 0. -1.
        -11    1    3    3    0    0  0.10319430540E+02 -0.21381592408E+01 -0.22409615506E+01  0.10774241530E+02  0.51100000000E-03 0.  1.
        -12    1    3    3    0    0  0.13092629913E+02  0.25453521012E+02 -0.23897862016E+02  0.37288154941E+02  0.00000000000E+00 0.  1.
</event>
<event>
 7    1  0.2542335E-015  0.9000780E+02  0.7816164E-02  0.1186339E+00
        -11   -1    0    0    0    0  0.00000000000E+00  0.00000000000E+00  0.45593999997E+02  0.45594000000E+02  0.51100000000E-03 0. -1.
         11   -1    0    0    0    0 -0.00000000000E+00 -0.00000000000E+00 -0.45593999997E+02  0.45594000000E+02  0.51100000000E-03 0.  1.
    9900012    2    1    2    0    0  0.38543464146E-01  0.11315232727E+01  0.33321728830E+00  0.90007803289E+02  0.90000065492E+02 0.  0.
        -12    1    1    2    0    0 -0.38543464146E-01 -0.11315232727E+01 -0.33321728830E+00  0.11801967109E+01  0.00000000000E+00 0.  1.
         11    1    3    3    0    0  0.28181954985E+01  0.20388008283E+01 -0.99137982971E+01  0.10506299616E+02  0.51100000000E-03 0. -1.
        -11    1    3    3    0    0  0.13091774591E+02  0.36168150257E+02  0.36756133720E+01  0.38639873044E+02  0.51100000000E-03 0.  1.
         12    1    3    3    0    0 -0.15871426626E+02 -0.37075427812E+02  0.65714022134E+01  0.40861630629E+02  0.00000000000E+00 0. -1.
</event>
<event>
 7    1  0.2542335E-015  0.9000785E+02  0.7816164E-02  0.1186339E+00
        -11   -1    0    0    0    0  0.00000000000E+00  0.00000000000E+00  0.45593999997E+02  0.45594000000E+02  0.51100000000E-03 0.  1.
         11   -1    0    0    0    0 -0.00000000000E+00 -0.00000000000E+00 -0.45593999997E+02  0.45594000000E+02  0.51100000000E-03 0. -1.
    9900012    2    1    2    0    0  0.36168651631E+00 -0.98587872881E+00  0.53849610728E+00  0.90007850831E+02  0.90000113662E+02 0.  0.
        -12    1    1    2    0    0 -0.36168651631E+00  0.98587872881E+00 -0.53849610728E+00  0.11801491692E+01  0.00000000000E+00 0.  1.
         11    1    3    3    0    0 -0.15546177298E+00  0.10500270007E+02  0.16054151916E+01  0.10623426791E+02  0.51100000000E-03 0. -1.
        -11    1    3    3    0    0 -0.11836265149E+02  0.31649807206E+02  0.48096851692E+01  0.34131225301E+02  0.51100000000E-03 0.  1.
         12    1    3    3    0    0  0.12353413439E+02 -0.43135955941E+02 -0.58766042535E+01  0.45253198739E+02  0.00000000000E+00 0. -1.
</event>
<event>
 7    1  0.2542335E-015  0.9000780E+02  0.7816164E-02  0.1186339E+00
        -11   -1    0    0    0    0  0.00000000000E+00  0.00000000000E+00  0.45593999997E+02  0.45594000000E+02  0.51100000000E-03 0. -1.
         11   -1    0    0    0    0 -0.00000000000E+00 -0.00000000000E+00 -0.45593999997E+02  0.45594000000E+02  0.51100000000E-03 0.  1.
    9900012    2    1    2    0    0 -0.92656981499E+00  0.59067858968E+00 -0.43062808923E+00  0.90007799437E+02  0.90000061589E+02 0.  0.
        -12    1    1    2    0    0  0.92656981499E+00 -0.59067858968E+00  0.43062808923E+00  0.11802005633E+01  0.00000000000E+00 0.  1.
         11    1    3    3    0    0 -0.15177742392E+01  0.34745942047E+02  0.20267689704E+02  0.40253737386E+02  0.51100000000E-03 0. -1.
        -11    1    3    3    0    0 -0.30794653901E+01  0.33066991440E+01 -0.94390255235E+01  0.10464825341E+02  0.51100000000E-03 0.  1.
        -12    1    3    3    0    0  0.36706698143E+01 -0.37461962601E+02 -0.11259292269E+02  0.39289236710E+02  0.00000000000E+00 0.  1.
</event>
<event>
 7    1  0.2542335E-015  0.9000772E+02  0.7816164E-02  0.1186339E+00
        -11   -1    0    0    0    0  0.00000000000E+00  0.00000000000E+00  0.45593999997E+02  0.45594000000E+02  0.51100000000E-03 0. -1.
         11   -1    0    0    0    0 -0.00000000000E+00 -0.00000000000E+00 -0.45593999997E+02  0.45594000000E+02  0.51100000000E-03 0.  1.
    9900012    2    1    2    0    0 -0.46947867622E+00 -0.84715695968E+00  0.67451607903E+00  0.90007721608E+02  0.89999982733E+02 0.  0.
        -12    1    1    2    0    0  0.46947867622E+00  0.84715695968E+00 -0.67451607903E+00  0.11802783920E+01  0.00000000000E+00 0.  1.
         11    1    3    3    0    0  0.77116356006E+01  0.13412859503E+02  0.33886367035E+02  0.37251308632E+02  0.51100000000E-03 0. -1.
        -11    1    3    3    0    0 -0.43748287375E+01  0.16841595471E+01  0.75134367458E+01  0.88559162065E+01  0.51100000000E-03 0.  1.
        -12    1    3    3    0    0 -0.38062855394E+01 -0.15944176010E+02 -0.40725287702E+02  0.43900496770E+02  0.00000000000E+00 0.  1.
</event>
<event>
 7    1  0.2542335E-015  0.9000778E+02  0.7816164E-02  0.1186339E+00
        -11   -1    0    0    0    0  0.00000000000E+00  0.00000000000E+00  0.45593999997E+02  0.45594000000E+02  0.51100000000E-03 0.  1.
         11   -1    0    0    0    0 -0.00000000000E+00 -0.00000000000E+00 -0.45593999997E+02  0.45594000000E+02  0.51100000000E-03 0. -1.
    9900012    2    1    2    0    0 -0.66509619039E+00  0.70358704887E+00 -0.67493628768E+00  0.90007776856E+02  0.90000038710E+02 0.  0.
        -12    1    1    2    0    0  0.66509619039E+00 -0.70358704887E+00  0.67493628768E+00  0.11802231443E+01  0.00000000000E+00 0.  1.
         11    1    3    3    0    0  0.16936561915E+01  0.90953240289E+01  0.17046363892E+01  0.94074000641E+01  0.51100000000E-03 0. -1.
        -11    1    3    3    0    0 -0.58885641961E+01 -0.25846777296E+02  0.32197827047E+02  0.41706488125E+02  0.51100000000E-03 0.  1.
         12    1    3    3    0    0  0.35298118142E+01  0.17455040316E+02 -0.34577399724E+02  0.38893888666E+02  0.00000000000E+00 0. -1.
</event>
<event>
 7    1  0.2542335E-015  0.9000773E+02  0.7816164E-02  0.1186339E+00
        -11   -1    0    0    0    0  0.00000000000E+00  0.00000000000E+00  0.45593999997E+02  0.45594000000E+02  0.51100000000E-03 0.  1.
         11   -1    0    0    0    0 -0.00000000000E+00 -0.00000000000E+00 -0.45593999997E+02  0.45594000000E+02  0.51100000000E-03 0. -1.
    9900012    2    1    2    0    0 -0.11561410144E+01  0.28442022291E-01  0.23570621445E+00  0.90007733753E+02  0.89999995039E+02 0.  0.
        -12    1    1    2    0    0  0.11561410144E+01 -0.28442022291E-01 -0.23570621445E+00  0.11802662468E+01  0.00000000000E+00 0.  1.
         11    1    3    3    0    0 -0.79485913016E+01  0.26977195372E+01 -0.43916087326E+00  0.84053945128E+01  0.51100000000E-03 0. -1.
        -11    1    3    3    0    0 -0.58392640427E+01 -0.35076103201E+01  0.39852335229E+02  0.40430297528E+02  0.51100000000E-03 0.  1.
         12    1    3    3    0    0  0.12631714330E+02  0.83833280521E+00 -0.39177468141E+02  0.41172041713E+02  0.00000000000E+00 0. -1.
</event>
<event>
 7    1  0.2542335E-015  0.9000775E+02  0.7816164E-02  0.1186339E+00
        -11   -1    0    0    0    0  0.00000000000E+00  0.00000000000E+00  0.45593999997E+02  0.45594000000E+02  0.51100000000E-03 0.  1.
         11   -1    0    0    0    0 -0.00000000000E+00 -0.00000000000E+00 -0.45593999997E+02  0.45594000000E+02  0.51100000000E-03 0. -1.
    9900012    2    1    2    0    0  0.78361303451E+00  0.73030661081E+00 -0.49557334732E+00  0.90007749994E+02  0.90000011494E+02 0.  0.
        -12    1    1    2    0    0 -0.78361303451E+00 -0.73030661081E+00  0.49557334732E+00  0.11802500058E+01  0.00000000000E+00 0.  1.
         11    1    3    3    0    0  0.29374899878E+02 -0.82398207119E+01 -0.22517596738E+02  0.37918617476E+02  0.51100000000E-03 0. -1.
        -11    1    3    3    0    0  0.88528904939E+01  0.11819671275E+01  0.48798732020E+01  0.10177616573E+02  0.51100000000E-03 0.  1.
        -12    1    3    3    0    0 -0.37444177337E+02  0.77881601952E+01  0.17142150189E+02  0.41911515945E+02  0.00000000000E+00 0.  1.
</event>
<event>
 7    1  0.2542335E-015  0.9000775E+02  0.7816164E-02  0.1186339E+00
        -11   -1    0    0    0    0  0.00000000000E+00  0.00000000000E+00  0.45593999997E+02  0.45594000000E+02  0.51100000000E-03 0. -1.
         11   -1    0    0    0    0 -0.00000000000E+00 -0.00000000000E+00 -0.45593999997E+02  0.45594000000E+02  0.51100000000E-03 0.  1.
    9900012    2    1    2    0    0 -0.10226006466E+01  0.41712749279E+00  0.41626806971E+00  0.90007751495E+02  0.90000013015E+02 0.  0.
        -12    1    1    2    0    0  0.10226006466E+01 -0.41712749279E+00 -0.41626806971E+00  0.11802485050E+01  0.00000000000E+00 0.  1.
         11    1    3    3    0    0 -0.19070859313E+02  0.34714217632E+02  0.30330202682E+01  0.39723718267E+02  0.51100000000E-03 0. -1.
        -11    1    3    3    0    0  0.25523806970E+01  0.36793933511E+01 -0.77470482284E+01  0.89481472478E+01  0.51100000000E-03 0.  1.
        -12    1    3    3    0    0  0.15495877970E+02 -0.37976483491E+02  0.51302960300E+01  0.41335885980E+02  0.00000000000E+00 0.  1.
</event>
<event>
 7    1  0.2542335E-015  0.9000772E+02  0.7816164E-02  0.1186339E+00
        -11   -1    0    0    0    0  0.00000000000E+00  0.00000000000E+00  0.45593999997E+02  0.45594000000E+02  0.51100000000E-03 0.  1.
         11   -1    0    0    0    0 -0.00000000000E+00 -0.00000000000E+00 -0.45593999997E+02  0.45594000000E+02  0.51100000000E-03 0. -1.
    9900012    2    1    2    0    0  0.80332508657E+00  0.76646186535E+00 -0.40033237930E+00  0.90007719949E+02  0.89999981052E+02 0.  0.
        -12    1    1    2    0    0 -0.80332508657E+00 -0.76646186535E+00  0.40033237930E+00  0.11802800514E+01  0.00000000000E+00 0.  1.
         11    1    3    3    0    0  0.36228549058E+01  0.62091705699E+01 -0.93272259557E+01  0.11776078342E+02  0.51100000000E-03 0. -1.
        -11    1    3    3    0    0  0.21979004628E+02  0.23650995894E+02  0.20553967503E+02  0.38274166635E+02  0.51100000000E-03 0.  1.
         12    1    3    3    0    0 -0.24798534448E+02 -0.29093704598E+02 -0.11627073927E+02  0.39957474971E+02  0.00000000000E+00 0. -1.
</event>
<event>
 7    1  0.2542335E-015  0.9000764E+02  0.7816164E-02  0.1186339E+00
        -11   -1    0    0    0    0  0.00000000000E+00  0.00000000000E+00  0.45593999997E+02  0.45594000000E+02  0.51100000000E-03 0.  1.
         11   -1    0    0    0    0 -0.00000000000E+00 -0.00000000000E+00 -0.45593999997E+02  0.45594000000E+02  0.51100000000E-03 0. -1.
    9900012    2    1    2    0    0 -0.49162694244E+00  0.79773946374E+00 -0.71775557058E+00  0.90007636343E+02  0.89999896343E+02 0.  0.
        -12    1    1    2    0    0  0.49162694244E+00 -0.79773946374E+00  0.71775557058E+00  0.11803636565E+01  0.00000000000E+00 0.  1.
         11    1    3    3    0    0  0.66312116714E+01 -0.32352982229E+01 -0.33779507575E+02  0.34575934624E+02  0.51100000000E-03 0. -1.
        -11    1    3    3    0    0 -0.14738769913E+02  0.11116710447E+02 -0.22706258390E+01  0.18600223968E+02  0.51100000000E-03 0.  1.
        -12    1    3    3    0    0  0.76159312987E+01 -0.70836727599E+01  0.35332377844E+02  0.36831477752E+02  0.00000000000E+00 0.  1.
</event>
<event>
 7    1  0.2542335E-015  0.9000777E+02  0.7816164E-02  0.1186339E+00
        -11   -1    0    0    0    0  0.00000000000E+00  0.00000000000E+00  0.45593999997E+02  0.45594000000E+02  0.51100000000E-03 0.  1.
         11   -1    0    0    0    0 -0.00000000000E+00 -0.00000000000E+00 -0.45593999997E+02  0.45594000000E+02  0.51100000000E-03 0. -1.
    9900012    2    1    2    0    0  0.44644968360E-02  0.93269126207E+00  0.72319279000E+00  0.90007770898E+02  0.90000032674E+02 0.  0.
        -12    1    1    2    0    0 -0.44644968360E-02 -0.93269126207E+00 -0.72319279000E+00  0.11802291022E+01  0.00000000000E+00 0.  1.
         11    1    3    3    0    0 -0.11267301985E+02 -0.34952845491E+02 -0.35148297996E+01  0.36891835556E+02  0.51100000000E-03 0. -1.
        -11    1    3    3    0    0  0.75072222077E-01 -0.70905752523E+01  0.50372330947E+01  0.86980233823E+01  0.51100000000E-03 0.  1.
        -12    1    3    3    0    0  0.11196694259E+02  0.42976112005E+02 -0.79921050508E+00  0.44417911960E+02  0.00000000000E+00 0.  1.
</event>
<event>
 7    1  0.2542335E-015  0.9000791E+02  0.7816164E-02  0.1186339E+00
        -11   -1    0    0    0    0  0.00000000000E+00  0.00000000000E+00  0.45593999997E+02  0.45594000000E+02  0.51100000000E-03 0. -1.
         11   -1    0    0    0    0 -0.00000000000E+00 -0.00000000000E+00 -0.45593999997E+02  0.45594000000E+02  0.51100000000E-03 0.  1.
    9900012    2    1    2    0    0  0.10566295179E+01  0.22977391762E+00  0.47259543517E+00  0.90007911683E+02  0.90000175317E+02 0.  0.
        -12    1    1    2    0    0 -0.10566295179E+01 -0.22977391762E+00 -0.47259543517E+00  0.11800883173E+01  0.00000000000E+00 0.  1.
         11    1    3    3    0    0 -0.64140600757E+01 -0.72332902483E+01  0.17365028723E+01  0.98222246440E+01  0.51100000000E-03 0. -1.
        -11    1    3    3    0    0  0.85716700581E+01 -0.14485617795E+02 -0.35623178217E+02  0.39399460365E+02  0.51100000000E-03 0.  1.
         12    1    3    3    0    0 -0.11009804646E+01  0.21948681961E+02  0.34359270780E+02  0.40786226674E+02  0.00000000000E+00 0. -1.
</event>
<event>
 7    1  0.2542335E-015  0.9000766E+02  0.7816164E-02  0.1186339E+00
        -11   -1    0    0    0    0  0.00000000000E+00  0.00000000000E+00  0.45593999997E+02  0.45594000000E+02  0.51100000000E-03 0.  1.
         11   -1    0    0    0    0 -0.00000000000E+00 -0.00000000000E+00 -0.45593999997E+02  0.45594000000E+02  0.51100000000E-03 0. -1.
    9900012    2    1    2    0    0  0.28903890313E+00 -0.10504092071E+00 -0.11395692645E+01  0.90007663103E+02  0.89999923456E+02 0.  0.
        -12    1    1    2    0    0 -0.28903890313E+00  0.10504092071E+00  0.11395692645E+01  0.11803368973E+01  0.00000000000E+00 0.  1.
         11    1    3    3    0    0  0.14027457999E+01  0.85654628264E+01 -0.45522523645E+01  0.98009107261E+01  0.51100000000E-03 0. -1.
        -11    1    3    3    0    0  0.31436362640E+02  0.86197123697E+01 -0.18347252586E+02  0.37405427616E+02  0.51100000000E-03 0.  1.
         12    1    3    3    0    0 -0.32550069537E+02 -0.17290216117E+02  0.21759935686E+02  0.42801324761E+02  0.00000000000E+00 0. -1.
</event>
<event>
 7    1  0.2542335E-015  0.9000797E+02  0.7816164E-02  0.1186339E+00
        -11   -1    0    0    0    0  0.00000000000E+00  0.00000000000E+00  0.45593999997E+02  0.45594000000E+02  0.51100000000E-03 0.  1.
         11   -1    0    0    0    0 -0.00000000000E+00 -0.00000000000E+00 -0.45593999997E+02  0.45594000000E+02  0.51100000000E-03 0. -1.
    9900012    2    1    2    0    0  0.96414269200E+00 -0.66461125149E+00 -0.14557984066E+00  0.90007969180E+02  0.90000233573E+02 0.  0.
        -12    1    1    2    0    0 -0.96414269200E+00  0.66461125149E+00  0.14557984066E+00  0.11800308200E+01  0.00000000000E+00 0.  1.
         11    1    3    3    0    0  0.24161368562E+02 -0.13528578201E+02 -0.21875503960E+02  0.35289259452E+02  0.51100000000E-03 0. -1.
        -11    1    3    3    0    0 -0.21871926583E+02  0.48418291428E+01 -0.80843775491E+01  0.23815575628E+02  0.51100000000E-03 0.  1.
        -12    1    3    3    0    0 -0.13252992870E+01  0.80221378065E+01  0.29814301668E+02  0.30903134099E+02  0.00000000000E+00 0.  1.
</event>
<event>
 7    1  0.2811233E-015  0.9000769E+02  0.7816164E-02  0.1186339E+00
        -11   -1    0    0    0    0  0.00000000000E+00  0.00000000000E+00  0.45593999997E+02  0.45594000000E+02  0.51100000000E-03 0.  1.
         11   -1    0    0    0    0 -0.00000000000E+00 -0.00000000000E+00 -0.45593999997E+02  0.45594000000E+02  0.51100000000E-03 0. -1.
    9900012    2    1    2    0    0  0.26998661707E+00  0.83727844138E+00 -0.78689762787E+00  0.90007688245E+02  0.89999948930E+02 0.  0.
        -12    1    1    2    0    0 -0.26998661707E+00 -0.83727844138E+00  0.78689762787E+00  0.11803117548E+01  0.00000000000E+00 0.  1.
         11    1    3    3    0    0 -0.90969890443E+01  0.14141920986E+01 -0.25729809420E+01  0.95590470316E+01  0.51100000000E-03 0. -1.
        -11    1    3    3    0    0 -0.11694546029E+01 -0.32501670590E+02  0.23767380872E+02  0.40281690741E+02  0.51100000000E-03 0.  1.
         12    1    3    3    0    0  0.10536430264E+02  0.31924756932E+02 -0.21981297558E+02  0.40166950472E+02  0.00000000000E+00 0. -1.
</event>
<event>
 7    1  0.2542335E-015  0.9000820E+02  0.7816164E-02  0.1186338E+00
        -11   -1    0    0    0    0  0.00000000000E+00  0.00000000000E+00  0.45593999997E+02  0.45594000000E+02  0.51100000000E-03 0.  1.
         11   -1    0    0    0    0 -0.00000000000E+00 -0.00000000000E+00 -0.45593999997E+02  0.45594000000E+02  0.51100000000E-03 0. -1.
    9900012    2    1    2    0    0 -0.30563460775E+00  0.28190767423E+00 -0.11041000144E+01  0.90008202860E+02  0.90000470336E+02 0.  0.
        -12    1    1    2    0    0  0.30563460775E+00 -0.28190767423E+00  0.11041000144E+01  0.11797971402E+01  0.00000000000E+00 0.  1.
         11    1    3    3    0    0 -0.28266455340E+01 -0.17030145023E+01  0.98694146842E+01  0.10406513818E+02  0.51100000000E-03 0. -1.
        -11    1    3    3    0    0 -0.11518224044E+02 -0.34922264192E+02 -0.15399872026E+02  0.39867155405E+02  0.51100000000E-03 0.  1.
         12    1    3    3    0    0  0.14039234971E+02  0.36907186368E+02  0.44263573269E+01  0.39734533637E+02  0.00000000000E+00 0. -1.
</event>
<event>
 7    1  0.2542335E-015  0.9000769E+02  0.7816164E-02  0.1186339E+00
        -11   -1    0    0    0    0  0.00000000000E+00  0.00000000000E+00  0.45593999997E+02  0.45594000000E+02  0.51100000000E-03 0. -1.
         11   -1    0    0    0    0 -0.00000000000E+00 -0.00000000000E+00 -0.45593999997E+02  0.45594000000E+02  0.51100000000E-03 0.  1.
    9900012    2    1    2    0    0 -0.82383209746E+00  0.76886933326E+00  0.35109332118E+00  0.90007692457E+02  0.89999953197E+02 0.  0.
        -12    1    1    2    0    0  0.82383209746E+00 -0.76886933326E+00 -0.35109332118E+00  0.11803075432E+01  0.00000000000E+00 0.  1.
         11    1    3    3    0    0  0.93429507419E+00 -0.69885979430E+01  0.64264004089E+01  0.95400225875E+01  0.51100000000E-03 0. -1.
        -11    1    3    3    0    0  0.31085908649E+02 -0.90328388793E+01  0.17392672721E+02  0.36748210288E+02  0.51100000000E-03 0.  1.
         12    1    3    3    0    0 -0.32844035821E+02  0.16790306156E+02 -0.23467979808E+02  0.43719459581E+02  0.00000000000E+00 0. -1.
</event>
<event>
 7    1  0.2542335E-015  0.9000766E+02  0.7816164E-02  0.1186339E+00
        -11   -1    0    0    0    0  0.00000000000E+00  0.00000000000E+00  0.45593999997E+02  0.45594000000E+02  0.51100000000E-03 0. -1.
         11   -1    0    0    0    0 -0.00000000000E+00 -0.00000000000E+00 -0.45593999997E+02  0.45594000000E+02  0.51100000000E-03 0.  1.
    9900012    2    1    2    0    0  0.15228904197E+00  0.58983258370E+00  0.10109980219E+01  0.90007656224E+02  0.89999916486E+02 0.  0.
        -12    1    1    2    0    0 -0.15228904197E+00 -0.58983258370E+00 -0.10109980219E+01  0.11803437760E+01  0.00000000000E+00 0.  1.
         11    1    3    3    0    0 -0.47654389537E+01 -0.10247688716E+02 -0.20613747026E+01  0.11487984956E+02  0.51100000000E-03 0. -1.
        -11    1    3    3    0    0 -0.31507220342E+02 -0.11873615729E+02 -0.70883120685E+01  0.34408310804E+02  0.51100000000E-03 0.  1.
         12    1    3    3    0    0  0.36424948337E+02  0.22711137028E+02  0.10160684793E+02  0.44111360464E+02  0.00000000000E+00 0. -1.
</event>
<event>
 7    1  0.2542335E-015  0.9000780E+02  0.7816164E-02  0.1186339E+00
        -11   -1    0    0    0    0  0.00000000000E+00  0.00000000000E+00  0.45593999997E+02  0.45594000000E+02  0.51100000000E-03 0.  1.
         11   -1    0    0    0    0 -0.00000000000E+00 -0.00000000000E+00 -0.45593999997E+02  0.45594000000E+02  0.51100000000E-03 0. -1.
    9900012    2    1    2    0    0 -0.74596887662E+00  0.90243751247E+00  0.14831572781E+00  0.90007804853E+02  0.90000067078E+02 0.  0.
        -12    1    1    2    0    0  0.74596887662E+00 -0.90243751247E+00 -0.14831572781E+00  0.11801951465E+01  0.00000000000E+00 0.  1.
         11    1    3    3    0    0  0.92690298203E+01 -0.17398906986E+01  0.27543047692E+01  0.98248831279E+01  0.51100000000E-03 0. -1.
        -11    1    3    3    0    0  0.19167541829E+02 -0.29425744451E+02  0.69122120234E+01  0.35791727697E+02  0.51100000000E-03 0.  1.
         12    1    3    3    0    0 -0.29182540526E+02  0.32068072662E+02 -0.95182010648E+01  0.44391194028E+02  0.00000000000E+00 0. -1.
</event>
<event>
 7    1  0.2542335E-015  0.9000778E+02  0.7816164E-02  0.1186339E+00
        -11   -1    0    0    0    0  0.00000000000E+00  0.00000000000E+00  0.45593999997E+02  0.45594000000E+02  0.51100000000E-03 0.  1.
         11   -1    0    0    0    0 -0.00000000000E+00 -0.00000000000E+00 -0.45593999997E+02  0.45594000000E+02  0.51100000000E-03 0. -1.
    9900012    2    1    2    0    0 -0.52353174743E+00 -0.90820158958E+00 -0.54221385249E+00  0.90007783291E+02  0.90000045231E+02 0.  0.
        -12    1    1    2    0    0  0.52353174743E+00  0.90820158958E+00  0.54221385249E+00  0.11802167088E+01  0.00000000000E+00 0.  1.
         11    1    3    3    0    0  0.15158247545E+01 -0.41946394259E+01 -0.10627679966E+02  0.11525636916E+02  0.51100000000E-03 0. -1.
        -11    1    3    3    0    0 -0.33982178025E+01  0.36794568408E+02  0.21867638645E+02  0.42936951088E+02  0.51100000000E-03 0.  1.
         12    1    3    3    0    0  0.13588613006E+01 -0.33508130571E+02 -0.11782172532E+02  0.35545195287E+02  0.00000000000E+00 0. -1.
</event>
<event>
 7    1  0.2542335E-015  0.9000766E+02  0.7816164E-02  0.1186339E+00
        -11   -1    0    0    0    0  0.00000000000E+00  0.00000000000E+00  0.45593999997E+02  0.45594000000E+02  0.51100000000E-03 0.  1.
         11   -1    0    0    0    0 -0.00000000000E+00 -0.00000000000E+00 -0.45593999997E+02  0.45594000000E+02  0.51100000000E-03 0. -1.
    9900012    2    1    2    0    0  0.70576789888E+00  0.43995417403E+00 -0.83757954922E+00  0.90007657887E+02  0.89999918171E+02 0.  0.
        -12    1    1    2    0    0 -0.70576789888E+00 -0.43995417403E+00  0.83757954922E+00  0.11803421130E+01  0.00000000000E+00 0.  1.
         11    1    3    3    0    0 -0.24072915064E+02  0.42092658044E+01  0.20794753395E+02  0.32088080767E+02  0.51100000000E-03 0. -1.
        -11    1    3    3    0    0 -0.57922654362E+01 -0.18030539075E+01  0.11372184859E+02  0.12889062457E+02  0.51100000000E-03 0.  1.
        -12    1    3    3    0    0  0.30570948399E+02 -0.19662577229E+01 -0.33004517803E+02  0.45030514664E+02  0.00000000000E+00 0.  1.
</event>
<event>
 7    1  0.2542335E-015  0.9000760E+02  0.7816164E-02  0.1186339E+00
        -11   -1    0    0    0    0  0.00000000000E+00  0.00000000000E+00  0.45593999997E+02  0.45594000000E+02  0.51100000000E-03 0.  1.
         11   -1    0    0    0    0 -0.00000000000E+00 -0.00000000000E+00 -0.45593999997E+02  0.45594000000E+02  0.51100000000E-03 0. -1.
    9900012    2    1    2    0    0 -0.17389581758E+00  0.19408463181E+00 -0.11512731009E+01  0.90007602460E+02  0.89999862012E+02 0.  0.
        -12    1    1    2    0    0  0.17389581758E+00 -0.19408463181E+00  0.11512731009E+01  0.11803975401E+01  0.00000000000E+00 0.  1.
         11    1    3    3    0    0  0.26727879023E+01  0.91482077623E+00  0.77420151416E+01  0.82413282266E+01  0.51100000000E-03 0. -1.
        -11    1    3    3    0    0  0.37252900541E+02 -0.12371500051E+02 -0.76375610223E+01  0.39989560524E+02  0.51100000000E-03 0.  1.
         12    1    3    3    0    0 -0.40099584261E+02  0.11650763907E+02 -0.12557272203E+01  0.41776713710E+02  0.00000000000E+00 0. -1.
</event>
<event>
 7    1  0.2542335E-015  0.9000772E+02  0.7816164E-02  0.1186339E+00
        -11   -1    0    0    0    0  0.00000000000E+00  0.00000000000E+00  0.45593999997E+02  0.45594000000E+02  0.51100000000E-03 0. -1.
         11   -1    0    0    0    0 -0.00000000000E+00 -0.00000000000E+00 -0.45593999997E+02  0.45594000000E+02  0.51100000000E-03 0.  1.
    9900012    2    1    2    0    0 -0.92609991335E+00  0.57315024619E+00  0.45486853416E+00  0.90007717137E+02  0.89999978203E+02 0.  0.
        -12    1    1    2    0    0  0.92609991335E+00 -0.57315024619E+00 -0.45486853416E+00  0.11802828634E+01  0.00000000000E+00 0.  1.
         11    1    3    3    0    0 -0.17414331222E+02  0.20980096064E+02  0.28957076833E+02  0.39773554803E+02  0.51100000000E-03 0. -1.
        -11    1    3    3    0    0 -0.67002650426E+01 -0.52176622058E+01  0.22969475570E+01  0.87973586307E+01  0.51100000000E-03 0.  1.
        -12    1    3    3    0    0  0.23188496351E+02 -0.15189283611E+02 -0.30799155855E+02  0.41436803703E+02  0.00000000000E+00 0.  1.
</event>
<event>
 7    1  0.2542335E-015  0.9000773E+02  0.7816164E-02  0.1186339E+00
        -11   -1    0    0    0    0  0.00000000000E+00  0.00000000000E+00  0.45593999997E+02  0.45594000000E+02  0.51100000000E-03 0. -1.
         11   -1    0    0    0    0 -0.00000000000E+00 -0.00000000000E+00 -0.45593999997E+02  0.45594000000E+02  0.51100000000E-03 0.  1.
    9900012    2    1    2    0    0 -0.85961739443E+00  0.54301773635E+00  0.59935875767E+00  0.90007728316E+02  0.89999989530E+02 0.  0.
        -12    1    1    2    0    0  0.85961739443E+00 -0.54301773635E+00 -0.59935875767E+00  0.11802716836E+01  0.00000000000E+00 0.  1.
         11    1    3    3    0    0  0.99632523864E+00  0.78679529817E+01  0.40057547775E+01  0.88850109568E+01  0.51100000000E-03 0. -1.
        -11    1    3    3    0    0  0.12094378261E+02 -0.22024401959E+02  0.31782739835E+02  0.40515315855E+02  0.51100000000E-03 0.  1.
         12    1    3    3    0    0 -0.13950320894E+02  0.14699466714E+02 -0.35189135855E+02  0.40607401504E+02  0.00000000000E+00 0. -1.
</event>
<event>
 7    1  0.2542335E-015  0.9000771E+02  0.7816164E-02  0.1186339E+00
        -11   -1    0    0    0    0  0.00000000000E+00  0.00000000000E+00  0.45593999997E+02  0.45594000000E+02  0.51100000000E-03 0. -1.
         11   -1    0    0    0    0 -0.00000000000E+00 -0.00000000000E+00 -0.45593999997E+02  0.45594000000E+02  0.51100000000E-03 0.  1.
    9900012    2    1    2    0    0  0.36530522952E+00 -0.18487940203E+00  0.11070043143E+01  0.90007708995E+02  0.89999969954E+02 0.  0.
        -12    1    1    2    0    0 -0.36530522952E+00  0.18487940203E+00 -0.11070043143E+01  0.11802910047E+01  0.00000000000E+00 0.  1.
         11    1    3    3    0    0 -0.24361592346E+02 -0.10127177734E+02  0.29220121597E+02  0.39368292024E+02  0.51100000000E-03 0. -1.
        -11    1    3    3    0    0  0.10465427776E+01  0.84044591793E+01  0.50499095978E+01  0.98606172773E+01  0.51100000000E-03 0.  1.
        -12    1    3    3    0    0  0.23680354798E+02  0.15378391523E+01 -0.33163026881E+02  0.40778799694E+02  0.00000000000E+00 0.  1.
</event>
<event>
 7    1  0.2542335E-015  0.9000734E+02  0.7816164E-02  0.1186340E+00
        -11   -1    0    0    0    0  0.00000000000E+00  0.00000000000E+00  0.45593999997E+02  0.45594000000E+02  0.51100000000E-03 0.  1.
         11   -1    0    0    0    0 -0.00000000000E+00 -0.00000000000E+00 -0.45593999997E+02  0.45594000000E+02  0.51100000000E-03 0. -1.
    9900012    2    1    2    0    0 -0.47965455838E+00 -0.88103691648E+00 -0.62263032352E+00  0.90007337871E+02  0.89999593930E+02 0.  0.
        -12    1    1    2    0    0  0.47965455838E+00  0.88103691648E+00  0.62263032352E+00  0.11806621292E+01  0.00000000000E+00 0.  1.
         11    1    3    3    0    0  0.54030056215E+01  0.17511639993E+02 -0.23544687493E+02  0.29836258385E+02  0.51100000000E-03 0. -1.
        -11    1    3    3    0    0 -0.21183040048E+02 -0.83910752010E+01 -0.80855266972E+01  0.24176581043E+02  0.51100000000E-03 0.  1.
        -12    1    3    3    0    0  0.15300379868E+02 -0.10001601709E+02  0.31007583867E+02  0.35994498442E+02  0.00000000000E+00 0.  1.
</event>
<event>
 7    1  0.2542335E-015  0.9000772E+02  0.7816164E-02  0.1186339E+00
        -11   -1    0    0    0    0  0.00000000000E+00  0.00000000000E+00  0.45593999997E+02  0.45594000000E+02  0.51100000000E-03 0. -1.
         11   -1    0    0    0    0 -0.00000000000E+00 -0.00000000000E+00 -0.45593999997E+02  0.45594000000E+02  0.51100000000E-03 0.  1.
    9900012    2    1    2    0    0 -0.45146568364E+00 -0.42821283986E+00  0.10029266695E+01  0.90007724861E+02  0.89999986029E+02 0.  0.
        -12    1    1    2    0    0  0.45146568364E+00  0.42821283986E+00 -0.10029266695E+01  0.11802751392E+01  0.00000000000E+00 0.  1.
         11    1    3    3    0    0  0.16386492372E+02  0.28888368569E+02  0.18248294198E+02  0.37895319134E+02  0.51100000000E-03 0. -1.
        -11    1    3    3    0    0 -0.63488530390E+01  0.18647980107E+00  0.91641275851E+01  0.11150064766E+02  0.51100000000E-03 0.  1.
        -12    1    3    3    0    0 -0.10489105017E+02 -0.29503061210E+02 -0.26409495114E+02  0.40962340961E+02  0.00000000000E+00 0.  1.
</event>
<event>
 8    1  0.2542335E-015  0.9000782E+02  0.7816164E-02  0.1186339E+00
        -11   -1    0    0    0    0  0.00000000000E+00  0.00000000000E+00  0.45593999997E+02  0.45594000000E+02  0.51100000000E-03 0. -1.
         11   -1    0    0    0    0 -0.00000000000E+00 -0.00000000000E+00 -0.45593999997E+02  0.45594000000E+02  0.51100000000E-03 0.  1.
    9900012    2    1    2    0    0  0.47244226190E+00 -0.31997774059E+00  0.10330670730E+01  0.90007824156E+02  0.90000086635E+02 0.  0.
         23    2    3    3    0    0  0.31125098333E+01 -0.27171732405E+01  0.25285195689E+02  0.65494924584E+02  0.60275810052E+02 0.  0.
        -12    1    1    2    0    0 -0.47244226190E+00  0.31997774059E+00 -0.10330670730E+01  0.11801758439E+01  0.00000000000E+00 0.  1.
         11    1    4    4    0    0  0.30145476821E+02 -0.40445345314E+01  0.32404771898E+01  0.30587721802E+02  0.51100000000E-03 0. -1.
        -11    1    4    4    0    0 -0.27032966988E+02  0.13273612909E+01  0.22044718499E+02  0.34907202782E+02  0.51100000000E-03 0.  1.
        -12    1    3    3    0    0 -0.26400675714E+01  0.23971954999E+01 -0.24252128616E+02  0.24512899572E+02  0.00000000000E+00 0.  1.
</event>
<event>
 7    1  0.2542335E-015  0.9000771E+02  0.7816164E-02  0.1186339E+00
        -11   -1    0    0    0    0  0.00000000000E+00  0.00000000000E+00  0.45593999997E+02  0.45594000000E+02  0.51100000000E-03 0.  1.
         11   -1    0    0    0    0 -0.00000000000E+00 -0.00000000000E+00 -0.45593999997E+02  0.45594000000E+02  0.51100000000E-03 0. -1.
    9900012    2    1    2    0    0 -0.79193085344E+00  0.87494928195E+00 -0.19599322342E-01  0.90007714079E+02  0.89999975105E+02 0.  0.
        -12    1    1    2    0    0  0.79193085344E+00 -0.87494928195E+00  0.19599322342E-01  0.11802859213E+01  0.00000000000E+00 0.  1.
         11    1    3    3    0    0  0.14771290445E+01  0.47380017294E+01 -0.28078860194E+01  0.57021745642E+01  0.51100000000E-03 0. -1.
        -11    1    3    3    0    0 -0.35554266140E+02  0.13558824174E+02  0.19992987075E+02  0.42984498208E+02  0.51100000000E-03 0.  1.
         12    1    3    3    0    0  0.33285206242E+02 -0.17421876622E+02 -0.17204700378E+02  0.41321041307E+02  0.00000000000E+00 0. -1.
</event>
<event>
 7    1  0.2542335E-015  0.9000769E+02  0.7816164E-02  0.1186339E+00
        -11   -1    0    0    0    0  0.00000000000E+00  0.00000000000E+00  0.45593999997E+02  0.45594000000E+02  0.51100000000E-03 0. -1.
         11   -1    0    0    0    0 -0.00000000000E+00 -0.00000000000E+00 -0.45593999997E+02  0.45594000000E+02  0.51100000000E-03 0.  1.
    9900012    2    1    2    0    0  0.15019536188E+00 -0.10171149579E+01  0.57969549836E+00  0.90007691415E+02  0.89999952142E+02 0.  0.
        -12    1    1    2    0    0 -0.15019536188E+00  0.10171149579E+01 -0.57969549836E+00  0.11803085847E+01  0.00000000000E+00 0.  1.
         11    1    3    3    0    0 -0.98376710298E+01 -0.47304389040E+01  0.36566337333E+01  0.11512071666E+02  0.51100000000E-03 0. -1.
        -11    1    3    3    0    0 -0.33536743616E+02  0.12484877430E+01  0.56612968653E+01  0.34034132522E+02  0.51100000000E-03 0.  1.
         12    1    3    3    0    0  0.43524610008E+02  0.24648362032E+01 -0.87382351003E+01  0.44461487228E+02  0.00000000000E+00 0. -1.
</event>
<event>
 7    1  0.2542335E-015  0.9000770E+02  0.7816164E-02  0.1186339E+00
        -11   -1    0    0    0    0  0.00000000000E+00  0.00000000000E+00  0.45593999997E+02  0.45594000000E+02  0.51100000000E-03 0. -1.
         11   -1    0    0    0    0 -0.00000000000E+00 -0.00000000000E+00 -0.45593999997E+02  0.45594000000E+02  0.51100000000E-03 0.  1.
    9900012    2    1    2    0    0  0.65333815487E+00  0.37594851441E+00  0.90825639195E+00  0.90007695927E+02  0.89999956714E+02 0.  0.
        -12    1    1    2    0    0 -0.65333815487E+00 -0.37594851441E+00 -0.90825639195E+00  0.11803040725E+01  0.00000000000E+00 0.  1.
         11    1    3    3    0    0 -0.29065444762E+01  0.62634490754E+01  0.95823016371E+01  0.11810982179E+02  0.51100000000E-03 0. -1.
        -11    1    3    3    0    0  0.96080040545E+00  0.15865865872E+02 -0.38232222802E+02  0.41404730381E+02  0.51100000000E-03 0.  1.
         12    1    3    3    0    0  0.25990822256E+01 -0.21753366433E+02  0.29558177557E+02  0.36791983367E+02  0.00000000000E+00 0. -1.
</event>
<event>
 7    1  0.2542335E-015  0.9000777E+02  0.7816164E-02  0.1186339E+00
        -11   -1    0    0    0    0  0.00000000000E+00  0.00000000000E+00  0.45593999997E+02  0.45594000000E+02  0.51100000000E-03 0.  1.
         11   -1    0    0    0    0 -0.00000000000E+00 -0.00000000000E+00 -0.45593999997E+02  0.45594000000E+02  0.51100000000E-03 0. -1.
    9900012    2    1    2    0    0 -0.17147664150E+00  0.13169480202E+00 -0.11602608764E+01  0.90007765676E+02  0.90000027382E+02 0.  0.
        -12    1    1    2    0    0  0.17147664150E+00 -0.13169480202E+00  0.11602608764E+01  0.11802343245E+01  0.00000000000E+00 0.  1.
         11    1    3    3    0    0 -0.12861476762E+01  0.33266831345E+02 -0.18767926394E+02  0.38217421485E+02  0.51100000000E-03 0. -1.
        -11    1    3    3    0    0  0.54096941881E+01  0.66188394760E+01  0.14821261522E+01  0.86758587707E+01  0.51100000000E-03 0.  1.
        -12    1    3    3    0    0 -0.42950231534E+01 -0.39753976019E+02  0.16125539366E+02  0.43114485420E+02  0.00000000000E+00 0.  1.
</event>
<event>
 7    1  0.2542335E-015  0.9000775E+02  0.7816164E-02  0.1186339E+00
        -11   -1    0    0    0    0  0.00000000000E+00  0.00000000000E+00  0.45593999997E+02  0.45594000000E+02  0.51100000000E-03 0. -1.
         11   -1    0    0    0    0 -0.00000000000E+00 -0.00000000000E+00 -0.45593999997E+02  0.45594000000E+02  0.51100000000E-03 0.  1.
    9900012    2    1    2    0    0 -0.26113329338E+00 -0.11382801636E+01  0.17065916694E+00  0.90007747112E+02  0.90000008574E+02 0.  0.
        -12    1    1    2    0    0  0.26113329338E+00  0.11382801636E+01 -0.17065916694E+00  0.11802528877E+01  0.00000000000E+00 0.  1.
         11    1    3    3    0    0 -0.24598661333E+02 -0.30947086427E+02  0.27520097890E+01  0.39628144744E+02  0.51100000000E-03 0. -1.
        -11    1    3    3    0    0 -0.19813672797E+00 -0.64559430613E+01  0.55232038178E+00  0.64825548234E+01  0.51100000000E-03 0.  1.
        -12    1    3    3    0    0  0.24535664768E+02  0.36264749325E+02 -0.31336710039E+01  0.43897047545E+02  0.00000000000E+00 0.  1.
</event>
<event>
 7    1  0.2542335E-015  0.9000776E+02  0.7816164E-02  0.1186339E+00
        -11   -1    0    0    0    0  0.00000000000E+00  0.00000000000E+00  0.45593999997E+02  0.45594000000E+02  0.51100000000E-03 0.  1.
         11   -1    0    0    0    0 -0.00000000000E+00 -0.00000000000E+00 -0.45593999997E+02  0.45594000000E+02  0.51100000000E-03 0. -1.
    9900012    2    1    2    0    0 -0.12795317726E+00  0.11160688995E+01  0.36190524907E+00  0.90007763916E+02  0.90000025600E+02 0.  0.
        -12    1    1    2    0    0  0.12795317726E+00 -0.11160688995E+01 -0.36190524907E+00  0.11802360838E+01  0.00000000000E+00 0.  1.
         11    1    3    3    0    0  0.70268952227E+01 -0.20370750472E+01  0.43529852104E+01  0.85132491871E+01  0.51100000000E-03 0. -1.
        -11    1    3    3    0    0  0.14384580173E+02 -0.84742286246E+01  0.33089982099E+02  0.37063130104E+02  0.51100000000E-03 0.  1.
         12    1    3    3    0    0 -0.21539428573E+02  0.11627372571E+02 -0.37081062061E+02  0.44431384625E+02  0.00000000000E+00 0. -1.
</event>
<event>
 7    1  0.2542335E-015  0.9000771E+02  0.7816164E-02  0.1186339E+00
        -11   -1    0    0    0    0  0.00000000000E+00  0.00000000000E+00  0.45593999997E+02  0.45594000000E+02  0.51100000000E-03 0. -1.
         11   -1    0    0    0    0 -0.00000000000E+00 -0.00000000000E+00 -0.45593999997E+02  0.45594000000E+02  0.51100000000E-03 0.  1.
    9900012    2    1    2    0    0  0.17181988001E+00  0.32198681422E+00  0.11224434570E+01  0.90007713215E+02  0.89999974230E+02 0.  0.
        -12    1    1    2    0    0 -0.17181988001E+00 -0.32198681422E+00 -0.11224434570E+01  0.11802867846E+01  0.00000000000E+00 0.  1.
         11    1    3    3    0    0  0.18709590110E+01 -0.77908514686E+01 -0.58313785421E+01  0.99097341130E+01  0.51100000000E-03 0. -1.
        -11    1    3    3    0    0  0.22008458216E+01 -0.29112170472E+02 -0.18745970536E+02  0.34695440673E+02  0.51100000000E-03 0.  1.
         12    1    3    3    0    0 -0.38999849526E+01  0.37225008755E+02  0.25699792535E+02  0.45402538429E+02  0.00000000000E+00 0. -1.
</event>
<event>
 7    1  0.2542335E-015  0.9000789E+02  0.7816164E-02  0.1186339E+00
        -11   -1    0    0    0    0  0.00000000000E+00  0.00000000000E+00  0.45593999997E+02  0.45594000000E+02  0.51100000000E-03 0. -1.
         11   -1    0    0    0    0 -0.00000000000E+00 -0.00000000000E+00 -0.45593999997E+02  0.45594000000E+02  0.51100000000E-03 0.  1.
    9900012    2    1    2    0    0  0.11612701249E+00  0.10670387652E+01 -0.49051242410E+00  0.90007889985E+02  0.90000153333E+02 0.  0.
        -12    1    1    2    0    0 -0.11612701249E+00 -0.10670387652E+01  0.49051242410E+00  0.11801100151E+01  0.00000000000E+00 0.  1.
         11    1    3    3    0    0  0.50031175336E+01  0.77693750743E+01  0.49213289140E+01  0.10469663445E+02  0.51100000000E-03 0. -1.
        -11    1    3    3    0    0  0.42229801597E+01 -0.21468118109E+01 -0.41638396142E+02  0.41907020843E+02  0.51100000000E-03 0.  1.
         12    1    3    3    0    0 -0.91099706808E+01 -0.45555244982E+01  0.36226554804E+02  0.37631205697E+02  0.00000000000E+00 0. -1.
</event>
<event>
 7    1  0.2542335E-015  0.9000747E+02  0.7816164E-02  0.1186340E+00
        -11   -1    0    0    0    0  0.00000000000E+00  0.00000000000E+00  0.45593999997E+02  0.45594000000E+02  0.51100000000E-03 0. -1.
         11   -1    0    0    0    0 -0.00000000000E+00 -0.00000000000E+00 -0.45593999997E+02  0.45594000000E+02  0.51100000000E-03 0.  1.
    9900012    2    1    2    0    0 -0.88335799022E+00 -0.30809615622E+00  0.72000718359E+00  0.90007468372E+02  0.89999726154E+02 0.  0.
        -12    1    1    2    0    0  0.88335799022E+00  0.30809615622E+00 -0.72000718359E+00  0.11805316280E+01  0.00000000000E+00 0.  1.
         11    1    3    3    0    0  0.30232295686E+02 -0.75026051353E+01  0.25499523817E+02  0.40255515167E+02  0.51100000000E-03 0. -1.
        -11    1    3    3    0    0  0.45468750166E+01  0.52306615133E+01 -0.70158500133E+01  0.98618478975E+01  0.51100000000E-03 0.  1.
        -12    1    3    3    0    0 -0.35662528692E+02  0.19638474657E+01 -0.17763666620E+02  0.39890105307E+02  0.00000000000E+00 0.  1.
</event>
<event>
 7    1  0.2542335E-015  0.9000778E+02  0.7816164E-02  0.1186339E+00
        -11   -1    0    0    0    0  0.00000000000E+00  0.00000000000E+00  0.45593999997E+02  0.45594000000E+02  0.51100000000E-03 0.  1.
         11   -1    0    0    0    0 -0.00000000000E+00 -0.00000000000E+00 -0.45593999997E+02  0.45594000000E+02  0.51100000000E-03 0. -1.
    9900012    2    1    2    0    0  0.50704964579E+00 -0.10636442448E+01 -0.66903722005E-01  0.90007781999E+02  0.90000043921E+02 0.  0.
        -12    1    1    2    0    0 -0.50704964579E+00  0.10636442448E+01  0.66903722005E-01  0.11802180014E+01  0.00000000000E+00 0.  1.
         11    1    3    3    0    0  0.18680135757E+02  0.24698474674E+02 -0.63562896402E+01  0.31612727522E+02  0.51100000000E-03 0. -1.
        -11    1    3    3    0    0  0.12760813018E+02 -0.13786179016E+02  0.15067898215E+02  0.24081915157E+02  0.51100000000E-03 0.  1.
        -12    1    3    3    0    0 -0.30933899129E+02 -0.11975939902E+02 -0.87785122970E+01  0.34313139320E+02  0.00000000000E+00 0.  1.
</event>
<event>
 7    1  0.2542335E-015  0.9000786E+02  0.7816164E-02  0.1186339E+00
        -11   -1    0    0    0    0  0.00000000000E+00  0.00000000000E+00  0.45593999997E+02  0.45594000000E+02  0.51100000000E-03 0. -1.
         11   -1    0    0    0    0 -0.00000000000E+00 -0.00000000000E+00 -0.45593999997E+02  0.45594000000E+02  0.51100000000E-03 0.  1.
    9900012    2    1    2    0    0  0.58664971533E+00  0.81869183129E+00 -0.61507486606E+00  0.90007859630E+02  0.90000122577E+02 0.  0.
        -12    1    1    2    0    0 -0.58664971533E+00 -0.81869183129E+00  0.61507486606E+00  0.11801403705E+01  0.00000000000E+00 0.  1.
         11    1    3    3    0    0 -0.10330756577E+02  0.18142698166E+01 -0.29892552809E+00  0.10493115036E+02  0.51100000000E-03 0. -1.
        -11    1    3    3    0    0 -0.31552034775E+02 -0.61253743810E+01 -0.13337716342E+02  0.34798646342E+02  0.51100000000E-03 0.  1.
         12    1    3    3    0    0  0.42469441067E+02  0.51297963956E+01  0.13021567004E+02  0.44716098252E+02  0.00000000000E+00 0. -1.
</event>
<event>
 7    1  0.2542335E-015  0.9000777E+02  0.7816164E-02  0.1186339E+00
        -11   -1    0    0    0    0  0.00000000000E+00  0.00000000000E+00  0.45593999997E+02  0.45594000000E+02  0.51100000000E-03 0. -1.
         11   -1    0    0    0    0 -0.00000000000E+00 -0.00000000000E+00 -0.45593999997E+02  0.45594000000E+02  0.51100000000E-03 0.  1.
    9900012    2    1    2    0    0 -0.10782288426E+01  0.44261871740E+00  0.18564265071E+00  0.90007766142E+02  0.90000027855E+02 0.  0.
        -12    1    1    2    0    0  0.10782288426E+01 -0.44261871740E+00 -0.18564265071E+00  0.11802338581E+01  0.00000000000E+00 0.  1.
         11    1    3    3    0    0 -0.20057787251E+02  0.12684138619E+02  0.35052358662E+02  0.42330486059E+02  0.51100000000E-03 0. -1.
        -11    1    3    3    0    0 -0.52713415922E+01 -0.47588080270E+01 -0.66990842330E+01  0.97627365959E+01  0.51100000000E-03 0.  1.
        -12    1    3    3    0    0  0.24250900001E+02 -0.74827118742E+01 -0.28167631779E+02  0.37914543487E+02  0.00000000000E+00 0.  1.
</event>
<event>
 7    1  0.2542335E-015  0.9000785E+02  0.7816164E-02  0.1186339E+00
        -11   -1    0    0    0    0  0.00000000000E+00  0.00000000000E+00  0.45593999997E+02  0.45594000000E+02  0.51100000000E-03 0. -1.
         11   -1    0    0    0    0 -0.00000000000E+00 -0.00000000000E+00 -0.45593999997E+02  0.45594000000E+02  0.51100000000E-03 0.  1.
    9900012    2    1    2    0    0  0.27926814988E+00  0.11440177889E+01 -0.77436431695E-01  0.90007845857E+02  0.90000108622E+02 0.  0.
        -12    1    1    2    0    0 -0.27926814988E+00 -0.11440177889E+01  0.77436431695E-01  0.11801541432E+01  0.00000000000E+00 0.  1.
         11    1    3    3    0    0  0.56567739908E+01 -0.91026421371E+01 -0.23913839477E+01  0.10980705957E+02  0.51100000000E-03 0. -1.
        -11    1    3    3    0    0  0.18568610145E+02 -0.22312947717E+02  0.19644678220E+02  0.35051024253E+02  0.51100000000E-03 0.  1.
         12    1    3    3    0    0 -0.23946115986E+02  0.32559607643E+02 -0.17330730704E+02  0.43976115647E+02  0.00000000000E+00 0. -1.
</event>
<event>
 7    1  0.2542335E-015  0.9000753E+02  0.7816164E-02  0.1186339E+00
        -11   -1    0    0    0    0  0.00000000000E+00  0.00000000000E+00  0.45593999997E+02  0.45594000000E+02  0.51100000000E-03 0.  1.
         11   -1    0    0    0    0 -0.00000000000E+00 -0.00000000000E+00 -0.45593999997E+02  0.45594000000E+02  0.51100000000E-03 0. -1.
    9900012    2    1    2    0    0 -0.58915371893E+00 -0.83223623066E+00 -0.59480517342E+00  0.90007528720E+02  0.89999787299E+02 0.  0.
        -12    1    1    2    0    0  0.58915371893E+00  0.83223623066E+00  0.59480517342E+00  0.11804712798E+01  0.00000000000E+00 0.  1.
         11    1    3    3    0    0  0.50106264902E+01 -0.12697177974E+02  0.49873198792E+01  0.14532655166E+02  0.51100000000E-03 0. -1.
        -11    1    3    3    0    0  0.32777933892E+01 -0.31160092268E+02 -0.19045456760E+01  0.31389848266E+02  0.51100000000E-03 0.  1.
         12    1    3    3    0    0 -0.88775735984E+01  0.43025034011E+02 -0.36775793766E+01  0.44085025289E+02  0.00000000000E+00 0. -1.
</event>
<event>
 7    1  0.2542335E-015  0.9000772E+02  0.7816164E-02  0.1186339E+00
        -11   -1    0    0    0    0  0.00000000000E+00  0.00000000000E+00  0.45593999997E+02  0.45594000000E+02  0.51100000000E-03 0.  1.
         11   -1    0    0    0    0 -0.00000000000E+00 -0.00000000000E+00 -0.45593999997E+02  0.45594000000E+02  0.51100000000E-03 0. -1.
    9900012    2    1    2    0    0 -0.66282397019E+00 -0.69303479767E+00 -0.68806534843E+00  0.90007717504E+02  0.89999978575E+02 0.  0.
        -12    1    1    2    0    0  0.66282397019E+00  0.69303479767E+00  0.68806534843E+00  0.11802824958E+01  0.00000000000E+00 0.  1.
         11    1    3    3    0    0  0.63660869877E+01 -0.94938847285E+01  0.49302969509E+01  0.12448644065E+02  0.51100000000E-03 0. -1.
        -11    1    3    3    0    0  0.40540326237E+01 -0.27251651575E+01  0.34253688096E+02  0.34600243555E+02  0.51100000000E-03 0.  1.
         12    1    3    3    0    0 -0.11082943582E+02  0.11526015088E+02 -0.39872050395E+02  0.42958829884E+02  0.00000000000E+00 0. -1.
</event>
<event>
 7    1  0.2542335E-015  0.9000771E+02  0.7816164E-02  0.1186339E+00
        -11   -1    0    0    0    0  0.00000000000E+00  0.00000000000E+00  0.45593999997E+02  0.45594000000E+02  0.51100000000E-03 0. -1.
         11   -1    0    0    0    0 -0.00000000000E+00 -0.00000000000E+00 -0.45593999997E+02  0.45594000000E+02  0.51100000000E-03 0.  1.
    9900012    2    1    2    0    0  0.49004893672E+00  0.75471844980E+00  0.76376536999E+00  0.90007709595E+02  0.89999970562E+02 0.  0.
        -12    1    1    2    0    0 -0.49004893672E+00 -0.75471844980E+00 -0.76376536999E+00  0.11802904046E+01  0.00000000000E+00 0.  1.
         11    1    3    3    0    0 -0.24645227000E+01  0.11087168637E+01 -0.79540599172E+01  0.84006068026E+01  0.51100000000E-03 0. -1.
        -11    1    3    3    0    0  0.34134297027E+02  0.22830150887E+02  0.11522790123E+02  0.42651385857E+02  0.51100000000E-03 0.  1.
         12    1    3    3    0    0 -0.31179725390E+02 -0.23184149301E+02 -0.28049648356E+01  0.38955716936E+02  0.00000000000E+00 0. -1.
</event>
<event>
 7    1  0.2542335E-015  0.9000826E+02  0.7816164E-02  0.1186338E+00
        -11   -1    0    0    0    0  0.00000000000E+00  0.00000000000E+00  0.45593999997E+02  0.45594000000E+02  0.51100000000E-03 0. -1.
         11   -1    0    0    0    0 -0.00000000000E+00 -0.00000000000E+00 -0.45593999997E+02  0.45594000000E+02  0.51100000000E-03 0.  1.
    9900012    2    1    2    0    0  0.47387111974E-02  0.10847975453E+01  0.46365754407E+00  0.90008259991E+02  0.90000528222E+02 0.  0.
        -12    1    1    2    0    0 -0.47387111974E-02 -0.10847975453E+01 -0.46365754407E+00  0.11797400086E+01  0.00000000000E+00 0.  1.
         11    1    3    3    0    0 -0.12961187017E+02 -0.27482090998E+01 -0.33628612527E+01  0.13669449814E+02  0.51100000000E-03 0. -1.
        -11    1    3    3    0    0 -0.13277542530E+02  0.22224702642E+02 -0.22935732169E+02  0.34587257098E+02  0.51100000000E-03 0.  1.
         12    1    3    3    0    0  0.26243468257E+02 -0.18391695997E+02  0.26762250966E+02  0.41751553080E+02  0.00000000000E+00 0. -1.
</event>
<event>
 7    1  0.2542335E-015  0.9000768E+02  0.7816164E-02  0.1186339E+00
        -11   -1    0    0    0    0  0.00000000000E+00  0.00000000000E+00  0.45593999997E+02  0.45594000000E+02  0.51100000000E-03 0. -1.
         11   -1    0    0    0    0 -0.00000000000E+00 -0.00000000000E+00 -0.45593999997E+02  0.45594000000E+02  0.51100000000E-03 0.  1.
    9900012    2    1    2    0    0  0.15030394254E+00  0.31357479386E+00  0.11279336359E+01  0.90007680249E+02  0.89999940829E+02 0.  0.
        -12    1    1    2    0    0 -0.15030394254E+00 -0.31357479386E+00 -0.11279336359E+01  0.11803197505E+01  0.00000000000E+00 0.  1.
         11    1    3    3    0    0  0.10835682434E+02 -0.22221621054E+02  0.30887143467E+02  0.39562963588E+02  0.51100000000E-03 0. -1.
        -11    1    3    3    0    0 -0.48574478575E+01 -0.59531385664E+01  0.14164799259E+01  0.78128787346E+01  0.51100000000E-03 0.  1.
        -12    1    3    3    0    0 -0.58279306337E+01  0.28488334414E+02 -0.31175689757E+02  0.42631837927E+02  0.00000000000E+00 0.  1.
</event>
<event>
 7    1  0.2542335E-015  0.9000760E+02  0.7816164E-02  0.1186339E+00
        -11   -1    0    0    0    0  0.00000000000E+00  0.00000000000E+00  0.45593999997E+02  0.45594000000E+02  0.51100000000E-03 0.  1.
         11   -1    0    0    0    0 -0.00000000000E+00 -0.00000000000E+00 -0.45593999997E+02  0.45594000000E+02  0.51100000000E-03 0. -1.
    9900012    2    1    2    0    0  0.42753008533E+00  0.89851555366E+00 -0.63499819261E+00  0.90007603931E+02  0.89999863503E+02 0.  0.
        -12    1    1    2    0    0 -0.42753008533E+00 -0.89851555366E+00  0.63499819261E+00  0.11803960686E+01  0.00000000000E+00 0.  1.
         11    1    3    3    0    0  0.27152986072E+01 -0.31272603828E+01 -0.96818564683E+01  0.10530477148E+02  0.51100000000E-03 0. -1.
        -11    1    3    3    0    0  0.20720824048E+02 -0.30821629521E+02  0.26721425313E+01  0.37235275499E+02  0.51100000000E-03 0.  1.
         12    1    3    3    0    0 -0.23008592569E+02  0.34847405457E+02  0.63747157444E+01  0.42241851285E+02  0.00000000000E+00 0. -1.
</event>
<event>
 7    1  0.2542335E-015  0.9000779E+02  0.7816164E-02  0.1186339E+00
        -11   -1    0    0    0    0  0.00000000000E+00  0.00000000000E+00  0.45593999997E+02  0.45594000000E+02  0.51100000000E-03 0. -1.
         11   -1    0    0    0    0 -0.00000000000E+00 -0.00000000000E+00 -0.45593999997E+02  0.45594000000E+02  0.51100000000E-03 0.  1.
    9900012    2    1    2    0    0 -0.64485760382E+00 -0.79261084728E+00  0.59061446352E+00  0.90007788693E+02  0.90000050704E+02 0.  0.
        -12    1    1    2    0    0  0.64485760382E+00  0.79261084728E+00 -0.59061446352E+00  0.11802113069E+01  0.00000000000E+00 0.  1.
         11    1    3    3    0    0 -0.17744760748E+02  0.99675487443E+01  0.27939971935E+02  0.34566900266E+02  0.51100000000E-03 0. -1.
        -11    1    3    3    0    0 -0.51312183629E+01  0.95556737325E+01  0.43779368144E+01  0.11696436781E+02  0.51100000000E-03 0.  1.
        -12    1    3    3    0    0  0.22231121507E+02 -0.20315833324E+02 -0.31727294286E+02  0.43744451646E+02  0.00000000000E+00 0.  1.
</event>
<event>
 7    1  0.2542335E-015  0.9000784E+02  0.7816164E-02  0.1186339E+00
        -11   -1    0    0    0    0  0.00000000000E+00  0.00000000000E+00  0.45593999997E+02  0.45594000000E+02  0.51100000000E-03 0.  1.
         11   -1    0    0    0    0 -0.00000000000E+00 -0.00000000000E+00 -0.45593999997E+02  0.45594000000E+02  0.51100000000E-03 0. -1.
    9900012    2    1    2    0    0  0.10955596336E+01  0.88733750115E-01 -0.42972305292E+00  0.90007836244E+02  0.90000098882E+02 0.  0.
        -12    1    1    2    0    0 -0.10955596336E+01 -0.88733750115E-01  0.42972305292E+00  0.11801637562E+01  0.00000000000E+00 0.  1.
         11    1    3    3    0    0 -0.26868725242E+01 -0.89513606909E+01 -0.10937657332E+01  0.94097006286E+01  0.51100000000E-03 0. -1.
        -11    1    3    3    0    0  0.29303424923E+02 -0.24661015071E+02 -0.62261407094E+00  0.38304621459E+02  0.51100000000E-03 0.  1.
         12    1    3    3    0    0 -0.25520992765E+02  0.33701109512E+02  0.12866567513E+01  0.42293514156E+02  0.00000000000E+00 0. -1.
</event>
<event>
 7    1  0.2542335E-015  0.9000768E+02  0.7816164E-02  0.1186339E+00
        -11   -1    0    0    0    0  0.00000000000E+00  0.00000000000E+00  0.45593999997E+02  0.45594000000E+02  0.51100000000E-03 0.  1.
         11   -1    0    0    0    0 -0.00000000000E+00 -0.00000000000E+00 -0.45593999997E+02  0.45594000000E+02  0.51100000000E-03 0. -1.
    9900012    2    1    2    0    0  0.10550449923E+01 -0.52877856248E+00  0.20697430649E-01  0.90007680091E+02  0.89999940668E+02 0.  0.
        -12    1    1    2    0    0 -0.10550449923E+01  0.52877856248E+00 -0.20697430649E-01  0.11803199090E+01  0.00000000000E+00 0.  1.
         11    1    3    3    0    0 -0.37464266171E+02  0.10154723522E+02 -0.26557306336E+01  0.38906844578E+02  0.51100000000E-03 0. -1.
        -11    1    3    3    0    0  0.12940854849E+01 -0.34261539935E+01  0.11578583260E+02  0.12144001771E+02  0.51100000000E-03 0.  1.
        -12    1    3    3    0    0  0.37225225678E+02 -0.72573480908E+01 -0.89021551962E+01  0.38956833743E+02  0.00000000000E+00 0.  1.
</event>
<event>
 7    1  0.2542335E-015  0.9000773E+02  0.7816164E-02  0.1186339E+00
        -11   -1    0    0    0    0  0.00000000000E+00  0.00000000000E+00  0.45593999997E+02  0.45594000000E+02  0.51100000000E-03 0.  1.
         11   -1    0    0    0    0 -0.00000000000E+00 -0.00000000000E+00 -0.45593999997E+02  0.45594000000E+02  0.51100000000E-03 0. -1.
    9900012    2    1    2    0    0 -0.94287658586E+00  0.22687828877E+00  0.67271940291E+00  0.90007728248E+02  0.89999989461E+02 0.  0.
        -12    1    1    2    0    0  0.94287658586E+00 -0.22687828877E+00 -0.67271940291E+00  0.11802717522E+01  0.00000000000E+00 0.  1.
         11    1    3    3    0    0 -0.86653414550E+01  0.35084784552E+02  0.86802632329E+01  0.37166883373E+02  0.51100000000E-03 0. -1.
        -11    1    3    3    0    0 -0.35282607948E+01  0.66251889127E+01 -0.63424286369E+01  0.98269096689E+01  0.51100000000E-03 0.  1.
        -12    1    3    3    0    0  0.11250725664E+02 -0.41483095176E+02 -0.16651151931E+01  0.43013935206E+02  0.00000000000E+00 0.  1.
</event>
<event>
 7    1  0.2542335E-015  0.9000748E+02  0.7816164E-02  0.1186340E+00
        -11   -1    0    0    0    0  0.00000000000E+00  0.00000000000E+00  0.45593999997E+02  0.45594000000E+02  0.51100000000E-03 0. -1.
         11   -1    0    0    0    0 -0.00000000000E+00 -0.00000000000E+00 -0.45593999997E+02  0.45594000000E+02  0.51100000000E-03 0.  1.
    9900012    2    1    2    0    0  0.19409184936E-02  0.13553467593E+00  0.11727074385E+01  0.90007484794E+02  0.89999742793E+02 0.  0.
        -12    1    1    2    0    0 -0.19409184936E-02 -0.13553467593E+00 -0.11727074385E+01  0.11805152061E+01  0.00000000000E+00 0.  1.
         11    1    3    3    0    0 -0.30493970446E+02  0.23433183568E+02  0.92208823780E+01  0.39547705342E+02  0.51100000000E-03 0. -1.
        -11    1    3    3    0    0  0.41425911824E+01  0.79173078340E+01 -0.81654633765E+00  0.89728241499E+01  0.51100000000E-03 0.  1.
        -12    1    3    3    0    0  0.26353320182E+02 -0.31214956726E+02 -0.72316286018E+01  0.41486955302E+02  0.00000000000E+00 0.  1.
</event>
<event>
 7    1  0.2542335E-015  0.9000756E+02  0.7816164E-02  0.1186339E+00
        -11   -1    0    0    0    0  0.00000000000E+00  0.00000000000E+00  0.45593999997E+02  0.45594000000E+02  0.51100000000E-03 0. -1.
         11   -1    0    0    0    0 -0.00000000000E+00 -0.00000000000E+00 -0.45593999997E+02  0.45594000000E+02  0.51100000000E-03 0.  1.
    9900012    2    1    2    0    0 -0.19738194970E+00 -0.98283448096E+00  0.62330835046E+00  0.90007560865E+02  0.89999819869E+02 0.  0.
        -12    1    1    2    0    0  0.19738194970E+00  0.98283448096E+00 -0.62330835046E+00  0.11804391347E+01  0.00000000000E+00 0.  1.
         11    1    3    3    0    0 -0.74762755942E-01  0.12791747210E+01 -0.98152664814E+01  0.98985521061E+01  0.51100000000E-03 0. -1.
        -11    1    3    3    0    0  0.62896976800E+01  0.16423758199E+02 -0.30186043341E+02  0.34935617114E+02  0.51100000000E-03 0.  1.
         12    1    3    3    0    0 -0.64123168737E+01 -0.18685767401E+02  0.40624618173E+02  0.45173391645E+02  0.00000000000E+00 0. -1.
</event>
<event>
 7    1  0.2542335E-015  0.9000773E+02  0.7816164E-02  0.1186339E+00
        -11   -1    0    0    0    0  0.00000000000E+00  0.00000000000E+00  0.45593999997E+02  0.45594000000E+02  0.51100000000E-03 0.  1.
         11   -1    0    0    0    0 -0.00000000000E+00 -0.00000000000E+00 -0.45593999997E+02  0.45594000000E+02  0.51100000000E-03 0. -1.
    9900012    2    1    2    0    0  0.91329379561E+00  0.74167880998E+00  0.94043725097E-01  0.90007730015E+02  0.89999991252E+02 0.  0.
        -12    1    1    2    0    0 -0.91329379561E+00 -0.74167880998E+00 -0.94043725097E-01  0.11802699846E+01  0.00000000000E+00 0.  1.
         11    1    3    3    0    0 -0.65066256656E+01  0.75615745442E+01  0.20469933243E+01  0.10183504754E+02  0.51100000000E-03 0. -1.
        -11    1    3    3    0    0  0.14971132945E+02 -0.31609773083E+02  0.24569608763E+02  0.42743166133E+02  0.51100000000E-03 0.  1.
         12    1    3    3    0    0 -0.75512134836E+01  0.24789877349E+02 -0.26522558362E+02  0.37081059129E+02  0.00000000000E+00 0. -1.
</event>
<event>
 7    1  0.2542335E-015  0.9000775E+02  0.7816164E-02  0.1186339E+00
        -11   -1    0    0    0    0  0.00000000000E+00  0.00000000000E+00  0.45593999997E+02  0.45594000000E+02  0.51100000000E-03 0. -1.
         11   -1    0    0    0    0 -0.00000000000E+00 -0.00000000000E+00 -0.45593999997E+02  0.45594000000E+02  0.51100000000E-03 0.  1.
    9900012    2    1    2    0    0 -0.10765224804E+01 -0.25263509449E-01 -0.48316972470E+00  0.90007749231E+02  0.90000010720E+02 0.  0.
        -12    1    1    2    0    0  0.10765224804E+01  0.25263509449E-01  0.48316972470E+00  0.11802507693E+01  0.00000000000E+00 0.  1.
         11    1    3    3    0    0 -0.29362004203E+01  0.98871564821E+01  0.28284987613E+01  0.10694743649E+02  0.51100000000E-03 0. -1.
        -11    1    3    3    0    0  0.29788524833E+02  0.21323514694E+02  0.37334801389E+01  0.36823733717E+02  0.51100000000E-03 0.  1.
         12    1    3    3    0    0 -0.27928846893E+02 -0.31235934686E+02 -0.70451486250E+01  0.42489271865E+02  0.00000000000E+00 0. -1.
</event>
<event>
 7    1  0.2542335E-015  0.9000770E+02  0.7816164E-02  0.1186339E+00
        -11   -1    0    0    0    0  0.00000000000E+00  0.00000000000E+00  0.45593999997E+02  0.45594000000E+02  0.51100000000E-03 0. -1.
         11   -1    0    0    0    0 -0.00000000000E+00 -0.00000000000E+00 -0.45593999997E+02  0.45594000000E+02  0.51100000000E-03 0.  1.
    9900012    2    1    2    0    0 -0.10097975393E+01  0.44750613150E+00  0.41611038275E+00  0.90007703148E+02  0.89999964030E+02 0.  0.
        -12    1    1    2    0    0  0.10097975393E+01 -0.44750613150E+00 -0.41611038275E+00  0.11802968519E+01  0.00000000000E+00 0.  1.
         11    1    3    3    0    0  0.81901340263E+01  0.32235040549E+00 -0.52005403292E+01  0.97071017883E+01  0.51100000000E-03 0. -1.
        -11    1    3    3    0    0  0.90281825064E+01 -0.30920737058E+02 -0.18330290422E+02  0.37062104727E+02  0.51100000000E-03 0.  1.
         12    1    3    3    0    0 -0.18228114072E+02  0.31045892784E+02  0.23946941134E+02  0.43238496633E+02  0.00000000000E+00 0. -1.
</event>
<event>
 7    1  0.3160602E-015  0.9000776E+02  0.7816164E-02  0.1186339E+00
        -11   -1    0    0    0    0  0.00000000000E+00  0.00000000000E+00  0.45593999997E+02  0.45594000000E+02  0.51100000000E-03 0. -1.
         11   -1    0    0    0    0 -0.00000000000E+00 -0.00000000000E+00 -0.45593999997E+02  0.45594000000E+02  0.51100000000E-03 0.  1.
    9900012    2    1    2    0    0  0.17747711542E+00 -0.20502486988E+00  0.11486704882E+01  0.90007755443E+02  0.90000017015E+02 0.  0.
        -12    1    1    2    0    0 -0.17747711542E+00  0.20502486988E+00 -0.11486704882E+01  0.11802445570E+01  0.00000000000E+00 0.  1.
         11    1    3    3    0    0  0.91190141026E+01 -0.80743217485E+00  0.41521850445E+01  0.10052313456E+02  0.51100000000E-03 0. -1.
        -11    1    3    3    0    0  0.28433618810E+02  0.19815872329E+01 -0.23825788163E+02  0.37149233484E+02  0.51100000000E-03 0.  1.
         12    1    3    3    0    0 -0.37375155798E+02 -0.13791799279E+01  0.20822273607E+02  0.42806208502E+02  0.00000000000E+00 0. -1.
</event>
<event>
 7    1  0.2542335E-015  0.9000796E+02  0.7816164E-02  0.1186339E+00
        -11   -1    0    0    0    0  0.00000000000E+00  0.00000000000E+00  0.45593999997E+02  0.45594000000E+02  0.51100000000E-03 0. -1.
         11   -1    0    0    0    0 -0.00000000000E+00 -0.00000000000E+00 -0.45593999997E+02  0.45594000000E+02  0.51100000000E-03 0.  1.
    9900012    2    1    2    0    0 -0.49818535106E-01  0.95564136013E+00  0.69047500557E+00  0.90007962700E+02  0.90000227008E+02 0.  0.
        -12    1    1    2    0    0  0.49818535106E-01 -0.95564136013E+00 -0.69047500557E+00  0.11800372998E+01  0.00000000000E+00 0.  1.
         11    1    3    3    0    0  0.33891805450E+02  0.10740115208E+02 -0.58747673985E+01  0.36034947532E+02  0.51100000000E-03 0. -1.
        -11    1    3    3    0    0  0.54161589261E+01  0.38345896705E+01 -0.75001275983E+01  0.10014527932E+02  0.51100000000E-03 0.  1.
        -12    1    3    3    0    0 -0.39357782911E+02 -0.13619063518E+02  0.14065370002E+02  0.43958487236E+02  0.00000000000E+00 0.  1.
</event>
<event>
 7    1  0.2542335E-015  0.9000769E+02  0.7816164E-02  0.1186339E+00
        -11   -1    0    0    0    0  0.00000000000E+00  0.00000000000E+00  0.45593999997E+02  0.45594000000E+02  0.51100000000E-03 0. -1.
         11   -1    0    0    0    0 -0.00000000000E+00 -0.00000000000E+00 -0.45593999997E+02  0.45594000000E+02  0.51100000000E-03 0.  1.
    9900012    2    1    2    0    0 -0.73526644131E+00  0.64805966592E+00  0.65766642268E+00  0.90007693602E+02  0.89999954357E+02 0.  0.
        -12    1    1    2    0    0  0.73526644131E+00 -0.64805966592E+00 -0.65766642268E+00  0.11803063983E+01  0.00000000000E+00 0.  1.
         11    1    3    3    0    0 -0.37810236648E+01 -0.10766689298E+02  0.27048992910E+01  0.11727498404E+02  0.51100000000E-03 0. -1.
        -11    1    3    3    0    0 -0.31219413283E+02 -0.15098087214E+02  0.21967825993E+01  0.34748091420E+02  0.51100000000E-03 0.  1.
         12    1    3    3    0    0  0.34265170506E+02  0.26512836178E+02 -0.42440154676E+01  0.43532103778E+02  0.00000000000E+00 0. -1.
</event>
<event>
 7    1  0.2542335E-015  0.9000755E+02  0.7816164E-02  0.1186339E+00
        -11   -1    0    0    0    0  0.00000000000E+00  0.00000000000E+00  0.45593999997E+02  0.45594000000E+02  0.51100000000E-03 0. -1.
         11   -1    0    0    0    0 -0.00000000000E+00 -0.00000000000E+00 -0.45593999997E+02  0.45594000000E+02  0.51100000000E-03 0.  1.
    9900012    2    1    2    0    0  0.87034507621E+00 -0.60959034880E+00  0.51416189807E+00  0.90007549492E+02  0.89999808345E+02 0.  0.
        -12    1    1    2    0    0 -0.87034507621E+00  0.60959034880E+00 -0.51416189807E+00  0.11804505083E+01  0.00000000000E+00 0.  1.
         11    1    3    3    0    0  0.28835286818E+02 -0.17196320096E+02  0.17549694631E+02  0.37883756052E+02  0.51100000000E-03 0. -1.
        -11    1    3    3    0    0  0.89429441038E+01  0.40405392944E+01 -0.64014948140E+00  0.98342258797E+01  0.51100000000E-03 0.  1.
        -12    1    3    3    0    0 -0.36907885845E+02  0.12546190453E+02 -0.16395383251E+02  0.42289567560E+02  0.00000000000E+00 0.  1.
</event>
<event>
 7    1  0.2542335E-015  0.9000763E+02  0.7816164E-02  0.1186339E+00
        -11   -1    0    0    0    0  0.00000000000E+00  0.00000000000E+00  0.45593999997E+02  0.45594000000E+02  0.51100000000E-03 0.  1.
         11   -1    0    0    0    0 -0.00000000000E+00 -0.00000000000E+00 -0.45593999997E+02  0.45594000000E+02  0.51100000000E-03 0. -1.
    9900012    2    1    2    0    0 -0.73363777897E-01 -0.10737583463E+01 -0.48470837373E+00  0.90007626569E+02  0.89999886439E+02 0.  0.
        -12    1    1    2    0    0  0.73363777897E-01  0.10737583463E+01  0.48470837373E+00  0.11803734314E+01  0.00000000000E+00 0.  1.
         11    1    3    3    0    0  0.59149393420E+01 -0.33905314906E+02 -0.17202994207E+02  0.38477264667E+02  0.51100000000E-03 0. -1.
        -11    1    3    3    0    0 -0.60954295072E+01 -0.51311495432E+01 -0.32869198221E+01  0.86189789819E+01  0.51100000000E-03 0.  1.
        -12    1    3    3    0    0  0.10712638732E+00  0.37962706103E+02  0.20005205656E+02  0.42911382920E+02  0.00000000000E+00 0.  1.
</event>
<event>
 7    1  0.2542335E-015  0.9000779E+02  0.7816164E-02  0.1186339E+00
        -11   -1    0    0    0    0  0.00000000000E+00  0.00000000000E+00  0.45593999997E+02  0.45594000000E+02  0.51100000000E-03 0.  1.
         11   -1    0    0    0    0 -0.00000000000E+00 -0.00000000000E+00 -0.45593999997E+02  0.45594000000E+02  0.51100000000E-03 0. -1.
    9900012    2    1    2    0    0 -0.33511728426E+00 -0.98768308381E+00 -0.55233732069E+00  0.90007789009E+02  0.90000051024E+02 0.  0.
        -12    1    1    2    0    0  0.33511728426E+00  0.98768308381E+00  0.55233732069E+00  0.11802109913E+01  0.00000000000E+00 0.  1.
         11    1    3    3    0    0 -0.26745818469E+02  0.21799420351E+02  0.11690791793E+02  0.36431142533E+02  0.51100000000E-03 0. -1.
        -11    1    3    3    0    0 -0.84185286632E+01  0.14200704663E+01  0.21175758314E+01  0.87961555605E+01  0.51100000000E-03 0.  1.
        -12    1    3    3    0    0  0.34829229848E+02 -0.24207173901E+02 -0.14360704945E+02  0.44780490915E+02  0.00000000000E+00 0.  1.
</event>
<event>
 7    1  0.2542335E-015  0.9000771E+02  0.7816164E-02  0.1186339E+00
        -11   -1    0    0    0    0  0.00000000000E+00  0.00000000000E+00  0.45593999997E+02  0.45594000000E+02  0.51100000000E-03 0.  1.
         11   -1    0    0    0    0 -0.00000000000E+00 -0.00000000000E+00 -0.45593999997E+02  0.45594000000E+02  0.51100000000E-03 0. -1.
    9900012    2    1    2    0    0 -0.17175080473E+00 -0.79974905980E+00 -0.85087789785E+00  0.90007707623E+02  0.89999968564E+02 0.  0.
        -12    1    1    2    0    0  0.17175080473E+00  0.79974905980E+00  0.85087789785E+00  0.11802923768E+01  0.00000000000E+00 0.  1.
         11    1    3    3    0    0  0.88808486219E+01  0.10215200777E+00  0.45516598235E+01  0.99798554442E+01  0.51100000000E-03 0. -1.
        -11    1    3    3    0    0  0.24129625853E+02  0.23955731615E+02  0.10555420089E+02  0.35602427088E+02  0.51100000000E-03 0.  1.
         12    1    3    3    0    0 -0.33182225279E+02 -0.24857632683E+02 -0.15957957811E+02  0.44425425091E+02  0.00000000000E+00 0. -1.
</event>
<event>
 7    1  0.2542335E-015  0.9000776E+02  0.7816164E-02  0.1186339E+00
        -11   -1    0    0    0    0  0.00000000000E+00  0.00000000000E+00  0.45593999997E+02  0.45594000000E+02  0.51100000000E-03 0. -1.
         11   -1    0    0    0    0 -0.00000000000E+00 -0.00000000000E+00 -0.45593999997E+02  0.45594000000E+02  0.51100000000E-03 0.  1.
    9900012    2    1    2    0    0  0.14203401573E+00 -0.71284983139E+00  0.92986201400E+00  0.90007757691E+02  0.90000019292E+02 0.  0.
        -12    1    1    2    0    0 -0.14203401573E+00  0.71284983139E+00 -0.92986201400E+00  0.11802423094E+01  0.00000000000E+00 0.  1.
         11    1    3    3    0    0  0.22820935874E+02  0.25096760885E+02 -0.48997450113E+01  0.34273167676E+02  0.51100000000E-03 0. -1.
        -11    1    3    3    0    0  0.62562849833E+01  0.84692942590E+01  0.19507693611E+01  0.10708666976E+02  0.51100000000E-03 0.  1.
        -12    1    3    3    0    0 -0.28935186841E+02 -0.34278904976E+02  0.38788376641E+01  0.45025923039E+02  0.00000000000E+00 0.  1.
</event>
<event>
 7    1  0.2542335E-015  0.9000793E+02  0.7816164E-02  0.1186339E+00
        -11   -1    0    0    0    0  0.00000000000E+00  0.00000000000E+00  0.45593999997E+02  0.45594000000E+02  0.51100000000E-03 0.  1.
         11   -1    0    0    0    0 -0.00000000000E+00 -0.00000000000E+00 -0.45593999997E+02  0.45594000000E+02  0.51100000000E-03 0. -1.
    9900012    2    1    2    0    0 -0.15676147492E+00 -0.13512186551E+00 -0.11617815242E+01  0.90007928651E+02  0.90000192509E+02 0.  0.
        -12    1    1    2    0    0  0.15676147492E+00  0.13512186551E+00  0.11617815242E+01  0.11800713489E+01  0.00000000000E+00 0.  1.
         11    1    3    3    0    0 -0.23461312010E+02  0.15897092557E+02 -0.67199873032E+01  0.29125743640E+02  0.51100000000E-03 0. -1.
        -11    1    3    3    0    0  0.20858096586E+01  0.85161570346E+01 -0.18510592914E+02  0.20482128377E+02  0.51100000000E-03 0.  1.
        -12    1    3    3    0    0  0.21218740876E+02 -0.24548371457E+02  0.24068798693E+02  0.40400056634E+02  0.00000000000E+00 0.  1.
</event>
<event>
 7    1  0.2542335E-015  0.9000779E+02  0.7816164E-02  0.1186339E+00
        -11   -1    0    0    0    0  0.00000000000E+00  0.00000000000E+00  0.45593999997E+02  0.45594000000E+02  0.51100000000E-03 0.  1.
         11   -1    0    0    0    0 -0.00000000000E+00 -0.00000000000E+00 -0.45593999997E+02  0.45594000000E+02  0.51100000000E-03 0. -1.
    9900012    2    1    2    0    0  0.10574007105E+00 -0.83541038066E+00 -0.82693162676E+00  0.90007785027E+02  0.90000046990E+02 0.  0.
        -12    1    1    2    0    0 -0.10574007105E+00  0.83541038066E+00  0.82693162676E+00  0.11802149728E+01  0.00000000000E+00 0.  1.
         11    1    3    3    0    0 -0.10300083301E+02 -0.18243398468E+02 -0.23478146198E+02  0.31466436926E+02  0.51100000000E-03 0. -1.
        -11    1    3    3    0    0 -0.42876087464E+01 -0.10206791045E+02 -0.88307132055E+01  0.14161344152E+02  0.51100000000E-03 0.  1.
        -12    1    3    3    0    0  0.14693432119E+02  0.27614779133E+02  0.31481927776E+02  0.44380003949E+02  0.00000000000E+00 0.  1.
</event>
<event>
 7    1  0.2542335E-015  0.9000819E+02  0.7816164E-02  0.1186338E+00
        -11   -1    0    0    0    0  0.00000000000E+00  0.00000000000E+00  0.45593999997E+02  0.45594000000E+02  0.51100000000E-03 0. -1.
         11   -1    0    0    0    0 -0.00000000000E+00 -0.00000000000E+00 -0.45593999997E+02  0.45594000000E+02  0.51100000000E-03 0.  1.
    9900012    2    1    2    0    0 -0.15588914300E+00 -0.77421079097E+00 -0.87650086174E+00  0.90008187500E+02  0.90000454774E+02 0.  0.
        -12    1    1    2    0    0  0.15588914300E+00  0.77421079097E+00  0.87650086174E+00  0.11798124997E+01  0.00000000000E+00 0.  1.
         11    1    3    3    0    0 -0.20613052264E+01 -0.83378579885E+01 -0.30870106328E+01  0.91268006432E+01  0.51100000000E-03 0. -1.
        -11    1    3    3    0    0  0.26849317025E+02  0.11035431776E+02 -0.28827841626E+02  0.40911013582E+02  0.51100000000E-03 0.  1.
         12    1    3    3    0    0 -0.24943900942E+02 -0.34717845783E+01  0.31038351397E+02  0.39970373276E+02  0.00000000000E+00 0. -1.
</event>
<event>
 7    1  0.2542335E-015  0.9000787E+02  0.7816164E-02  0.1186339E+00
        -11   -1    0    0    0    0  0.00000000000E+00  0.00000000000E+00  0.45593999997E+02  0.45594000000E+02  0.51100000000E-03 0.  1.
         11   -1    0    0    0    0 -0.00000000000E+00 -0.00000000000E+00 -0.45593999997E+02  0.45594000000E+02  0.51100000000E-03 0. -1.
    9900012    2    1    2    0    0  0.11142442183E+00 -0.11037175249E+01  0.40261341601E+00  0.90007870626E+02  0.90000133718E+02 0.  0.
        -12    1    1    2    0    0 -0.11142442183E+00  0.11037175249E+01 -0.40261341601E+00  0.11801293740E+01  0.00000000000E+00 0.  1.
         11    1    3    3    0    0 -0.37218698827E+01 -0.47703313812E+01 -0.70554400621E+01  0.92944936195E+01  0.51100000000E-03 0. -1.
        -11    1    3    3    0    0 -0.16246738147E+02  0.63828369246E+00  0.39535528108E+02  0.42748355402E+02  0.51100000000E-03 0.  1.
         12    1    3    3    0    0  0.20080032452E+02  0.30283301638E+01 -0.32077474630E+02  0.37965021605E+02  0.00000000000E+00 0. -1.
</event>
<event>
 7    1  0.2542335E-015  0.9000767E+02  0.7816164E-02  0.1186339E+00
        -11   -1    0    0    0    0  0.00000000000E+00  0.00000000000E+00  0.45593999997E+02  0.45594000000E+02  0.51100000000E-03 0. -1.
         11   -1    0    0    0    0 -0.00000000000E+00 -0.00000000000E+00 -0.45593999997E+02  0.45594000000E+02  0.51100000000E-03 0.  1.
    9900012    2    1    2    0    0 -0.81912849358E+00 -0.55030249182E+00  0.64759437861E+00  0.90007668351E+02  0.89999928774E+02 0.  0.
        -12    1    1    2    0    0  0.81912849358E+00  0.55030249182E+00 -0.64759437861E+00  0.11803316486E+01  0.00000000000E+00 0.  1.
         11    1    3    3    0    0 -0.34153263970E+01  0.67565810691E+01  0.70243665750E+01  0.10327515102E+02  0.51100000000E-03 0. -1.
        -11    1    3    3    0    0  0.23868593603E+02 -0.36046415183E+02  0.66451295347E+00  0.43237661660E+02  0.51100000000E-03 0.  1.
         12    1    3    3    0    0 -0.21272395699E+02  0.28739531622E+02 -0.70412851498E+01  0.36442491589E+02  0.00000000000E+00 0. -1.
</event>
<event>
 7    1  0.2542335E-015  0.9000783E+02  0.7816164E-02  0.1186339E+00
        -11   -1    0    0    0    0  0.00000000000E+00  0.00000000000E+00  0.45593999997E+02  0.45594000000E+02  0.51100000000E-03 0. -1.
         11   -1    0    0    0    0 -0.00000000000E+00 -0.00000000000E+00 -0.45593999997E+02  0.45594000000E+02  0.51100000000E-03 0.  1.
    9900012    2    1    2    0    0 -0.14144374107E-01  0.61550253844E+00  0.10068533969E+01  0.90007831707E+02  0.90000094285E+02 0.  0.
        -12    1    1    2    0    0  0.14144374107E-01 -0.61550253844E+00 -0.10068533969E+01  0.11801682935E+01  0.00000000000E+00 0.  1.
         11    1    3    3    0    0 -0.41498282558E+02 -0.77086074175E+01  0.10422173042E+02  0.43475875779E+02  0.51100000000E-03 0. -1.
        -11    1    3    3    0    0  0.54321076624E+01 -0.16546053651E+01 -0.70460877636E+01  0.90494676973E+01  0.51100000000E-03 0.  1.
        -12    1    3    3    0    0  0.36052030522E+02  0.99787153210E+01 -0.23692318815E+01  0.37482488230E+02  0.00000000000E+00 0.  1.
</event>
<event>
 7    1  0.2542335E-015  0.9000776E+02  0.7816164E-02  0.1186339E+00
        -11   -1    0    0    0    0  0.00000000000E+00  0.00000000000E+00  0.45593999997E+02  0.45594000000E+02  0.51100000000E-03 0. -1.
         11   -1    0    0    0    0 -0.00000000000E+00 -0.00000000000E+00 -0.45593999997E+02  0.45594000000E+02  0.51100000000E-03 0.  1.
    9900012    2    1    2    0    0 -0.64819891962E+00 -0.93935450076E-01  0.98182229964E+00  0.90007762424E+02  0.90000024088E+02 0.  0.
        -12    1    1    2    0    0  0.64819891962E+00  0.93935450076E-01 -0.98182229964E+00  0.11802375762E+01  0.00000000000E+00 0.  1.
         11    1    3    3    0    0 -0.39676432909E+01 -0.37355999004E+02 -0.13581804806E+02  0.39945941933E+02  0.51100000000E-03 0. -1.
        -11    1    3    3    0    0  0.11031354145E+02  0.44385142962E+01 -0.26827981243E+01  0.12189691934E+02  0.51100000000E-03 0.  1.
        -12    1    3    3    0    0 -0.77119097733E+01  0.32823549257E+02  0.17246425230E+02  0.37872128557E+02  0.00000000000E+00 0.  1.
</event>
<event>
 7    1  0.2542335E-015  0.9000745E+02  0.7816164E-02  0.1186340E+00
        -11   -1    0    0    0    0  0.00000000000E+00  0.00000000000E+00  0.45593999997E+02  0.45594000000E+02  0.51100000000E-03 0. -1.
         11   -1    0    0    0    0 -0.00000000000E+00 -0.00000000000E+00 -0.45593999997E+02  0.45594000000E+02  0.51100000000E-03 0.  1.
    9900012    2    1    2    0    0 -0.72306074024E+00  0.87290824117E+00  0.33001265919E+00  0.90007451828E+02  0.89999709391E+02 0.  0.
        -12    1    1    2    0    0  0.72306074024E+00 -0.87290824117E+00 -0.33001265919E+00  0.11805481722E+01  0.00000000000E+00 0.  1.
         11    1    3    3    0    0 -0.67103324512E+01 -0.32589833695E+02 -0.23354715297E+02  0.40651796378E+02  0.51100000000E-03 0. -1.
        -11    1    3    3    0    0  0.56844364559E+01 -0.22404672662E+01  0.87068867843E+01  0.10636841125E+02  0.51100000000E-03 0.  1.
        -12    1    3    3    0    0  0.30283525511E+00  0.35703209203E+02  0.14977841171E+02  0.38718814325E+02  0.00000000000E+00 0.  1.
</event>
<event>
 7    1  0.2542335E-015  0.9000776E+02  0.7816164E-02  0.1186339E+00
        -11   -1    0    0    0    0  0.00000000000E+00  0.00000000000E+00  0.45593999997E+02  0.45594000000E+02  0.51100000000E-03 0.  1.
         11   -1    0    0    0    0 -0.00000000000E+00 -0.00000000000E+00 -0.45593999997E+02  0.45594000000E+02  0.51100000000E-03 0. -1.
    9900012    2    1    2    0    0 -0.91272158360E+00 -0.41526600469E+00 -0.62246554461E+00  0.90007758542E+02  0.90000020155E+02 0.  0.
        -12    1    1    2    0    0  0.91272158360E+00  0.41526600469E+00  0.62246554461E+00  0.11802414575E+01  0.00000000000E+00 0.  1.
         11    1    3    3    0    0  0.52314111760E+01 -0.11082939799E+01 -0.30178497737E+01  0.61403091091E+01  0.51100000000E-03 0. -1.
        -11    1    3    3    0    0 -0.25896392223E+02 -0.34518864052E+02 -0.23443941997E+01  0.43216562682E+02  0.51100000000E-03 0.  1.
         12    1    3    3    0    0  0.19752259464E+02  0.35211892028E+02  0.47397784288E+01  0.40650886751E+02  0.00000000000E+00 0. -1.
</event>
<event>
 7    1  0.2542335E-015  0.9000772E+02  0.7816164E-02  0.1186339E+00
        -11   -1    0    0    0    0  0.00000000000E+00  0.00000000000E+00  0.45593999997E+02  0.45594000000E+02  0.51100000000E-03 0.  1.
         11   -1    0    0    0    0 -0.00000000000E+00 -0.00000000000E+00 -0.45593999997E+02  0.45594000000E+02  0.51100000000E-03 0. -1.
    9900012    2    1    2    0    0 -0.47055078240E+00 -0.58318949284E-01 -0.10808534125E+01  0.90007719000E+02  0.89999980091E+02 0.  0.
        -12    1    1    2    0    0  0.47055078240E+00  0.58318949284E-01  0.10808534125E+01  0.11802809996E+01  0.00000000000E+00 0.  1.
         11    1    3    3    0    0  0.86505938968E+01 -0.35170724597E+02  0.20127237999E+02  0.41435713499E+02  0.51100000000E-03 0. -1.
        -11    1    3    3    0    0  0.69496518992E+01  0.57366583507E+01 -0.14295852942E+00  0.90126215917E+01  0.51100000000E-03 0.  1.
        -12    1    3    3    0    0 -0.16070796578E+02  0.29375747297E+02 -0.21065132882E+02  0.39559383909E+02  0.00000000000E+00 0.  1.
</event>
<event>
 7    1  0.2542335E-015  0.9000807E+02  0.7816164E-02  0.1186338E+00
        -11   -1    0    0    0    0  0.00000000000E+00  0.00000000000E+00  0.45593999997E+02  0.45594000000E+02  0.51100000000E-03 0. -1.
         11   -1    0    0    0    0 -0.00000000000E+00 -0.00000000000E+00 -0.45593999997E+02  0.45594000000E+02  0.51100000000E-03 0.  1.
    9900012    2    1    2    0    0 -0.10885497527E+01  0.23759727613E+00  0.38836937814E+00  0.90008074662E+02  0.90000340447E+02 0.  0.
        -12    1    1    2    0    0  0.10885497527E+01 -0.23759727613E+00 -0.38836937814E+00  0.11799253382E+01  0.00000000000E+00 0.  1.
         11    1    3    3    0    0  0.69118720960E+01 -0.69685209876E+01 -0.32807156312E+01  0.10348785240E+02  0.51100000000E-03 0. -1.
        -11    1    3    3    0    0  0.18313012475E+02 -0.24268172894E+02  0.19014022000E+02  0.35858662474E+02  0.51100000000E-03 0.  1.
         12    1    3    3    0    0 -0.26313434324E+02  0.31474291158E+02 -0.15344936990E+02  0.43800626948E+02  0.00000000000E+00 0. -1.
</event>
<event>
 7    1  0.2542335E-015  0.9000771E+02  0.7816164E-02  0.1186339E+00
        -11   -1    0    0    0    0  0.00000000000E+00  0.00000000000E+00  0.45593999997E+02  0.45594000000E+02  0.51100000000E-03 0. -1.
         11   -1    0    0    0    0 -0.00000000000E+00 -0.00000000000E+00 -0.45593999997E+02  0.45594000000E+02  0.51100000000E-03 0.  1.
    9900012    2    1    2    0    0 -0.61395554554E+00  0.74407631693E+00  0.68006372381E+00  0.90007712897E+02  0.89999973907E+02 0.  0.
        -12    1    1    2    0    0  0.61395554554E+00 -0.74407631693E+00 -0.68006372381E+00  0.11802871031E+01  0.00000000000E+00 0.  1.
         11    1    3    3    0    0 -0.16224763977E+01  0.58322283177E+01  0.18543510307E+02  0.19506642242E+02  0.51100000000E-03 0. -1.
        -11    1    3    3    0    0 -0.12195904809E+01 -0.33820102074E+02 -0.23415329770E+02  0.41152938823E+02  0.51100000000E-03 0.  1.
         12    1    3    3    0    0  0.22281113330E+01  0.28731950073E+02  0.55518831876E+01  0.29348131832E+02  0.00000000000E+00 0. -1.
</event>
<event>
 7    1  0.2542335E-015  0.9000772E+02  0.7816164E-02  0.1186339E+00
        -11   -1    0    0    0    0  0.00000000000E+00  0.00000000000E+00  0.45593999997E+02  0.45594000000E+02  0.51100000000E-03 0. -1.
         11   -1    0    0    0    0 -0.00000000000E+00 -0.00000000000E+00 -0.45593999997E+02  0.45594000000E+02  0.51100000000E-03 0.  1.
    9900012    2    1    2    0    0 -0.16563688093E+00 -0.11220019600E+01  0.32671012332E+00  0.90007718898E+02  0.89999979988E+02 0.  0.
        -12    1    1    2    0    0  0.16563688093E+00  0.11220019600E+01 -0.32671012332E+00  0.11802811018E+01  0.00000000000E+00 0.  1.
         11    1    3    3    0    0 -0.17908336372E+01  0.36245585143E+02 -0.11309731557E+02  0.38011308260E+02  0.51100000000E-03 0. -1.
        -11    1    3    3    0    0 -0.59572814647E+01  0.35108658936E+01  0.75222390378E+01  0.10217605501E+02  0.51100000000E-03 0.  1.
        -12    1    3    3    0    0  0.75824782209E+01 -0.40878452996E+02  0.41142026427E+01  0.41778805138E+02  0.00000000000E+00 0.  1.
</event>
<event>
 7    1  0.2542335E-015  0.9000776E+02  0.7816164E-02  0.1186339E+00
        -11   -1    0    0    0    0  0.00000000000E+00  0.00000000000E+00  0.45593999997E+02  0.45594000000E+02  0.51100000000E-03 0.  1.
         11   -1    0    0    0    0 -0.00000000000E+00 -0.00000000000E+00 -0.45593999997E+02  0.45594000000E+02  0.51100000000E-03 0. -1.
    9900012    2    1    2    0    0 -0.11625420527E+01 -0.13497664454E+00  0.15243255127E+00  0.90007763413E+02  0.90000025090E+02 0.  0.
        -12    1    1    2    0    0  0.11625420527E+01  0.13497664454E+00 -0.15243255127E+00  0.11802365871E+01  0.00000000000E+00 0.  1.
         11    1    3    3    0    0 -0.14264511984E+02  0.48395912949E+00 -0.16590194276E+02  0.21884813570E+02  0.51100000000E-03 0. -1.
        -11    1    3    3    0    0 -0.22791434647E+02 -0.11603046413E+02  0.16776505788E+02  0.30586456579E+02  0.51100000000E-03 0.  1.
         12    1    3    3    0    0  0.35893404579E+02  0.10984110639E+02 -0.33878960478E-01  0.37536493264E+02  0.00000000000E+00 0. -1.
</event>
<event>
 7    1  0.2542335E-015  0.9000776E+02  0.7816164E-02  0.1186339E+00
        -11   -1    0    0    0    0  0.00000000000E+00  0.00000000000E+00  0.45593999997E+02  0.45594000000E+02  0.51100000000E-03 0. -1.
         11   -1    0    0    0    0 -0.00000000000E+00 -0.00000000000E+00 -0.45593999997E+02  0.45594000000E+02  0.51100000000E-03 0.  1.
    9900012    2    1    2    0    0  0.96178200245E+00 -0.34670262888E+00  0.58969401822E+00  0.90007760038E+02  0.90000021670E+02 0.  0.
        -12    1    1    2    0    0 -0.96178200245E+00  0.34670262888E+00 -0.58969401822E+00  0.11802399621E+01  0.00000000000E+00 0.  1.
         11    1    3    3    0    0 -0.14334863159E+01  0.64932577672E+01 -0.55997256297E+01  0.86933426735E+01  0.51100000000E-03 0. -1.
        -11    1    3    3    0    0  0.26918740577E+00  0.34026123318E+02 -0.12600563706E+02  0.36285310194E+02  0.51100000000E-03 0.  1.
         12    1    3    3    0    0  0.21260809126E+01 -0.40866083714E+02  0.18789983354E+02  0.45029107171E+02  0.00000000000E+00 0. -1.
</event>
<event>
 7    1  0.2542335E-015  0.9000774E+02  0.7816164E-02  0.1186339E+00
        -11   -1    0    0    0    0  0.00000000000E+00  0.00000000000E+00  0.45593999997E+02  0.45594000000E+02  0.51100000000E-03 0.  1.
         11   -1    0    0    0    0 -0.00000000000E+00 -0.00000000000E+00 -0.45593999997E+02  0.45594000000E+02  0.51100000000E-03 0. -1.
    9900012    2    1    2    0    0 -0.67669948948E+00 -0.93457157992E+00  0.24834518759E+00  0.90007736653E+02  0.89999997976E+02 0.  0.
        -12    1    1    2    0    0  0.67669948948E+00  0.93457157992E+00 -0.24834518759E+00  0.11802633474E+01  0.00000000000E+00 0.  1.
         11    1    3    3    0    0  0.39139493180E+01 -0.36233534010E+02  0.78910320623E+01  0.37288823706E+02  0.51100000000E-03 0. -1.
        -11    1    3    3    0    0 -0.40714740048E+01 -0.72027910126E+01 -0.59300150209E+01  0.10179497893E+02  0.51100000000E-03 0.  1.
        -12    1    3    3    0    0 -0.51917480260E+00  0.42501753443E+02 -0.17126718538E+01  0.42539415053E+02  0.00000000000E+00 0.  1.
</event>
<event>
 7    1  0.2542335E-015  0.9000718E+02  0.7816164E-02  0.1186340E+00
        -11   -1    0    0    0    0  0.00000000000E+00  0.00000000000E+00  0.45593999997E+02  0.45594000000E+02  0.51100000000E-03 0.  1.
         11   -1    0    0    0    0 -0.00000000000E+00 -0.00000000000E+00 -0.45593999997E+02  0.45594000000E+02  0.51100000000E-03 0. -1.
    9900012    2    1    2    0    0  0.97582829907E+00  0.44367073052E+00 -0.49521867651E+00  0.90007184128E+02  0.89999438157E+02 0.  0.
        -12    1    1    2    0    0 -0.97582829907E+00 -0.44367073052E+00  0.49521867651E+00  0.11808158722E+01  0.00000000000E+00 0.  1.
         11    1    3    3    0    0  0.11041337964E+02 -0.13562529454E+01  0.69453033329E+01  0.13114412100E+02  0.51100000000E-03 0. -1.
        -11    1    3    3    0    0  0.21740485277E+02  0.18803097072E+01  0.23814321262E+02  0.32300250187E+02  0.51100000000E-03 0.  1.
         12    1    3    3    0    0 -0.31805994943E+02 -0.80386031294E-01 -0.31254843271E+02  0.44592521841E+02  0.00000000000E+00 0. -1.
</event>
<event>
 7    1  0.2542335E-015  0.9000774E+02  0.7816164E-02  0.1186339E+00
        -11   -1    0    0    0    0  0.00000000000E+00  0.00000000000E+00  0.45593999997E+02  0.45594000000E+02  0.51100000000E-03 0.  1.
         11   -1    0    0    0    0 -0.00000000000E+00 -0.00000000000E+00 -0.45593999997E+02  0.45594000000E+02  0.51100000000E-03 0. -1.
    9900012    2    1    2    0    0  0.30519152854E+00  0.11119582090E+01  0.25185715608E+00  0.90007735218E+02  0.89999996523E+02 0.  0.
        -12    1    1    2    0    0 -0.30519152854E+00 -0.11119582090E+01 -0.25185715608E+00  0.11802647816E+01  0.00000000000E+00 0.  1.
         11    1    3    3    0    0  0.11868511337E+02 -0.18418191879E+02 -0.32841018351E+02  0.39479410331E+02  0.51100000000E-03 0. -1.
        -11    1    3    3    0    0  0.69885587804E+01 -0.40992185693E+01  0.79877172054E+01  0.11377485360E+02  0.51100000000E-03 0.  1.
        -12    1    3    3    0    0 -0.18551878589E+02  0.23629368657E+02  0.25105158302E+02  0.39150839527E+02  0.00000000000E+00 0.  1.
</event>
<event>
 7    1  0.2542335E-015  0.9000778E+02  0.7816164E-02  0.1186339E+00
        -11   -1    0    0    0    0  0.00000000000E+00  0.00000000000E+00  0.45593999997E+02  0.45594000000E+02  0.51100000000E-03 0. -1.
         11   -1    0    0    0    0 -0.00000000000E+00 -0.00000000000E+00 -0.45593999997E+02  0.45594000000E+02  0.51100000000E-03 0.  1.
    9900012    2    1    2    0    0  0.38364291587E-01 -0.12155421045E+00  0.11733169717E+01  0.90007779698E+02  0.90000041590E+02 0.  0.
        -12    1    1    2    0    0 -0.38364291587E-01  0.12155421045E+00 -0.11733169717E+01  0.11802203019E+01  0.00000000000E+00 0.  1.
         11    1    3    3    0    0 -0.22735215408E+01  0.29736770270E+01  0.28895186051E+02  0.29136633856E+02  0.51100000000E-03 0. -1.
        -11    1    3    3    0    0  0.30298595976E-01 -0.26889519017E+02 -0.39833055055E+01  0.27182970294E+02  0.51100000000E-03 0.  1.
        -12    1    3    3    0    0  0.22815872364E+01  0.23794287780E+02 -0.23738563574E+02  0.33688175549E+02  0.00000000000E+00 0.  1.
</event>
<event>
 8    1  0.2542335E-015  0.9000715E+02  0.7816164E-02  0.1186340E+00
        -11   -1    0    0    0    0  0.00000000000E+00  0.00000000000E+00  0.45593999997E+02  0.45594000000E+02  0.51100000000E-03 0.  1.
         11   -1    0    0    0    0 -0.00000000000E+00 -0.00000000000E+00 -0.45593999997E+02  0.45594000000E+02  0.51100000000E-03 0. -1.
    9900012    2    1    2    0    0 -0.68541773442E+00 -0.92293136522E+00  0.26982721334E+00  0.90007150094E+02  0.89999403673E+02 0.  0.
         23    2    3    3    0    0 -0.24586424091E+02 -0.78127857037E+01  0.10669281555E+02  0.63046496388E+02  0.56528711890E+02 0.  0.
        -12    1    1    2    0    0  0.68541773442E+00  0.92293136522E+00 -0.26982721334E+00  0.11808499061E+01  0.00000000000E+00 0.  1.
         11    1    4    4    0    0  0.12680030213E+02  0.13319664820E+02  0.81963619267E+01  0.20133975917E+02  0.51100000000E-03 0. -1.
        -11    1    4    4    0    0 -0.37266454304E+02 -0.21132450523E+02  0.24729196282E+01  0.42912520472E+02  0.51100000000E-03 0.  1.
         12    1    3    3    0    0  0.23901006356E+02  0.68898543384E+01 -0.10399454341E+02  0.26960653706E+02  0.00000000000E+00 0. -1.
</event>
<event>
 7    1  0.2542335E-015  0.9000763E+02  0.7816164E-02  0.1186339E+00
        -11   -1    0    0    0    0  0.00000000000E+00  0.00000000000E+00  0.45593999997E+02  0.45594000000E+02  0.51100000000E-03 0. -1.
         11   -1    0    0    0    0 -0.00000000000E+00 -0.00000000000E+00 -0.45593999997E+02  0.45594000000E+02  0.51100000000E-03 0.  1.
    9900012    2    1    2    0    0 -0.69831883163E+00  0.89456205753E+00  0.32464261894E+00  0.90007625782E+02  0.89999885642E+02 0.  0.
        -12    1    1    2    0    0  0.69831883163E+00 -0.89456205753E+00 -0.32464261894E+00  0.11803742184E+01  0.00000000000E+00 0.  1.
         11    1    3    3    0    0  0.14791476941E+02  0.26934370893E+02 -0.17176527991E+02  0.35203426532E+02  0.51100000000E-03 0. -1.
        -11    1    3    3    0    0  0.11925454404E+02 -0.13103544501E+01 -0.32790085608E+01  0.12437258095E+02  0.51100000000E-03 0.  1.
        -12    1    3    3    0    0 -0.27415250176E+02 -0.24729454385E+02  0.20780179171E+02  0.42366941155E+02  0.00000000000E+00 0.  1.
</event>
<event>
 7    1  0.2542335E-015  0.9000801E+02  0.7816164E-02  0.1186339E+00
        -11   -1    0    0    0    0  0.00000000000E+00  0.00000000000E+00  0.45593999997E+02  0.45594000000E+02  0.51100000000E-03 0. -1.
         11   -1    0    0    0    0 -0.00000000000E+00 -0.00000000000E+00 -0.45593999997E+02  0.45594000000E+02  0.51100000000E-03 0.  1.
    9900012    2    1    2    0    0  0.38108561588E+00  0.61231421583E+00  0.93393382966E+00  0.90008005363E+02  0.90000270233E+02 0.  0.
        -12    1    1    2    0    0 -0.38108561588E+00 -0.61231421583E+00 -0.93393382966E+00  0.11799946372E+01  0.00000000000E+00 0.  1.
         11    1    3    3    0    0  0.20408857779E+02  0.23965103381E+02 -0.22549676897E+02  0.38721254943E+02  0.51100000000E-03 0. -1.
        -11    1    3    3    0    0  0.72352955809E+01  0.24118655769E+01  0.13891115156E+01  0.77521757441E+01  0.51100000000E-03 0.  1.
        -12    1    3    3    0    0 -0.27263067744E+02 -0.25764654742E+02  0.22094499211E+02  0.43534574676E+02  0.00000000000E+00 0.  1.
</event>
<event>
 7    1  0.3765320E-015  0.9000774E+02  0.7816164E-02  0.1186339E+00
        -11   -1    0    0    0    0  0.00000000000E+00  0.00000000000E+00  0.45593999997E+02  0.45594000000E+02  0.51100000000E-03 0.  1.
         11   -1    0    0    0    0 -0.00000000000E+00 -0.00000000000E+00 -0.45593999997E+02  0.45594000000E+02  0.51100000000E-03 0. -1.
    9900012    2    1    2    0    0 -0.49861020885E+00 -0.77059194586E+00 -0.74202013442E+00  0.90007738179E+02  0.89999999522E+02 0.  0.
        -12    1    1    2    0    0  0.49861020885E+00  0.77059194586E+00  0.74202013442E+00  0.11802618215E+01  0.00000000000E+00 0.  1.
         11    1    3    3    0    0  0.76520919948E+01  0.91825890390E+00 -0.53415955045E+01  0.93771186463E+01  0.51100000000E-03 0. -1.
        -11    1    3    3    0    0  0.25289199104E+02  0.60387201834E+01  0.28674865386E+02  0.38707333129E+02  0.51100000000E-03 0.  1.
         12    1    3    3    0    0 -0.33439901308E+02 -0.77275710332E+01 -0.24075290016E+02  0.41923286404E+02  0.00000000000E+00 0. -1.
</event>
<event>
 7    1  0.2542335E-015  0.9000775E+02  0.7816164E-02  0.1186339E+00
        -11   -1    0    0    0    0  0.00000000000E+00  0.00000000000E+00  0.45593999997E+02  0.45594000000E+02  0.51100000000E-03 0. -1.
         11   -1    0    0    0    0 -0.00000000000E+00 -0.00000000000E+00 -0.45593999997E+02  0.45594000000E+02  0.51100000000E-03 0.  1.
    9900012    2    1    2    0    0 -0.36625295476E+00 -0.11218504924E+01 -0.17655977802E-01  0.90007745160E+02  0.90000006596E+02 0.  0.
        -12    1    1    2    0    0  0.36625295476E+00  0.11218504924E+01  0.17655977802E-01  0.11802548402E+01  0.00000000000E+00 0.  1.
         11    1    3    3    0    0  0.50649800486E+01 -0.31358304485E+02  0.17217161293E+02  0.36130706142E+02  0.51100000000E-03 0. -1.
        -11    1    3    3    0    0  0.57843092028E+01 -0.75980053175E+01  0.23329821829E+01  0.98300927709E+01  0.51100000000E-03 0.  1.
        -12    1    3    3    0    0 -0.11215542206E+02  0.37834459310E+02 -0.19567799454E+02  0.44046946247E+02  0.00000000000E+00 0.  1.
</event>
<event>
 7    1  0.2542335E-015  0.9000767E+02  0.7816164E-02  0.1186339E+00
        -11   -1    0    0    0    0  0.00000000000E+00  0.00000000000E+00  0.45593999997E+02  0.45594000000E+02  0.51100000000E-03 0.  1.
         11   -1    0    0    0    0 -0.00000000000E+00 -0.00000000000E+00 -0.45593999997E+02  0.45594000000E+02  0.51100000000E-03 0. -1.
    9900012    2    1    2    0    0 -0.28890046856E+00  0.19850272875E+00 -0.11270794830E+01  0.90007671666E+02  0.89999932132E+02 0.  0.
        -12    1    1    2    0    0  0.28890046856E+00 -0.19850272875E+00  0.11270794830E+01  0.11803283335E+01  0.00000000000E+00 0.  1.
         11    1    3    3    0    0 -0.11665059465E+02  0.26267541490E+02 -0.25420178650E+02  0.38369816668E+02  0.51100000000E-03 0. -1.
        -11    1    3    3    0    0  0.66853803576E+01  0.26867318754E+01 -0.61690638919E+01  0.94852616337E+01  0.51100000000E-03 0.  1.
        -12    1    3    3    0    0  0.46907786392E+01 -0.28755770637E+02  0.30462163059E+02  0.42152593365E+02  0.00000000000E+00 0.  1.
</event>
<event>
 7    1  0.2542335E-015  0.9000780E+02  0.7816164E-02  0.1186339E+00
        -11   -1    0    0    0    0  0.00000000000E+00  0.00000000000E+00  0.45593999997E+02  0.45594000000E+02  0.51100000000E-03 0. -1.
         11   -1    0    0    0    0 -0.00000000000E+00 -0.00000000000E+00 -0.45593999997E+02  0.45594000000E+02  0.51100000000E-03 0.  1.
    9900012    2    1    2    0    0 -0.79787533786E-01  0.10282770590E+01  0.57371269070E+00  0.90007802554E+02  0.90000064747E+02 0.  0.
        -12    1    1    2    0    0  0.79787533786E-01 -0.10282770590E+01 -0.57371269070E+00  0.11801974462E+01  0.00000000000E+00 0.  1.
         11    1    3    3    0    0 -0.39875104951E+01 -0.71934642036E+01  0.69554980478E+01  0.10771495743E+02  0.51100000000E-03 0. -1.
        -11    1    3    3    0    0 -0.19962989514E+01 -0.32354698855E+02 -0.17382381175E+02  0.36782589945E+02  0.51100000000E-03 0.  1.
         12    1    3    3    0    0  0.59040219127E+01  0.40576440117E+02  0.11000595818E+02  0.42453716865E+02  0.00000000000E+00 0. -1.
</event>
<event>
 7    1  0.2542335E-015  0.9000778E+02  0.7816164E-02  0.1186339E+00
        -11   -1    0    0    0    0  0.00000000000E+00  0.00000000000E+00  0.45593999997E+02  0.45594000000E+02  0.51100000000E-03 0. -1.
         11   -1    0    0    0    0 -0.00000000000E+00 -0.00000000000E+00 -0.45593999997E+02  0.45594000000E+02  0.51100000000E-03 0.  1.
    9900012    2    1    2    0    0  0.54680544907E+00 -0.72287707355E+00  0.75589583010E+00  0.90007777153E+02  0.90000039011E+02 0.  0.
        -12    1    1    2    0    0 -0.54680544907E+00  0.72287707355E+00 -0.75589583010E+00  0.11802228470E+01  0.00000000000E+00 0.  1.
         11    1    3    3    0    0  0.28688118931E+02 -0.21354340571E+02  0.16698462329E+02  0.39469667765E+02  0.51100000000E-03 0. -1.
        -11    1    3    3    0    0 -0.43221725525E+01  0.61176175174E+01  0.99673117118E+01  0.12468108224E+02  0.51100000000E-03 0.  1.
        -12    1    3    3    0    0 -0.23819140930E+02  0.14513845980E+02 -0.25909878210E+02  0.38070001164E+02  0.00000000000E+00 0.  1.
</event>
<event>
 7    1  0.2542335E-015  0.9000774E+02  0.7816164E-02  0.1186339E+00
        -11   -1    0    0    0    0  0.00000000000E+00  0.00000000000E+00  0.45593999997E+02  0.45594000000E+02  0.51100000000E-03 0.  1.
         11   -1    0    0    0    0 -0.00000000000E+00 -0.00000000000E+00 -0.45593999997E+02  0.45594000000E+02  0.51100000000E-03 0. -1.
    9900012    2    1    2    0    0 -0.51689394882E+00  0.40622174175E+00  0.98021458223E+00  0.90007738976E+02  0.90000000330E+02 0.  0.
        -12    1    1    2    0    0  0.51689394882E+00 -0.40622174175E+00 -0.98021458223E+00  0.11802610241E+01  0.00000000000E+00 0.  1.
         11    1    3    3    0    0 -0.37227014963E+02  0.25596184792E+01 -0.30734611073E+01  0.37441266715E+02  0.51100000000E-03 0. -1.
        -11    1    3    3    0    0 -0.56079509820E+01 -0.21084837334E+01  0.80781954065E+01  0.10057438002E+02  0.51100000000E-03 0.  1.
        -12    1    3    3    0    0  0.42318071996E+02 -0.44913004054E-01 -0.40245197169E+01  0.42509034259E+02  0.00000000000E+00 0.  1.
</event>
<event>
 7    1  0.2542335E-015  0.9000782E+02  0.7816164E-02  0.1186339E+00
        -11   -1    0    0    0    0  0.00000000000E+00  0.00000000000E+00  0.45593999997E+02  0.45594000000E+02  0.51100000000E-03 0. -1.
         11   -1    0    0    0    0 -0.00000000000E+00 -0.00000000000E+00 -0.45593999997E+02  0.45594000000E+02  0.51100000000E-03 0.  1.
    9900012    2    1    2    0    0 -0.48514960923E+00 -0.83148828712E+00  0.68269637218E+00  0.90007823212E+02  0.90000085678E+02 0.  0.
        -12    1    1    2    0    0  0.48514960923E+00  0.83148828712E+00 -0.68269637218E+00  0.11801767883E+01  0.00000000000E+00 0.  1.
         11    1    3    3    0    0 -0.25008580987E+01  0.35002563511E+01 -0.80200526329E+01  0.91009521616E+01  0.51100000000E-03 0. -1.
        -11    1    3    3    0    0 -0.31708049536E+01 -0.31468207725E+02 -0.22812469553E+02  0.38996293014E+02  0.51100000000E-03 0.  1.
         12    1    3    3    0    0  0.51865134431E+01  0.27136463087E+02  0.31515218558E+02  0.41910578036E+02  0.00000000000E+00 0. -1.
</event>
<event>
 7    1  0.2542335E-015  0.9000776E+02  0.7816164E-02  0.1186339E+00
        -11   -1    0    0    0    0  0.00000000000E+00  0.00000000000E+00  0.45593999997E+02  0.45594000000E+02  0.51100000000E-03 0.  1.
         11   -1    0    0    0    0 -0.00000000000E+00 -0.00000000000E+00 -0.45593999997E+02  0.45594000000E+02  0.51100000000E-03 0. -1.
    9900012    2    1    2    0    0  0.11665940220E+01  0.63348119933E-01  0.16734368562E+00  0.90007763369E+02  0.90000025045E+02 0.  0.
        -12    1    1    2    0    0 -0.11665940220E+01 -0.63348119933E-01 -0.16734368562E+00  0.11802366312E+01  0.00000000000E+00 0.  1.
         11    1    3    3    0    0 -0.14334554841E+02 -0.25597311692E+02 -0.23476979294E+02  0.37574863744E+02  0.51100000000E-03 0. -1.
        -11    1    3    3    0    0  0.26498936661E+01 -0.21487102613E+01 -0.78115531570E+01  0.85240398412E+01  0.51100000000E-03 0.  1.
        -12    1    3    3    0    0  0.12851255197E+02  0.27809370073E+02  0.31455876137E+02  0.43908859784E+02  0.00000000000E+00 0.  1.
</event>
<event>
 7    1  0.2542335E-015  0.9000779E+02  0.7816164E-02  0.1186339E+00
        -11   -1    0    0    0    0  0.00000000000E+00  0.00000000000E+00  0.45593999997E+02  0.45594000000E+02  0.51100000000E-03 0. -1.
         11   -1    0    0    0    0 -0.00000000000E+00 -0.00000000000E+00 -0.45593999997E+02  0.45594000000E+02  0.51100000000E-03 0.  1.
    9900012    2    1    2    0    0 -0.57099325721E+00  0.80152459259E+00 -0.65147239803E+00  0.90007791858E+02  0.90000053911E+02 0.  0.
        -12    1    1    2    0    0  0.57099325721E+00 -0.80152459259E+00  0.65147239803E+00  0.11802081417E+01  0.00000000000E+00 0.  1.
         11    1    3    3    0    0 -0.85475886998E+01  0.27634254009E+01 -0.72213855654E+01  0.11525892689E+02  0.51100000000E-03 0. -1.
        -11    1    3    3    0    0 -0.25218832679E+02  0.21478796901E+02 -0.99904746597E+01  0.34599679510E+02  0.51100000000E-03 0.  1.
         12    1    3    3    0    0  0.33195428121E+02 -0.23440697710E+02  0.16560387827E+02  0.43882219660E+02  0.00000000000E+00 0. -1.
</event>
<event>
 7    1  0.2542335E-015  0.9000785E+02  0.7816164E-02  0.1186339E+00
        -11   -1    0    0    0    0  0.00000000000E+00  0.00000000000E+00  0.45593999997E+02  0.45594000000E+02  0.51100000000E-03 0. -1.
         11   -1    0    0    0    0 -0.00000000000E+00 -0.00000000000E+00 -0.45593999997E+02  0.45594000000E+02  0.51100000000E-03 0.  1.
    9900012    2    1    2    0    0 -0.70236594702E+00 -0.37797559572E+00  0.86981202642E+00  0.90007848978E+02  0.90000111784E+02 0.  0.
        -12    1    1    2    0    0  0.70236594702E+00  0.37797559572E+00 -0.86981202642E+00  0.11801510225E+01  0.00000000000E+00 0.  1.
         11    1    3    3    0    0  0.25933689291E+02 -0.20314513028E+02  0.22636675433E+02  0.39970673683E+02  0.51100000000E-03 0. -1.
        -11    1    3    3    0    0 -0.45906990001E+01 -0.76665267383E+01 -0.83361757115E+00  0.89746904155E+01  0.51100000000E-03 0.  1.
        -12    1    3    3    0    0 -0.22045356238E+02  0.27603064170E+02 -0.20933245835E+02  0.41062484879E+02  0.00000000000E+00 0.  1.
</event>
<event>
 7    1  0.2542335E-015  0.9000774E+02  0.7816164E-02  0.1186339E+00
        -11   -1    0    0    0    0  0.00000000000E+00  0.00000000000E+00  0.45593999997E+02  0.45594000000E+02  0.51100000000E-03 0.  1.
         11   -1    0    0    0    0 -0.00000000000E+00 -0.00000000000E+00 -0.45593999997E+02  0.45594000000E+02  0.51100000000E-03 0. -1.
    9900012    2    1    2    0    0  0.29503204215E+00  0.39666668305E+00 -0.10717410618E+01  0.90007738475E+02  0.89999999823E+02 0.  0.
        -12    1    1    2    0    0 -0.29503204215E+00 -0.39666668305E+00  0.10717410618E+01  0.11802615248E+01  0.00000000000E+00 0.  1.
         11    1    3    3    0    0 -0.49374203768E+01  0.75462770646E+01  0.12705079603E+02  0.15580226747E+02  0.51100000000E-03 0. -1.
        -11    1    3    3    0    0 -0.35476390831E+01  0.31459725319E+02 -0.14509503031E+02  0.34825647713E+02  0.51100000000E-03 0.  1.
         12    1    3    3    0    0  0.87800915020E+01 -0.38609335700E+02  0.73268236643E+00  0.39601864015E+02  0.00000000000E+00 0. -1.
</event>
<event>
 7    1  0.2542335E-015  0.9000766E+02  0.7816164E-02  0.1186339E+00
        -11   -1    0    0    0    0  0.00000000000E+00  0.00000000000E+00  0.45593999997E+02  0.45594000000E+02  0.51100000000E-03 0. -1.
         11   -1    0    0    0    0 -0.00000000000E+00 -0.00000000000E+00 -0.45593999997E+02  0.45594000000E+02  0.51100000000E-03 0.  1.
    9900012    2    1    2    0    0 -0.11292001018E+01 -0.99475017804E-01  0.32894716771E+00  0.90007663443E+02  0.89999923800E+02 0.  0.
        -12    1    1    2    0    0  0.11292001018E+01  0.99475017804E-01 -0.32894716771E+00  0.11803365572E+01  0.00000000000E+00 0.  1.
         11    1    3    3    0    0 -0.36508552773E+02 -0.16776887515E+02 -0.70346106743E+01  0.40790000341E+02  0.51100000000E-03 0. -1.
        -11    1    3    3    0    0  0.52252530976E+01 -0.79472281216E+01 -0.40133741092E+00  0.95195996097E+01  0.51100000000E-03 0.  1.
        -12    1    3    3    0    0  0.30154099573E+02  0.24624640619E+02  0.77648952529E+01  0.39698063492E+02  0.00000000000E+00 0.  1.
</event>
<event>
 7    1  0.2542335E-015  0.9000773E+02  0.7816164E-02  0.1186339E+00
        -11   -1    0    0    0    0  0.00000000000E+00  0.00000000000E+00  0.45593999997E+02  0.45594000000E+02  0.51100000000E-03 0. -1.
         11   -1    0    0    0    0 -0.00000000000E+00 -0.00000000000E+00 -0.45593999997E+02  0.45594000000E+02  0.51100000000E-03 0.  1.
    9900012    2    1    2    0    0 -0.22499064943E+00 -0.11254395957E+01  0.27530242732E+00  0.90007734563E+02  0.89999995859E+02 0.  0.
        -12    1    1    2    0    0  0.22499064943E+00  0.11254395957E+01 -0.27530242732E+00  0.11802654372E+01  0.00000000000E+00 0.  1.
         11    1    3    3    0    0 -0.18772116639E+02  0.18397092963E+02  0.31046720960E+02  0.40678548096E+02  0.51100000000E-03 0. -1.
        -11    1    3    3    0    0 -0.13898735169E+00 -0.10931708350E+02  0.15269873183E+01  0.11038716205E+02  0.51100000000E-03 0.  1.
        -12    1    3    3    0    0  0.18686113341E+02 -0.85908242088E+01 -0.32298405851E+02  0.38290470262E+02  0.00000000000E+00 0.  1.
</event>
<event>
 7    1  0.2542335E-015  0.9000774E+02  0.7816164E-02  0.1186339E+00
        -11   -1    0    0    0    0  0.00000000000E+00  0.00000000000E+00  0.45593999997E+02  0.45594000000E+02  0.51100000000E-03 0.  1.
         11   -1    0    0    0    0 -0.00000000000E+00 -0.00000000000E+00 -0.45593999997E+02  0.45594000000E+02  0.51100000000E-03 0. -1.
    9900012    2    1    2    0    0  0.64975183440E+00  0.96906868068E+00 -0.17819506875E+00  0.90007735184E+02  0.89999996488E+02 0.  0.
        -12    1    1    2    0    0 -0.64975183440E+00 -0.96906868068E+00  0.17819506875E+00  0.11802648163E+01  0.00000000000E+00 0.  1.
         11    1    3    3    0    0 -0.68582583339E+01 -0.11672249969E+01 -0.61915809861E+01  0.93130981384E+01  0.51100000000E-03 0. -1.
        -11    1    3    3    0    0 -0.22745718981E+02  0.17645830725E+02  0.28038741706E+02  0.40185993961E+02  0.51100000000E-03 0.  1.
         12    1    3    3    0    0  0.30253729149E+02 -0.15509537048E+02 -0.22025355789E+02  0.40508643084E+02  0.00000000000E+00 0. -1.
</event>
<event>
 7    1  0.2542335E-015  0.9000780E+02  0.7816164E-02  0.1186339E+00
        -11   -1    0    0    0    0  0.00000000000E+00  0.00000000000E+00  0.45593999997E+02  0.45594000000E+02  0.51100000000E-03 0. -1.
         11   -1    0    0    0    0 -0.00000000000E+00 -0.00000000000E+00 -0.45593999997E+02  0.45594000000E+02  0.51100000000E-03 0.  1.
    9900012    2    1    2    0    0 -0.51229170675E+00 -0.53755961576E+00  0.91731528349E+00  0.90007796432E+02  0.90000058545E+02 0.  0.
        -12    1    1    2    0    0  0.51229170675E+00  0.53755961576E+00 -0.91731528349E+00  0.11802035683E+01  0.00000000000E+00 0.  1.
         11    1    3    3    0    0  0.68866585816E+00 -0.11552785609E+02  0.20006798904E+01  0.11744949394E+02  0.51100000000E-03 0. -1.
        -11    1    3    3    0    0  0.50520070975E+01 -0.91604599340E+01 -0.35980859781E+02  0.37470776250E+02  0.51100000000E-03 0.  1.
         12    1    3    3    0    0 -0.62529646624E+01  0.20175685927E+02  0.34897495174E+02  0.40792070788E+02  0.00000000000E+00 0. -1.
</event>
<event>
 7    1  0.2542335E-015  0.9000775E+02  0.7816164E-02  0.1186339E+00
        -11   -1    0    0    0    0  0.00000000000E+00  0.00000000000E+00  0.45593999997E+02  0.45594000000E+02  0.51100000000E-03 0.  1.
         11   -1    0    0    0    0 -0.00000000000E+00 -0.00000000000E+00 -0.45593999997E+02  0.45594000000E+02  0.51100000000E-03 0. -1.
    9900012    2    1    2    0    0  0.11105111933E+01  0.31681304545E+00 -0.24370509968E+00  0.90007746726E+02  0.90000008182E+02 0.  0.
        -12    1    1    2    0    0 -0.11105111933E+01 -0.31681304545E+00  0.24370509968E+00  0.11802532744E+01  0.00000000000E+00 0.  1.
         11    1    3    3    0    0 -0.22365885618E+02 -0.26405719174E+02 -0.28749972506E+01  0.34724061600E+02  0.51100000000E-03 0. -1.
        -11    1    3    3    0    0 -0.26102982810E+01  0.96247214217E+01 -0.16072545199E+02  0.18914957811E+02  0.51100000000E-03 0.  1.
        -12    1    3    3    0    0  0.26086695092E+02  0.17097810797E+02  0.18703837350E+02  0.36368727315E+02  0.00000000000E+00 0.  1.
</event>
<event>
 7    1  0.2542335E-015  0.9000771E+02  0.7816164E-02  0.1186339E+00
        -11   -1    0    0    0    0  0.00000000000E+00  0.00000000000E+00  0.45593999997E+02  0.45594000000E+02  0.51100000000E-03 0.  1.
         11   -1    0    0    0    0 -0.00000000000E+00 -0.00000000000E+00 -0.45593999997E+02  0.45594000000E+02  0.51100000000E-03 0. -1.
    9900012    2    1    2    0    0 -0.11680458260E+01 -0.13963387889E+00 -0.96225190642E-01  0.90007708528E+02  0.89999969480E+02 0.  0.
        -12    1    1    2    0    0  0.11680458260E+01  0.13963387889E+00  0.96225190642E-01  0.11802914721E+01  0.00000000000E+00 0.  1.
         11    1    3    3    0    0  0.43117897997E+01 -0.15916348822E+01 -0.78125804670E+01  0.90642841245E+01  0.51100000000E-03 0. -1.
        -11    1    3    3    0    0  0.28647573386E+02 -0.49786440759E+01  0.28298568225E+02  0.40574367790E+02  0.51100000000E-03 0.  1.
         12    1    3    3    0    0 -0.34127409011E+02  0.64306450792E+01 -0.20582212949E+02  0.40369056613E+02  0.00000000000E+00 0. -1.
</event>
<event>
 7    1  0.2542335E-015  0.9000772E+02  0.7816164E-02  0.1186339E+00
        -11   -1    0    0    0    0  0.00000000000E+00  0.00000000000E+00  0.45593999997E+02  0.45594000000E+02  0.51100000000E-03 0.  1.
         11   -1    0    0    0    0 -0.00000000000E+00 -0.00000000000E+00 -0.45593999997E+02  0.45594000000E+02  0.51100000000E-03 0. -1.
    9900012    2    1    2    0    0 -0.13632031745E+00 -0.55038629675E-01 -0.11710858460E+01  0.90007722686E+02  0.89999983825E+02 0.  0.
        -12    1    1    2    0    0  0.13632031745E+00  0.55038629675E-01  0.11710858460E+01  0.11802773142E+01  0.00000000000E+00 0.  1.
         11    1    3    3    0    0 -0.48547108551E+01  0.31805866560E+02 -0.15198173175E+02  0.35583224042E+02  0.51100000000E-03 0. -1.
        -11    1    3    3    0    0  0.53625102785E+01  0.66769386994E+01 -0.65044367991E+01  0.10753870244E+02  0.51100000000E-03 0.  1.
        -12    1    3    3    0    0 -0.64411974082E+00 -0.38537843889E+02  0.20531524128E+02  0.43670628400E+02  0.00000000000E+00 0.  1.
</event>
<event>
 7    1  0.2542335E-015  0.9000781E+02  0.7816164E-02  0.1186339E+00
        -11   -1    0    0    0    0  0.00000000000E+00  0.00000000000E+00  0.45593999997E+02  0.45594000000E+02  0.51100000000E-03 0. -1.
         11   -1    0    0    0    0 -0.00000000000E+00 -0.00000000000E+00 -0.45593999997E+02  0.45594000000E+02  0.51100000000E-03 0.  1.
    9900012    2    1    2    0    0 -0.79771363225E+00  0.81264806410E+00  0.31002126796E+00  0.90007806329E+02  0.90000068572E+02 0.  0.
        -12    1    1    2    0    0  0.79771363225E+00 -0.81264806410E+00 -0.31002126796E+00  0.11801936713E+01  0.00000000000E+00 0.  1.
         11    1    3    3    0    0  0.19009115902E+02  0.14940341787E+01 -0.33767545447E+02  0.38779192247E+02  0.51100000000E-03 0. -1.
        -11    1    3    3    0    0  0.23132700531E+01 -0.83328797102E+01 -0.13647845808E+01  0.87550408232E+01  0.51100000000E-03 0.  1.
        -12    1    3    3    0    0 -0.22120099588E+02  0.76514935956E+01  0.35442351296E+02  0.42473573259E+02  0.00000000000E+00 0.  1.
</event>
<event>
 7    1  0.2542335E-015  0.9000775E+02  0.7816164E-02  0.1186339E+00
        -11   -1    0    0    0    0  0.00000000000E+00  0.00000000000E+00  0.45593999997E+02  0.45594000000E+02  0.51100000000E-03 0.  1.
         11   -1    0    0    0    0 -0.00000000000E+00 -0.00000000000E+00 -0.45593999997E+02  0.45594000000E+02  0.51100000000E-03 0. -1.
    9900012    2    1    2    0    0 -0.11901765312E+00 -0.11734582572E+01 -0.42683964796E-01  0.90007749432E+02  0.90000010924E+02 0.  0.
        -12    1    1    2    0    0  0.11901765312E+00  0.11734582572E+01  0.42683964796E-01  0.11802505683E+01  0.00000000000E+00 0.  1.
         11    1    3    3    0    0  0.96601149827E+01  0.55707704920E+01  0.19472472854E+01  0.11320029929E+02  0.51100000000E-03 0. -1.
        -11    1    3    3    0    0  0.32739742244E+02  0.79080782475E+01 -0.27760310094E+00  0.33682421046E+02  0.51100000000E-03 0.  1.
         12    1    3    3    0    0 -0.42518874880E+02 -0.14652306997E+02 -0.17123281493E+01  0.45005298456E+02  0.00000000000E+00 0. -1.
</event>
<event>
 7    1  0.2542335E-015  0.9000783E+02  0.7816164E-02  0.1186339E+00
        -11   -1    0    0    0    0  0.00000000000E+00  0.00000000000E+00  0.45593999997E+02  0.45594000000E+02  0.51100000000E-03 0.  1.
         11   -1    0    0    0    0 -0.00000000000E+00 -0.00000000000E+00 -0.45593999997E+02  0.45594000000E+02  0.51100000000E-03 0. -1.
    9900012    2    1    2    0    0 -0.13460810657E+00 -0.46734782766E+00 -0.10753035202E+01  0.90007825862E+02  0.90000088364E+02 0.  0.
        -12    1    1    2    0    0  0.13460810657E+00  0.46734782766E+00  0.10753035202E+01  0.11801741376E+01  0.00000000000E+00 0.  1.
         11    1    3    3    0    0 -0.31865441790E+02 -0.22999691715E+01 -0.14336999333E+02  0.35017792461E+02  0.51100000000E-03 0. -1.
        -11    1    3    3    0    0 -0.72126529823E+01 -0.48265758240E+01 -0.64729970115E+01  0.10826721009E+02  0.51100000000E-03 0.  1.
        -12    1    3    3    0    0  0.38943486666E+02  0.66591971679E+01  0.19734692825E+02  0.44163312393E+02  0.00000000000E+00 0.  1.
</event>
<event>
 7    1  0.2542335E-015  0.9000774E+02  0.7816164E-02  0.1186339E+00
        -11   -1    0    0    0    0  0.00000000000E+00  0.00000000000E+00  0.45593999997E+02  0.45594000000E+02  0.51100000000E-03 0. -1.
         11   -1    0    0    0    0 -0.00000000000E+00 -0.00000000000E+00 -0.45593999997E+02  0.45594000000E+02  0.51100000000E-03 0.  1.
    9900012    2    1    2    0    0  0.59873490779E+00 -0.57241832859E+00  0.84074750623E+00  0.90007744688E+02  0.90000006118E+02 0.  0.
        -12    1    1    2    0    0 -0.59873490779E+00  0.57241832859E+00 -0.84074750623E+00  0.11802553122E+01  0.00000000000E+00 0.  1.
         11    1    3    3    0    0  0.28803227065E+02  0.15287400933E+02  0.14141808761E+02  0.35543231028E+02  0.51100000000E-03 0. -1.
        -11    1    3    3    0    0  0.97933865585E+01  0.32002428248E+01 -0.24032183611E+01  0.10579576229E+02  0.51100000000E-03 0.  1.
        -12    1    3    3    0    0 -0.37997878715E+02 -0.19060062086E+02 -0.10897842894E+02  0.43884937431E+02  0.00000000000E+00 0.  1.
</event>
<event>
 7    1  0.2542335E-015  0.9000774E+02  0.7816164E-02  0.1186339E+00
        -11   -1    0    0    0    0  0.00000000000E+00  0.00000000000E+00  0.45593999997E+02  0.45594000000E+02  0.51100000000E-03 0.  1.
         11   -1    0    0    0    0 -0.00000000000E+00 -0.00000000000E+00 -0.45593999997E+02  0.45594000000E+02  0.51100000000E-03 0. -1.
    9900012    2    1    2    0    0 -0.21654941274E+00 -0.10724622991E+01 -0.44265563621E+00  0.90007740264E+02  0.90000001636E+02 0.  0.
        -12    1    1    2    0    0  0.21654941274E+00  0.10724622991E+01  0.44265563621E+00  0.11802597356E+01  0.00000000000E+00 0.  1.
         11    1    3    3    0    0  0.48213042513E+01  0.97196171414E+01  0.95347811595E+01  0.14443960125E+02  0.51100000000E-03 0. -1.
        -11    1    3    3    0    0  0.80586740297E+01  0.18340904045E+02  0.22421277564E+02  0.30067335701E+02  0.51100000000E-03 0.  1.
         12    1    3    3    0    0 -0.13096527694E+02 -0.29132983486E+02 -0.32398714359E+02  0.45496444439E+02  0.00000000000E+00 0. -1.
</event>
<event>
 7    1  0.2542335E-015  0.9000784E+02  0.7816164E-02  0.1186339E+00
        -11   -1    0    0    0    0  0.00000000000E+00  0.00000000000E+00  0.45593999997E+02  0.45594000000E+02  0.51100000000E-03 0. -1.
         11   -1    0    0    0    0 -0.00000000000E+00 -0.00000000000E+00 -0.45593999997E+02  0.45594000000E+02  0.51100000000E-03 0.  1.
    9900012    2    1    2    0    0  0.43534528646E+00  0.99039522492E+00  0.47157129719E+00  0.90007835728E+02  0.90000098360E+02 0.  0.
        -12    1    1    2    0    0 -0.43534528646E+00 -0.99039522492E+00 -0.47157129719E+00  0.11801642718E+01  0.00000000000E+00 0.  1.
         11    1    3    3    0    0 -0.44861744665E+01 -0.35241717189E+02  0.12399148554E+02  0.37627692952E+02  0.51100000000E-03 0. -1.
        -11    1    3    3    0    0 -0.79087900680E+01 -0.13036345923E+01  0.47851772756E+01  0.93352206889E+01  0.51100000000E-03 0.  1.
        -12    1    3    3    0    0  0.12830309821E+02  0.37535747006E+02 -0.16712754533E+02  0.43044922087E+02  0.00000000000E+00 0.  1.
</event>
<event>
 7    1  0.2542335E-015  0.9000775E+02  0.7816164E-02  0.1186339E+00
        -11   -1    0    0    0    0  0.00000000000E+00  0.00000000000E+00  0.45593999997E+02  0.45594000000E+02  0.51100000000E-03 0. -1.
         11   -1    0    0    0    0 -0.00000000000E+00 -0.00000000000E+00 -0.45593999997E+02  0.45594000000E+02  0.51100000000E-03 0.  1.
    9900012    2    1    2    0    0 -0.61551984435E+00 -0.92492140049E+00 -0.39831223691E+00  0.90007747097E+02  0.90000008559E+02 0.  0.
        -12    1    1    2    0    0  0.61551984435E+00  0.92492140049E+00  0.39831223691E+00  0.11802529025E+01  0.00000000000E+00 0.  1.
         11    1    3    3    0    0 -0.25448804633E+01 -0.13528552590E+01  0.22318756916E+02  0.22504078396E+02  0.51100000000E-03 0. -1.
        -11    1    3    3    0    0 -0.78192537036E+01 -0.14504347213E+02  0.17178636423E+02  0.23803830914E+02  0.51100000000E-03 0.  1.
        -12    1    3    3    0    0  0.97486143226E+01  0.14932281072E+02 -0.39895705576E+02  0.43699837787E+02  0.00000000000E+00 0.  1.
</event>
<event>
 7    1  0.2542335E-015  0.9000774E+02  0.7816164E-02  0.1186339E+00
        -11   -1    0    0    0    0  0.00000000000E+00  0.00000000000E+00  0.45593999997E+02  0.45594000000E+02  0.51100000000E-03 0.  1.
         11   -1    0    0    0    0 -0.00000000000E+00 -0.00000000000E+00 -0.45593999997E+02  0.45594000000E+02  0.51100000000E-03 0. -1.
    9900012    2    1    2    0    0 -0.93232348344E-01 -0.17732082672E+00 -0.11631341788E+01  0.90007738985E+02  0.90000000339E+02 0.  0.
        -12    1    1    2    0    0  0.93232348344E-01  0.17732082672E+00  0.11631341788E+01  0.11802610153E+01  0.00000000000E+00 0.  1.
         11    1    3    3    0    0  0.48297936110E+01  0.84450360483E+01  0.23434285310E+01  0.10006857535E+02  0.51100000000E-03 0. -1.
        -11    1    3    3    0    0 -0.94418863966E+01 -0.34395263307E+02  0.23250199779E+02  0.42576462356E+02  0.51100000000E-03 0.  1.
         12    1    3    3    0    0  0.45188604373E+01  0.25772906432E+02 -0.26756762489E+02  0.37424419094E+02  0.00000000000E+00 0. -1.
</event>
<event>
 7    1  0.2542335E-015  0.9000768E+02  0.7816164E-02  0.1186339E+00
        -11   -1    0    0    0    0  0.00000000000E+00  0.00000000000E+00  0.45593999997E+02  0.45594000000E+02  0.51100000000E-03 0.  1.
         11   -1    0    0    0    0 -0.00000000000E+00 -0.00000000000E+00 -0.45593999997E+02  0.45594000000E+02  0.51100000000E-03 0. -1.
    9900012    2    1    2    0    0 -0.10950825542E+01  0.30763275791E+00  0.31514250729E+00  0.90007678639E+02  0.89999939198E+02 0.  0.
        -12    1    1    2    0    0  0.10950825542E+01 -0.30763275791E+00 -0.31514250729E+00  0.11803213605E+01  0.00000000000E+00 0.  1.
         11    1    3    3    0    0  0.22844706529E+01 -0.32568092987E+02 -0.17140558662E+02  0.36874086273E+02  0.51100000000E-03 0. -1.
        -11    1    3    3    0    0  0.65983943895E+01 -0.46000860894E-01 -0.79770288556E+01  0.10352483481E+02  0.51100000000E-03 0.  1.
        -12    1    3    3    0    0 -0.99779475967E+01  0.32921726606E+02  0.25432730025E+02  0.42781108885E+02  0.00000000000E+00 0.  1.
</event>
<event>
 7    1  0.2542335E-015  0.9000771E+02  0.7816164E-02  0.1186339E+00
        -11   -1    0    0    0    0  0.00000000000E+00  0.00000000000E+00  0.45593999997E+02  0.45594000000E+02  0.51100000000E-03 0.  1.
         11   -1    0    0    0    0 -0.00000000000E+00 -0.00000000000E+00 -0.45593999997E+02  0.45594000000E+02  0.51100000000E-03 0. -1.
    9900012    2    1    2    0    0  0.78306743236E+00 -0.25865107234E+00 -0.84438417475E+00  0.90007712062E+02  0.89999973062E+02 0.  0.
        -12    1    1    2    0    0 -0.78306743236E+00  0.25865107234E+00  0.84438417475E+00  0.11802879375E+01  0.00000000000E+00 0.  1.
         11    1    3    3    0    0 -0.68718833826E+01  0.53023706415E+01  0.47773496612E+01  0.99076226054E+01  0.51100000000E-03 0. -1.
        -11    1    3    3    0    0  0.38653848629E+02 -0.71078996247E+01  0.15830641072E+02  0.42370407691E+02  0.51100000000E-03 0.  1.
         12    1    3    3    0    0 -0.30998897814E+02  0.15468779108E+01 -0.21452374908E+02  0.37729681766E+02  0.00000000000E+00 0. -1.
</event>
<event>
 7    1  0.2542335E-015  0.9000786E+02  0.7816164E-02  0.1186339E+00
        -11   -1    0    0    0    0  0.00000000000E+00  0.00000000000E+00  0.45593999997E+02  0.45594000000E+02  0.51100000000E-03 0. -1.
         11   -1    0    0    0    0 -0.00000000000E+00 -0.00000000000E+00 -0.45593999997E+02  0.45594000000E+02  0.51100000000E-03 0.  1.
    9900012    2    1    2    0    0  0.26062982441E+00  0.45869158316E+00  0.10556494259E+01  0.90007863743E+02  0.90000126745E+02 0.  0.
        -12    1    1    2    0    0 -0.26062982441E+00 -0.45869158316E+00 -0.10556494259E+01  0.11801362567E+01  0.00000000000E+00 0.  1.
         11    1    3    3    0    0  0.11170731902E+02 -0.36451870994E+02  0.14103635164E+02  0.40650174357E+02  0.51100000000E-03 0. -1.
        -11    1    3    3    0    0 -0.61431595565E+01  0.26453409675E+01  0.67462743040E+01  0.94999187059E+01  0.51100000000E-03 0.  1.
        -12    1    3    3    0    0 -0.47669425209E+01  0.34265221610E+02 -0.19794260042E+02  0.39857770680E+02  0.00000000000E+00 0.  1.
</event>
<event>
 7    1  0.2542335E-015  0.9000758E+02  0.7816164E-02  0.1186339E+00
        -11   -1    0    0    0    0  0.00000000000E+00  0.00000000000E+00  0.45593999997E+02  0.45594000000E+02  0.51100000000E-03 0.  1.
         11   -1    0    0    0    0 -0.00000000000E+00 -0.00000000000E+00 -0.45593999997E+02  0.45594000000E+02  0.51100000000E-03 0. -1.
    9900012    2    1    2    0    0  0.74228411569E+00  0.27897574518E+00 -0.87440005623E+00  0.90007581162E+02  0.89999840433E+02 0.  0.
        -12    1    1    2    0    0 -0.74228411569E+00 -0.27897574518E+00  0.87440005623E+00  0.11804188380E+01  0.00000000000E+00 0.  1.
         11    1    3    3    0    0 -0.56703158095E+01 -0.52610682197E+01 -0.85937281198E+01  0.11562157387E+02  0.51100000000E-03 0. -1.
        -11    1    3    3    0    0 -0.29371210644E+02  0.21579691176E+02 -0.59256229093E+01  0.36925114665E+02  0.51100000000E-03 0.  1.
         12    1    3    3    0    0  0.35783810569E+02 -0.16039647211E+02  0.13644950973E+02  0.41520309109E+02  0.00000000000E+00 0. -1.
</event>
<event>
 7    1  0.2542335E-015  0.9000770E+02  0.7816164E-02  0.1186339E+00
        -11   -1    0    0    0    0  0.00000000000E+00  0.00000000000E+00  0.45593999997E+02  0.45594000000E+02  0.51100000000E-03 0.  1.
         11   -1    0    0    0    0 -0.00000000000E+00 -0.00000000000E+00 -0.45593999997E+02  0.45594000000E+02  0.51100000000E-03 0. -1.
    9900012    2    1    2    0    0  0.36330912139E+00  0.74262256881E+00 -0.84239245059E+00  0.90007700530E+02  0.89999961377E+02 0.  0.
        -12    1    1    2    0    0 -0.36330912139E+00 -0.74262256881E+00  0.84239245059E+00  0.11802994697E+01  0.00000000000E+00 0.  1.
         11    1    3    3    0    0  0.83566583793E+01 -0.31017549816E+01  0.18164870132E+01  0.90969362186E+01  0.51100000000E-03 0. -1.
        -11    1    3    3    0    0  0.29204926794E+02 -0.11025663661E+02  0.17793128742E+02  0.35931719119E+02  0.51100000000E-03 0.  1.
         12    1    3    3    0    0 -0.37198276051E+02  0.14870041211E+02 -0.20452008205E+02  0.44979045193E+02  0.00000000000E+00 0. -1.
</event>
<event>
 7    1  0.2542335E-015  0.9000769E+02  0.7816164E-02  0.1186339E+00
        -11   -1    0    0    0    0  0.00000000000E+00  0.00000000000E+00  0.45593999997E+02  0.45594000000E+02  0.51100000000E-03 0.  1.
         11   -1    0    0    0    0 -0.00000000000E+00 -0.00000000000E+00 -0.45593999997E+02  0.45594000000E+02  0.51100000000E-03 0. -1.
    9900012    2    1    2    0    0  0.92576535957E+00 -0.72905290463E+00 -0.67677243798E-01  0.90007686547E+02  0.89999947209E+02 0.  0.
        -12    1    1    2    0    0 -0.92576535957E+00  0.72905290463E+00  0.67677243798E-01  0.11803134533E+01  0.00000000000E+00 0.  1.
         11    1    3    3    0    0  0.75895748356E+01 -0.71711121365E+01  0.11098677815E+02  0.15238344561E+02  0.51100000000E-03 0. -1.
        -11    1    3    3    0    0  0.11734892483E+02  0.41800822648E+01  0.28435058536E+02  0.31044054882E+02  0.51100000000E-03 0.  1.
         12    1    3    3    0    0 -0.18398701959E+02  0.22619769671E+01 -0.39601413595E+02  0.43725287103E+02  0.00000000000E+00 0. -1.
</event>
<event>
 7    1  0.2542335E-015  0.9000773E+02  0.7816164E-02  0.1186339E+00
        -11   -1    0    0    0    0  0.00000000000E+00  0.00000000000E+00  0.45593999997E+02  0.45594000000E+02  0.51100000000E-03 0. -1.
         11   -1    0    0    0    0 -0.00000000000E+00 -0.00000000000E+00 -0.45593999997E+02  0.45594000000E+02  0.51100000000E-03 0.  1.
    9900012    2    1    2    0    0 -0.10731657136E+00  0.62151585247E+00  0.99761489791E+00  0.90007731265E+02  0.89999992518E+02 0.  0.
        -12    1    1    2    0    0  0.10731657136E+00 -0.62151585247E+00 -0.99761489791E+00  0.11802687346E+01  0.00000000000E+00 0.  1.
         11    1    3    3    0    0  0.12984437539E+01 -0.37658165610E+02 -0.17487316109E+02  0.41540698336E+02  0.51100000000E-03 0. -1.
        -11    1    3    3    0    0  0.41304506085E+01 -0.72549642081E+00  0.56430705912E+01  0.70307334784E+01  0.51100000000E-03 0.  1.
        -12    1    3    3    0    0 -0.55362109337E+01  0.39005177883E+02  0.12841860416E+02  0.41436299451E+02  0.00000000000E+00 0.  1.
</event>
<event>
 7    1  0.2542335E-015  0.9000775E+02  0.7816164E-02  0.1186339E+00
        -11   -1    0    0    0    0  0.00000000000E+00  0.00000000000E+00  0.45593999997E+02  0.45594000000E+02  0.51100000000E-03 0. -1.
         11   -1    0    0    0    0 -0.00000000000E+00 -0.00000000000E+00 -0.45593999997E+02  0.45594000000E+02  0.51100000000E-03 0.  1.
    9900012    2    1    2    0    0 -0.71160148154E-02 -0.61964356533E-01  0.11786027773E+01  0.90007748024E+02  0.90000009498E+02 0.  0.
        -12    1    1    2    0    0  0.71160148154E-02  0.61964356533E-01 -0.11786027773E+01  0.11802519756E+01  0.00000000000E+00 0.  1.
         11    1    3    3    0    0 -0.16144004714E+02  0.80900824950E+01 -0.10358298582E+01  0.18087323372E+02  0.51100000000E-03 0. -1.
        -11    1    3    3    0    0 -0.22626617451E+02 -0.20819052455E+02 -0.25976161782E+01  0.30856836721E+02  0.51100000000E-03 0.  1.
         12    1    3    3    0    0  0.38763506150E+02  0.12667005603E+02  0.48120488137E+01  0.41063587932E+02  0.00000000000E+00 0. -1.
</event>
<event>
 7    1  0.2542335E-015  0.9000773E+02  0.7816164E-02  0.1186339E+00
        -11   -1    0    0    0    0  0.00000000000E+00  0.00000000000E+00  0.45593999997E+02  0.45594000000E+02  0.51100000000E-03 0.  1.
         11   -1    0    0    0    0 -0.00000000000E+00 -0.00000000000E+00 -0.45593999997E+02  0.45594000000E+02  0.51100000000E-03 0. -1.
    9900012    2    1    2    0    0  0.72167128952E+00 -0.71844450070E+00 -0.59670569561E+00  0.90007733234E+02  0.89999994513E+02 0.  0.
        -12    1    1    2    0    0 -0.72167128952E+00  0.71844450070E+00  0.59670569561E+00  0.11802667656E+01  0.00000000000E+00 0.  1.
         11    1    3    3    0    0  0.36980152472E+02 -0.38424235123E+01 -0.86244126651E+01  0.38166430137E+02  0.51100000000E-03 0. -1.
        -11    1    3    3    0    0  0.28969684121E+01 -0.80536609831E+01  0.70848363732E+01  0.11110751006E+02  0.51100000000E-03 0.  1.
        -12    1    3    3    0    0 -0.39155449594E+02  0.11177639995E+02  0.94287059629E+00  0.40730552092E+02  0.00000000000E+00 0.  1.
</event>
<event>
 7    1  0.2542335E-015  0.9000821E+02  0.7816164E-02  0.1186338E+00
        -11   -1    0    0    0    0  0.00000000000E+00  0.00000000000E+00  0.45593999997E+02  0.45594000000E+02  0.51100000000E-03 0.  1.
         11   -1    0    0    0    0 -0.00000000000E+00 -0.00000000000E+00 -0.45593999997E+02  0.45594000000E+02  0.51100000000E-03 0. -1.
    9900012    2    1    2    0    0 -0.91389738450E+00  0.43053512851E+00 -0.60936755904E+00  0.90008212838E+02  0.90000480446E+02 0.  0.
        -12    1    1    2    0    0  0.91389738450E+00 -0.43053512851E+00  0.60936755904E+00  0.11797871623E+01  0.00000000000E+00 0.  1.
         11    1    3    3    0    0  0.21532029759E+01 -0.21806494318E+02 -0.28331327457E+02  0.35816526817E+02  0.51100000000E-03 0. -1.
        -11    1    3    3    0    0  0.48509674152E+01 -0.41061720545E+01 -0.72867582181E+01  0.96689906089E+01  0.51100000000E-03 0.  1.
        -12    1    3    3    0    0 -0.79180677757E+01  0.26343201501E+02  0.35008718116E+02  0.44522695412E+02  0.00000000000E+00 0.  1.
</event>
<event>
 7    1  0.2542335E-015  0.9000775E+02  0.7816164E-02  0.1186339E+00
        -11   -1    0    0    0    0  0.00000000000E+00  0.00000000000E+00  0.45593999997E+02  0.45594000000E+02  0.51100000000E-03 0. -1.
         11   -1    0    0    0    0 -0.00000000000E+00 -0.00000000000E+00 -0.45593999997E+02  0.45594000000E+02  0.51100000000E-03 0.  1.
    9900012    2    1    2    0    0 -0.15006970578E+00 -0.91042010743E+00  0.73593817018E+00  0.90007749739E+02  0.90000011235E+02 0.  0.
        -12    1    1    2    0    0  0.15006970578E+00  0.91042010743E+00 -0.73593817018E+00  0.11802502611E+01  0.00000000000E+00 0.  1.
         11    1    3    3    0    0 -0.20546219008E+02 -0.28568942854E+02 -0.70518929484E+01  0.35889564023E+02  0.51100000000E-03 0. -1.
        -11    1    3    3    0    0 -0.67639349733E+01 -0.67546815604E+01 -0.17632120580E+00  0.95607336922E+01  0.51100000000E-03 0.  1.
        -12    1    3    3    0    0  0.27160084276E+02  0.34413204307E+02  0.79641523244E+01  0.44557452023E+02  0.00000000000E+00 0.  1.
</event>
<event>
 7    1  0.2542335E-015  0.9000776E+02  0.7816164E-02  0.1186339E+00
        -11   -1    0    0    0    0  0.00000000000E+00  0.00000000000E+00  0.45593999997E+02  0.45594000000E+02  0.51100000000E-03 0.  1.
         11   -1    0    0    0    0 -0.00000000000E+00 -0.00000000000E+00 -0.45593999997E+02  0.45594000000E+02  0.51100000000E-03 0. -1.
    9900012    2    1    2    0    0  0.95620362251E+00  0.52398766639E+00 -0.45174140879E+00  0.90007763268E+02  0.90000024944E+02 0.  0.
        -12    1    1    2    0    0 -0.95620362251E+00 -0.52398766639E+00  0.45174140879E+00  0.11802367316E+01  0.00000000000E+00 0.  1.
         11    1    3    3    0    0 -0.26008028925E+02  0.27391143852E+02 -0.87702455315E+01  0.38776404385E+02  0.51100000000E-03 0. -1.
        -11    1    3    3    0    0 -0.43265267226E+01 -0.62961521314E+00  0.94157811172E+01  0.10381338214E+02  0.51100000000E-03 0.  1.
        -12    1    3    3    0    0  0.31290759270E+02 -0.26237540972E+02 -0.10972769945E+01  0.40850020670E+02  0.00000000000E+00 0.  1.
</event>
<event>
 7    1  0.2542335E-015  0.9000773E+02  0.7816164E-02  0.1186339E+00
        -11   -1    0    0    0    0  0.00000000000E+00  0.00000000000E+00  0.45593999997E+02  0.45594000000E+02  0.51100000000E-03 0.  1.
         11   -1    0    0    0    0 -0.00000000000E+00 -0.00000000000E+00 -0.45593999997E+02  0.45594000000E+02  0.51100000000E-03 0. -1.
    9900012    2    1    2    0    0 -0.23020230257E+00 -0.11240379558E+01 -0.27673752487E+00  0.90007729656E+02  0.89999990888E+02 0.  0.
        -12    1    1    2    0    0  0.23020230257E+00  0.11240379558E+01  0.27673752487E+00  0.11802703436E+01  0.00000000000E+00 0.  1.
         11    1    3    3    0    0 -0.36104766006E+02  0.14279588309E+02 -0.17439786730E+01  0.38865180207E+02  0.51100000000E-03 0. -1.
        -11    1    3    3    0    0  0.47394998405E+01  0.59475627088E+01 -0.91763962858E+01  0.11918163028E+02  0.51100000000E-03 0.  1.
        -12    1    3    3    0    0  0.31135063863E+02 -0.21351188973E+02  0.10643637434E+02  0.39224386422E+02  0.00000000000E+00 0.  1.
</event>
<event>
 7    1  0.2542335E-015  0.9000774E+02  0.7816164E-02  0.1186339E+00
        -11   -1    0    0    0    0  0.00000000000E+00  0.00000000000E+00  0.45593999997E+02  0.45594000000E+02  0.51100000000E-03 0.  1.
         11   -1    0    0    0    0 -0.00000000000E+00 -0.00000000000E+00 -0.45593999997E+02  0.45594000000E+02  0.51100000000E-03 0. -1.
    9900012    2    1    2    0    0  0.11880049826E+00 -0.91238218355E+00 -0.73923300980E+00  0.90007737211E+02  0.89999998543E+02 0.  0.
        -12    1    1    2    0    0 -0.11880049826E+00  0.91238218355E+00  0.73923300980E+00  0.11802627885E+01  0.00000000000E+00 0.  1.
         11    1    3    3    0    0  0.32309083034E+02 -0.17239291648E+02 -0.12631820183E+02  0.38738003361E+02  0.51100000000E-03 0. -1.
        -11    1    3    3    0    0 -0.37133016967E+01 -0.85468081228E+01 -0.41445251218E+01  0.10198707140E+02  0.51100000000E-03 0.  1.
        -12    1    3    3    0    0 -0.28476980839E+02  0.24873717587E+02  0.16037112295E+02  0.41071026711E+02  0.00000000000E+00 0.  1.
</event>
<event>
 8    1  0.2542335E-015  0.9000768E+02  0.7816164E-02  0.1186339E+00
        -11   -1    0    0    0    0  0.00000000000E+00  0.00000000000E+00  0.45593999997E+02  0.45594000000E+02  0.51100000000E-03 0.  1.
         11   -1    0    0    0    0 -0.00000000000E+00 -0.00000000000E+00 -0.45593999997E+02  0.45594000000E+02  0.51100000000E-03 0. -1.
    9900012    2    1    2    0    0  0.57869506281E+00 -0.10054686578E+01  0.21746809834E+00  0.90007683275E+02  0.89999943894E+02 0.  0.
         23    2    3    3    0    0  0.55992582697E+01  0.10605389286E+02  0.25132668686E+02  0.62065147646E+02  0.55467157327E+02 0.  0.
        -12    1    1    2    0    0 -0.57869506281E+00  0.10054686578E+01 -0.21746809834E+00  0.11803167250E+01  0.00000000000E+00 0.  1.
         11    1    4    4    0    0  0.13004745566E+02 -0.92363362355E+00 -0.14872729619E+02  0.19778134212E+02  0.51100000000E-03 0. -1.
        -11    1    4    4    0    0 -0.74054872967E+01  0.11529022909E+02  0.40005398305E+02  0.42287013434E+02  0.51100000000E-03 0.  1.
         12    1    3    3    0    0 -0.50205632069E+01 -0.11610857943E+02 -0.24915200587E+02  0.27942535629E+02  0.00000000000E+00 0. -1.
</event>
<event>
 7    1  0.2542335E-015  0.9000774E+02  0.7816164E-02  0.1186339E+00
        -11   -1    0    0    0    0  0.00000000000E+00  0.00000000000E+00  0.45593999997E+02  0.45594000000E+02  0.51100000000E-03 0.  1.
         11   -1    0    0    0    0 -0.00000000000E+00 -0.00000000000E+00 -0.45593999997E+02  0.45594000000E+02  0.51100000000E-03 0. -1.
    9900012    2    1    2    0    0 -0.99917154803E+00 -0.53306326580E-01  0.62596784912E+00  0.90007736854E+02  0.89999998180E+02 0.  0.
        -12    1    1    2    0    0  0.99917154803E+00  0.53306326580E-01 -0.62596784912E+00  0.11802631465E+01  0.00000000000E+00 0.  1.
         11    1    3    3    0    0 -0.56678562528E+01 -0.57132175682E+01  0.12326890958E+01  0.81415583369E+01  0.51100000000E-03 0. -1.
        -11    1    3    3    0    0 -0.34813092230E+02 -0.13225891390E+02  0.56088172743E+01  0.37660780995E+02  0.51100000000E-03 0.  1.
         12    1    3    3    0    0  0.39481776935E+02  0.18885802631E+02 -0.62155385210E+01  0.44205397522E+02  0.00000000000E+00 0. -1.
</event>
<event>
 7    1  0.2542335E-015  0.9000739E+02  0.7816164E-02  0.1186340E+00
        -11   -1    0    0    0    0  0.00000000000E+00  0.00000000000E+00  0.45593999997E+02  0.45594000000E+02  0.51100000000E-03 0.  1.
         11   -1    0    0    0    0 -0.00000000000E+00 -0.00000000000E+00 -0.45593999997E+02  0.45594000000E+02  0.51100000000E-03 0. -1.
    9900012    2    1    2    0    0  0.11117188261E+01 -0.35510761314E+00  0.17837398333E+00  0.90007391071E+02  0.89999647832E+02 0.  0.
        -12    1    1    2    0    0 -0.11117188261E+01  0.35510761314E+00 -0.17837398333E+00  0.11806089290E+01  0.00000000000E+00 0.  1.
         11    1    3    3    0    0 -0.22610960998E+02  0.26030686816E+02  0.11854352222E+02  0.36460634666E+02  0.51100000000E-03 0. -1.
        -11    1    3    3    0    0 -0.80608860676E+01  0.19883752727E+01 -0.66652340439E+01  0.10646918124E+02  0.51100000000E-03 0.  1.
        -12    1    3    3    0    0  0.31783565892E+02 -0.28374169702E+02 -0.50107441945E+01  0.42899838281E+02  0.00000000000E+00 0.  1.
</event>
<event>
 7    1  0.2542335E-015  0.9000726E+02  0.7816164E-02  0.1186340E+00
        -11   -1    0    0    0    0  0.00000000000E+00  0.00000000000E+00  0.45593999997E+02  0.45594000000E+02  0.51100000000E-03 0.  1.
         11   -1    0    0    0    0 -0.00000000000E+00 -0.00000000000E+00 -0.45593999997E+02  0.45594000000E+02  0.51100000000E-03 0. -1.
    9900012    2    1    2    0    0  0.35352533179E+00  0.76793256605E+00  0.82429159067E+00  0.90007255653E+02  0.89999510626E+02 0.  0.
        -12    1    1    2    0    0 -0.35352533179E+00 -0.76793256605E+00 -0.82429159067E+00  0.11807443469E+01  0.00000000000E+00 0.  1.
         11    1    3    3    0    0 -0.38839191896E+01 -0.25356068664E+02 -0.26557475104E+02  0.36923089396E+02  0.51100000000E-03 0. -1.
        -11    1    3    3    0    0  0.72174204344E+01 -0.42345767716E+01 -0.40388913391E+01  0.92916866969E+01  0.51100000000E-03 0.  1.
        -12    1    3    3    0    0 -0.29799759130E+01  0.30358578002E+02  0.31420658034E+02  0.43792479560E+02  0.00000000000E+00 0.  1.
</event>
<event>
 7    1  0.2542335E-015  0.9000773E+02  0.7816164E-02  0.1186339E+00
        -11   -1    0    0    0    0  0.00000000000E+00  0.00000000000E+00  0.45593999997E+02  0.45594000000E+02  0.51100000000E-03 0. -1.
         11   -1    0    0    0    0 -0.00000000000E+00 -0.00000000000E+00 -0.45593999997E+02  0.45594000000E+02  0.51100000000E-03 0.  1.
    9900012    2    1    2    0    0 -0.99487217930E+00  0.59823869887E+00 -0.21301785611E+00  0.90007730200E+02  0.89999991439E+02 0.  0.
        -12    1    1    2    0    0  0.99487217930E+00 -0.59823869887E+00  0.21301785611E+00  0.11802698001E+01  0.00000000000E+00 0.  1.
         11    1    3    3    0    0  0.31740320033E+02  0.22501750342E+02 -0.39084867714E+01  0.39103106697E+02  0.51100000000E-03 0. -1.
        -11    1    3    3    0    0  0.35549723123E+01 -0.34429592140E+01  0.85719033147E+01  0.98979453923E+01  0.51100000000E-03 0.  1.
        -12    1    3    3    0    0 -0.36290164525E+02 -0.18460552429E+02 -0.48764343995E+01  0.41006678111E+02  0.00000000000E+00 0.  1.
</event>
<event>
 7    1  0.2542335E-015  0.9000771E+02  0.7816164E-02  0.1186339E+00
        -11   -1    0    0    0    0  0.00000000000E+00  0.00000000000E+00  0.45593999997E+02  0.45594000000E+02  0.51100000000E-03 0.  1.
         11   -1    0    0    0    0 -0.00000000000E+00 -0.00000000000E+00 -0.45593999997E+02  0.45594000000E+02  0.51100000000E-03 0. -1.
    9900012    2    1    2    0    0  0.50933645275E+00 -0.74517288957E+00  0.76051824161E+00  0.90007705862E+02  0.89999966779E+02 0.  0.
        -12    1    1    2    0    0 -0.50933645275E+00  0.74517288957E+00 -0.76051824161E+00  0.11802941385E+01  0.00000000000E+00 0.  1.
         11    1    3    3    0    0 -0.11038249245E+02 -0.10158916548E+02 -0.11290498202E+02  0.18775566083E+02  0.51100000000E-03 0. -1.
        -11    1    3    3    0    0 -0.20386777398E+01 -0.23225293344E+02  0.24433784640E+02  0.33772478291E+02  0.51100000000E-03 0.  1.
         12    1    3    3    0    0  0.13586263438E+02  0.32639037002E+02 -0.12382768196E+02  0.37459661488E+02  0.00000000000E+00 0. -1.
</event>
<event>
 7    1  0.2542335E-015  0.9000783E+02  0.7816164E-02  0.1186339E+00
        -11   -1    0    0    0    0  0.00000000000E+00  0.00000000000E+00  0.45593999997E+02  0.45594000000E+02  0.51100000000E-03 0.  1.
         11   -1    0    0    0    0 -0.00000000000E+00 -0.00000000000E+00 -0.45593999997E+02  0.45594000000E+02  0.51100000000E-03 0. -1.
    9900012    2    1    2    0    0  0.93230007923E+00 -0.50127105741E+00 -0.52185584589E+00  0.90007834912E+02  0.90000097533E+02 0.  0.
        -12    1    1    2    0    0 -0.93230007923E+00  0.50127105741E+00  0.52185584589E+00  0.11801650879E+01  0.00000000000E+00 0.  1.
         11    1    3    3    0    0  0.70278803994E+00  0.33979630089E+02 -0.11574231653E+02  0.35903648987E+02  0.51100000000E-03 0. -1.
        -11    1    3    3    0    0 -0.29858429157E+01  0.88874019937E+01  0.70027786134E+00  0.94016786511E+01  0.51100000000E-03 0.  1.
        -12    1    3    3    0    0  0.32153549549E+01 -0.43368303140E+02  0.10352097946E+02  0.44702507274E+02  0.00000000000E+00 0.  1.
</event>
<event>
 7    1  0.2542335E-015  0.9000803E+02  0.7816164E-02  0.1186338E+00
        -11   -1    0    0    0    0  0.00000000000E+00  0.00000000000E+00  0.45593999997E+02  0.45594000000E+02  0.51100000000E-03 0.  1.
         11   -1    0    0    0    0 -0.00000000000E+00 -0.00000000000E+00 -0.45593999997E+02  0.45594000000E+02  0.51100000000E-03 0. -1.
    9900012    2    1    2    0    0 -0.73248388894E-01 -0.11127945850E+01 -0.38554923866E+00  0.90008031640E+02  0.90000296857E+02 0.  0.
        -12    1    1    2    0    0  0.73248388894E-01  0.11127945850E+01  0.38554923866E+00  0.11799683599E+01  0.00000000000E+00 0.  1.
         11    1    3    3    0    0 -0.22675688628E+02 -0.22626871188E+02 -0.23224429161E+02  0.39566858159E+02  0.51100000000E-03 0. -1.
        -11    1    3    3    0    0  0.47123472212E+01 -0.83338196013E+00 -0.73930164476E+01  0.88066698746E+01  0.51100000000E-03 0.  1.
        -12    1    3    3    0    0  0.17890093018E+02  0.22347458563E+02  0.30231896370E+02  0.41634503606E+02  0.00000000000E+00 0.  1.
</event>
<event>
 7    1  0.2542335E-015  0.9000775E+02  0.7816164E-02  0.1186339E+00
        -11   -1    0    0    0    0  0.00000000000E+00  0.00000000000E+00  0.45593999997E+02  0.45594000000E+02  0.51100000000E-03 0.  1.
         11   -1    0    0    0    0 -0.00000000000E+00 -0.00000000000E+00 -0.45593999997E+02  0.45594000000E+02  0.51100000000E-03 0. -1.
    9900012    2    1    2    0    0  0.17950273014E+00  0.10901310975E+01 -0.41519126886E+00  0.90007749675E+02  0.90000011171E+02 0.  0.
        -12    1    1    2    0    0 -0.17950273014E+00 -0.10901310975E+01  0.41519126886E+00  0.11802503249E+01  0.00000000000E+00 0.  1.
         11    1    3    3    0    0 -0.60648083421E+01 -0.32991710339E+02  0.22416099818E+02  0.40344967252E+02  0.51100000000E-03 0. -1.
        -11    1    3    3    0    0  0.10023286007E+02  0.29721057213E+01  0.69282016854E+00  0.10477579627E+02  0.51100000000E-03 0.  1.
        -12    1    3    3    0    0 -0.37789749343E+01  0.31109735715E+02 -0.23524111255E+02  0.39185202796E+02  0.00000000000E+00 0.  1.
</event>
<event>
 7    1  0.2542335E-015  0.9000773E+02  0.7816164E-02  0.1186339E+00
        -11   -1    0    0    0    0  0.00000000000E+00  0.00000000000E+00  0.45593999997E+02  0.45594000000E+02  0.51100000000E-03 0.  1.
         11   -1    0    0    0    0 -0.00000000000E+00 -0.00000000000E+00 -0.45593999997E+02  0.45594000000E+02  0.51100000000E-03 0. -1.
    9900012    2    1    2    0    0 -0.22917037570E+00 -0.87820233289E+00 -0.75449798420E+00  0.90007734942E+02  0.89999996243E+02 0.  0.
        -12    1    1    2    0    0  0.22917037570E+00  0.87820233289E+00  0.75449798420E+00  0.11802650578E+01  0.00000000000E+00 0.  1.
         11    1    3    3    0    0 -0.25562961269E+01 -0.59315749575E+01  0.62090270214E+01  0.89593665054E+01  0.51100000000E-03 0. -1.
        -11    1    3    3    0    0  0.19690999836E+02  0.49354061038E+01  0.32281285819E+02  0.38133648165E+02  0.51100000000E-03 0.  1.
         12    1    3    3    0    0 -0.17363874085E+02  0.11796652085E+00 -0.39244810825E+02  0.42914720272E+02  0.00000000000E+00 0. -1.
</event>
<event>
 7    1  0.2542335E-015  0.9000775E+02  0.7816164E-02  0.1186339E+00
        -11   -1    0    0    0    0  0.00000000000E+00  0.00000000000E+00  0.45593999997E+02  0.45594000000E+02  0.51100000000E-03 0.  1.
         11   -1    0    0    0    0 -0.00000000000E+00 -0.00000000000E+00 -0.45593999997E+02  0.45594000000E+02  0.51100000000E-03 0. -1.
    9900012    2    1    2    0    0 -0.20689552640E+00 -0.92240399712E+00 -0.70665270342E+00  0.90007748783E+02  0.90000010267E+02 0.  0.
        -12    1    1    2    0    0  0.20689552640E+00  0.92240399712E+00  0.70665270342E+00  0.11802512173E+01  0.00000000000E+00 0.  1.
         11    1    3    3    0    0 -0.10407401843E+00  0.89724261253E+01 -0.43176922014E+01  0.99577973559E+01  0.51100000000E-03 0. -1.
        -11    1    3    3    0    0  0.30097172280E+02  0.17655431234E+02  0.14436982439E+02  0.37762156897E+02  0.51100000000E-03 0.  1.
         12    1    3    3    0    0 -0.30199993788E+02 -0.27550261357E+02 -0.10825942941E+02  0.42287794530E+02  0.00000000000E+00 0. -1.
</event>
<event>
 7    1  0.2542335E-015  0.9000777E+02  0.7816164E-02  0.1186339E+00
        -11   -1    0    0    0    0  0.00000000000E+00  0.00000000000E+00  0.45593999997E+02  0.45594000000E+02  0.51100000000E-03 0.  1.
         11   -1    0    0    0    0 -0.00000000000E+00 -0.00000000000E+00 -0.45593999997E+02  0.45594000000E+02  0.51100000000E-03 0. -1.
    9900012    2    1    2    0    0 -0.27150731261E+00  0.10732896546E+01 -0.40899494141E+00  0.90007769613E+02  0.90000031372E+02 0.  0.
        -12    1    1    2    0    0  0.27150731261E+00 -0.10732896546E+01  0.40899494141E+00  0.11802303866E+01  0.00000000000E+00 0.  1.
         11    1    3    3    0    0  0.37894934935E+02  0.24439833761E+01  0.37916344626E+01  0.38162489969E+02  0.51100000000E-03 0. -1.
        -11    1    3    3    0    0  0.36774978886E+01  0.52078737390E-01 -0.89812299364E+01  0.97051117638E+01  0.51100000000E-03 0.  1.
        -12    1    3    3    0    0 -0.41843940136E+02 -0.14227724589E+01  0.47806005324E+01  0.42140167881E+02  0.00000000000E+00 0.  1.
</event>
<event>
 7    1  0.2542335E-015  0.9000768E+02  0.7816164E-02  0.1186339E+00
        -11   -1    0    0    0    0  0.00000000000E+00  0.00000000000E+00  0.45593999997E+02  0.45594000000E+02  0.51100000000E-03 0.  1.
         11   -1    0    0    0    0 -0.00000000000E+00 -0.00000000000E+00 -0.45593999997E+02  0.45594000000E+02  0.51100000000E-03 0. -1.
    9900012    2    1    2    0    0  0.87858133489E+00  0.54444596145E+00 -0.56994439001E+00  0.90007676665E+02  0.89999937197E+02 0.  0.
        -12    1    1    2    0    0 -0.87858133489E+00 -0.54444596145E+00  0.56994439001E+00  0.11803233348E+01  0.00000000000E+00 0.  1.
         11    1    3    3    0    0  0.56711667141E+01  0.71191944079E+01 -0.54399509964E+00  0.91181682286E+01  0.51100000000E-03 0. -1.
        -11    1    3    3    0    0  0.25437668935E+02  0.20514600755E+02  0.17041293983E+02  0.36855522596E+02  0.51100000000E-03 0.  1.
         12    1    3    3    0    0 -0.30230254314E+02 -0.27089349201E+02 -0.17067243274E+02  0.44033985840E+02  0.00000000000E+00 0. -1.
</event>
<event>
 7    1  0.2542335E-015  0.9000778E+02  0.7816164E-02  0.1186339E+00
        -11   -1    0    0    0    0  0.00000000000E+00  0.00000000000E+00  0.45593999997E+02  0.45594000000E+02  0.51100000000E-03 0.  1.
         11   -1    0    0    0    0 -0.00000000000E+00 -0.00000000000E+00 -0.45593999997E+02  0.45594000000E+02  0.51100000000E-03 0. -1.
    9900012    2    1    2    0    0  0.11746597623E+01 -0.12308359643E-01 -0.11371632998E+00  0.90007784572E+02  0.90000046528E+02 0.  0.
        -12    1    1    2    0    0 -0.11746597623E+01  0.12308359643E-01  0.11371632998E+00  0.11802154281E+01  0.00000000000E+00 0.  1.
         11    1    3    3    0    0  0.33478605432E+02  0.12925066811E+02  0.21482218239E+02  0.41825352055E+02  0.51100000000E-03 0. -1.
        -11    1    3    3    0    0 -0.55405534846E+01 -0.57424484109E+01  0.52871719542E+01  0.95722324565E+01  0.51100000000E-03 0.  1.
        -12    1    3    3    0    0 -0.26763392185E+02 -0.71949267599E+01 -0.26883106524E+02  0.38610200060E+02  0.00000000000E+00 0.  1.
</event>
<event>
 7    1  0.2542335E-015  0.9000776E+02  0.7816164E-02  0.1186339E+00
        -11   -1    0    0    0    0  0.00000000000E+00  0.00000000000E+00  0.45593999997E+02  0.45594000000E+02  0.51100000000E-03 0.  1.
         11   -1    0    0    0    0 -0.00000000000E+00 -0.00000000000E+00 -0.45593999997E+02  0.45594000000E+02  0.51100000000E-03 0. -1.
    9900012    2    1    2    0    0  0.11577757368E+01  0.22715177363E+00  0.30506329659E-01  0.90007757135E+02  0.90000018729E+02 0.  0.
        -12    1    1    2    0    0 -0.11577757368E+01 -0.22715177363E+00 -0.30506329659E-01  0.11802428654E+01  0.00000000000E+00 0.  1.
         11    1    3    3    0    0 -0.13727190684E+01 -0.53308073016E+01  0.80968790907E+01  0.97908791944E+01  0.51100000000E-03 0. -1.
        -11    1    3    3    0    0 -0.32689841979E+02  0.78823979812E+01  0.16257445981E+02  0.37350535694E+02  0.51100000000E-03 0.  1.
         12    1    3    3    0    0  0.35220336784E+02 -0.23244389060E+01 -0.24323818742E+02  0.42866342247E+02  0.00000000000E+00 0. -1.
</event>
<event>
 7    1  0.2542335E-015  0.9000786E+02  0.7816164E-02  0.1186339E+00
        -11   -1    0    0    0    0  0.00000000000E+00  0.00000000000E+00  0.45593999997E+02  0.45594000000E+02  0.51100000000E-03 0. -1.
         11   -1    0    0    0    0 -0.00000000000E+00 -0.00000000000E+00 -0.45593999997E+02  0.45594000000E+02  0.51100000000E-03 0.  1.
    9900012    2    1    2    0    0  0.41754942338E+00  0.10722317411E+01  0.26212749396E+00  0.90007856258E+02  0.90000119161E+02 0.  0.
        -12    1    1    2    0    0 -0.41754942338E+00 -0.10722317411E+01 -0.26212749396E+00  0.11801437416E+01  0.00000000000E+00 0.  1.
         11    1    3    3    0    0 -0.71586387896E+01 -0.36949459142E+01  0.27574894927E+01  0.85148389998E+01  0.51100000000E-03 0. -1.
        -11    1    3    3    0    0  0.23341914892E+02  0.33490779526E+02  0.16024978071E+02  0.43855184717E+02  0.51100000000E-03 0.  1.
         12    1    3    3    0    0 -0.15765726679E+02 -0.28723601871E+02 -0.18520340070E+02  0.37637832542E+02  0.00000000000E+00 0. -1.
</event>
<event>
 7    1  0.2542335E-015  0.9000776E+02  0.7816164E-02  0.1186339E+00
        -11   -1    0    0    0    0  0.00000000000E+00  0.00000000000E+00  0.45593999997E+02  0.45594000000E+02  0.51100000000E-03 0. -1.
         11   -1    0    0    0    0 -0.00000000000E+00 -0.00000000000E+00 -0.45593999997E+02  0.45594000000E+02  0.51100000000E-03 0.  1.
    9900012    2    1    2    0    0 -0.10222377224E+01  0.76184852927E-01  0.58498049320E+00  0.90007755843E+02  0.90000017420E+02 0.  0.
        -12    1    1    2    0    0  0.10222377224E+01 -0.76184852927E-01 -0.58498049320E+00  0.11802441571E+01  0.00000000000E+00 0.  1.
         11    1    3    3    0    0  0.18797935396E+02  0.24110172436E+02  0.24647192962E+02  0.39270178395E+02  0.51100000000E-03 0. -1.
        -11    1    3    3    0    0 -0.32402834596E+01 -0.35771864395E+01  0.79417027307E+01  0.92933493556E+01  0.51100000000E-03 0.  1.
        -12    1    3    3    0    0 -0.16579889659E+02 -0.20456801143E+02 -0.32003915199E+02  0.41444228092E+02  0.00000000000E+00 0.  1.
</event>
<event>
 7    1  0.2542335E-015  0.9000759E+02  0.7816164E-02  0.1186339E+00
        -11   -1    0    0    0    0  0.00000000000E+00  0.00000000000E+00  0.45593999997E+02  0.45594000000E+02  0.51100000000E-03 0. -1.
         11   -1    0    0    0    0 -0.00000000000E+00 -0.00000000000E+00 -0.45593999997E+02  0.45594000000E+02  0.51100000000E-03 0.  1.
    9900012    2    1    2    0    0  0.14667137767E+00 -0.13356972397E+00  0.11636205335E+01  0.90007590702E+02  0.89999850099E+02 0.  0.
        -12    1    1    2    0    0 -0.14667137767E+00  0.13356972397E+00 -0.11636205335E+01  0.11804092977E+01  0.00000000000E+00 0.  1.
         11    1    3    3    0    0 -0.28187055596E+02 -0.21300737145E+02  0.65661852943E+01  0.35935307090E+02  0.51100000000E-03 0. -1.
        -11    1    3    3    0    0 -0.67965719448E+01 -0.53406228589E+01  0.32243227413E+01  0.92256110976E+01  0.51100000000E-03 0.  1.
        -12    1    3    3    0    0  0.35130298918E+02  0.26507790280E+02 -0.86268875021E+01  0.44846672514E+02  0.00000000000E+00 0.  1.
</event>
<event>
 7    1  0.2542335E-015  0.9000786E+02  0.7816164E-02  0.1186339E+00
        -11   -1    0    0    0    0  0.00000000000E+00  0.00000000000E+00  0.45593999997E+02  0.45594000000E+02  0.51100000000E-03 0. -1.
         11   -1    0    0    0    0 -0.00000000000E+00 -0.00000000000E+00 -0.45593999997E+02  0.45594000000E+02  0.51100000000E-03 0.  1.
    9900012    2    1    2    0    0 -0.81204557597E+00 -0.94318796524E-01  0.85112436929E+00  0.90007861557E+02  0.90000124529E+02 0.  0.
        -12    1    1    2    0    0  0.81204557597E+00  0.94318796524E-01 -0.85112436929E+00  0.11801384431E+01  0.00000000000E+00 0.  1.
         11    1    3    3    0    0  0.11914377280E+02  0.81260336036E+01  0.39401108026E+02  0.41957503763E+02  0.51100000000E-03 0. -1.
        -11    1    3    3    0    0 -0.90562785009E+01  0.23149963351E+01 -0.16388280109E+01  0.94900551014E+01  0.51100000000E-03 0.  1.
        -12    1    3    3    0    0 -0.36701443546E+01 -0.10535348735E+02 -0.36911155646E+02  0.38560302692E+02  0.00000000000E+00 0.  1.
</event>
<event>
 7    1  0.2542335E-015  0.9000780E+02  0.7816164E-02  0.1186339E+00
        -11   -1    0    0    0    0  0.00000000000E+00  0.00000000000E+00  0.45593999997E+02  0.45594000000E+02  0.51100000000E-03 0.  1.
         11   -1    0    0    0    0 -0.00000000000E+00 -0.00000000000E+00 -0.45593999997E+02  0.45594000000E+02  0.51100000000E-03 0. -1.
    9900012    2    1    2    0    0  0.10187235019E+00 -0.96863950890E+00 -0.66650390417E+00  0.90007801742E+02  0.90000063925E+02 0.  0.
        -12    1    1    2    0    0 -0.10187235019E+00  0.96863950890E+00  0.66650390417E+00  0.11801982580E+01  0.00000000000E+00 0.  1.
         11    1    3    3    0    0 -0.33841443512E+01  0.37440504689E+00 -0.81584534187E+01  0.88404171042E+01  0.51100000000E-03 0. -1.
        -11    1    3    3    0    0  0.31344218263E+02 -0.25465246050E+02 -0.80399008733E+01  0.41177406198E+02  0.51100000000E-03 0.  1.
         12    1    3    3    0    0 -0.27858201561E+02  0.24122201494E+02  0.15531850388E+02  0.39989978440E+02  0.00000000000E+00 0. -1.
</event>
<event>
 7    1  0.2542335E-015  0.9000775E+02  0.7816164E-02  0.1186339E+00
        -11   -1    0    0    0    0  0.00000000000E+00  0.00000000000E+00  0.45593999997E+02  0.45594000000E+02  0.51100000000E-03 0. -1.
         11   -1    0    0    0    0 -0.00000000000E+00 -0.00000000000E+00 -0.45593999997E+02  0.45594000000E+02  0.51100000000E-03 0.  1.
    9900012    2    1    2    0    0 -0.35434352953E+00 -0.41527465057E+00  0.10464098843E+01  0.90007751713E+02  0.90000013236E+02 0.  0.
        -12    1    1    2    0    0  0.35434352953E+00  0.41527465057E+00 -0.10464098843E+01  0.11802482868E+01  0.00000000000E+00 0.  1.
         11    1    3    3    0    0 -0.26142426359E+02 -0.47513576825E+01  0.27438449382E+02  0.38195161480E+02  0.51100000000E-03 0. -1.
        -11    1    3    3    0    0 -0.79038452468E+01 -0.45576507599E+01 -0.21797281067E+01  0.93805205088E+01  0.51100000000E-03 0.  1.
        -12    1    3    3    0    0  0.33691928076E+02  0.88937337919E+01 -0.24212311391E+02  0.42432069725E+02  0.00000000000E+00 0.  1.
</event>
<event>
 7    1  0.2542335E-015  0.9000769E+02  0.7816164E-02  0.1186339E+00
        -11   -1    0    0    0    0  0.00000000000E+00  0.00000000000E+00  0.45593999997E+02  0.45594000000E+02  0.51100000000E-03 0.  1.
         11   -1    0    0    0    0 -0.00000000000E+00 -0.00000000000E+00 -0.45593999997E+02  0.45594000000E+02  0.51100000000E-03 0. -1.
    9900012    2    1    2    0    0 -0.38461145615E+00  0.45163911155E+00 -0.10204055614E+01  0.90007690139E+02  0.89999950848E+02 0.  0.
        -12    1    1    2    0    0  0.38461145615E+00 -0.45163911155E+00  0.10204055614E+01  0.11803098615E+01  0.00000000000E+00 0.  1.
         11    1    3    3    0    0  0.64481345612E+01  0.10694188399E+00 -0.24660163017E+02  0.25489478538E+02  0.51100000000E-03 0. -1.
        -11    1    3    3    0    0  0.26362945906E+02  0.80253860423E+00  0.65379866031E+01  0.27173410793E+02  0.51100000000E-03 0.  1.
         12    1    3    3    0    0 -0.33195691924E+02 -0.45784137667E+00  0.17101770852E+02  0.37344800807E+02  0.00000000000E+00 0. -1.
</event>
<event>
 7    1  0.2542335E-015  0.9000770E+02  0.7816164E-02  0.1186339E+00
        -11   -1    0    0    0    0  0.00000000000E+00  0.00000000000E+00  0.45593999997E+02  0.45594000000E+02  0.51100000000E-03 0. -1.
         11   -1    0    0    0    0 -0.00000000000E+00 -0.00000000000E+00 -0.45593999997E+02  0.45594000000E+02  0.51100000000E-03 0.  1.
    9900012    2    1    2    0    0 -0.12138417193E+00 -0.30056073272E+00  0.11349121668E+01  0.90007704911E+02  0.89999965816E+02 0.  0.
        -12    1    1    2    0    0  0.12138417193E+00  0.30056073272E+00 -0.11349121668E+01  0.11802950892E+01  0.00000000000E+00 0.  1.
         11    1    3    3    0    0  0.98817675644E+01 -0.20225335421E+02  0.24076386066E+02  0.32960368465E+02  0.51100000000E-03 0. -1.
        -11    1    3    3    0    0 -0.17490612437E+02 -0.59950333439E+01  0.40023247232E+01  0.18917731145E+02  0.51100000000E-03 0.  1.
         12    1    3    3    0    0  0.74874607005E+01  0.25919808033E+02 -0.26943798623E+02  0.38129605301E+02  0.00000000000E+00 0. -1.
</event>
<event>
 7    1  0.2542335E-015  0.9000772E+02  0.7816164E-02  0.1186339E+00
        -11   -1    0    0    0    0  0.00000000000E+00  0.00000000000E+00  0.45593999997E+02  0.45594000000E+02  0.51100000000E-03 0. -1.
         11   -1    0    0    0    0 -0.00000000000E+00 -0.00000000000E+00 -0.45593999997E+02  0.45594000000E+02  0.51100000000E-03 0.  1.
    9900012    2    1    2    0    0 -0.30029600398E+00 -0.36730973785E+00  0.10807303943E+01  0.90007715154E+02  0.89999976194E+02 0.  0.
        -12    1    1    2    0    0  0.30029600398E+00  0.36730973785E+00 -0.10807303943E+01  0.11802848464E+01  0.00000000000E+00 0.  1.
         11    1    3    3    0    0 -0.11714103630E+02  0.21437449731E+01 -0.73417562988E+01  0.13989898219E+02  0.51100000000E-03 0. -1.
        -11    1    3    3    0    0 -0.15170163008E+01 -0.35039908854E+02  0.18417049728E+02  0.39614192809E+02  0.51100000000E-03 0.  1.
         12    1    3    3    0    0  0.12930823927E+02  0.32528854143E+02 -0.99945630347E+01  0.36403624126E+02  0.00000000000E+00 0. -1.
</event>
<event>
 7    1  0.2542335E-015  0.9000777E+02  0.7816164E-02  0.1186339E+00
        -11   -1    0    0    0    0  0.00000000000E+00  0.00000000000E+00  0.45593999997E+02  0.45594000000E+02  0.51100000000E-03 0.  1.
         11   -1    0    0    0    0 -0.00000000000E+00 -0.00000000000E+00 -0.45593999997E+02  0.45594000000E+02  0.51100000000E-03 0. -1.
    9900012    2    1    2    0    0 -0.53675044520E+00  0.10468424548E+01 -0.94628098564E-01  0.90007773478E+02  0.90000035288E+02 0.  0.
        -12    1    1    2    0    0  0.53675044520E+00 -0.10468424548E+01  0.94628098564E-01  0.11802265218E+01  0.00000000000E+00 0.  1.
         11    1    3    3    0    0 -0.91564841084E+00  0.10930572328E+02  0.87543170342E+00  0.11003735928E+02  0.51100000000E-03 0. -1.
        -11    1    3    3    0    0  0.21036592121E+02  0.27197516362E+02  0.87042675997E+01  0.35468399725E+02  0.51100000000E-03 0.  1.
         12    1    3    3    0    0 -0.20657694155E+02 -0.37081246236E+02 -0.96743274017E+01  0.43535637826E+02  0.00000000000E+00 0. -1.
</event>
<event>
 7    1  0.2542335E-015  0.9000777E+02  0.7816164E-02  0.1186339E+00
        -11   -1    0    0    0    0  0.00000000000E+00  0.00000000000E+00  0.45593999997E+02  0.45594000000E+02  0.51100000000E-03 0. -1.
         11   -1    0    0    0    0 -0.00000000000E+00 -0.00000000000E+00 -0.45593999997E+02  0.45594000000E+02  0.51100000000E-03 0.  1.
    9900012    2    1    2    0    0 -0.55742913260E+00 -0.98330973868E+00  0.33957840516E+00  0.90007771728E+02  0.90000033515E+02 0.  0.
        -12    1    1    2    0    0  0.55742913260E+00  0.98330973868E+00 -0.33957840516E+00  0.11802282717E+01  0.00000000000E+00 0.  1.
         11    1    3    3    0    0  0.99332941506E+01  0.20593692890E+02  0.33684580748E+02  0.40711441880E+02  0.51100000000E-03 0. -1.
        -11    1    3    3    0    0  0.76053575720E+01  0.63041689089E+00 -0.78379858571E+01  0.10939511498E+02  0.51100000000E-03 0.  1.
        -12    1    3    3    0    0 -0.18096080855E+02 -0.22207419519E+02 -0.25507016485E+02  0.38356818351E+02  0.00000000000E+00 0.  1.
</event>
<event>
 7    1  0.2542335E-015  0.9000828E+02  0.7816164E-02  0.1186338E+00
        -11   -1    0    0    0    0  0.00000000000E+00  0.00000000000E+00  0.45593999997E+02  0.45594000000E+02  0.51100000000E-03 0.  1.
         11   -1    0    0    0    0 -0.00000000000E+00 -0.00000000000E+00 -0.45593999997E+02  0.45594000000E+02  0.51100000000E-03 0. -1.
    9900012    2    1    2    0    0 -0.97748823693E+00 -0.61099505093E+00 -0.25087293413E+00  0.90008281629E+02  0.90000550145E+02 0.  0.
        -12    1    1    2    0    0  0.97748823693E+00  0.61099505093E+00  0.25087293413E+00  0.11797183709E+01  0.00000000000E+00 0.  1.
         11    1    3    3    0    0 -0.31544949091E+02 -0.20458950633E+02 -0.13200055751E+02  0.39848386997E+02  0.51100000000E-03 0. -1.
        -11    1    3    3    0    0 -0.25033174879E+01  0.11757004983E+02 -0.32561402720E+01  0.12453763060E+02  0.51100000000E-03 0.  1.
        -12    1    3    3    0    0  0.33070778342E+02  0.80909505984E+01  0.16205323089E+02  0.37706131572E+02  0.00000000000E+00 0.  1.
</event>
<event>
 7    1  0.2542335E-015  0.9000771E+02  0.7816164E-02  0.1186339E+00
        -11   -1    0    0    0    0  0.00000000000E+00  0.00000000000E+00  0.45593999997E+02  0.45594000000E+02  0.51100000000E-03 0. -1.
         11   -1    0    0    0    0 -0.00000000000E+00 -0.00000000000E+00 -0.45593999997E+02  0.45594000000E+02  0.51100000000E-03 0.  1.
    9900012    2    1    2    0    0 -0.18086819582E+00  0.92761438853E+00  0.70703987088E+00  0.90007708876E+02  0.89999969833E+02 0.  0.
        -12    1    1    2    0    0  0.18086819582E+00 -0.92761438853E+00 -0.70703987088E+00  0.11802911239E+01  0.00000000000E+00 0.  1.
         11    1    3    3    0    0 -0.53157617634E+01 -0.72183487510E+01  0.64404528099E+00  0.89875845699E+01  0.51100000000E-03 0. -1.
        -11    1    3    3    0    0 -0.24011866903E+02 -0.10658860064E+02  0.26569916044E+02  0.37364976768E+02  0.51100000000E-03 0.  1.
         12    1    3    3    0    0  0.29146760471E+02  0.18804823203E+02 -0.26506921454E+02  0.43655147538E+02  0.00000000000E+00 0. -1.
</event>
<event>
 7    1  0.2542335E-015  0.9000779E+02  0.7816164E-02  0.1186339E+00
        -11   -1    0    0    0    0  0.00000000000E+00  0.00000000000E+00  0.45593999997E+02  0.45594000000E+02  0.51100000000E-03 0. -1.
         11   -1    0    0    0    0 -0.00000000000E+00 -0.00000000000E+00 -0.45593999997E+02  0.45594000000E+02  0.51100000000E-03 0.  1.
    9900012    2    1    2    0    0  0.44150224841E+00 -0.17985513076E+00  0.10796452354E+01  0.90007785639E+02  0.90000047610E+02 0.  0.
        -12    1    1    2    0    0 -0.44150224841E+00  0.17985513076E+00 -0.10796452354E+01  0.11802143609E+01  0.00000000000E+00 0.  1.
         11    1    3    3    0    0  0.32449936695E+02 -0.15236856015E+02  0.21427165911E+01  0.35913109130E+02  0.51100000000E-03 0. -1.
        -11    1    3    3    0    0  0.94815598126E+01 -0.38695081177E+00  0.20706856851E+01  0.97127466187E+01  0.51100000000E-03 0.  1.
        -12    1    3    3    0    0 -0.41489994259E+02  0.15443951696E+02 -0.31337570408E+01  0.44381929890E+02  0.00000000000E+00 0.  1.
</event>
<event>
 7    1  0.2542335E-015  0.9000780E+02  0.7816164E-02  0.1186339E+00
        -11   -1    0    0    0    0  0.00000000000E+00  0.00000000000E+00  0.45593999997E+02  0.45594000000E+02  0.51100000000E-03 0. -1.
         11   -1    0    0    0    0 -0.00000000000E+00 -0.00000000000E+00 -0.45593999997E+02  0.45594000000E+02  0.51100000000E-03 0.  1.
    9900012    2    1    2    0    0 -0.64680632934E+00 -0.58664416558E+00  0.79394875605E+00  0.90007803223E+02  0.90000065426E+02 0.  0.
        -12    1    1    2    0    0  0.64680632934E+00  0.58664416558E+00 -0.79394875605E+00  0.11801967768E+01  0.00000000000E+00 0.  1.
         11    1    3    3    0    0  0.67934208462E+01 -0.45073121629E+01 -0.51666446657E+00  0.81690496485E+01  0.51100000000E-03 0. -1.
        -11    1    3    3    0    0  0.33441463091E+02 -0.82346355105E+01 -0.13058306948E+02  0.36832866523E+02  0.51100000000E-03 0.  1.
         12    1    3    3    0    0 -0.40881690267E+02  0.12155303508E+02  0.14368920171E+02  0.45005887052E+02  0.00000000000E+00 0. -1.
</event>
<event>
 7    1  0.2542335E-015  0.9000785E+02  0.7816164E-02  0.1186339E+00
        -11   -1    0    0    0    0  0.00000000000E+00  0.00000000000E+00  0.45593999997E+02  0.45594000000E+02  0.51100000000E-03 0.  1.
         11   -1    0    0    0    0 -0.00000000000E+00 -0.00000000000E+00 -0.45593999997E+02  0.45594000000E+02  0.51100000000E-03 0. -1.
    9900012    2    1    2    0    0  0.23149969114E+00 -0.64419568517E+00  0.96133479682E+00  0.90007853916E+02  0.90000116788E+02 0.  0.
        -12    1    1    2    0    0 -0.23149969114E+00  0.64419568517E+00 -0.96133479682E+00  0.11801460839E+01  0.00000000000E+00 0.  1.
         11    1    3    3    0    0 -0.82785684739E+01 -0.33386300466E+01 -0.55734463986E+01  0.10523518973E+02  0.51100000000E-03 0. -1.
        -11    1    3    3    0    0  0.11764120102E+02  0.36857327280E+02 -0.11966122341E+02  0.40497471281E+02  0.51100000000E-03 0.  1.
         12    1    3    3    0    0 -0.32540519371E+01 -0.34162892918E+02  0.18500903536E+02  0.38986863662E+02  0.00000000000E+00 0. -1.
</event>
<event>
 7    1  0.2542335E-015  0.9000778E+02  0.7816164E-02  0.1186339E+00
        -11   -1    0    0    0    0  0.00000000000E+00  0.00000000000E+00  0.45593999997E+02  0.45594000000E+02  0.51100000000E-03 0. -1.
         11   -1    0    0    0    0 -0.00000000000E+00 -0.00000000000E+00 -0.45593999997E+02  0.45594000000E+02  0.51100000000E-03 0.  1.
    9900012    2    1    2    0    0  0.19015833429E+00  0.18287368417E+00  0.11503548254E+01  0.90007780020E+02  0.90000041916E+02 0.  0.
        -12    1    1    2    0    0 -0.19015833429E+00 -0.18287368417E+00 -0.11503548254E+01  0.11802199799E+01  0.00000000000E+00 0.  1.
         11    1    3    3    0    0  0.43683543192E+01  0.11373838703E+02  0.17576827106E+01  0.12310003049E+02  0.51100000000E-03 0. -1.
        -11    1    3    3    0    0  0.27843911492E+02  0.21741948992E+01 -0.23186387513E+02  0.36299023359E+02  0.51100000000E-03 0.  1.
         12    1    3    3    0    0 -0.32022107477E+02 -0.13365159918E+02  0.22579059628E+02  0.41398753612E+02  0.00000000000E+00 0. -1.
</event>
<event>
 7    1  0.2542335E-015  0.9000767E+02  0.7816164E-02  0.1186339E+00
        -11   -1    0    0    0    0  0.00000000000E+00  0.00000000000E+00  0.45593999997E+02  0.45594000000E+02  0.51100000000E-03 0.  1.
         11   -1    0    0    0    0 -0.00000000000E+00 -0.00000000000E+00 -0.45593999997E+02  0.45594000000E+02  0.51100000000E-03 0. -1.
    9900012    2    1    2    0    0 -0.83265132756E+00  0.75570023682E+00  0.35886231780E+00  0.90007672400E+02  0.89999932875E+02 0.  0.
        -12    1    1    2    0    0  0.83265132756E+00 -0.75570023682E+00 -0.35886231780E+00  0.11803276004E+01  0.00000000000E+00 0.  1.
         11    1    3    3    0    0 -0.39343320660E+01  0.19752737897E+02 -0.96921800591E+01  0.22351464780E+02  0.51100000000E-03 0. -1.
        -11    1    3    3    0    0  0.75230051694E+00  0.18221497348E+02 -0.14250427134E+02  0.23144407433E+02  0.51100000000E-03 0.  1.
         12    1    3    3    0    0  0.23493802215E+01 -0.37218535008E+02  0.24301469511E+02  0.44511800187E+02  0.00000000000E+00 0. -1.
</event>
<event>
 7    1  0.2542335E-015  0.9000776E+02  0.7816164E-02  0.1186339E+00
        -11   -1    0    0    0    0  0.00000000000E+00  0.00000000000E+00  0.45593999997E+02  0.45594000000E+02  0.51100000000E-03 0. -1.
         11   -1    0    0    0    0 -0.00000000000E+00 -0.00000000000E+00 -0.45593999997E+02  0.45594000000E+02  0.51100000000E-03 0.  1.
    9900012    2    1    2    0    0  0.82698950897E+00  0.75003050036E+00 -0.38276755383E+00  0.90007759177E+02  0.90000020798E+02 0.  0.
        -12    1    1    2    0    0 -0.82698950897E+00 -0.75003050036E+00  0.38276755383E+00  0.11802408227E+01  0.00000000000E+00 0.  1.
         11    1    3    3    0    0  0.41472658690E+01 -0.15058711962E+01 -0.10695467721E+02  0.11569809518E+02  0.51100000000E-03 0. -1.
        -11    1    3    3    0    0  0.21795515923E+02 -0.20142285099E+02  0.27667620266E+02  0.40574048046E+02  0.51100000000E-03 0.  1.
         12    1    3    3    0    0 -0.25115792283E+02  0.22398186796E+02 -0.17354920099E+02  0.37863901613E+02  0.00000000000E+00 0. -1.
</event>
<event>
 7    1  0.2542335E-015  0.9000777E+02  0.7816164E-02  0.1186339E+00
        -11   -1    0    0    0    0  0.00000000000E+00  0.00000000000E+00  0.45593999997E+02  0.45594000000E+02  0.51100000000E-03 0.  1.
         11   -1    0    0    0    0 -0.00000000000E+00 -0.00000000000E+00 -0.45593999997E+02  0.45594000000E+02  0.51100000000E-03 0. -1.
    9900012    2    1    2    0    0  0.74787568424E-01  0.36337970043E+00 -0.11204036459E+01  0.90007770227E+02  0.90000031994E+02 0.  0.
        -12    1    1    2    0    0 -0.74787568424E-01 -0.36337970043E+00  0.11204036459E+01  0.11802297728E+01  0.00000000000E+00 0.  1.
         11    1    3    3    0    0 -0.92068838111E+01  0.82683090958E+01  0.42339934071E+00  0.12381878374E+02  0.51100000000E-03 0. -1.
        -11    1    3    3    0    0 -0.33079449242E+02 -0.94966772564E+01 -0.62357369146E+01  0.34976009724E+02  0.51100000000E-03 0.  1.
         12    1    3    3    0    0  0.42361120622E+02  0.15917478610E+01  0.46919339281E+01  0.42649882129E+02  0.00000000000E+00 0. -1.
</event>
<event>
 7    1  0.2542335E-015  0.9000699E+02  0.7816164E-02  0.1186341E+00
        -11   -1    0    0    0    0  0.00000000000E+00  0.00000000000E+00  0.45593999997E+02  0.45594000000E+02  0.51100000000E-03 0.  1.
         11   -1    0    0    0    0 -0.00000000000E+00 -0.00000000000E+00 -0.45593999997E+02  0.45594000000E+02  0.51100000000E-03 0. -1.
    9900012    2    1    2    0    0  0.33569316653E+00  0.10344552611E+01 -0.46044406683E+00  0.90006985043E+02  0.89999236443E+02 0.  0.
        -12    1    1    2    0    0 -0.33569316653E+00 -0.10344552611E+01  0.46044406683E+00  0.11810149567E+01  0.00000000000E+00 0.  1.
         11    1    3    3    0    0  0.95823360755E+01  0.30558626082E+02  0.92256147209E+00  0.32039068535E+02  0.51100000000E-03 0. -1.
        -11    1    3    3    0    0  0.52997252213E+01  0.12380930756E+02 -0.19390156958E+01  0.13606407165E+02  0.51100000000E-03 0.  1.
        -12    1    3    3    0    0 -0.14546368130E+02 -0.41905101577E+02  0.55601015691E+00  0.44361509343E+02  0.00000000000E+00 0.  1.
</event>
<event>
 7    1  0.2542335E-015  0.9000774E+02  0.7816164E-02  0.1186339E+00
        -11   -1    0    0    0    0  0.00000000000E+00  0.00000000000E+00  0.45593999997E+02  0.45594000000E+02  0.51100000000E-03 0. -1.
         11   -1    0    0    0    0 -0.00000000000E+00 -0.00000000000E+00 -0.45593999997E+02  0.45594000000E+02  0.51100000000E-03 0.  1.
    9900012    2    1    2    0    0 -0.11642692206E+01  0.51339075636E-01  0.18669905575E+00  0.90007739412E+02  0.90000000772E+02 0.  0.
        -12    1    1    2    0    0  0.11642692206E+01 -0.51339075636E-01 -0.18669905575E+00  0.11802605882E+01  0.00000000000E+00 0.  1.
         11    1    3    3    0    0 -0.57684799194E+01 -0.49103637810E+01 -0.56311566266E+01  0.94391185105E+01  0.51100000000E-03 0. -1.
        -11    1    3    3    0    0 -0.28995616849E+02 -0.25553603945E+01 -0.21852029350E+02  0.36397621491E+02  0.51100000000E-03 0.  1.
         12    1    3    3    0    0  0.33599827548E+02  0.75170632510E+01  0.27669885032E+02  0.44170999410E+02  0.00000000000E+00 0. -1.
</event>
<event>
 7    1  0.2542335E-015  0.9000805E+02  0.7816164E-02  0.1186338E+00
        -11   -1    0    0    0    0  0.00000000000E+00  0.00000000000E+00  0.45593999997E+02  0.45594000000E+02  0.51100000000E-03 0. -1.
         11   -1    0    0    0    0 -0.00000000000E+00 -0.00000000000E+00 -0.45593999997E+02  0.45594000000E+02  0.51100000000E-03 0.  1.
    9900012    2    1    2    0    0  0.47416071464E+00 -0.40126689289E+00  0.10032161034E+01  0.90008048284E+02  0.90000313720E+02 0.  0.
        -12    1    1    2    0    0 -0.47416071464E+00  0.40126689289E+00 -0.10032161034E+01  0.11799517163E+01  0.00000000000E+00 0.  1.
         11    1    3    3    0    0 -0.32060723525E+01 -0.66944052664E+01  0.13563383669E+01  0.75454367552E+01  0.51100000000E-03 0. -1.
        -11    1    3    3    0    0 -0.15508953758E+02  0.58725941555E+01 -0.37304002121E+02  0.40824056429E+02  0.51100000000E-03 0.  1.
         12    1    3    3    0    0  0.19189186826E+02  0.42054421802E+00  0.36950879858E+02  0.41638555099E+02  0.00000000000E+00 0. -1.
</event>
<event>
 7    1  0.2542335E-015  0.9000734E+02  0.7816164E-02  0.1186340E+00
        -11   -1    0    0    0    0  0.00000000000E+00  0.00000000000E+00  0.45593999997E+02  0.45594000000E+02  0.51100000000E-03 0. -1.
         11   -1    0    0    0    0 -0.00000000000E+00 -0.00000000000E+00 -0.45593999997E+02  0.45594000000E+02  0.51100000000E-03 0.  1.
    9900012    2    1    2    0    0  0.31780361201E-01  0.11726942242E+01 -0.13316514850E+00  0.90007341416E+02  0.89999597522E+02 0.  0.
        -12    1    1    2    0    0 -0.31780361201E-01 -0.11726942242E+01  0.13316514850E+00  0.11806585838E+01  0.00000000000E+00 0.  1.
         11    1    3    3    0    0  0.25494061706E+02 -0.98581610272E-01  0.18285581368E+02  0.31373864710E+02  0.51100000000E-03 0. -1.
        -11    1    3    3    0    0 -0.18136675335E+01 -0.13148302668E+02  0.11715451754E+02  0.17703645473E+02  0.51100000000E-03 0.  1.
        -12    1    3    3    0    0 -0.23648613811E+02  0.14419578502E+02 -0.30134198270E+02  0.40929831233E+02  0.00000000000E+00 0.  1.
</event>
<event>
 7    1  0.2542335E-015  0.9000777E+02  0.7816164E-02  0.1186339E+00
        -11   -1    0    0    0    0  0.00000000000E+00  0.00000000000E+00  0.45593999997E+02  0.45594000000E+02  0.51100000000E-03 0. -1.
         11   -1    0    0    0    0 -0.00000000000E+00 -0.00000000000E+00 -0.45593999997E+02  0.45594000000E+02  0.51100000000E-03 0.  1.
    9900012    2    1    2    0    0 -0.17303473281E+00 -0.46349081989E+00  0.10715309573E+01  0.90007769789E+02  0.90000031550E+02 0.  0.
        -12    1    1    2    0    0  0.17303473281E+00  0.46349081989E+00 -0.10715309573E+01  0.11802302111E+01  0.00000000000E+00 0.  1.
         11    1    3    3    0    0  0.79248001216E+01  0.29569493703E+01 -0.67414350181E+01  0.10816328070E+02  0.51100000000E-03 0. -1.
        -11    1    3    3    0    0  0.24628884605E+02  0.67370046789E+01 -0.22050972298E+02  0.33737435713E+02  0.51100000000E-03 0.  1.
         12    1    3    3    0    0 -0.32726719460E+02 -0.10157444869E+02  0.29863938273E+02  0.45454006006E+02  0.00000000000E+00 0. -1.
</event>
<event>
 7    1  0.2542335E-015  0.9000774E+02  0.7816164E-02  0.1186339E+00
        -11   -1    0    0    0    0  0.00000000000E+00  0.00000000000E+00  0.45593999997E+02  0.45594000000E+02  0.51100000000E-03 0.  1.
         11   -1    0    0    0    0 -0.00000000000E+00 -0.00000000000E+00 -0.45593999997E+02  0.45594000000E+02  0.51100000000E-03 0. -1.
    9900012    2    1    2    0    0 -0.62894584361E-01  0.10001452556E+01 -0.62350417746E+00  0.90007744214E+02  0.90000005638E+02 0.  0.
        -12    1    1    2    0    0  0.62894584361E-01 -0.10001452556E+01  0.62350417746E+00  0.11802557859E+01  0.00000000000E+00 0.  1.
         11    1    3    3    0    0  0.16272122708E+02 -0.57398042840E+01  0.28233400154E+02  0.33088551119E+02  0.51100000000E-03 0. -1.
        -11    1    3    3    0    0 -0.55401566547E+01  0.15753460885E+02  0.72237467010E+01  0.18194707535E+02  0.51100000000E-03 0.  1.
         12    1    3    3    0    0 -0.10794860638E+02 -0.90135113457E+01 -0.36080651032E+02  0.38724485560E+02  0.00000000000E+00 0. -1.
</event>
<event>
 7    1  0.2542335E-015  0.9000768E+02  0.7816164E-02  0.1186339E+00
        -11   -1    0    0    0    0  0.00000000000E+00  0.00000000000E+00  0.45593999997E+02  0.45594000000E+02  0.51100000000E-03 0. -1.
         11   -1    0    0    0    0 -0.00000000000E+00 -0.00000000000E+00 -0.45593999997E+02  0.45594000000E+02  0.51100000000E-03 0.  1.
    9900012    2    1    2    0    0 -0.61547748243E+00 -0.93947394332E+00  0.36295779573E+00  0.90007677085E+02  0.89999937623E+02 0.  0.
        -12    1    1    2    0    0  0.61547748243E+00  0.93947394332E+00 -0.36295779573E+00  0.11803229147E+01  0.00000000000E+00 0.  1.
         11    1    3    3    0    0 -0.16879017377E+02  0.23622142421E+02  0.19988471307E+02  0.35248345006E+02  0.51100000000E-03 0. -1.
        -11    1    3    3    0    0  0.40915218290E+01  0.11931079684E+02 -0.57804168418E+01  0.13874596658E+02  0.51100000000E-03 0.  1.
        -12    1    3    3    0    0  0.12172018066E+02 -0.36492696048E+02 -0.13845096670E+02  0.40884735421E+02  0.00000000000E+00 0.  1.
</event>
<event>
 7    1  0.2542335E-015  0.9000773E+02  0.7816164E-02  0.1186339E+00
        -11   -1    0    0    0    0  0.00000000000E+00  0.00000000000E+00  0.45593999997E+02  0.45594000000E+02  0.51100000000E-03 0.  1.
         11   -1    0    0    0    0 -0.00000000000E+00 -0.00000000000E+00 -0.45593999997E+02  0.45594000000E+02  0.51100000000E-03 0. -1.
    9900012    2    1    2    0    0  0.48847208346E+00  0.65754194473E+00 -0.84974967176E+00  0.90007728468E+02  0.89999989683E+02 0.  0.
        -12    1    1    2    0    0 -0.48847208346E+00 -0.65754194473E+00  0.84974967176E+00  0.11802715323E+01  0.00000000000E+00 0.  1.
         11    1    3    3    0    0  0.11261843168E+02 -0.34697323577E+02  0.16484161421E+02  0.40030750093E+02  0.51100000000E-03 0. -1.
        -11    1    3    3    0    0  0.95195912408E+01  0.12604016295E+02 -0.97490038750E+01  0.18561436393E+02  0.51100000000E-03 0.  1.
        -12    1    3    3    0    0 -0.20292962325E+02  0.22750849227E+02 -0.75849072181E+01  0.31415541981E+02  0.00000000000E+00 0.  1.
</event>
<event>
 7    1  0.2542335E-015  0.9000773E+02  0.7816164E-02  0.1186339E+00
        -11   -1    0    0    0    0  0.00000000000E+00  0.00000000000E+00  0.45593999997E+02  0.45594000000E+02  0.51100000000E-03 0.  1.
         11   -1    0    0    0    0 -0.00000000000E+00 -0.00000000000E+00 -0.45593999997E+02  0.45594000000E+02  0.51100000000E-03 0. -1.
    9900012    2    1    2    0    0 -0.34696877505E+00 -0.95366278720E+00  0.60263616819E+00  0.90007732914E+02  0.89999994189E+02 0.  0.
        -12    1    1    2    0    0  0.34696877505E+00  0.95366278720E+00 -0.60263616819E+00  0.11802670858E+01  0.00000000000E+00 0.  1.
         11    1    3    3    0    0  0.23369827410E+02  0.12007401468E+02 -0.21587131629E+02  0.34004863996E+02  0.51100000000E-03 0. -1.
        -11    1    3    3    0    0 -0.21203413464E+01  0.84429062640E+01 -0.89464928100E+01  0.12482717952E+02  0.51100000000E-03 0.  1.
        -12    1    3    3    0    0 -0.21596454838E+02 -0.21403970519E+02  0.31136260607E+02  0.43520150966E+02  0.00000000000E+00 0.  1.
</event>
<event>
 7    1  0.2542335E-015  0.9000785E+02  0.7816164E-02  0.1186339E+00
        -11   -1    0    0    0    0  0.00000000000E+00  0.00000000000E+00  0.45593999997E+02  0.45594000000E+02  0.51100000000E-03 0.  1.
         11   -1    0    0    0    0 -0.00000000000E+00 -0.00000000000E+00 -0.45593999997E+02  0.45594000000E+02  0.51100000000E-03 0. -1.
    9900012    2    1    2    0    0  0.85640505680E+00 -0.29757902265E+00 -0.75549810074E+00  0.90007847350E+02  0.90000110135E+02 0.  0.
        -12    1    1    2    0    0 -0.85640505680E+00  0.29757902265E+00  0.75549810074E+00  0.11801526496E+01  0.00000000000E+00 0.  1.
         11    1    3    3    0    0  0.91217878166E+01  0.25143213292E+00 -0.34366817257E+00  0.91317215881E+01  0.51100000000E-03 0. -1.
        -11    1    3    3    0    0  0.23456069631E+02  0.28943237331E+02 -0.37022158236E+01  0.37438009990E+02  0.51100000000E-03 0.  1.
         12    1    3    3    0    0 -0.31721452391E+02 -0.29492248486E+02  0.32903858954E+01  0.43438115773E+02  0.00000000000E+00 0. -1.
</event>
<event>
 7    1  0.2669275E-015  0.9000774E+02  0.7816164E-02  0.1186339E+00
        -11   -1    0    0    0    0  0.00000000000E+00  0.00000000000E+00  0.45593999997E+02  0.45594000000E+02  0.51100000000E-03 0. -1.
         11   -1    0    0    0    0 -0.00000000000E+00 -0.00000000000E+00 -0.45593999997E+02  0.45594000000E+02  0.51100000000E-03 0.  1.
    9900012    2    1    2    0    0  0.99928549393E+00 -0.10292523104E+00  0.61956376899E+00  0.90007735468E+02  0.89999996776E+02 0.  0.
        -12    1    1    2    0    0 -0.99928549393E+00  0.10292523104E+00 -0.61956376899E+00  0.11802645320E+01  0.00000000000E+00 0.  1.
         11    1    3    3    0    0  0.93084107692E+01 -0.30368763546E+01 -0.31828957512E+01  0.10295627939E+02  0.51100000000E-03 0. -1.
        -11    1    3    3    0    0  0.16611870311E+02  0.13065926767E+02 -0.29883765016E+02  0.36602077664E+02  0.51100000000E-03 0.  1.
         12    1    3    3    0    0 -0.24920995587E+02 -0.10131975643E+02  0.33686224536E+02  0.43110029865E+02  0.00000000000E+00 0. -1.
</event>
<event>
 7    1  0.2542335E-015  0.9000774E+02  0.7816164E-02  0.1186339E+00
        -11   -1    0    0    0    0  0.00000000000E+00  0.00000000000E+00  0.45593999997E+02  0.45594000000E+02  0.51100000000E-03 0. -1.
         11   -1    0    0    0    0 -0.00000000000E+00 -0.00000000000E+00 -0.45593999997E+02  0.45594000000E+02  0.51100000000E-03 0.  1.
    9900012    2    1    2    0    0  0.10570922659E+01 -0.49897907046E+00 -0.16304360753E+00  0.90007742660E+02  0.90000004063E+02 0.  0.
        -12    1    1    2    0    0 -0.10570922659E+01  0.49897907046E+00  0.16304360753E+00  0.11802573403E+01  0.00000000000E+00 0.  1.
         11    1    3    3    0    0  0.47088407945E+01 -0.17318603258E+02  0.30047437825E+02  0.34999367430E+02  0.51100000000E-03 0. -1.
        -11    1    3    3    0    0 -0.30714100163E+01 -0.43279104408E+01  0.90038309725E+01  0.10451475528E+02  0.51100000000E-03 0.  1.
        -12    1    3    3    0    0 -0.58033851229E+00  0.21147534628E+02 -0.39214312405E+02  0.44556899701E+02  0.00000000000E+00 0.  1.
</event>
<event>
 7    1  0.2542335E-015  0.9000751E+02  0.7816164E-02  0.1186340E+00
        -11   -1    0    0    0    0  0.00000000000E+00  0.00000000000E+00  0.45593999997E+02  0.45594000000E+02  0.51100000000E-03 0.  1.
         11   -1    0    0    0    0 -0.00000000000E+00 -0.00000000000E+00 -0.45593999997E+02  0.45594000000E+02  0.51100000000E-03 0. -1.
    9900012    2    1    2    0    0  0.11199086203E+01 -0.14096765960E+00  0.34566956067E+00  0.90007510845E+02  0.89999769188E+02 0.  0.
        -12    1    1    2    0    0 -0.11199086203E+01  0.14096765960E+00 -0.34566956067E+00  0.11804891546E+01  0.00000000000E+00 0.  1.
         11    1    3    3    0    0  0.48428453930E+01 -0.11511425938E+01  0.75513554062E+01  0.90444043200E+01  0.51100000000E-03 0. -1.
        -11    1    3    3    0    0  0.99832632710E+01 -0.22121593146E+02  0.27747997111E+02  0.36864369963E+02  0.51100000000E-03 0.  1.
         12    1    3    3    0    0 -0.13706200044E+02  0.23131768081E+02 -0.34953682956E+02  0.44098736562E+02  0.00000000000E+00 0. -1.
</event>
<event>
 7    1  0.2542335E-015  0.9000770E+02  0.7816164E-02  0.1186339E+00
        -11   -1    0    0    0    0  0.00000000000E+00  0.00000000000E+00  0.45593999997E+02  0.45594000000E+02  0.51100000000E-03 0. -1.
         11   -1    0    0    0    0 -0.00000000000E+00 -0.00000000000E+00 -0.45593999997E+02  0.45594000000E+02  0.51100000000E-03 0.  1.
    9900012    2    1    2    0    0  0.77652042233E+00  0.20213295571E+00 -0.86560732189E+00  0.90007695915E+02  0.89999956701E+02 0.  0.
        -12    1    1    2    0    0 -0.77652042233E+00 -0.20213295571E+00  0.86560732189E+00  0.11803040853E+01  0.00000000000E+00 0.  1.
         11    1    3    3    0    0  0.68993062350E+01  0.21746727306E+02  0.29756235127E+02  0.37496054516E+02  0.51100000000E-03 0. -1.
        -11    1    3    3    0    0  0.52936548007E+01  0.74567648463E+01 -0.48623842793E+00  0.91576498727E+01  0.51100000000E-03 0.  1.
        -12    1    3    3    0    0 -0.11416440613E+02 -0.29001359196E+02 -0.30135604021E+02  0.43353991526E+02  0.00000000000E+00 0.  1.
</event>
<event>
 7    1  0.2542335E-015  0.9000772E+02  0.7816164E-02  0.1186339E+00
        -11   -1    0    0    0    0  0.00000000000E+00  0.00000000000E+00  0.45593999997E+02  0.45594000000E+02  0.51100000000E-03 0. -1.
         11   -1    0    0    0    0 -0.00000000000E+00 -0.00000000000E+00 -0.45593999997E+02  0.45594000000E+02  0.51100000000E-03 0.  1.
    9900012    2    1    2    0    0  0.54288375346E+00  0.10467764476E+01  0.50906587663E-01  0.90007722413E+02  0.89999983549E+02 0.  0.
        -12    1    1    2    0    0 -0.54288375346E+00 -0.10467764476E+01 -0.50906587663E-01  0.11802775867E+01  0.00000000000E+00 0.  1.
         11    1    3    3    0    0  0.16722407964E+02 -0.16885086204E+02  0.20855904936E+02  0.31618251615E+02  0.51100000000E-03 0. -1.
        -11    1    3    3    0    0  0.37197214789E+01 -0.86920102844E+01  0.95047368889E+01  0.13406244599E+02  0.51100000000E-03 0.  1.
        -12    1    3    3    0    0 -0.19899245689E+02  0.26623872936E+02 -0.30309735238E+02  0.44983226199E+02  0.00000000000E+00 0.  1.
</event>
<event>
 7    1  0.2542335E-015  0.9000792E+02  0.7816164E-02  0.1186339E+00
        -11   -1    0    0    0    0  0.00000000000E+00  0.00000000000E+00  0.45593999997E+02  0.45594000000E+02  0.51100000000E-03 0. -1.
         11   -1    0    0    0    0 -0.00000000000E+00 -0.00000000000E+00 -0.45593999997E+02  0.45594000000E+02  0.51100000000E-03 0.  1.
    9900012    2    1    2    0    0  0.68494615646E+00  0.58278374747E+00  0.76407581078E+00  0.90007915267E+02  0.90000178948E+02 0.  0.
        -12    1    1    2    0    0 -0.68494615646E+00 -0.58278374747E+00 -0.76407581078E+00  0.11800847335E+01  0.00000000000E+00 0.  1.
         11    1    3    3    0    0  0.87356186021E+01  0.61942031774E+01 -0.19474607855E+00  0.10710607437E+02  0.51100000000E-03 0. -1.
        -11    1    3    3    0    0  0.34957267149E+02 -0.57396676476E+01  0.62245079148E+01  0.35968024832E+02  0.51100000000E-03 0.  1.
         12    1    3    3    0    0 -0.43007939595E+02  0.12824821765E+00 -0.52656860255E+01  0.43329282998E+02  0.00000000000E+00 0. -1.
</event>
<event>
 7    1  0.2542335E-015  0.9000776E+02  0.7816164E-02  0.1186339E+00
        -11   -1    0    0    0    0  0.00000000000E+00  0.00000000000E+00  0.45593999997E+02  0.45594000000E+02  0.51100000000E-03 0.  1.
         11   -1    0    0    0    0 -0.00000000000E+00 -0.00000000000E+00 -0.45593999997E+02  0.45594000000E+02  0.51100000000E-03 0. -1.
    9900012    2    1    2    0    0 -0.10536751750E+00  0.90793337438E+00 -0.74668054657E+00  0.90007755464E+02  0.90000017036E+02 0.  0.
        -12    1    1    2    0    0  0.10536751750E+00 -0.90793337438E+00  0.74668054657E+00  0.11802445360E+01  0.00000000000E+00 0.  1.
         11    1    3    3    0    0 -0.36392953261E+02  0.30759042144E+01  0.38424479005E+01  0.36724278617E+02  0.51100000000E-03 0. -1.
        -11    1    3    3    0    0 -0.77372419956E+01 -0.40851627889E+01  0.12257376921E+01  0.88349251192E+01  0.51100000000E-03 0.  1.
        -12    1    3    3    0    0  0.44024827740E+02  0.19171919488E+01 -0.58148661392E+01  0.44448551728E+02  0.00000000000E+00 0.  1.
</event>
<event>
 7    1  0.2542335E-015  0.9000779E+02  0.7816164E-02  0.1186339E+00
        -11   -1    0    0    0    0  0.00000000000E+00  0.00000000000E+00  0.45593999997E+02  0.45594000000E+02  0.51100000000E-03 0.  1.
         11   -1    0    0    0    0 -0.00000000000E+00 -0.00000000000E+00 -0.45593999997E+02  0.45594000000E+02  0.51100000000E-03 0. -1.
    9900012    2    1    2    0    0 -0.27889639775E+00  0.60601866543E+00 -0.97358119941E+00  0.90007787233E+02  0.90000049224E+02 0.  0.
        -12    1    1    2    0    0  0.27889639775E+00 -0.60601866543E+00  0.97358119941E+00  0.11802127670E+01  0.00000000000E+00 0.  1.
         11    1    3    3    0    0  0.36990241501E+01  0.25783165177E+01  0.96074461277E+01  0.10612893907E+02  0.51100000000E-03 0. -1.
        -11    1    3    3    0    0  0.68100326954E+01  0.33432031166E+02  0.11848692921E+02  0.36117430382E+02  0.51100000000E-03 0.  1.
         12    1    3    3    0    0 -0.10787953243E+02 -0.35404329018E+02 -0.22429720248E+02  0.43277462944E+02  0.00000000000E+00 0. -1.
</event>
<event>
 7    1  0.2542335E-015  0.9000776E+02  0.7816164E-02  0.1186339E+00
        -11   -1    0    0    0    0  0.00000000000E+00  0.00000000000E+00  0.45593999997E+02  0.45594000000E+02  0.51100000000E-03 0.  1.
         11   -1    0    0    0    0 -0.00000000000E+00 -0.00000000000E+00 -0.45593999997E+02  0.45594000000E+02  0.51100000000E-03 0. -1.
    9900012    2    1    2    0    0  0.91030607642E+00  0.15756942400E+00 -0.73449673427E+00  0.90007758191E+02  0.90000019799E+02 0.  0.
        -12    1    1    2    0    0 -0.91030607642E+00 -0.15756942400E+00  0.73449673427E+00  0.11802418095E+01  0.00000000000E+00 0.  1.
         11    1    3    3    0    0 -0.47379611963E+01  0.68775739618E+01 -0.15329736226E+01  0.84911311547E+01  0.51100000000E-03 0. -1.
        -11    1    3    3    0    0 -0.35990531443E+02  0.88181377607E+01 -0.39362161401E+00  0.37057156466E+02  0.51100000000E-03 0.  1.
         12    1    3    3    0    0  0.41638798715E+02 -0.15538142299E+02  0.11920985023E+01  0.44459470570E+02  0.00000000000E+00 0. -1.
</event>
<event>
 7    1  0.2542335E-015  0.9000764E+02  0.7816164E-02  0.1186339E+00
        -11   -1    0    0    0    0  0.00000000000E+00  0.00000000000E+00  0.45593999997E+02  0.45594000000E+02  0.51100000000E-03 0. -1.
         11   -1    0    0    0    0 -0.00000000000E+00 -0.00000000000E+00 -0.45593999997E+02  0.45594000000E+02  0.51100000000E-03 0.  1.
    9900012    2    1    2    0    0 -0.10250935408E+01 -0.10145471465E+00  0.57630749971E+00  0.90007644053E+02  0.89999904155E+02 0.  0.
        -12    1    1    2    0    0  0.10250935408E+01  0.10145471465E+00 -0.57630749971E+00  0.11803559466E+01  0.00000000000E+00 0.  1.
         11    1    3    3    0    0  0.63571766189E+00  0.54673388924E+01  0.84755939743E+01  0.10106019245E+02  0.51100000000E-03 0. -1.
        -11    1    3    3    0    0  0.13131315859E+02  0.30719470407E+02 -0.19939559670E+02  0.38906340850E+02  0.51100000000E-03 0.  1.
         12    1    3    3    0    0 -0.14792127062E+02 -0.36288264014E+02  0.12040273195E+02  0.40995283958E+02  0.00000000000E+00 0. -1.
</event>
<event>
 7    1  0.2542335E-015  0.9000775E+02  0.7816164E-02  0.1186339E+00
        -11   -1    0    0    0    0  0.00000000000E+00  0.00000000000E+00  0.45593999997E+02  0.45594000000E+02  0.51100000000E-03 0.  1.
         11   -1    0    0    0    0 -0.00000000000E+00 -0.00000000000E+00 -0.45593999997E+02  0.45594000000E+02  0.51100000000E-03 0. -1.
    9900012    2    1    2    0    0  0.95902302553E+00 -0.65967081431E+00  0.19519186699E+00  0.90007749767E+02  0.90000011264E+02 0.  0.
        -12    1    1    2    0    0 -0.95902302553E+00  0.65967081431E+00 -0.19519186699E+00  0.11802502327E+01  0.00000000000E+00 0.  1.
         11    1    3    3    0    0 -0.56371148471E+01 -0.50156540739E+01 -0.34124856973E+01  0.82812383424E+01  0.51100000000E-03 0. -1.
        -11    1    3    3    0    0  0.78549309161E+01 -0.21044655873E+02 -0.31306746454E+02  0.38531673391E+02  0.51100000000E-03 0.  1.
         12    1    3    3    0    0 -0.12587930435E+01  0.25400639133E+02  0.34914424018E+02  0.43194838034E+02  0.00000000000E+00 0. -1.
</event>
<event>
 7    1  0.2542335E-015  0.9000770E+02  0.7816164E-02  0.1186339E+00
        -11   -1    0    0    0    0  0.00000000000E+00  0.00000000000E+00  0.45593999997E+02  0.45594000000E+02  0.51100000000E-03 0.  1.
         11   -1    0    0    0    0 -0.00000000000E+00 -0.00000000000E+00 -0.45593999997E+02  0.45594000000E+02  0.51100000000E-03 0. -1.
    9900012    2    1    2    0    0 -0.23901079888E+00  0.11614721954E+00 -0.11499982857E+01  0.90007698176E+02  0.89999958992E+02 0.  0.
        -12    1    1    2    0    0  0.23901079888E+00 -0.11614721954E+00  0.11499982857E+01  0.11803018240E+01  0.00000000000E+00 0.  1.
         11    1    3    3    0    0  0.54532617451E+01 -0.16308579442E+02 -0.28848272057E+02  0.33584678472E+02  0.51100000000E-03 0. -1.
        -11    1    3    3    0    0  0.73783100617E+01 -0.40627069827E+01 -0.90518925173E+01  0.12364538236E+02  0.51100000000E-03 0.  1.
        -12    1    3    3    0    0 -0.13070582606E+02  0.20487433645E+02  0.36750166289E+02  0.44058481468E+02  0.00000000000E+00 0.  1.
</event>
<event>
 7    1  0.2542335E-015  0.9000775E+02  0.7816164E-02  0.1186339E+00
        -11   -1    0    0    0    0  0.00000000000E+00  0.00000000000E+00  0.45593999997E+02  0.45594000000E+02  0.51100000000E-03 0.  1.
         11   -1    0    0    0    0 -0.00000000000E+00 -0.00000000000E+00 -0.45593999997E+02  0.45594000000E+02  0.51100000000E-03 0. -1.
    9900012    2    1    2    0    0 -0.10145866624E+01 -0.33611612083E+00 -0.50062104896E+00  0.90007753595E+02  0.90000015142E+02 0.  0.
        -12    1    1    2    0    0  0.10145866624E+01  0.33611612083E+00  0.50062104896E+00  0.11802464052E+01  0.00000000000E+00 0.  1.
         11    1    3    3    0    0  0.72123273869E+01  0.95870324215E+01 -0.37729004364E+01  0.12576312454E+02  0.51100000000E-03 0. -1.
        -11    1    3    3    0    0 -0.98129233432E+01 -0.25574415735E+02  0.33549159107E+02  0.43311549057E+02  0.51100000000E-03 0.  1.
         12    1    3    3    0    0  0.15860092938E+01  0.15651267193E+02 -0.30276879719E+02  0.34119892083E+02  0.00000000000E+00 0. -1.
</event>
<event>
 7    1  0.2542335E-015  0.9000777E+02  0.7816164E-02  0.1186339E+00
        -11   -1    0    0    0    0  0.00000000000E+00  0.00000000000E+00  0.45593999997E+02  0.45594000000E+02  0.51100000000E-03 0. -1.
         11   -1    0    0    0    0 -0.00000000000E+00 -0.00000000000E+00 -0.45593999997E+02  0.45594000000E+02  0.51100000000E-03 0.  1.
    9900012    2    1    2    0    0 -0.46380346010E+00 -0.67635679740E+00  0.84874168637E+00  0.90007773489E+02  0.90000035299E+02 0.  0.
        -12    1    1    2    0    0  0.46380346010E+00  0.67635679740E+00 -0.84874168637E+00  0.11802265110E+01  0.00000000000E+00 0.  1.
         11    1    3    3    0    0  0.37230922929E+02 -0.12918063944E+02 -0.13511737574E+01  0.39431506045E+02  0.51100000000E-03 0. -1.
        -11    1    3    3    0    0  0.51575334625E+01 -0.11411706847E+01  0.20955073806E+01  0.56827434740E+01  0.51100000000E-03 0.  1.
        -12    1    3    3    0    0 -0.42852259851E+02  0.13382877832E+02  0.10440806315E+00  0.44893523970E+02  0.00000000000E+00 0.  1.
</event>
<event>
 7    1  0.2542335E-015  0.9000779E+02  0.7816164E-02  0.1186339E+00
        -11   -1    0    0    0    0  0.00000000000E+00  0.00000000000E+00  0.45593999997E+02  0.45594000000E+02  0.51100000000E-03 0.  1.
         11   -1    0    0    0    0 -0.00000000000E+00 -0.00000000000E+00 -0.45593999997E+02  0.45594000000E+02  0.51100000000E-03 0. -1.
    9900012    2    1    2    0    0 -0.87144071808E+00  0.43807897476E+00  0.66451117348E+00  0.90007789335E+02  0.90000051355E+02 0.  0.
        -12    1    1    2    0    0  0.87144071808E+00 -0.43807897476E+00 -0.66451117348E+00  0.11802106646E+01  0.00000000000E+00 0.  1.
         11    1    3    3    0    0  0.34320538085E+01  0.45194300483E+01  0.60060908127E+01  0.82630120668E+01  0.51100000000E-03 0. -1.
        -11    1    3    3    0    0  0.17929513563E+02  0.23334768944E+02  0.22291151779E+02  0.36917128087E+02  0.51100000000E-03 0.  1.
         12    1    3    3    0    0 -0.22233008089E+02 -0.27416120018E+02 -0.27632731418E+02  0.44827649182E+02  0.00000000000E+00 0. -1.
</event>
<event>
 7    1  0.2542335E-015  0.9000775E+02  0.7816164E-02  0.1186339E+00
        -11   -1    0    0    0    0  0.00000000000E+00  0.00000000000E+00  0.45593999997E+02  0.45594000000E+02  0.51100000000E-03 0. -1.
         11   -1    0    0    0    0 -0.00000000000E+00 -0.00000000000E+00 -0.45593999997E+02  0.45594000000E+02  0.51100000000E-03 0.  1.
    9900012    2    1    2    0    0  0.78225589720E+00 -0.37191473809E+00  0.80170762936E+00  0.90007754270E+02  0.90000015826E+02 0.  0.
        -12    1    1    2    0    0 -0.78225589720E+00  0.37191473809E+00 -0.80170762936E+00  0.11802457304E+01  0.00000000000E+00 0.  1.
         11    1    3    3    0    0 -0.33914595021E+01 -0.52963678114E+01  0.59964630898E+01  0.86897111228E+01  0.51100000000E-03 0. -1.
        -11    1    3    3    0    0  0.16054065715E+02 -0.32788300553E+02 -0.16689130355E+02  0.40141409434E+02  0.51100000000E-03 0.  1.
         12    1    3    3    0    0 -0.11880350316E+02  0.37712753626E+02  0.11494374895E+02  0.41176633712E+02  0.00000000000E+00 0. -1.
</event>
<event>
 7    1  0.2542335E-015  0.9000770E+02  0.7816164E-02  0.1186339E+00
        -11   -1    0    0    0    0  0.00000000000E+00  0.00000000000E+00  0.45593999997E+02  0.45594000000E+02  0.51100000000E-03 0. -1.
         11   -1    0    0    0    0 -0.00000000000E+00 -0.00000000000E+00 -0.45593999997E+02  0.45594000000E+02  0.51100000000E-03 0.  1.
    9900012    2    1    2    0    0 -0.80045274516E+00 -0.86699150732E+00 -0.26409527782E-01  0.90007704980E+02  0.89999965886E+02 0.  0.
        -12    1    1    2    0    0  0.80045274516E+00  0.86699150732E+00  0.26409527782E-01  0.11802950200E+01  0.00000000000E+00 0.  1.
         11    1    3    3    0    0 -0.36587190354E+01 -0.84126900083E+01 -0.14755589953E+01  0.92917626297E+01  0.51100000000E-03 0. -1.
        -11    1    3    3    0    0 -0.95399559148E+01  0.16135558119E+02 -0.35865296973E+02  0.40468339747E+02  0.51100000000E-03 0.  1.
         12    1    3    3    0    0  0.12398222205E+02 -0.85898596175E+01  0.37314446441E+02  0.40247602603E+02  0.00000000000E+00 0. -1.
</event>
<event>
 7    1  0.2542335E-015  0.9000773E+02  0.7816164E-02  0.1186339E+00
        -11   -1    0    0    0    0  0.00000000000E+00  0.00000000000E+00  0.45593999997E+02  0.45594000000E+02  0.51100000000E-03 0.  1.
         11   -1    0    0    0    0 -0.00000000000E+00 -0.00000000000E+00 -0.45593999997E+02  0.45594000000E+02  0.51100000000E-03 0. -1.
    9900012    2    1    2    0    0  0.85238736223E+00 -0.24538896770E+00 -0.77861904144E+00  0.90007734109E+02  0.89999995400E+02 0.  0.
        -12    1    1    2    0    0 -0.85238736223E+00  0.24538896770E+00  0.77861904144E+00  0.11802658906E+01  0.00000000000E+00 0.  1.
         11    1    3    3    0    0  0.42930270544E+00 -0.17931979856E+02 -0.32962309588E+02  0.37526711234E+02  0.51100000000E-03 0. -1.
        -11    1    3    3    0    0 -0.54540054590E+00 -0.22652224841E+01 -0.76081012902E+01  0.79568775384E+01  0.51100000000E-03 0.  1.
        -12    1    3    3    0    0  0.96848520269E+00  0.19951813373E+02  0.39791791837E+02  0.44524145337E+02  0.00000000000E+00 0.  1.
</event>
<event>
 7    1  0.2542335E-015  0.9000767E+02  0.7816164E-02  0.1186339E+00
        -11   -1    0    0    0    0  0.00000000000E+00  0.00000000000E+00  0.45593999997E+02  0.45594000000E+02  0.51100000000E-03 0.  1.
         11   -1    0    0    0    0 -0.00000000000E+00 -0.00000000000E+00 -0.45593999997E+02  0.45594000000E+02  0.51100000000E-03 0. -1.
    9900012    2    1    2    0    0  0.80110597456E+00 -0.21151018215E-01 -0.86658499957E+00  0.90007666272E+02  0.89999926667E+02 0.  0.
        -12    1    1    2    0    0 -0.80110597456E+00  0.21151018215E-01  0.86658499957E+00  0.11803337280E+01  0.00000000000E+00 0.  1.
         11    1    3    3    0    0  0.33458080878E+02 -0.28453692162E+02 -0.24966151226E+00  0.43921727025E+02  0.51100000000E-03 0. -1.
        -11    1    3    3    0    0 -0.49213565196E+01  0.63658740592E+01 -0.62624406683E+01  0.10196188794E+02  0.51100000000E-03 0.  1.
        -12    1    3    3    0    0 -0.27735618384E+02  0.22066667085E+02  0.56455171810E+01  0.35889750454E+02  0.00000000000E+00 0.  1.
</event>
<event>
 7    1  0.2542335E-015  0.9000791E+02  0.7816164E-02  0.1186339E+00
        -11   -1    0    0    0    0  0.00000000000E+00  0.00000000000E+00  0.45593999997E+02  0.45594000000E+02  0.51100000000E-03 0. -1.
         11   -1    0    0    0    0 -0.00000000000E+00 -0.00000000000E+00 -0.45593999997E+02  0.45594000000E+02  0.51100000000E-03 0.  1.
    9900012    2    1    2    0    0  0.54795499203E+00 -0.83853108369E-01  0.10417872791E+01  0.90007912396E+02  0.90000176040E+02 0.  0.
        -12    1    1    2    0    0 -0.54795499203E+00  0.83853108369E-01 -0.10417872791E+01  0.11800876035E+01  0.00000000000E+00 0.  1.
         11    1    3    3    0    0 -0.33136312625E+02  0.14949730744E+02 -0.19435646540E+02  0.41222008932E+02  0.51100000000E-03 0. -1.
        -11    1    3    3    0    0  0.66596148661E+00 -0.10255352025E+02  0.14490154399E+01  0.10378602790E+02  0.51100000000E-03 0.  1.
        -12    1    3    3    0    0  0.33018306130E+02 -0.47782318276E+01  0.19028418379E+02  0.38407300675E+02  0.00000000000E+00 0.  1.
</event>
<event>
 7    1  0.2542335E-015  0.9000763E+02  0.7816164E-02  0.1186339E+00
        -11   -1    0    0    0    0  0.00000000000E+00  0.00000000000E+00  0.45593999997E+02  0.45594000000E+02  0.51100000000E-03 0.  1.
         11   -1    0    0    0    0 -0.00000000000E+00 -0.00000000000E+00 -0.45593999997E+02  0.45594000000E+02  0.51100000000E-03 0. -1.
    9900012    2    1    2    0    0  0.42086576960E-01 -0.11760531298E+01  0.91665981680E-01  0.90007629340E+02  0.89999889247E+02 0.  0.
        -12    1    1    2    0    0 -0.42086576960E-01  0.11760531298E+01 -0.91665981680E-01  0.11803706605E+01  0.00000000000E+00 0.  1.
         11    1    3    3    0    0 -0.29512031009E+01 -0.11525853385E+02 -0.67913071272E+01  0.13699516369E+02  0.51100000000E-03 0. -1.
        -11    1    3    3    0    0 -0.35320420533E+02  0.12292932623E+02  0.39621832583E+00  0.37400605454E+02  0.51100000000E-03 0.  1.
         12    1    3    3    0    0  0.38313710211E+02 -0.19431323683E+01  0.64867547831E+01  0.38907507516E+02  0.00000000000E+00 0. -1.
</event>
<event>
 7    1  0.2542335E-015  0.9000792E+02  0.7816164E-02  0.1186339E+00
        -11   -1    0    0    0    0  0.00000000000E+00  0.00000000000E+00  0.45593999997E+02  0.45594000000E+02  0.51100000000E-03 0. -1.
         11   -1    0    0    0    0 -0.00000000000E+00 -0.00000000000E+00 -0.45593999997E+02  0.45594000000E+02  0.51100000000E-03 0.  1.
    9900012    2    1    2    0    0 -0.49646612824E+00  0.82735224264E+00  0.67941829410E+00  0.90007915440E+02  0.90000179124E+02 0.  0.
        -12    1    1    2    0    0  0.49646612824E+00 -0.82735224264E+00 -0.67941829410E+00  0.11800845598E+01  0.00000000000E+00 0.  1.
         11    1    3    3    0    0  0.18953416703E+02  0.28663346426E+02  0.18685353452E+02  0.39114726983E+02  0.51100000000E-03 0. -1.
        -11    1    3    3    0    0  0.24905059780E+01  0.53365059476E+01 -0.79073002075E+01  0.98593261731E+01  0.51100000000E-03 0.  1.
        -12    1    3    3    0    0 -0.21940388810E+02 -0.33172500131E+02 -0.10098634950E+02  0.41033862284E+02  0.00000000000E+00 0.  1.
</event>
<event>
 7    1  0.2542335E-015  0.9000772E+02  0.7816164E-02  0.1186339E+00
        -11   -1    0    0    0    0  0.00000000000E+00  0.00000000000E+00  0.45593999997E+02  0.45594000000E+02  0.51100000000E-03 0. -1.
         11   -1    0    0    0    0 -0.00000000000E+00 -0.00000000000E+00 -0.45593999997E+02  0.45594000000E+02  0.51100000000E-03 0.  1.
    9900012    2    1    2    0    0  0.11512293916E+01  0.24878299841E+00 -0.76358350968E-01  0.90007723469E+02  0.89999984619E+02 0.  0.
        -12    1    1    2    0    0 -0.11512293916E+01 -0.24878299841E+00  0.76358350968E-01  0.11802765313E+01  0.00000000000E+00 0.  1.
         11    1    3    3    0    0  0.37934034373E+02  0.31998964948E+00  0.45578882890E+01  0.38208215126E+02  0.51100000000E-03 0. -1.
        -11    1    3    3    0    0  0.56914850091E+01  0.62672185577E+01 -0.23877777606E+01  0.87961646729E+01  0.51100000000E-03 0.  1.
        -12    1    3    3    0    0 -0.42474289991E+02 -0.63384252087E+01 -0.22464688794E+01  0.43003343670E+02  0.00000000000E+00 0.  1.
</event>
<event>
 7    1  0.2542335E-015  0.9000772E+02  0.7816164E-02  0.1186339E+00
        -11   -1    0    0    0    0  0.00000000000E+00  0.00000000000E+00  0.45593999997E+02  0.45594000000E+02  0.51100000000E-03 0. -1.
         11   -1    0    0    0    0 -0.00000000000E+00 -0.00000000000E+00 -0.45593999997E+02  0.45594000000E+02  0.51100000000E-03 0.  1.
    9900012    2    1    2    0    0  0.59573196513E-01  0.14125297256E+00  0.11702771962E+01  0.90007724573E+02  0.89999985737E+02 0.  0.
        -12    1    1    2    0    0 -0.59573196513E-01 -0.14125297256E+00 -0.11702771962E+01  0.11802754272E+01  0.00000000000E+00 0.  1.
         11    1    3    3    0    0  0.85750273409E+01  0.13988298421E+01  0.37389225495E+02  0.38385439977E+02  0.51100000000E-03 0. -1.
        -11    1    3    3    0    0  0.80252363504E+01 -0.54352253756E+01  0.18844209761E+01  0.98740638058E+01  0.51100000000E-03 0.  1.
        -12    1    3    3    0    0 -0.16540690495E+02  0.41776485060E+01 -0.38103369275E+02  0.41748220791E+02  0.00000000000E+00 0.  1.
</event>
<event>
 7    1  0.2542335E-015  0.9000771E+02  0.7816164E-02  0.1186339E+00
        -11   -1    0    0    0    0  0.00000000000E+00  0.00000000000E+00  0.45593999997E+02  0.45594000000E+02  0.51100000000E-03 0. -1.
         11   -1    0    0    0    0 -0.00000000000E+00 -0.00000000000E+00 -0.45593999997E+02  0.45594000000E+02  0.51100000000E-03 0.  1.
    9900012    2    1    2    0    0  0.97629631375E+00 -0.43230541386E+00  0.50303424707E+00  0.90007709393E+02  0.89999970357E+02 0.  0.
        -12    1    1    2    0    0 -0.97629631375E+00  0.43230541386E+00 -0.50303424707E+00  0.11802906069E+01  0.00000000000E+00 0.  1.
         11    1    3    3    0    0 -0.39156652261E+01 -0.73116834257E+01 -0.53934998096E+01  0.98935832304E+01  0.51100000000E-03 0. -1.
        -11    1    3    3    0    0 -0.90239514786E+01  0.52982500649E+01 -0.35186419736E+02  0.36709498609E+02  0.51100000000E-03 0.  1.
         12    1    3    3    0    0  0.13915913018E+02  0.15811279469E+01  0.41082953793E+02  0.43404627553E+02  0.00000000000E+00 0. -1.
</event>
<event>
 7    1  0.2542335E-015  0.9000778E+02  0.7816164E-02  0.1186339E+00
        -11   -1    0    0    0    0  0.00000000000E+00  0.00000000000E+00  0.45593999997E+02  0.45594000000E+02  0.51100000000E-03 0. -1.
         11   -1    0    0    0    0 -0.00000000000E+00 -0.00000000000E+00 -0.45593999997E+02  0.45594000000E+02  0.51100000000E-03 0.  1.
    9900012    2    1    2    0    0 -0.89043309576E+00 -0.29731110178E-01 -0.77405462723E+00  0.90007781544E+02  0.90000043461E+02 0.  0.
        -12    1    1    2    0    0  0.89043309576E+00  0.29731110178E-01  0.77405462723E+00  0.11802184556E+01  0.00000000000E+00 0.  1.
         11    1    3    3    0    0  0.86500720499E+01 -0.20984153990E+01  0.29847451567E+02  0.31146387575E+02  0.51100000000E-03 0. -1.
        -11    1    3    3    0    0 -0.11535022514E+01  0.20721194445E+02  0.14720937204E+01  0.20805420613E+02  0.51100000000E-03 0.  1.
        -12    1    3    3    0    0 -0.83870028943E+01 -0.18652510157E+02 -0.32093599914E+02  0.38055973357E+02  0.00000000000E+00 0.  1.
</event>
<event>
 7    1  0.2542335E-015  0.9000771E+02  0.7816164E-02  0.1186339E+00
        -11   -1    0    0    0    0  0.00000000000E+00  0.00000000000E+00  0.45593999997E+02  0.45594000000E+02  0.51100000000E-03 0. -1.
         11   -1    0    0    0    0 -0.00000000000E+00 -0.00000000000E+00 -0.45593999997E+02  0.45594000000E+02  0.51100000000E-03 0.  1.
    9900012    2    1    2    0    0 -0.11567886491E+01  0.23392161230E+00  0.14672899274E-01  0.90007705718E+02  0.89999966633E+02 0.  0.
        -12    1    1    2    0    0  0.11567886491E+01 -0.23392161230E+00 -0.14672899274E-01  0.11802942825E+01  0.00000000000E+00 0.  1.
         11    1    3    3    0    0 -0.16251859462E+00 -0.14438468448E+02 -0.15430053701E+01  0.14521592518E+02  0.51100000000E-03 0. -1.
        -11    1    3    3    0    0 -0.31045647618E+02  0.12910380816E+02 -0.19388606636E+02  0.38812732916E+02  0.51100000000E-03 0.  1.
         12    1    3    3    0    0  0.30051377564E+02  0.17620092450E+01  0.20946284905E+02  0.36673380283E+02  0.00000000000E+00 0. -1.
</event>
<event>
 7    1  0.2542335E-015  0.9000772E+02  0.7816164E-02  0.1186339E+00
        -11   -1    0    0    0    0  0.00000000000E+00  0.00000000000E+00  0.45593999997E+02  0.45594000000E+02  0.51100000000E-03 0.  1.
         11   -1    0    0    0    0 -0.00000000000E+00 -0.00000000000E+00 -0.45593999997E+02  0.45594000000E+02  0.51100000000E-03 0. -1.
    9900012    2    1    2    0    0  0.72940219195E+00  0.43153234785E+00 -0.82147528109E+00  0.90007716406E+02  0.89999977463E+02 0.  0.
        -12    1    1    2    0    0 -0.72940219195E+00 -0.43153234785E+00  0.82147528109E+00  0.11802835940E+01  0.00000000000E+00 0.  1.
         11    1    3    3    0    0 -0.75066360604E+01 -0.34236299532E+01  0.49620868375E+01  0.96277273042E+01  0.51100000000E-03 0. -1.
        -11    1    3    3    0    0  0.13096419426E+02 -0.50112109340E+01  0.35345957305E+02  0.38025848247E+02  0.51100000000E-03 0.  1.
         12    1    3    3    0    0 -0.48603811739E+01  0.88663732350E+01 -0.41129519424E+02  0.42354140855E+02  0.00000000000E+00 0. -1.
</event>
<event>
 7    1  0.2542335E-015  0.9000801E+02  0.7816164E-02  0.1186339E+00
        -11   -1    0    0    0    0  0.00000000000E+00  0.00000000000E+00  0.45593999997E+02  0.45594000000E+02  0.51100000000E-03 0.  1.
         11   -1    0    0    0    0 -0.00000000000E+00 -0.00000000000E+00 -0.45593999997E+02  0.45594000000E+02  0.51100000000E-03 0. -1.
    9900012    2    1    2    0    0 -0.62088264656E+00  0.51802362660E+00 -0.85938116494E+00  0.90008008591E+02  0.90000273504E+02 0.  0.
        -12    1    1    2    0    0  0.62088264656E+00 -0.51802362660E+00  0.85938116494E+00  0.11799914089E+01  0.00000000000E+00 0.  1.
         11    1    3    3    0    0 -0.40629593883E+01  0.39374116797E+02 -0.58256077075E+01  0.40009579078E+02  0.51100000000E-03 0. -1.
        -11    1    3    3    0    0  0.86132158953E+01  0.16844850829E+01  0.21295385108E+01  0.90310526841E+01  0.51100000000E-03 0.  1.
        -12    1    3    3    0    0 -0.51711391536E+01 -0.40540578254E+02  0.28366880317E+01  0.40967376829E+02  0.00000000000E+00 0.  1.
</event>
<event>
 7    1  0.2542335E-015  0.9000782E+02  0.7816164E-02  0.1186339E+00
        -11   -1    0    0    0    0  0.00000000000E+00  0.00000000000E+00  0.45593999997E+02  0.45594000000E+02  0.51100000000E-03 0. -1.
         11   -1    0    0    0    0 -0.00000000000E+00 -0.00000000000E+00 -0.45593999997E+02  0.45594000000E+02  0.51100000000E-03 0.  1.
    9900012    2    1    2    0    0 -0.78335552542E+00  0.11474167597E+00  0.87521895361E+00  0.90007822154E+02  0.90000084606E+02 0.  0.
        -12    1    1    2    0    0  0.78335552542E+00 -0.11474167597E+00 -0.87521895361E+00  0.11801778460E+01  0.00000000000E+00 0.  1.
         11    1    3    3    0    0  0.17971748548E+01 -0.35663437753E+02 -0.66544430919E+00  0.35714891099E+02  0.51100000000E-03 0. -1.
        -11    1    3    3    0    0  0.21088340053E+01 -0.85347741666E+01 -0.34704912884E+01  0.94516591655E+01  0.51100000000E-03 0.  1.
        -12    1    3    3    0    0 -0.46893643855E+01  0.44312953596E+02  0.50111545512E+01  0.44841271889E+02  0.00000000000E+00 0.  1.
</event>
<event>
 7    1  0.2542335E-015  0.9000880E+02  0.7816164E-02  0.1186337E+00
        -11   -1    0    0    0    0  0.00000000000E+00  0.00000000000E+00  0.45593999997E+02  0.45594000000E+02  0.51100000000E-03 0.  1.
         11   -1    0    0    0    0 -0.00000000000E+00 -0.00000000000E+00 -0.45593999997E+02  0.45594000000E+02  0.51100000000E-03 0. -1.
    9900012    2    1    2    0    0 -0.42280963294E+00 -0.13465437641E+00 -0.10925219197E+01  0.90008803692E+02  0.90001079095E+02 0.  0.
        -12    1    1    2    0    0  0.42280963294E+00  0.13465437641E+00  0.10925219197E+01  0.11791963076E+01  0.00000000000E+00 0.  1.
         11    1    3    3    0    0  0.40082997482E+01 -0.18502914193E-01  0.68223973605E+01  0.79127691256E+01  0.51100000000E-03 0. -1.
        -11    1    3    3    0    0 -0.38927444989E+02 -0.16263653955E+02 -0.11806444529E+02  0.43809183353E+02  0.51100000000E-03 0.  1.
         12    1    3    3    0    0  0.34496335608E+02  0.16147502493E+02  0.38915252485E+01  0.38286851214E+02  0.00000000000E+00 0. -1.
</event>
<event>
 7    1  0.2542335E-015  0.9000775E+02  0.7816164E-02  0.1186339E+00
        -11   -1    0    0    0    0  0.00000000000E+00  0.00000000000E+00  0.45593999997E+02  0.45594000000E+02  0.51100000000E-03 0.  1.
         11   -1    0    0    0    0 -0.00000000000E+00 -0.00000000000E+00 -0.45593999997E+02  0.45594000000E+02  0.51100000000E-03 0. -1.
    9900012    2    1    2    0    0  0.34711362196E+00 -0.87082849773E+00 -0.71704794732E+00  0.90007750917E+02  0.90000012429E+02 0.  0.
        -12    1    1    2    0    0 -0.34711362196E+00  0.87082849773E+00  0.71704794732E+00  0.11802490829E+01  0.00000000000E+00 0.  1.
         11    1    3    3    0    0 -0.33967362725E+01 -0.13426057058E+02 -0.29789006449E+02  0.32850901524E+02  0.51100000000E-03 0. -1.
        -11    1    3    3    0    0  0.25264090212E+02  0.29927726047E+01  0.12387705746E+02  0.28296398993E+02  0.51100000000E-03 0.  1.
        -12    1    3    3    0    0 -0.21520240317E+02  0.95624559559E+01  0.16684252757E+02  0.28860450400E+02  0.00000000000E+00 0.  1.
</event>
<event>
 7    1  0.2542335E-015  0.9000771E+02  0.7816164E-02  0.1186339E+00
        -11   -1    0    0    0    0  0.00000000000E+00  0.00000000000E+00  0.45593999997E+02  0.45594000000E+02  0.51100000000E-03 0. -1.
         11   -1    0    0    0    0 -0.00000000000E+00 -0.00000000000E+00 -0.45593999997E+02  0.45594000000E+02  0.51100000000E-03 0.  1.
    9900012    2    1    2    0    0  0.84752546635E+00 -0.55611046223E+00 -0.60459535520E+00  0.90007706051E+02  0.89999966971E+02 0.  0.
        -12    1    1    2    0    0 -0.84752546635E+00  0.55611046223E+00  0.60459535520E+00  0.11802939489E+01  0.00000000000E+00 0.  1.
         11    1    3    3    0    0  0.10709568458E+01 -0.18967330126E+02 -0.12042812499E+02  0.22493018780E+02  0.51100000000E-03 0. -1.
        -11    1    3    3    0    0  0.24888950969E+01  0.26519830896E+01 -0.26288501732E+02  0.26538894790E+02  0.51100000000E-03 0.  1.
        -12    1    3    3    0    0 -0.27123264764E+01  0.15759236575E+02  0.37726718875E+02  0.40975792481E+02  0.00000000000E+00 0.  1.
</event>
<event>
 7    1  0.2542335E-015  0.9000774E+02  0.7816164E-02  0.1186339E+00
        -11   -1    0    0    0    0  0.00000000000E+00  0.00000000000E+00  0.45593999997E+02  0.45594000000E+02  0.51100000000E-03 0. -1.
         11   -1    0    0    0    0 -0.00000000000E+00 -0.00000000000E+00 -0.45593999997E+02  0.45594000000E+02  0.51100000000E-03 0.  1.
    9900012    2    1    2    0    0  0.56299319216E+00 -0.86377597652E+00  0.57440003889E+00  0.90007743385E+02  0.90000004798E+02 0.  0.
        -12    1    1    2    0    0 -0.56299319216E+00  0.86377597652E+00 -0.57440003889E+00  0.11802566148E+01  0.00000000000E+00 0.  1.
         11    1    3    3    0    0 -0.80121437915E+01  0.30849339105E+01  0.39543904303E+01  0.94524319254E+01  0.51100000000E-03 0. -1.
        -11    1    3    3    0    0 -0.33244618095E+02  0.35158935020E+01  0.11788617654E+02  0.35447674760E+02  0.51100000000E-03 0.  1.
         12    1    3    3    0    0  0.41819755079E+02 -0.74646033890E+01 -0.15168608046E+02  0.45107636700E+02  0.00000000000E+00 0. -1.
</event>
<event>
 7    1  0.2542335E-015  0.9000782E+02  0.7816164E-02  0.1186339E+00
        -11   -1    0    0    0    0  0.00000000000E+00  0.00000000000E+00  0.45593999997E+02  0.45594000000E+02  0.51100000000E-03 0. -1.
         11   -1    0    0    0    0 -0.00000000000E+00 -0.00000000000E+00 -0.45593999997E+02  0.45594000000E+02  0.51100000000E-03 0.  1.
    9900012    2    1    2    0    0  0.90500803719E+00 -0.59198437642E+00  0.47257622748E+00  0.90007824869E+02  0.90000087357E+02 0.  0.
        -12    1    1    2    0    0 -0.90500803719E+00  0.59198437642E+00 -0.47257622748E+00  0.11801751311E+01  0.00000000000E+00 0.  1.
         11    1    3    3    0    0 -0.25845153409E+02 -0.24113624833E+02  0.23104108820E+02  0.42228411075E+02  0.51100000000E-03 0. -1.
        -11    1    3    3    0    0  0.59579619842E+01 -0.42304178875E+01 -0.27508277781E+01  0.78077397648E+01  0.51100000000E-03 0.  1.
        -12    1    3    3    0    0  0.20792199462E+02  0.27752058344E+02 -0.19880704814E+02  0.39971674029E+02  0.00000000000E+00 0.  1.
</event>
<event>
 7    1  0.2542335E-015  0.9000774E+02  0.7816164E-02  0.1186339E+00
        -11   -1    0    0    0    0  0.00000000000E+00  0.00000000000E+00  0.45593999997E+02  0.45594000000E+02  0.51100000000E-03 0.  1.
         11   -1    0    0    0    0 -0.00000000000E+00 -0.00000000000E+00 -0.45593999997E+02  0.45594000000E+02  0.51100000000E-03 0. -1.
    9900012    2    1    2    0    0 -0.76006554715E-01 -0.32458918691E+00 -0.11322041688E+01  0.90007736717E+02  0.89999998042E+02 0.  0.
        -12    1    1    2    0    0  0.76006554715E-01  0.32458918691E+00  0.11322041688E+01  0.11802632826E+01  0.00000000000E+00 0.  1.
         11    1    3    3    0    0 -0.19094895226E+02  0.17706683959E+02 -0.25940506190E+02  0.36756653033E+02  0.51100000000E-03 0. -1.
        -11    1    3    3    0    0 -0.58385837789E+01 -0.22853929834E+01 -0.73508715091E+01  0.96616455035E+01  0.51100000000E-03 0.  1.
        -12    1    3    3    0    0  0.24857472450E+02 -0.15745880163E+02  0.32159173531E+02  0.43589438181E+02  0.00000000000E+00 0.  1.
</event>
<event>
 7    1  0.2542335E-015  0.9000782E+02  0.7816164E-02  0.1186339E+00
        -11   -1    0    0    0    0  0.00000000000E+00  0.00000000000E+00  0.45593999997E+02  0.45594000000E+02  0.51100000000E-03 0. -1.
         11   -1    0    0    0    0 -0.00000000000E+00 -0.00000000000E+00 -0.45593999997E+02  0.45594000000E+02  0.51100000000E-03 0.  1.
    9900012    2    1    2    0    0 -0.42195038059E+00  0.90382190711E+00  0.63078490390E+00  0.90007819608E+02  0.90000082026E+02 0.  0.
        -12    1    1    2    0    0  0.42195038059E+00 -0.90382190711E+00 -0.63078490390E+00  0.11801803923E+01  0.00000000000E+00 0.  1.
         11    1    3    3    0    0 -0.28870468970E+01 -0.55517019001E+01  0.16721581711E+01  0.64770785840E+01  0.51100000000E-03 0. -1.
        -11    1    3    3    0    0 -0.35359252903E+02 -0.16243123171E+02  0.40664062804E+01  0.39123541207E+02  0.51100000000E-03 0.  1.
         12    1    3    3    0    0  0.37824349420E+02  0.22698646978E+02 -0.51077795476E+01  0.44407199817E+02  0.00000000000E+00 0. -1.
</event>
<event>
 7    1  0.2542335E-015  0.9000772E+02  0.7816164E-02  0.1186339E+00
        -11   -1    0    0    0    0  0.00000000000E+00  0.00000000000E+00  0.45593999997E+02  0.45594000000E+02  0.51100000000E-03 0.  1.
         11   -1    0    0    0    0 -0.00000000000E+00 -0.00000000000E+00 -0.45593999997E+02  0.45594000000E+02  0.51100000000E-03 0. -1.
    9900012    2    1    2    0    0 -0.75746383543E+00 -0.42412776859E+00 -0.79964523146E+00  0.90007716847E+02  0.89999977909E+02 0.  0.
        -12    1    1    2    0    0  0.75746383543E+00  0.42412776859E+00  0.79964523146E+00  0.11802831534E+01  0.00000000000E+00 0.  1.
         11    1    3    3    0    0  0.62751886116E+01 -0.27901662511E+01 -0.73261818717E+01  0.10041711054E+02  0.51100000000E-03 0. -1.
        -11    1    3    3    0    0  0.27622305264E+02  0.24076162489E+02  0.12333102630E+02  0.38662110251E+02  0.51100000000E-03 0.  1.
         12    1    3    3    0    0 -0.34654957711E+02 -0.21710124007E+02 -0.58065659898E+01  0.41303895542E+02  0.00000000000E+00 0. -1.
</event>
<event>
 7    1  0.3406904E-015  0.9000776E+02  0.7816164E-02  0.1186339E+00
        -11   -1    0    0    0    0  0.00000000000E+00  0.00000000000E+00  0.45593999997E+02  0.45594000000E+02  0.51100000000E-03 0. -1.
         11   -1    0    0    0    0 -0.00000000000E+00 -0.00000000000E+00 -0.45593999997E+02  0.45594000000E+02  0.51100000000E-03 0.  1.
    9900012    2    1    2    0    0  0.10521089174E+01  0.21841830741E+00  0.48819068919E+00  0.90007758550E+02  0.90000020163E+02 0.  0.
        -12    1    1    2    0    0 -0.10521089174E+01 -0.21841830741E+00 -0.48819068919E+00  0.11802414499E+01  0.00000000000E+00 0.  1.
         11    1    3    3    0    0  0.90099207263E+01 -0.30322772071E+01 -0.19167838034E+01  0.96978057809E+01  0.51100000000E-03 0. -1.
        -11    1    3    3    0    0  0.16841677179E+02  0.16504367721E+02 -0.29510504809E+02  0.37774411159E+02  0.51100000000E-03 0.  1.
         12    1    3    3    0    0 -0.24799488988E+02 -0.13253672207E+02  0.31915479302E+02  0.42535541610E+02  0.00000000000E+00 0. -1.
</event>
<event>
 7    1  0.2542335E-015  0.9000772E+02  0.7816164E-02  0.1186339E+00
        -11   -1    0    0    0    0  0.00000000000E+00  0.00000000000E+00  0.45593999997E+02  0.45594000000E+02  0.51100000000E-03 0.  1.
         11   -1    0    0    0    0 -0.00000000000E+00 -0.00000000000E+00 -0.45593999997E+02  0.45594000000E+02  0.51100000000E-03 0. -1.
    9900012    2    1    2    0    0  0.82772199599E+00 -0.31512884955E+00  0.78015422990E+00  0.90007715917E+02  0.89999976967E+02 0.  0.
        -12    1    1    2    0    0 -0.82772199599E+00  0.31512884955E+00 -0.78015422990E+00  0.11802840831E+01  0.00000000000E+00 0.  1.
         11    1    3    3    0    0 -0.79508226820E+01 -0.17715851737E+00  0.53144900408E+01  0.95650808212E+01  0.51100000000E-03 0. -1.
        -11    1    3    3    0    0  0.41831412016E+01  0.11485033048E+02  0.36003499108E+02  0.38021791156E+02  0.51100000000E-03 0.  1.
         12    1    3    3    0    0  0.45954034764E+01 -0.11623003381E+02 -0.40537834919E+02  0.42420843940E+02  0.00000000000E+00 0. -1.
</event>
<event>
 7    1  0.2542335E-015  0.9000762E+02  0.7816164E-02  0.1186339E+00
        -11   -1    0    0    0    0  0.00000000000E+00  0.00000000000E+00  0.45593999997E+02  0.45594000000E+02  0.51100000000E-03 0.  1.
         11   -1    0    0    0    0 -0.00000000000E+00 -0.00000000000E+00 -0.45593999997E+02  0.45594000000E+02  0.51100000000E-03 0. -1.
    9900012    2    1    2    0    0  0.76497561384E+00  0.84486418128E+00  0.30709905926E+00  0.90007621668E+02  0.89999881474E+02 0.  0.
        -12    1    1    2    0    0 -0.76497561384E+00 -0.84486418128E+00 -0.30709905926E+00  0.11803783321E+01  0.00000000000E+00 0.  1.
         11    1    3    3    0    0 -0.91908138683E+01  0.28318182162E+02  0.20983223053E+02  0.36423703141E+02  0.51100000000E-03 0. -1.
        -11    1    3    3    0    0  0.17066235184E+01  0.98481023369E+01  0.27020135520E+00  0.99985345179E+01  0.51100000000E-03 0.  1.
        -12    1    3    3    0    0  0.82491659637E+01 -0.37321420318E+02 -0.20946325348E+02  0.43585384009E+02  0.00000000000E+00 0.  1.
</event>
<event>
 7    1  0.2542335E-015  0.9000780E+02  0.7816164E-02  0.1186339E+00
        -11   -1    0    0    0    0  0.00000000000E+00  0.00000000000E+00  0.45593999997E+02  0.45594000000E+02  0.51100000000E-03 0. -1.
         11   -1    0    0    0    0 -0.00000000000E+00 -0.00000000000E+00 -0.45593999997E+02  0.45594000000E+02  0.51100000000E-03 0.  1.
    9900012    2    1    2    0    0  0.10643129494E+01 -0.45045447786E+00  0.23914460299E+00  0.90007804494E+02  0.90000066713E+02 0.  0.
        -12    1    1    2    0    0 -0.10643129494E+01  0.45045447786E+00 -0.23914460299E+00  0.11801955059E+01  0.00000000000E+00 0.  1.
         11    1    3    3    0    0 -0.13771074874E+01  0.68109784084E+01 -0.13108678794E+02  0.14836553235E+02  0.51100000000E-03 0. -1.
        -11    1    3    3    0    0  0.27069993640E+02  0.17309027613E+02 -0.95535002694E+01  0.33520983879E+02  0.51100000000E-03 0.  1.
         12    1    3    3    0    0 -0.24628573203E+02 -0.24570460499E+02  0.22901323666E+02  0.41650267380E+02  0.00000000000E+00 0. -1.
</event>
<event>
 7    1  0.2542335E-015  0.9000775E+02  0.7816164E-02  0.1186339E+00
        -11   -1    0    0    0    0  0.00000000000E+00  0.00000000000E+00  0.45593999997E+02  0.45594000000E+02  0.51100000000E-03 0. -1.
         11   -1    0    0    0    0 -0.00000000000E+00 -0.00000000000E+00 -0.45593999997E+02  0.45594000000E+02  0.51100000000E-03 0.  1.
    9900012    2    1    2    0    0 -0.11428036166E+01  0.29478029772E+00  0.99945744314E-02  0.90007747730E+02  0.90000009200E+02 0.  0.
        -12    1    1    2    0    0  0.11428036166E+01 -0.29478029772E+00 -0.99945744314E-02  0.11802522703E+01  0.00000000000E+00 0.  1.
         11    1    3    3    0    0  0.97188350201E+00  0.19946134753E+02  0.35845714228E+02  0.41033012050E+02  0.51100000000E-03 0. -1.
        -11    1    3    3    0    0  0.47249260626E+01 -0.79681972175E+01  0.13865899220E+01  0.93669485461E+01  0.51100000000E-03 0.  1.
        -12    1    3    3    0    0 -0.68396131812E+01 -0.11683157238E+02 -0.37222309575E+02  0.39607787134E+02  0.00000000000E+00 0.  1.
</event>
<event>
 7    1  0.2542335E-015  0.9000760E+02  0.7816164E-02  0.1186339E+00
        -11   -1    0    0    0    0  0.00000000000E+00  0.00000000000E+00  0.45593999997E+02  0.45594000000E+02  0.51100000000E-03 0. -1.
         11   -1    0    0    0    0 -0.00000000000E+00 -0.00000000000E+00 -0.45593999997E+02  0.45594000000E+02  0.51100000000E-03 0.  1.
    9900012    2    1    2    0    0  0.65159730173E+00 -0.50255810349E+00  0.84627943364E+00  0.90007604909E+02  0.89999864494E+02 0.  0.
        -12    1    1    2    0    0 -0.65159730173E+00  0.50255810349E+00 -0.84627943364E+00  0.11803950910E+01  0.00000000000E+00 0.  1.
         11    1    3    3    0    0 -0.30216901917E+01  0.71672277505E+00 -0.82398988575E+01  0.88056934192E+01  0.51100000000E-03 0. -1.
        -11    1    3    3    0    0 -0.14837251461E+02  0.18790203498E+02 -0.26929758059E+02  0.36033701556E+02  0.51100000000E-03 0.  1.
         12    1    3    3    0    0  0.18510538955E+02 -0.20009484377E+02  0.36015936351E+02  0.45168209934E+02  0.00000000000E+00 0. -1.
</event>
<event>
 7    1  0.2542335E-015  0.9000775E+02  0.7816164E-02  0.1186339E+00
        -11   -1    0    0    0    0  0.00000000000E+00  0.00000000000E+00  0.45593999997E+02  0.45594000000E+02  0.51100000000E-03 0.  1.
         11   -1    0    0    0    0 -0.00000000000E+00 -0.00000000000E+00 -0.45593999997E+02  0.45594000000E+02  0.51100000000E-03 0. -1.
    9900012    2    1    2    0    0  0.38654058294E+00  0.11035725894E+01  0.16031984745E+00  0.90007750647E+02  0.90000012155E+02 0.  0.
        -12    1    1    2    0    0 -0.38654058294E+00 -0.11035725894E+01 -0.16031984745E+00  0.11802493533E+01  0.00000000000E+00 0.  1.
         11    1    3    3    0    0  0.18839287359E+02  0.78868333740E+01 -0.11470636114E+02  0.23424269081E+02  0.51100000000E-03 0. -1.
        -11    1    3    3    0    0  0.11499096822E+02  0.74090846145E+01 -0.17668875557E+02  0.22345311058E+02  0.51100000000E-03 0.  1.
        -12    1    3    3    0    0 -0.29951843598E+02 -0.14192345399E+02  0.29299831519E+02  0.44238170508E+02  0.00000000000E+00 0.  1.
</event>
<event>
 7    1  0.2542335E-015  0.9000764E+02  0.7816164E-02  0.1186339E+00
        -11   -1    0    0    0    0  0.00000000000E+00  0.00000000000E+00  0.45593999997E+02  0.45594000000E+02  0.51100000000E-03 0.  1.
         11   -1    0    0    0    0 -0.00000000000E+00 -0.00000000000E+00 -0.45593999997E+02  0.45594000000E+02  0.51100000000E-03 0. -1.
    9900012    2    1    2    0    0  0.11462959088E+01  0.18205667532E+00 -0.21474404123E+00  0.90007638214E+02  0.89999898238E+02 0.  0.
        -12    1    1    2    0    0 -0.11462959088E+01 -0.18205667532E+00  0.21474404123E+00  0.11803617864E+01  0.00000000000E+00 0.  1.
         11    1    3    3    0    0  0.93420247077E+01  0.17886536594E+01  0.20456870003E+01  0.97292108168E+01  0.51100000000E-03 0. -1.
        -11    1    3    3    0    0  0.13594692034E+02 -0.21424262574E+02  0.28180431709E+02  0.37920329771E+02  0.51100000000E-03 0.  1.
         12    1    3    3    0    0 -0.21790420832E+02  0.19817665590E+02 -0.30440862751E+02  0.42358097626E+02  0.00000000000E+00 0. -1.
</event>
<event>
 7    1  0.2542335E-015  0.9000776E+02  0.7816164E-02  0.1186339E+00
        -11   -1    0    0    0    0  0.00000000000E+00  0.00000000000E+00  0.45593999997E+02  0.45594000000E+02  0.51100000000E-03 0.  1.
         11   -1    0    0    0    0 -0.00000000000E+00 -0.00000000000E+00 -0.45593999997E+02  0.45594000000E+02  0.51100000000E-03 0. -1.
    9900012    2    1    2    0    0 -0.10850992061E+01  0.46420580456E+00 -0.62075714152E-02  0.90007760257E+02  0.90000021893E+02 0.  0.
        -12    1    1    2    0    0  0.10850992061E+01 -0.46420580456E+00  0.62075714152E-02  0.11802397426E+01  0.00000000000E+00 0.  1.
         11    1    3    3    0    0 -0.21967387527E+02 -0.23911913111E+02  0.22778174403E+02  0.39663471013E+02  0.51100000000E-03 0. -1.
        -11    1    3    3    0    0 -0.43505701641E+01 -0.31471428850E+01 -0.91198386655E+01  0.10583167136E+02  0.51100000000E-03 0.  1.
        -12    1    3    3    0    0  0.25232858485E+02  0.27523261801E+02 -0.13664543309E+02  0.39761122108E+02  0.00000000000E+00 0.  1.
</event>
<event>
 7    1  0.2542335E-015  0.9000743E+02  0.7816164E-02  0.1186340E+00
        -11   -1    0    0    0    0  0.00000000000E+00  0.00000000000E+00  0.45593999997E+02  0.45594000000E+02  0.51100000000E-03 0. -1.
         11   -1    0    0    0    0 -0.00000000000E+00 -0.00000000000E+00 -0.45593999997E+02  0.45594000000E+02  0.51100000000E-03 0.  1.
    9900012    2    1    2    0    0  0.38277514908E+00 -0.54852582585E+00  0.97280358598E+00  0.90007430556E+02  0.89999687838E+02 0.  0.
        -12    1    1    2    0    0 -0.38277514908E+00  0.54852582585E+00 -0.97280358598E+00  0.11805694445E+01  0.00000000000E+00 0.  1.
         11    1    3    3    0    0  0.83155856129E+01 -0.63598856928E+00 -0.35090501381E+01  0.90480317571E+01  0.51100000000E-03 0. -1.
        -11    1    3    3    0    0  0.30415901486E+02 -0.76550853021E+00 -0.19107841730E+02  0.35928020852E+02  0.51100000000E-03 0.  1.
         12    1    3    3    0    0 -0.38348711949E+02  0.85297127364E+00  0.23589695454E+02  0.45031377947E+02  0.00000000000E+00 0. -1.
</event>
<event>
 7    1  0.2542335E-015  0.9000821E+02  0.7816164E-02  0.1186338E+00
        -11   -1    0    0    0    0  0.00000000000E+00  0.00000000000E+00  0.45593999997E+02  0.45594000000E+02  0.51100000000E-03 0. -1.
         11   -1    0    0    0    0 -0.00000000000E+00 -0.00000000000E+00 -0.45593999997E+02  0.45594000000E+02  0.51100000000E-03 0.  1.
    9900012    2    1    2    0    0  0.79480337035E+00 -0.44856373452E+00  0.74765285037E+00  0.90008209084E+02  0.90000476642E+02 0.  0.
        -12    1    1    2    0    0 -0.79480337035E+00  0.44856373452E+00 -0.74765285037E+00  0.11797909163E+01  0.00000000000E+00 0.  1.
         11    1    3    3    0    0 -0.35285478695E+02 -0.10364982501E+02  0.13635429330E+02  0.39222733233E+02  0.51100000000E-03 0. -1.
        -11    1    3    3    0    0  0.43153153993E+01  0.12326154778E+02 -0.13688645913E+02  0.18919171911E+02  0.51100000000E-03 0.  1.
        -12    1    3    3    0    0  0.31764966666E+02 -0.24097360110E+01  0.80086943350E+00  0.31866303940E+02  0.00000000000E+00 0.  1.
</event>
<event>
 7    1  0.2542335E-015  0.9000774E+02  0.7816164E-02  0.1186339E+00
        -11   -1    0    0    0    0  0.00000000000E+00  0.00000000000E+00  0.45593999997E+02  0.45594000000E+02  0.51100000000E-03 0. -1.
         11   -1    0    0    0    0 -0.00000000000E+00 -0.00000000000E+00 -0.45593999997E+02  0.45594000000E+02  0.51100000000E-03 0.  1.
    9900012    2    1    2    0    0  0.13706804583E+00 -0.26251788293E+00  0.11424972425E+01  0.90007744419E+02  0.90000005845E+02 0.  0.
        -12    1    1    2    0    0 -0.13706804583E+00  0.26251788293E+00 -0.11424972425E+01  0.11802555812E+01  0.00000000000E+00 0.  1.
         11    1    3    3    0    0  0.14410835940E+00  0.19568622191E+02 -0.33618415002E+02  0.38899223246E+02  0.51100000000E-03 0. -1.
        -11    1    3    3    0    0  0.24469818395E+01 -0.62000128516E+01 -0.54305111637E+01  0.85975770565E+01  0.51100000000E-03 0.  1.
        -12    1    3    3    0    0 -0.24540221530E+01 -0.13631127222E+02  0.40191423408E+02  0.42510944116E+02  0.00000000000E+00 0.  1.
</event>
<event>
 7    1  0.2542335E-015  0.9000766E+02  0.7816164E-02  0.1186339E+00
        -11   -1    0    0    0    0  0.00000000000E+00  0.00000000000E+00  0.45593999997E+02  0.45594000000E+02  0.51100000000E-03 0. -1.
         11   -1    0    0    0    0 -0.00000000000E+00 -0.00000000000E+00 -0.45593999997E+02  0.45594000000E+02  0.51100000000E-03 0.  1.
    9900012    2    1    2    0    0  0.83896707007E+00  0.56773926585E+00  0.60580600698E+00  0.90007663380E+02  0.89999923736E+02 0.  0.
        -12    1    1    2    0    0 -0.83896707007E+00 -0.56773926585E+00 -0.60580600698E+00  0.11803366201E+01  0.00000000000E+00 0.  1.
         11    1    3    3    0    0 -0.36415083136E+02  0.40468827111E+01 -0.68630349170E+01  0.37276491090E+02  0.51100000000E-03 0. -1.
        -11    1    3    3    0    0 -0.30007262732E+01  0.84851861973E+01 -0.29347696478E+01  0.94665524937E+01  0.51100000000E-03 0.  1.
        -12    1    3    3    0    0  0.40254776479E+02 -0.11964329643E+02  0.10403610572E+02  0.43264619796E+02  0.00000000000E+00 0.  1.
</event>
<event>
 7    1  0.2542335E-015  0.9000780E+02  0.7816164E-02  0.1186339E+00
        -11   -1    0    0    0    0  0.00000000000E+00  0.00000000000E+00  0.45593999997E+02  0.45594000000E+02  0.51100000000E-03 0.  1.
         11   -1    0    0    0    0 -0.00000000000E+00 -0.00000000000E+00 -0.45593999997E+02  0.45594000000E+02  0.51100000000E-03 0. -1.
    9900012    2    1    2    0    0 -0.18687797072E+00  0.68527344131E+00 -0.94252467397E+00  0.90007798396E+02  0.90000060535E+02 0.  0.
        -12    1    1    2    0    0  0.18687797072E+00 -0.68527344131E+00  0.94252467397E+00  0.11802016041E+01  0.00000000000E+00 0.  1.
         11    1    3    3    0    0 -0.84872513619E+01 -0.14212299183E+02 -0.34430883608E+02  0.38203515938E+02  0.51100000000E-03 0. -1.
        -11    1    3    3    0    0  0.16648899812E+00  0.11719468615E+02 -0.47016899789E+01  0.12628521376E+02  0.51100000000E-03 0.  1.
        -12    1    3    3    0    0  0.81338843931E+01  0.31781040091E+01  0.38190048913E+02  0.39175761082E+02  0.00000000000E+00 0.  1.
</event>
<event>
 7    1  0.2542335E-015  0.9000687E+02  0.7816164E-02  0.1186341E+00
        -11   -1    0    0    0    0  0.00000000000E+00  0.00000000000E+00  0.45593999997E+02  0.45594000000E+02  0.51100000000E-03 0. -1.
         11   -1    0    0    0    0 -0.00000000000E+00 -0.00000000000E+00 -0.45593999997E+02  0.45594000000E+02  0.51100000000E-03 0.  1.
    9900012    2    1    2    0    0  0.69528309703E+00  0.80517373217E+00 -0.51317296820E+00  0.90006869262E+02  0.89999119132E+02 0.  0.
        -12    1    1    2    0    0 -0.69528309703E+00 -0.80517373217E+00  0.51317296820E+00  0.11811307376E+01  0.00000000000E+00 0.  1.
         11    1    3    3    0    0 -0.47117888560E+01  0.80080781476E+01 -0.39259965644E+01  0.10086809165E+02  0.51100000000E-03 0. -1.
        -11    1    3    3    0    0 -0.33902639436E+02 -0.14376157129E+02 -0.93122593339E+01  0.37983957518E+02  0.51100000000E-03 0.  1.
         12    1    3    3    0    0  0.39309711389E+02  0.71732527137E+01  0.12725082930E+02  0.41936102580E+02  0.00000000000E+00 0. -1.
</event>
<event>
 7    1  0.2542335E-015  0.9000769E+02  0.7816164E-02  0.1186339E+00
        -11   -1    0    0    0    0  0.00000000000E+00  0.00000000000E+00  0.45593999997E+02  0.45594000000E+02  0.51100000000E-03 0.  1.
         11   -1    0    0    0    0 -0.00000000000E+00 -0.00000000000E+00 -0.45593999997E+02  0.45594000000E+02  0.51100000000E-03 0. -1.
    9900012    2    1    2    0    0  0.25191670466E+00 -0.66182083718E+00 -0.94427459277E+00  0.90007693534E+02  0.89999954289E+02 0.  0.
        -12    1    1    2    0    0 -0.25191670466E+00  0.66182083718E+00  0.94427459277E+00  0.11803064658E+01  0.00000000000E+00 0.  1.
         11    1    3    3    0    0  0.31670151644E+02 -0.37901851623E+01  0.19088897376E+02  0.37171898149E+02  0.51100000000E-03 0. -1.
        -11    1    3    3    0    0  0.39166328937E+01 -0.80693494010E+01  0.26826806667E+01  0.93622213604E+01  0.51100000000E-03 0.  1.
        -12    1    3    3    0    0 -0.35334867833E+02  0.11197713726E+02 -0.22715852636E+02  0.43473574024E+02  0.00000000000E+00 0.  1.
</event>
<event>
 7    1  0.2542335E-015  0.9000674E+02  0.7816164E-02  0.1186341E+00
        -11   -1    0    0    0    0  0.00000000000E+00  0.00000000000E+00  0.45593999997E+02  0.45594000000E+02  0.51100000000E-03 0.  1.
         11   -1    0    0    0    0 -0.00000000000E+00 -0.00000000000E+00 -0.45593999997E+02  0.45594000000E+02  0.51100000000E-03 0. -1.
    9900012    2    1    2    0    0 -0.11733682916E+00 -0.11669507264E+01 -0.14085854507E+00  0.90006736668E+02  0.89998984786E+02 0.  0.
        -12    1    1    2    0    0  0.11733682916E+00  0.11669507264E+01  0.14085854507E+00  0.11812633318E+01  0.00000000000E+00 0.  1.
         11    1    3    3    0    0 -0.67931830274E+01  0.42784101601E+01 -0.81217099556E+00  0.80691852828E+01  0.51100000000E-03 0. -1.
        -11    1    3    3    0    0  0.40659530293E+02  0.13035002928E+02  0.50998627214E+01  0.43001363990E+02  0.51100000000E-03 0.  1.
         12    1    3    3    0    0 -0.33983684095E+02 -0.18480363815E+02 -0.44285502709E+01  0.38936187395E+02  0.00000000000E+00 0. -1.
</event>
<event>
 7    1  0.2542335E-015  0.9000787E+02  0.7816164E-02  0.1186339E+00
        -11   -1    0    0    0    0  0.00000000000E+00  0.00000000000E+00  0.45593999997E+02  0.45594000000E+02  0.51100000000E-03 0.  1.
         11   -1    0    0    0    0 -0.00000000000E+00 -0.00000000000E+00 -0.45593999997E+02  0.45594000000E+02  0.51100000000E-03 0. -1.
    9900012    2    1    2    0    0  0.69936539616E+00  0.12172011466E+00 -0.94274768992E+00  0.90007872485E+02  0.90000135602E+02 0.  0.
        -12    1    1    2    0    0 -0.69936539616E+00 -0.12172011466E+00  0.94274768992E+00  0.11801275145E+01  0.00000000000E+00 0.  1.
         11    1    3    3    0    0 -0.49656114534E+01 -0.49079045339E-01  0.62097163845E+01  0.79511183928E+01  0.51100000000E-03 0. -1.
        -11    1    3    3    0    0  0.21877768190E+02 -0.28717850978E+02 -0.25489122469E+02  0.44193292141E+02  0.51100000000E-03 0.  1.
         12    1    3    3    0    0 -0.16212791341E+02  0.28888650138E+02  0.18336658395E+02  0.37863461951E+02  0.00000000000E+00 0. -1.
</event>
<event>
 7    1  0.2542335E-015  0.9000771E+02  0.7816164E-02  0.1186339E+00
        -11   -1    0    0    0    0  0.00000000000E+00  0.00000000000E+00  0.45593999997E+02  0.45594000000E+02  0.51100000000E-03 0. -1.
         11   -1    0    0    0    0 -0.00000000000E+00 -0.00000000000E+00 -0.45593999997E+02  0.45594000000E+02  0.51100000000E-03 0.  1.
    9900012    2    1    2    0    0 -0.42217193257E+00 -0.11020782869E+01  0.16721732536E-01  0.90007709651E+02  0.89999970619E+02 0.  0.
        -12    1    1    2    0    0  0.42217193257E+00  0.11020782869E+01 -0.16721732536E-01  0.11802903488E+01  0.00000000000E+00 0.  1.
         11    1    3    3    0    0  0.24623485249E+02 -0.20274934960E+02  0.27802434986E+02  0.42312697915E+02  0.51100000000E-03 0. -1.
        -11    1    3    3    0    0 -0.24220199253E+01  0.54447679324E+01  0.33472355883E+01  0.68348858587E+01  0.51100000000E-03 0.  1.
        -12    1    3    3    0    0 -0.22623637256E+02  0.13728088741E+02 -0.31132948841E+02  0.40860125878E+02  0.00000000000E+00 0.  1.
</event>
<event>
 7    1  0.2542335E-015  0.9000758E+02  0.7816164E-02  0.1186339E+00
        -11   -1    0    0    0    0  0.00000000000E+00  0.00000000000E+00  0.45593999997E+02  0.45594000000E+02  0.51100000000E-03 0.  1.
         11   -1    0    0    0    0 -0.00000000000E+00 -0.00000000000E+00 -0.45593999997E+02  0.45594000000E+02  0.51100000000E-03 0. -1.
    9900012    2    1    2    0    0  0.99010559824E+00 -0.60480163152E+00 -0.21749405600E+00  0.90007577290E+02  0.89999836510E+02 0.  0.
        -12    1    1    2    0    0 -0.99010559824E+00  0.60480163152E+00  0.21749405600E+00  0.11804227097E+01  0.00000000000E+00 0.  1.
         11    1    3    3    0    0  0.10367493271E+01 -0.93865270641E+01 -0.29397097147E+01  0.98905830445E+01  0.51100000000E-03 0. -1.
        -11    1    3    3    0    0  0.38540344741E+02 -0.53026207051E+01 -0.57659942596E+00  0.38907691094E+02  0.51100000000E-03 0.  1.
         12    1    3    3    0    0 -0.38586988470E+02  0.14084346138E+02  0.32988150847E+01  0.41209303152E+02  0.00000000000E+00 0. -1.
</event>
<event>
 7    1  0.2542335E-015  0.9000777E+02  0.7816164E-02  0.1186339E+00
        -11   -1    0    0    0    0  0.00000000000E+00  0.00000000000E+00  0.45593999997E+02  0.45594000000E+02  0.51100000000E-03 0.  1.
         11   -1    0    0    0    0 -0.00000000000E+00 -0.00000000000E+00 -0.45593999997E+02  0.45594000000E+02  0.51100000000E-03 0. -1.
    9900012    2    1    2    0    0  0.32163137856E+00 -0.11077941415E+01 -0.24957996877E+00  0.90007769190E+02  0.90000030943E+02 0.  0.
        -12    1    1    2    0    0 -0.32163137856E+00  0.11077941415E+01  0.24957996877E+00  0.11802308099E+01  0.00000000000E+00 0.  1.
         11    1    3    3    0    0  0.30179543007E+02  0.49938614436E+01 -0.27754107960E+02  0.41304164162E+02  0.51100000000E-03 0. -1.
        -11    1    3    3    0    0 -0.50293540683E+01  0.70443450201E+01 -0.96153099930E+00  0.87087163939E+01  0.51100000000E-03 0.  1.
        -12    1    3    3    0    0 -0.24828557560E+02 -0.13146000605E+02  0.28466058990E+02  0.39994888634E+02  0.00000000000E+00 0.  1.
</event>
<event>
 7    1  0.4305439E-015  0.9000761E+02  0.7816164E-02  0.1186339E+00
        -11   -1    0    0    0    0  0.00000000000E+00  0.00000000000E+00  0.45593999997E+02  0.45594000000E+02  0.51100000000E-03 0. -1.
         11   -1    0    0    0    0 -0.00000000000E+00 -0.00000000000E+00 -0.45593999997E+02  0.45594000000E+02  0.51100000000E-03 0.  1.
    9900012    2    1    2    0    0 -0.38367981000E+00  0.14324055434E+00  0.11070638650E+01  0.90007610889E+02  0.89999870552E+02 0.  0.
        -12    1    1    2    0    0  0.38367981000E+00 -0.14324055434E+00 -0.11070638650E+01  0.11803891114E+01  0.00000000000E+00 0.  1.
         11    1    3    3    0    0 -0.48325815486E+01 -0.13944824829E+00 -0.90358242225E+01  0.10247897827E+02  0.51100000000E-03 0. -1.
        -11    1    3    3    0    0  0.16543158398E+02 -0.78613639490E+00 -0.31930150022E+02  0.35969828759E+02  0.51100000000E-03 0.  1.
         12    1    3    3    0    0 -0.12094256659E+02  0.10688251975E+01  0.42073038110E+02  0.43789884303E+02  0.00000000000E+00 0. -1.
</event>
<event>
 7    1  0.2542335E-015  0.9000777E+02  0.7816164E-02  0.1186339E+00
        -11   -1    0    0    0    0  0.00000000000E+00  0.00000000000E+00  0.45593999997E+02  0.45594000000E+02  0.51100000000E-03 0.  1.
         11   -1    0    0    0    0 -0.00000000000E+00 -0.00000000000E+00 -0.45593999997E+02  0.45594000000E+02  0.51100000000E-03 0. -1.
    9900012    2    1    2    0    0 -0.89751051466E-01  0.11755477939E+01  0.54541964162E-01  0.90007770068E+02  0.90000031833E+02 0.  0.
        -12    1    1    2    0    0  0.89751051466E-01 -0.11755477939E+01 -0.54541964162E-01  0.11802299322E+01  0.00000000000E+00 0.  1.
         11    1    3    3    0    0  0.83724683035E+01  0.32542157588E+01  0.55420356030E+01  0.10554729015E+02  0.51100000000E-03 0. -1.
        -11    1    3    3    0    0  0.32730296055E+02  0.20385277537E+01  0.11434789827E+02  0.34730135242E+02  0.51100000000E-03 0.  1.
         12    1    3    3    0    0 -0.41192515410E+02 -0.41171957186E+01 -0.16922283466E+02  0.44722905810E+02  0.00000000000E+00 0. -1.
</event>
<event>
 7    1  0.2542335E-015  0.9000777E+02  0.7816164E-02  0.1186339E+00
        -11   -1    0    0    0    0  0.00000000000E+00  0.00000000000E+00  0.45593999997E+02  0.45594000000E+02  0.51100000000E-03 0.  1.
         11   -1    0    0    0    0 -0.00000000000E+00 -0.00000000000E+00 -0.45593999997E+02  0.45594000000E+02  0.51100000000E-03 0. -1.
    9900012    2    1    2    0    0  0.23331556858E-01 -0.43938825765E+00 -0.10951430124E+01  0.90007769251E+02  0.90000031005E+02 0.  0.
        -12    1    1    2    0    0 -0.23331556858E-01  0.43938825765E+00  0.10951430124E+01  0.11802307487E+01  0.00000000000E+00 0.  1.
         11    1    3    3    0    0  0.19221526944E+01  0.23804872863E+02 -0.24279587003E+02  0.34056790634E+02  0.51100000000E-03 0. -1.
        -11    1    3    3    0    0 -0.44262025899E+00  0.62936596717E+01 -0.93669603503E+01  0.11293627018E+02  0.51100000000E-03 0.  1.
        -12    1    3    3    0    0 -0.14562008786E+01 -0.30537920793E+02  0.32551404340E+02  0.44657351599E+02  0.00000000000E+00 0.  1.
</event>
<event>
 7    1  0.2542335E-015  0.9000783E+02  0.7816164E-02  0.1186339E+00
        -11   -1    0    0    0    0  0.00000000000E+00  0.00000000000E+00  0.45593999997E+02  0.45594000000E+02  0.51100000000E-03 0. -1.
         11   -1    0    0    0    0 -0.00000000000E+00 -0.00000000000E+00 -0.45593999997E+02  0.45594000000E+02  0.51100000000E-03 0.  1.
    9900012    2    1    2    0    0 -0.35481836327E+00  0.11238480600E+01 -0.62168489584E-01  0.90007832447E+02  0.90000095035E+02 0.  0.
        -12    1    1    2    0    0  0.35481836327E+00 -0.11238480600E+01  0.62168489584E-01  0.11801675534E+01  0.00000000000E+00 0.  1.
         11    1    3    3    0    0 -0.33380616527E+01 -0.21455755520E+02 -0.29172269614E+02  0.36366377538E+02  0.51100000000E-03 0. -1.
        -11    1    3    3    0    0  0.33826962615E+01 -0.47433652516E+01 -0.65170970005E+01  0.87415502906E+01  0.51100000000E-03 0.  1.
        -12    1    3    3    0    0 -0.39945297208E+00  0.27322968832E+02  0.35627198125E+02  0.44899904618E+02  0.00000000000E+00 0.  1.
</event>
<event>
 7    1  0.2542335E-015  0.9000776E+02  0.7816164E-02  0.1186339E+00
        -11   -1    0    0    0    0  0.00000000000E+00  0.00000000000E+00  0.45593999997E+02  0.45594000000E+02  0.51100000000E-03 0.  1.
         11   -1    0    0    0    0 -0.00000000000E+00 -0.00000000000E+00 -0.45593999997E+02  0.45594000000E+02  0.51100000000E-03 0. -1.
    9900012    2    1    2    0    0  0.55556892725E+00 -0.10348718887E+00 -0.10361467123E+01  0.90007760007E+02  0.90000021639E+02 0.  0.
        -12    1    1    2    0    0 -0.55556892725E+00  0.10348718887E+00  0.10361467123E+01  0.11802399928E+01  0.00000000000E+00 0.  1.
         11    1    3    3    0    0 -0.39633860818E+01  0.33047654376E+02 -0.16565412348E+02  0.37178875393E+02  0.51100000000E-03 0. -1.
        -11    1    3    3    0    0  0.22768561597E+01  0.84893970195E+01  0.29747339140E+01  0.92791690278E+01  0.51100000000E-03 0.  1.
        -12    1    3    3    0    0  0.22420988493E+01 -0.41640538585E+02  0.12554531722E+02  0.43549715586E+02  0.00000000000E+00 0.  1.
</event>
<event>
 7    1  0.2542335E-015  0.9000775E+02  0.7816164E-02  0.1186339E+00
        -11   -1    0    0    0    0  0.00000000000E+00  0.00000000000E+00  0.45593999997E+02  0.45594000000E+02  0.51100000000E-03 0.  1.
         11   -1    0    0    0    0 -0.00000000000E+00 -0.00000000000E+00 -0.45593999997E+02  0.45594000000E+02  0.51100000000E-03 0. -1.
    9900012    2    1    2    0    0  0.34513152919E+00 -0.99602914996E+00 -0.53084218190E+00  0.90007752881E+02  0.90000014419E+02 0.  0.
        -12    1    1    2    0    0 -0.34513152919E+00  0.99602914996E+00  0.53084218190E+00  0.11802471191E+01  0.00000000000E+00 0.  1.
         11    1    3    3    0    0  0.11475999104E+01 -0.43311470972E+00  0.90531010211E+01  0.91358202842E+01  0.51100000000E-03 0. -1.
        -11    1    3    3    0    0  0.14405037425E+02  0.37031949660E+02 -0.54664342443E+01  0.40109254574E+02  0.51100000000E-03 0.  1.
         12    1    3    3    0    0 -0.15207505806E+02 -0.37594864101E+02 -0.41175089587E+01  0.40762678023E+02  0.00000000000E+00 0. -1.
</event>
<event>
 7    1  0.2656314E-015  0.9000774E+02  0.7816164E-02  0.1186339E+00
        -11   -1    0    0    0    0  0.00000000000E+00  0.00000000000E+00  0.45593999997E+02  0.45594000000E+02  0.51100000000E-03 0. -1.
         11   -1    0    0    0    0 -0.00000000000E+00 -0.00000000000E+00 -0.45593999997E+02  0.45594000000E+02  0.51100000000E-03 0.  1.
    9900012    2    1    2    0    0 -0.82864121611E+00  0.79678695770E+00  0.26740313503E+00  0.90007737251E+02  0.89999998582E+02 0.  0.
        -12    1    1    2    0    0  0.82864121611E+00 -0.79678695770E+00 -0.26740313503E+00  0.11802627494E+01  0.00000000000E+00 0.  1.
         11    1    3    3    0    0  0.93166668886E+01 -0.33780323762E+00  0.13885662811E+01  0.94256304574E+01  0.51100000000E-03 0. -1.
        -11    1    3    3    0    0  0.18699568927E+02 -0.28698439335E+02 -0.14189150697E+02  0.37075683353E+02  0.51100000000E-03 0.  1.
         12    1    3    3    0    0 -0.28844877032E+02  0.29833029530E+02  0.13067987551E+02  0.43506423440E+02  0.00000000000E+00 0. -1.
</event>
<event>
 7    1  0.2542335E-015  0.9000775E+02  0.7816164E-02  0.1186339E+00
        -11   -1    0    0    0    0  0.00000000000E+00  0.00000000000E+00  0.45593999997E+02  0.45594000000E+02  0.51100000000E-03 0.  1.
         11   -1    0    0    0    0 -0.00000000000E+00 -0.00000000000E+00 -0.45593999997E+02  0.45594000000E+02  0.51100000000E-03 0. -1.
    9900012    2    1    2    0    0 -0.37400468187E+00 -0.10393637270E+01  0.41572143899E+00  0.90007753935E+02  0.90000015487E+02 0.  0.
        -12    1    1    2    0    0  0.37400468187E+00  0.10393637270E+01 -0.41572143899E+00  0.11802460650E+01  0.00000000000E+00 0.  1.
         11    1    3    3    0    0  0.12190912734E+01  0.81088982770E+01 -0.60540722682E+01  0.10192752626E+02  0.51100000000E-03 0. -1.
        -11    1    3    3    0    0 -0.13973437170E+02  0.16765234326E+02  0.33758213296E+02  0.40198843187E+02  0.51100000000E-03 0.  1.
         12    1    3    3    0    0  0.12380341215E+02 -0.25913496330E+02 -0.27288419589E+02  0.39616158122E+02  0.00000000000E+00 0. -1.
</event>
<event>
 7    1  0.2542335E-015  0.9000778E+02  0.7816164E-02  0.1186339E+00
        -11   -1    0    0    0    0  0.00000000000E+00  0.00000000000E+00  0.45593999997E+02  0.45594000000E+02  0.51100000000E-03 0.  1.
         11   -1    0    0    0    0 -0.00000000000E+00 -0.00000000000E+00 -0.45593999997E+02  0.45594000000E+02  0.51100000000E-03 0. -1.
    9900012    2    1    2    0    0 -0.39342878361E+00 -0.11126140231E+01  0.15021558590E-01  0.90007778911E+02  0.90000040792E+02 0.  0.
        -12    1    1    2    0    0  0.39342878361E+00  0.11126140231E+01 -0.15021558590E-01  0.11802210892E+01  0.00000000000E+00 0.  1.
         11    1    3    3    0    0  0.16207697920E+01  0.57602078165E+01 -0.75525383321E+01  0.96357524006E+01  0.51100000000E-03 0. -1.
        -11    1    3    3    0    0  0.10033522395E+02 -0.41265660612E+02  0.10701649124E+02  0.43795566119E+02  0.51100000000E-03 0.  1.
         12    1    3    3    0    0 -0.12047720970E+02  0.34392838773E+02 -0.31340892337E+01  0.36576460391E+02  0.00000000000E+00 0. -1.
</event>
<event>
 7    1  0.2542335E-015  0.9000771E+02  0.7816164E-02  0.1186339E+00
        -11   -1    0    0    0    0  0.00000000000E+00  0.00000000000E+00  0.45593999997E+02  0.45594000000E+02  0.51100000000E-03 0.  1.
         11   -1    0    0    0    0 -0.00000000000E+00 -0.00000000000E+00 -0.45593999997E+02  0.45594000000E+02  0.51100000000E-03 0. -1.
    9900012    2    1    2    0    0  0.82629262165E+00  0.83721821655E+00 -0.96958347495E-01  0.90007705647E+02  0.89999966561E+02 0.  0.
        -12    1    1    2    0    0 -0.82629262165E+00 -0.83721821655E+00  0.96958347495E-01  0.11802943531E+01  0.00000000000E+00 0.  1.
         11    1    3    3    0    0  0.31290223764E+02 -0.39730265062E+01 -0.21052854459E+02  0.37922100732E+02  0.51100000000E-03 0. -1.
        -11    1    3    3    0    0  0.59855023876E+01 -0.12154274524E+01 -0.41802388152E+01  0.74012093293E+01  0.51100000000E-03 0.  1.
        -12    1    3    3    0    0 -0.36449433530E+02  0.60256721752E+01  0.25136134927E+02  0.44684395586E+02  0.00000000000E+00 0.  1.
</event>
<event>
 7    1  0.2542335E-015  0.9000773E+02  0.7816164E-02  0.1186339E+00
        -11   -1    0    0    0    0  0.00000000000E+00  0.00000000000E+00  0.45593999997E+02  0.45594000000E+02  0.51100000000E-03 0.  1.
         11   -1    0    0    0    0 -0.00000000000E+00 -0.00000000000E+00 -0.45593999997E+02  0.45594000000E+02  0.51100000000E-03 0. -1.
    9900012    2    1    2    0    0  0.87231856411E+00  0.72527656665E+00  0.32568099278E+00  0.90007731435E+02  0.89999992690E+02 0.  0.
        -12    1    1    2    0    0 -0.87231856411E+00 -0.72527656665E+00 -0.32568099278E+00  0.11802685646E+01  0.00000000000E+00 0.  1.
         11    1    3    3    0    0  0.21855381053E+02  0.29241542504E+02  0.23560194704E+02  0.43448915565E+02  0.51100000000E-03 0. -1.
        -11    1    3    3    0    0  0.22028456216E+01 -0.66028254894E+01 -0.96161809409E+01  0.11871005409E+02  0.51100000000E-03 0.  1.
        -12    1    3    3    0    0 -0.23185908111E+02 -0.21913440448E+02 -0.13618332771E+02  0.34687810462E+02  0.00000000000E+00 0.  1.
</event>
<event>
 7    1  0.2542335E-015  0.9000770E+02  0.7816164E-02  0.1186339E+00
        -11   -1    0    0    0    0  0.00000000000E+00  0.00000000000E+00  0.45593999997E+02  0.45594000000E+02  0.51100000000E-03 0.  1.
         11   -1    0    0    0    0 -0.00000000000E+00 -0.00000000000E+00 -0.45593999997E+02  0.45594000000E+02  0.51100000000E-03 0. -1.
    9900012    2    1    2    0    0 -0.50063884220E+00 -0.56341015919E-01 -0.10673807615E+01  0.90007696967E+02  0.89999957767E+02 0.  0.
        -12    1    1    2    0    0  0.50063884220E+00  0.56341015919E-01  0.10673807615E+01  0.11803030333E+01  0.00000000000E+00 0.  1.
         11    1    3    3    0    0 -0.17123055570E+02  0.36357095026E+01  0.22335531357E+02  0.28377691536E+02  0.51100000000E-03 0. -1.
        -11    1    3    3    0    0 -0.98685697579E+01  0.13829763295E+02 -0.24541094331E+02  0.29848221607E+02  0.51100000000E-03 0.  1.
        -12    1    3    3    0    0  0.26490986486E+02 -0.17521813813E+02  0.11381822125E+01  0.31781783824E+02  0.00000000000E+00 0.  1.
</event>
<event>
 7    1  0.2542335E-015  0.9000767E+02  0.7816164E-02  0.1186339E+00
        -11   -1    0    0    0    0  0.00000000000E+00  0.00000000000E+00  0.45593999997E+02  0.45594000000E+02  0.51100000000E-03 0. -1.
         11   -1    0    0    0    0 -0.00000000000E+00 -0.00000000000E+00 -0.45593999997E+02  0.45594000000E+02  0.51100000000E-03 0.  1.
    9900012    2    1    2    0    0  0.33673606387E+00 -0.68580564727E+00  0.89970386891E+00  0.90007666312E+02  0.89999926708E+02 0.  0.
        -12    1    1    2    0    0 -0.33673606387E+00  0.68580564727E+00 -0.89970386891E+00  0.11803336877E+01  0.00000000000E+00 0.  1.
         11    1    3    3    0    0 -0.18721718520E+02  0.27562995049E+02  0.18048402540E+02  0.37894145655E+02  0.51100000000E-03 0. -1.
        -11    1    3    3    0    0 -0.23180075729E+01  0.72211750919E+01 -0.44671477628E+01  0.88019280963E+01  0.51100000000E-03 0.  1.
        -12    1    3    3    0    0  0.21376462157E+02 -0.35469975788E+02 -0.12681550908E+02  0.43311592561E+02  0.00000000000E+00 0.  1.
</event>
<event>
 7    1  0.2542335E-015  0.9000777E+02  0.7816164E-02  0.1186339E+00
        -11   -1    0    0    0    0  0.00000000000E+00  0.00000000000E+00  0.45593999997E+02  0.45594000000E+02  0.51100000000E-03 0. -1.
         11   -1    0    0    0    0 -0.00000000000E+00 -0.00000000000E+00 -0.45593999997E+02  0.45594000000E+02  0.51100000000E-03 0.  1.
    9900012    2    1    2    0    0  0.33574433760E-01 -0.65262087274E+00  0.98280787899E+00  0.90007765882E+02  0.90000027592E+02 0.  0.
        -12    1    1    2    0    0 -0.33574433760E-01  0.65262087274E+00 -0.98280787899E+00  0.11802341179E+01  0.00000000000E+00 0.  1.
         11    1    3    3    0    0 -0.56329624861E+01 -0.45766222038E+01 -0.13871301349E+02  0.15655310235E+02  0.51100000000E-03 0. -1.
        -11    1    3    3    0    0 -0.31272157772E+02 -0.20254222562E+01 -0.54119959405E+01  0.31801570518E+02  0.51100000000E-03 0.  1.
         12    1    3    3    0    0  0.36938694692E+02  0.59494235872E+01  0.20266105169E+02  0.42550885130E+02  0.00000000000E+00 0. -1.
</event>
<event>
 7    1  0.2542335E-015  0.9000777E+02  0.7816164E-02  0.1186339E+00
        -11   -1    0    0    0    0  0.00000000000E+00  0.00000000000E+00  0.45593999997E+02  0.45594000000E+02  0.51100000000E-03 0. -1.
         11   -1    0    0    0    0 -0.00000000000E+00 -0.00000000000E+00 -0.45593999997E+02  0.45594000000E+02  0.51100000000E-03 0.  1.
    9900012    2    1    2    0    0 -0.54673041875E+00  0.58306658272E+00  0.86836252391E+00  0.90007773639E+02  0.90000035451E+02 0.  0.
        -12    1    1    2    0    0  0.54673041875E+00 -0.58306658272E+00 -0.86836252391E+00  0.11802263612E+01  0.00000000000E+00 0.  1.
         11    1    3    3    0    0 -0.86199607365E+01 -0.87957982384E+01 -0.71725636349E+01  0.14251858093E+02  0.51100000000E-03 0. -1.
        -11    1    3    3    0    0 -0.41704056877E+01  0.31316734842E+02 -0.20555071576E+02  0.37691393348E+02  0.51100000000E-03 0.  1.
         12    1    3    3    0    0  0.12243636005E+02 -0.21937870021E+02  0.28595997735E+02  0.38064522198E+02  0.00000000000E+00 0. -1.
</event>
<event>
 7    1  0.2542335E-015  0.9000788E+02  0.7816164E-02  0.1186339E+00
        -11   -1    0    0    0    0  0.00000000000E+00  0.00000000000E+00  0.45593999997E+02  0.45594000000E+02  0.51100000000E-03 0.  1.
         11   -1    0    0    0    0 -0.00000000000E+00 -0.00000000000E+00 -0.45593999997E+02  0.45594000000E+02  0.51100000000E-03 0. -1.
    9900012    2    1    2    0    0  0.10677216816E+01  0.47563061723E+00 -0.16256520493E+00  0.90007880718E+02  0.90000143944E+02 0.  0.
        -12    1    1    2    0    0 -0.10677216816E+01 -0.47563061723E+00  0.16256520493E+00  0.11801192818E+01  0.00000000000E+00 0.  1.
         11    1    3    3    0    0 -0.43444926936E+01  0.27741325821E+02 -0.32558675012E+02  0.42994454222E+02  0.51100000000E-03 0. -1.
        -11    1    3    3    0    0  0.43747551766E+01 -0.25793856838E+01 -0.12876024886E+01  0.52392398104E+01  0.51100000000E-03 0.  1.
        -12    1    3    3    0    0  0.10374591986E+01 -0.24686309520E+02  0.33683712295E+02  0.41774186686E+02  0.00000000000E+00 0.  1.
</event>
<event>
 7    1  0.2542335E-015  0.9000774E+02  0.7816164E-02  0.1186339E+00
        -11   -1    0    0    0    0  0.00000000000E+00  0.00000000000E+00  0.45593999997E+02  0.45594000000E+02  0.51100000000E-03 0. -1.
         11   -1    0    0    0    0 -0.00000000000E+00 -0.00000000000E+00 -0.45593999997E+02  0.45594000000E+02  0.51100000000E-03 0.  1.
    9900012    2    1    2    0    0 -0.52155423333E+00 -0.91426946739E+00  0.53394806215E+00  0.90007742397E+02  0.90000003796E+02 0.  0.
        -12    1    1    2    0    0  0.52155423333E+00  0.91426946739E+00 -0.53394806215E+00  0.11802576034E+01  0.00000000000E+00 0.  1.
         11    1    3    3    0    0  0.66089243693E+01 -0.41135785876E+01  0.19236557138E+01  0.80187194541E+01  0.51100000000E-03 0. -1.
        -11    1    3    3    0    0  0.14809601185E+01 -0.36304431865E+02 -0.15027300165E+02  0.39319521442E+02  0.51100000000E-03 0.  1.
         12    1    3    3    0    0 -0.86114387212E+01  0.39503740986E+02  0.13637592513E+02  0.42669501500E+02  0.00000000000E+00 0. -1.
</event>
<event>
 7    1  0.2542335E-015  0.9000781E+02  0.7816164E-02  0.1186339E+00
        -11   -1    0    0    0    0  0.00000000000E+00  0.00000000000E+00  0.45593999997E+02  0.45594000000E+02  0.51100000000E-03 0.  1.
         11   -1    0    0    0    0 -0.00000000000E+00 -0.00000000000E+00 -0.45593999997E+02  0.45594000000E+02  0.51100000000E-03 0. -1.
    9900012    2    1    2    0    0  0.10776432088E+01  0.43083066035E+00 -0.21426485446E+00  0.90007813840E+02  0.90000076183E+02 0.  0.
        -12    1    1    2    0    0 -0.10776432088E+01 -0.43083066035E+00  0.21426485446E+00  0.11801861596E+01  0.00000000000E+00 0.  1.
         11    1    3    3    0    0 -0.22129725891E+02  0.13707860232E+02 -0.25917460125E+02  0.36733430819E+02  0.51100000000E-03 0. -1.
        -11    1    3    3    0    0 -0.14054004325E+01  0.10834521781E+02  0.11907111625E+02  0.16159867577E+02  0.51100000000E-03 0.  1.
        -12    1    3    3    0    0  0.24612769533E+02 -0.24111551352E+02  0.13796083645E+02  0.37114515444E+02  0.00000000000E+00 0.  1.
</event>
<event>
 7    1  0.2542335E-015  0.9000779E+02  0.7816164E-02  0.1186339E+00
        -11   -1    0    0    0    0  0.00000000000E+00  0.00000000000E+00  0.45593999997E+02  0.45594000000E+02  0.51100000000E-03 0. -1.
         11   -1    0    0    0    0 -0.00000000000E+00 -0.00000000000E+00 -0.45593999997E+02  0.45594000000E+02  0.51100000000E-03 0.  1.
    9900012    2    1    2    0    0  0.19129595970E+00  0.88790788068E-01  0.11612188018E+01  0.90007785166E+02  0.90000047130E+02 0.  0.
        -12    1    1    2    0    0 -0.19129595970E+00 -0.88790788068E-01 -0.11612188018E+01  0.11802148338E+01  0.00000000000E+00 0.  1.
         11    1    3    3    0    0  0.40067954795E+01  0.17785225398E+02  0.20357096428E+02  0.27327276259E+02  0.51100000000E-03 0. -1.
        -11    1    3    3    0    0 -0.22162971718E+01  0.20911010095E+02 -0.67083262119E+01  0.22072244045E+02  0.51100000000E-03 0.  1.
        -12    1    3    3    0    0 -0.15992023480E+01 -0.38607444705E+02 -0.12487551415E+02  0.40608264862E+02  0.00000000000E+00 0.  1.
</event>
<event>
 7    1  0.2542335E-015  0.9000781E+02  0.7816164E-02  0.1186339E+00
        -11   -1    0    0    0    0  0.00000000000E+00  0.00000000000E+00  0.45593999997E+02  0.45594000000E+02  0.51100000000E-03 0.  1.
         11   -1    0    0    0    0 -0.00000000000E+00 -0.00000000000E+00 -0.45593999997E+02  0.45594000000E+02  0.51100000000E-03 0. -1.
    9900012    2    1    2    0    0 -0.44901481928E+00  0.94557125383E+00  0.54509486191E+00  0.90007810307E+02  0.90000072603E+02 0.  0.
        -12    1    1    2    0    0  0.44901481928E+00 -0.94557125383E+00 -0.54509486191E+00  0.11801896934E+01  0.00000000000E+00 0.  1.
         11    1    3    3    0    0 -0.23874610825E+01 -0.99102013376E+01  0.29005589970E+01  0.10598363257E+02  0.51100000000E-03 0. -1.
        -11    1    3    3    0    0  0.45402777440E+01 -0.28315056263E+02  0.19308594524E+02  0.34571351664E+02  0.51100000000E-03 0.  1.
         12    1    3    3    0    0 -0.26018314808E+01  0.39170828854E+02 -0.21664058659E+02  0.44838095385E+02  0.00000000000E+00 0. -1.
</event>
<event>
 7    1  0.2542335E-015  0.9000778E+02  0.7816164E-02  0.1186339E+00
        -11   -1    0    0    0    0  0.00000000000E+00  0.00000000000E+00  0.45593999997E+02  0.45594000000E+02  0.51100000000E-03 0. -1.
         11   -1    0    0    0    0 -0.00000000000E+00 -0.00000000000E+00 -0.45593999997E+02  0.45594000000E+02  0.51100000000E-03 0.  1.
    9900012    2    1    2    0    0  0.82575526976E+00  0.62932480244E+00  0.56123961268E+00  0.90007783335E+02  0.90000045275E+02 0.  0.
        -12    1    1    2    0    0 -0.82575526976E+00 -0.62932480244E+00 -0.56123961268E+00  0.11802166646E+01  0.00000000000E+00 0.  1.
         11    1    3    3    0    0 -0.18706206823E+02  0.36299273962E+02  0.81673129939E+01  0.41644501026E+02  0.51100000000E-03 0. -1.
        -11    1    3    3    0    0  0.45680124164E+01 -0.32609673097E+01  0.76958159482E+01  0.95250316851E+01  0.51100000000E-03 0.  1.
        -12    1    3    3    0    0  0.14963949677E+02 -0.32408981850E+02 -0.15301889329E+02  0.38838250624E+02  0.00000000000E+00 0.  1.
</event>
<event>
 7    1  0.2542335E-015  0.9000760E+02  0.7816164E-02  0.1186339E+00
        -11   -1    0    0    0    0  0.00000000000E+00  0.00000000000E+00  0.45593999997E+02  0.45594000000E+02  0.51100000000E-03 0. -1.
         11   -1    0    0    0    0 -0.00000000000E+00 -0.00000000000E+00 -0.45593999997E+02  0.45594000000E+02  0.51100000000E-03 0.  1.
    9900012    2    1    2    0    0 -0.22959128143E+00 -0.11494571763E+01 -0.13920674075E+00  0.90007600714E+02  0.89999860244E+02 0.  0.
        -12    1    1    2    0    0  0.22959128143E+00  0.11494571763E+01  0.13920674075E+00  0.11803992856E+01  0.00000000000E+00 0.  1.
         11    1    3    3    0    0  0.79816265139E+00 -0.58728758614E+01  0.59982528651E+00  0.59571406846E+01  0.51100000000E-03 0. -1.
        -11    1    3    3    0    0  0.29030188744E+02 -0.11128088251E+01 -0.29955077045E+02  0.41728849050E+02  0.51100000000E-03 0.  1.
         12    1    3    3    0    0 -0.30057942676E+02  0.58362275101E+01  0.29216045018E+02  0.42321610980E+02  0.00000000000E+00 0. -1.
</event>
<event>
 7    1  0.2542335E-015  0.9000775E+02  0.7816164E-02  0.1186339E+00
        -11   -1    0    0    0    0  0.00000000000E+00  0.00000000000E+00  0.45593999997E+02  0.45594000000E+02  0.51100000000E-03 0.  1.
         11   -1    0    0    0    0 -0.00000000000E+00 -0.00000000000E+00 -0.45593999997E+02  0.45594000000E+02  0.51100000000E-03 0. -1.
    9900012    2    1    2    0    0 -0.22282749133E+00  0.13738115954E+00 -0.11508507151E+01  0.90007752974E+02  0.90000014513E+02 0.  0.
        -12    1    1    2    0    0  0.22282749133E+00 -0.13738115954E+00  0.11508507151E+01  0.11802470259E+01  0.00000000000E+00 0.  1.
         11    1    3    3    0    0  0.24819698639E+01 -0.26651662658E+01  0.80381818470E+01  0.88247183126E+01  0.51100000000E-03 0. -1.
        -11    1    3    3    0    0 -0.14803866820E+02 -0.35753076622E+02  0.34316405201E+01  0.38848592222E+02  0.51100000000E-03 0.  1.
         12    1    3    3    0    0  0.12099069465E+02  0.38555624047E+02 -0.12620673082E+02  0.42334442439E+02  0.00000000000E+00 0. -1.
</event>
<event>
 7    1  0.2542335E-015  0.9000770E+02  0.7816164E-02  0.1186339E+00
        -11   -1    0    0    0    0  0.00000000000E+00  0.00000000000E+00  0.45593999997E+02  0.45594000000E+02  0.51100000000E-03 0.  1.
         11   -1    0    0    0    0 -0.00000000000E+00 -0.00000000000E+00 -0.45593999997E+02  0.45594000000E+02  0.51100000000E-03 0. -1.
    9900012    2    1    2    0    0 -0.39830904141E+00  0.11078615073E+01  0.84301570583E-01  0.90007697510E+02  0.89999958318E+02 0.  0.
        -12    1    1    2    0    0  0.39830904141E+00 -0.11078615073E+01 -0.84301570583E-01  0.11803024895E+01  0.00000000000E+00 0.  1.
         11    1    3    3    0    0  0.18554286615E+01  0.87133381828E+01  0.21290182759E+01  0.91595631384E+01  0.51100000000E-03 0. -1.
        -11    1    3    3    0    0  0.14251568647E+02 -0.16948694742E+02  0.33734250786E+02  0.40353006563E+02  0.51100000000E-03 0.  1.
         12    1    3    3    0    0 -0.16505306350E+02  0.93432180664E+01 -0.35778967491E+02  0.40495127809E+02  0.00000000000E+00 0. -1.
</event>
<event>
 7    1  0.2542335E-015  0.9000767E+02  0.7816164E-02  0.1186339E+00
        -11   -1    0    0    0    0  0.00000000000E+00  0.00000000000E+00  0.45593999997E+02  0.45594000000E+02  0.51100000000E-03 0.  1.
         11   -1    0    0    0    0 -0.00000000000E+00 -0.00000000000E+00 -0.45593999997E+02  0.45594000000E+02  0.51100000000E-03 0. -1.
    9900012    2    1    2    0    0 -0.58239416875E+00  0.95380689012E+00  0.37979837967E+00  0.90007670656E+02  0.89999931108E+02 0.  0.
        -12    1    1    2    0    0  0.58239416875E+00 -0.95380689012E+00 -0.37979837967E+00  0.11803293441E+01  0.00000000000E+00 0.  1.
         11    1    3    3    0    0 -0.35037133349E+01  0.71454648013E+01 -0.40040599552E+02  0.40823807846E+02  0.51100000000E-03 0. -1.
        -11    1    3    3    0    0 -0.61679456449E+01  0.58140178598E+01  0.32478923006E+01  0.90771780753E+01  0.51100000000E-03 0.  1.
        -12    1    3    3    0    0  0.90892648110E+01 -0.12005675771E+02  0.37172505631E+02  0.40106684734E+02  0.00000000000E+00 0.  1.
</event>
<event>
 7    1  0.2542335E-015  0.9000772E+02  0.7816164E-02  0.1186339E+00
        -11   -1    0    0    0    0  0.00000000000E+00  0.00000000000E+00  0.45593999997E+02  0.45594000000E+02  0.51100000000E-03 0. -1.
         11   -1    0    0    0    0 -0.00000000000E+00 -0.00000000000E+00 -0.45593999997E+02  0.45594000000E+02  0.51100000000E-03 0.  1.
    9900012    2    1    2    0    0  0.88444865647E+00 -0.78127125958E+00 -0.20493705588E-01  0.90007722830E+02  0.89999983971E+02 0.  0.
        -12    1    1    2    0    0 -0.88444865647E+00  0.78127125958E+00  0.20493705588E-01  0.11802771704E+01  0.00000000000E+00 0.  1.
         11    1    3    3    0    0  0.14159596951E+02 -0.31886487271E+02  0.20803241385E+02  0.40620402615E+02  0.51100000000E-03 0. -1.
        -11    1    3    3    0    0 -0.87808817003E+01 -0.17181283593E+01  0.19854969862E+01  0.91650448464E+01  0.51100000000E-03 0.  1.
        -12    1    3    3    0    0 -0.44942665938E+01  0.32823344370E+02 -0.22809232076E+02  0.40222275368E+02  0.00000000000E+00 0.  1.
</event>
<event>
 7    1  0.2542335E-015  0.9000768E+02  0.7816164E-02  0.1186339E+00
        -11   -1    0    0    0    0  0.00000000000E+00  0.00000000000E+00  0.45593999997E+02  0.45594000000E+02  0.51100000000E-03 0.  1.
         11   -1    0    0    0    0 -0.00000000000E+00 -0.00000000000E+00 -0.45593999997E+02  0.45594000000E+02  0.51100000000E-03 0. -1.
    9900012    2    1    2    0    0 -0.12745692826E+00  0.67783410941E+00 -0.95783493180E+00  0.90007681354E+02  0.89999941948E+02 0.  0.
        -12    1    1    2    0    0  0.12745692826E+00 -0.67783410941E+00  0.95783493180E+00  0.11803186455E+01  0.00000000000E+00 0.  1.
         11    1    3    3    0    0  0.62387378331E+01 -0.94222033306E+01 -0.16893935434E+01  0.11426014885E+02  0.51100000000E-03 0. -1.
        -11    1    3    3    0    0 -0.15190413773E+02 -0.29186007435E+01  0.36426939159E+02  0.39575103255E+02  0.51100000000E-03 0.  1.
         12    1    3    3    0    0  0.88242190119E+01  0.13018638184E+02 -0.35695380548E+02  0.39006563214E+02  0.00000000000E+00 0. -1.
</event>
<event>
 7    1  0.2542335E-015  0.9000776E+02  0.7816164E-02  0.1186339E+00
        -11   -1    0    0    0    0  0.00000000000E+00  0.00000000000E+00  0.45593999997E+02  0.45594000000E+02  0.51100000000E-03 0. -1.
         11   -1    0    0    0    0 -0.00000000000E+00 -0.00000000000E+00 -0.45593999997E+02  0.45594000000E+02  0.51100000000E-03 0.  1.
    9900012    2    1    2    0    0 -0.17892862004E-01  0.10308391680E+01  0.57448044491E+00  0.90007755396E+02  0.90000016967E+02 0.  0.
        -12    1    1    2    0    0  0.17892862004E-01 -0.10308391680E+01 -0.57448044491E+00  0.11802446044E+01  0.00000000000E+00 0.  1.
         11    1    3    3    0    0  0.31987650340E+02 -0.27357231704E+02 -0.65060596178E+01  0.42590570703E+02  0.51100000000E-03 0. -1.
        -11    1    3    3    0    0 -0.64206671665E+01 -0.92689570168E+00  0.54513080564E+01  0.84735389473E+01  0.51100000000E-03 0.  1.
        -12    1    3    3    0    0 -0.25584876036E+02  0.29314966574E+02  0.16292320063E+01  0.38943645745E+02  0.00000000000E+00 0.  1.
</event>
<event>
 7    1  0.2542335E-015  0.9000773E+02  0.7816164E-02  0.1186339E+00
        -11   -1    0    0    0    0  0.00000000000E+00  0.00000000000E+00  0.45593999997E+02  0.45594000000E+02  0.51100000000E-03 0. -1.
         11   -1    0    0    0    0 -0.00000000000E+00 -0.00000000000E+00 -0.45593999997E+02  0.45594000000E+02  0.51100000000E-03 0.  1.
    9900012    2    1    2    0    0  0.68100712636E+00 -0.96017344504E+00  0.85644615605E-01  0.90007729374E+02  0.89999990602E+02 0.  0.
        -12    1    1    2    0    0 -0.68100712636E+00  0.96017344504E+00 -0.85644615605E-01  0.11802706261E+01  0.00000000000E+00 0.  1.
         11    1    3    3    0    0  0.20259893943E+02 -0.25199246838E+02  0.19745031927E+02  0.37885770810E+02  0.51100000000E-03 0. -1.
        -11    1    3    3    0    0 -0.13543013323E+01 -0.95834061001E+01 -0.22239730738E+01  0.99308539951E+01  0.51100000000E-03 0.  1.
        -12    1    3    3    0    0 -0.18224585484E+02  0.33822479493E+02 -0.17435414237E+02  0.42191104569E+02  0.00000000000E+00 0.  1.
</event>
<event>
 7    1  0.2542335E-015  0.9000772E+02  0.7816164E-02  0.1186339E+00
        -11   -1    0    0    0    0  0.00000000000E+00  0.00000000000E+00  0.45593999997E+02  0.45594000000E+02  0.51100000000E-03 0. -1.
         11   -1    0    0    0    0 -0.00000000000E+00 -0.00000000000E+00 -0.45593999997E+02  0.45594000000E+02  0.51100000000E-03 0.  1.
    9900012    2    1    2    0    0 -0.87381036307E+00 -0.69172206870E+00  0.38863957087E+00  0.90007718387E+02  0.89999979469E+02 0.  0.
        -12    1    1    2    0    0  0.87381036307E+00  0.69172206870E+00 -0.38863957087E+00  0.11802816134E+01  0.00000000000E+00 0.  1.
         11    1    3    3    0    0  0.32604821529E+01 -0.15817415734E+01  0.37396522597E+02  0.37571698829E+02  0.51100000000E-03 0. -1.
        -11    1    3    3    0    0 -0.48558524287E+01 -0.74832485360E+01  0.45658974783E+01  0.10021263967E+02  0.51100000000E-03 0.  1.
        -12    1    3    3    0    0  0.72155991269E+00  0.83732680407E+01 -0.41573780504E+02  0.42414755591E+02  0.00000000000E+00 0.  1.
</event>
<event>
 7    1  0.2542335E-015  0.9000769E+02  0.7816164E-02  0.1186339E+00
        -11   -1    0    0    0    0  0.00000000000E+00  0.00000000000E+00  0.45593999997E+02  0.45594000000E+02  0.51100000000E-03 0. -1.
         11   -1    0    0    0    0 -0.00000000000E+00 -0.00000000000E+00 -0.45593999997E+02  0.45594000000E+02  0.51100000000E-03 0.  1.
    9900012    2    1    2    0    0  0.95125088305E+00  0.23018641993E+00 -0.65974355226E+00  0.90007692589E+02  0.89999953331E+02 0.  0.
        -12    1    1    2    0    0 -0.95125088305E+00 -0.23018641993E+00  0.65974355226E+00  0.11803074113E+01  0.00000000000E+00 0.  1.
         11    1    3    3    0    0  0.38296663755E+01 -0.23256039045E+02  0.27151627971E+02  0.35954423906E+02  0.51100000000E-03 0. -1.
        -11    1    3    3    0    0 -0.63162722542E+01 -0.11701780977E+01  0.81116812577E+01  0.10347172805E+02  0.51100000000E-03 0.  1.
        -12    1    3    3    0    0  0.34378567618E+01  0.24656403563E+02 -0.35923052781E+02  0.43706095878E+02  0.00000000000E+00 0.  1.
</event>
<event>
 7    1  0.2542335E-015  0.9000768E+02  0.7816164E-02  0.1186339E+00
        -11   -1    0    0    0    0  0.00000000000E+00  0.00000000000E+00  0.45593999997E+02  0.45594000000E+02  0.51100000000E-03 0.  1.
         11   -1    0    0    0    0 -0.00000000000E+00 -0.00000000000E+00 -0.45593999997E+02  0.45594000000E+02  0.51100000000E-03 0. -1.
    9900012    2    1    2    0    0  0.63530296451E+00  0.94499125567E+00 -0.31070747586E+00  0.90007679084E+02  0.89999939648E+02 0.  0.
        -12    1    1    2    0    0 -0.63530296451E+00 -0.94499125567E+00  0.31070747586E+00  0.11803209163E+01  0.00000000000E+00 0.  1.
         11    1    3    3    0    0  0.16738889968E+02  0.16792641797E+02  0.22198856418E+01  0.23814095582E+02  0.51100000000E-03 0. -1.
        -11    1    3    3    0    0  0.30499805557E+01  0.22795683561E+02 -0.15893396539E+01  0.23053667196E+02  0.51100000000E-03 0.  1.
         12    1    3    3    0    0 -0.19153567559E+02 -0.38643334102E+02 -0.94125346374E+00  0.43139916305E+02  0.00000000000E+00 0. -1.
</event>
<event>
 7    1  0.2542335E-015  0.9000783E+02  0.7816164E-02  0.1186339E+00
        -11   -1    0    0    0    0  0.00000000000E+00  0.00000000000E+00  0.45593999997E+02  0.45594000000E+02  0.51100000000E-03 0.  1.
         11   -1    0    0    0    0 -0.00000000000E+00 -0.00000000000E+00 -0.45593999997E+02  0.45594000000E+02  0.51100000000E-03 0. -1.
    9900012    2    1    2    0    0 -0.34941860077E+00 -0.91483242076E+00 -0.65863520773E+00  0.90007825414E+02  0.90000087909E+02 0.  0.
        -12    1    1    2    0    0  0.34941860077E+00  0.91483242076E+00  0.65863520773E+00  0.11801745860E+01  0.00000000000E+00 0.  1.
         11    1    3    3    0    0 -0.33043276152E+01  0.63421438525E+01  0.52022329951E+01  0.88433363631E+01  0.51100000000E-03 0. -1.
        -11    1    3    3    0    0 -0.22319430404E+02 -0.28089240924E+02  0.18480146384E+02  0.40356885904E+02  0.51100000000E-03 0.  1.
         12    1    3    3    0    0  0.25274339418E+02  0.20832264650E+02 -0.24341014587E+02  0.40807603147E+02  0.00000000000E+00 0. -1.
</event>
<event>
 7    1  0.2542335E-015  0.9000747E+02  0.7816164E-02  0.1186340E+00
        -11   -1    0    0    0    0  0.00000000000E+00  0.00000000000E+00  0.45593999997E+02  0.45594000000E+02  0.51100000000E-03 0.  1.
         11   -1    0    0    0    0 -0.00000000000E+00 -0.00000000000E+00 -0.45593999997E+02  0.45594000000E+02  0.51100000000E-03 0. -1.
    9900012    2    1    2    0    0 -0.17032473433E+00 -0.43025998709E+00 -0.10860574250E+01  0.90007468382E+02  0.89999726164E+02 0.  0.
        -12    1    1    2    0    0  0.17032473433E+00  0.43025998709E+00  0.10860574250E+01  0.11805316184E+01  0.00000000000E+00 0.  1.
         11    1    3    3    0    0  0.69332577502E+01 -0.94834378726E+01  0.35616105705E+01  0.12275615139E+02  0.51100000000E-03 0. -1.
        -11    1    3    3    0    0  0.59692596266E+01 -0.14321592913E+02  0.30098206179E+02  0.33862104180E+02  0.51100000000E-03 0.  1.
         12    1    3    3    0    0 -0.13072842111E+02  0.23374770798E+02 -0.34745874174E+02  0.43869749063E+02  0.00000000000E+00 0. -1.
</event>
<event>
 7    1  0.2542335E-015  0.9000770E+02  0.7816164E-02  0.1186339E+00
        -11   -1    0    0    0    0  0.00000000000E+00  0.00000000000E+00  0.45593999997E+02  0.45594000000E+02  0.51100000000E-03 0.  1.
         11   -1    0    0    0    0 -0.00000000000E+00 -0.00000000000E+00 -0.45593999997E+02  0.45594000000E+02  0.51100000000E-03 0. -1.
    9900012    2    1    2    0    0 -0.10698424238E+01  0.35482311135E+00  0.35020911083E+00  0.90007699753E+02  0.89999960590E+02 0.  0.
        -12    1    1    2    0    0  0.10698424238E+01 -0.35482311135E+00 -0.35020911083E+00  0.11803002472E+01  0.00000000000E+00 0.  1.
         11    1    3    3    0    0 -0.26590388579E+02 -0.24159698817E+02  0.19125894585E+02  0.40700610015E+02  0.51100000000E-03 0. -1.
        -11    1    3    3    0    0 -0.61163036080E+01  0.38710348427E+01 -0.60845909359E+01  0.94560207116E+01  0.51100000000E-03 0.  1.
        -12    1    3    3    0    0  0.31636849763E+02  0.20643487085E+02 -0.12691094538E+02  0.39851069026E+02  0.00000000000E+00 0.  1.
</event>
<event>
 7    1  0.2542335E-015  0.9000790E+02  0.7816164E-02  0.1186339E+00
        -11   -1    0    0    0    0  0.00000000000E+00  0.00000000000E+00  0.45593999997E+02  0.45594000000E+02  0.51100000000E-03 0.  1.
         11   -1    0    0    0    0 -0.00000000000E+00 -0.00000000000E+00 -0.45593999997E+02  0.45594000000E+02  0.51100000000E-03 0. -1.
    9900012    2    1    2    0    0 -0.59418002442E+00 -0.43201328589E+00 -0.92354828545E+00  0.90007903895E+02  0.90000167427E+02 0.  0.
        -12    1    1    2    0    0  0.59418002442E+00  0.43201328589E+00  0.92354828545E+00  0.11800961046E+01  0.00000000000E+00 0.  1.
         11    1    3    3    0    0  0.14052286315E+02 -0.40456213725E+02 -0.44743172523E+01  0.43060323904E+02  0.51100000000E-03 0. -1.
        -11    1    3    3    0    0 -0.45681584447E+01  0.95258423131E+01 -0.75257022553E+01  0.12970965193E+02  0.51100000000E-03 0.  1.
        -12    1    3    3    0    0 -0.10078307895E+02  0.30498358126E+02  0.11076471222E+02  0.33976614798E+02  0.00000000000E+00 0.  1.
</event>
<event>
 7    1  0.2542335E-015  0.9000774E+02  0.7816164E-02  0.1186339E+00
        -11   -1    0    0    0    0  0.00000000000E+00  0.00000000000E+00  0.45593999997E+02  0.45594000000E+02  0.51100000000E-03 0.  1.
         11   -1    0    0    0    0 -0.00000000000E+00 -0.00000000000E+00 -0.45593999997E+02  0.45594000000E+02  0.51100000000E-03 0. -1.
    9900012    2    1    2    0    0  0.88793466918E+00  0.67416558065E+00  0.38739599607E+00  0.90007744577E+02  0.90000006005E+02 0.  0.
        -12    1    1    2    0    0 -0.88793466918E+00 -0.67416558065E+00 -0.38739599607E+00  0.11802554235E+01  0.00000000000E+00 0.  1.
         11    1    3    3    0    0  0.73001822722E+01 -0.13209817358E+01  0.18876876166E+01  0.76551302244E+01  0.51100000000E-03 0. -1.
        -11    1    3    3    0    0  0.87845479472E+01  0.26595731319E+02  0.29004538373E+02  0.40320769506E+02  0.51100000000E-03 0.  1.
         12    1    3    3    0    0 -0.15196795550E+02 -0.24600584003E+02 -0.30504829994E+02  0.42031844846E+02  0.00000000000E+00 0. -1.
</event>
<event>
 7    1  0.2542335E-015  0.9000774E+02  0.7816164E-02  0.1186339E+00
        -11   -1    0    0    0    0  0.00000000000E+00  0.00000000000E+00  0.45593999997E+02  0.45594000000E+02  0.51100000000E-03 0. -1.
         11   -1    0    0    0    0 -0.00000000000E+00 -0.00000000000E+00 -0.45593999997E+02  0.45594000000E+02  0.51100000000E-03 0.  1.
    9900012    2    1    2    0    0 -0.14253493236E+00 -0.11715572399E+01  0.12570762642E-01  0.90007737064E+02  0.89999998394E+02 0.  0.
        -12    1    1    2    0    0  0.14253493236E+00  0.11715572399E+01 -0.12570762642E-01  0.11802629357E+01  0.00000000000E+00 0.  1.
         11    1    3    3    0    0 -0.28818097433E+01  0.37574256778E+02  0.60764305500E+00  0.37689505571E+02  0.51100000000E-03 0. -1.
        -11    1    3    3    0    0  0.77870026268E+01  0.35390182404E+01  0.40811057312E+01  0.94772086748E+01  0.51100000000E-03 0.  1.
        -12    1    3    3    0    0 -0.50477278158E+01 -0.42284832259E+02 -0.46761780236E+01  0.42841022819E+02  0.00000000000E+00 0.  1.
</event>
<event>
 7    1  0.2542335E-015  0.9000766E+02  0.7816164E-02  0.1186339E+00
        -11   -1    0    0    0    0  0.00000000000E+00  0.00000000000E+00  0.45593999997E+02  0.45594000000E+02  0.51100000000E-03 0.  1.
         11   -1    0    0    0    0 -0.00000000000E+00 -0.00000000000E+00 -0.45593999997E+02  0.45594000000E+02  0.51100000000E-03 0. -1.
    9900012    2    1    2    0    0  0.10989926791E+01  0.11855857311E+00 -0.41396279029E+00  0.90007658424E+02  0.89999918715E+02 0.  0.
        -12    1    1    2    0    0 -0.10989926791E+01 -0.11855857311E+00  0.41396279029E+00  0.11803415758E+01  0.00000000000E+00 0.  1.
         11    1    3    3    0    0  0.22378270641E+01  0.60334476521E+01 -0.42051159756E+01  0.76872206400E+01  0.51100000000E-03 0. -1.
        -11    1    3    3    0    0  0.18675181098E+02 -0.23847508828E+02 -0.27680876220E+02  0.41032876757E+02  0.51100000000E-03 0.  1.
        -12    1    3    3    0    0 -0.19814015483E+02  0.17932619749E+02  0.31472029406E+02  0.41287561027E+02  0.00000000000E+00 0.  1.
</event>
<event>
 7    1  0.2542335E-015  0.9000773E+02  0.7816164E-02  0.1186339E+00
        -11   -1    0    0    0    0  0.00000000000E+00  0.00000000000E+00  0.45593999997E+02  0.45594000000E+02  0.51100000000E-03 0.  1.
         11   -1    0    0    0    0 -0.00000000000E+00 -0.00000000000E+00 -0.45593999997E+02  0.45594000000E+02  0.51100000000E-03 0. -1.
    9900012    2    1    2    0    0  0.87060950273E+00  0.79096960082E+00 -0.97129892956E-01  0.90007733915E+02  0.89999995203E+02 0.  0.
        -12    1    1    2    0    0 -0.87060950273E+00 -0.79096960082E+00  0.97129892956E-01  0.11802660852E+01  0.00000000000E+00 0.  1.
         11    1    3    3    0    0  0.65248212035E+00 -0.23301820527E+02 -0.31112976598E+02  0.38876958289E+02  0.51100000000E-03 0. -1.
        -11    1    3    3    0    0  0.89436792611E-01  0.70436615114E+01 -0.67116063772E+01  0.97296879112E+01  0.51100000000E-03 0.  1.
        -12    1    3    3    0    0  0.12869058977E+00  0.17049128617E+02  0.37727453082E+02  0.41401087714E+02  0.00000000000E+00 0.  1.
</event>
<event>
 7    1  0.2542335E-015  0.9000779E+02  0.7816164E-02  0.1186339E+00
        -11   -1    0    0    0    0  0.00000000000E+00  0.00000000000E+00  0.45593999997E+02  0.45594000000E+02  0.51100000000E-03 0.  1.
         11   -1    0    0    0    0 -0.00000000000E+00 -0.00000000000E+00 -0.45593999997E+02  0.45594000000E+02  0.51100000000E-03 0. -1.
    9900012    2    1    2    0    0 -0.98800339421E+00  0.50070218649E+00 -0.40749115310E+00  0.90007787127E+02  0.90000049117E+02 0.  0.
        -12    1    1    2    0    0  0.98800339421E+00 -0.50070218649E+00  0.40749115310E+00  0.11802128733E+01  0.00000000000E+00 0.  1.
         11    1    3    3    0    0 -0.36822801687E+02  0.12123114859E+02 -0.22112474549E+01  0.38830120442E+02  0.51100000000E-03 0. -1.
        -11    1    3    3    0    0 -0.56395151332E+01 -0.64175040730E+01  0.37558634245E+01  0.93324701869E+01  0.51100000000E-03 0.  1.
        -12    1    3    3    0    0  0.41474313426E+02 -0.52049085994E+01 -0.19521071226E+01  0.41845196498E+02  0.00000000000E+00 0.  1.
</event>
<event>
 7    1  0.2542335E-015  0.9000770E+02  0.7816164E-02  0.1186339E+00
        -11   -1    0    0    0    0  0.00000000000E+00  0.00000000000E+00  0.45593999997E+02  0.45594000000E+02  0.51100000000E-03 0.  1.
         11   -1    0    0    0    0 -0.00000000000E+00 -0.00000000000E+00 -0.45593999997E+02  0.45594000000E+02  0.51100000000E-03 0. -1.
    9900012    2    1    2    0    0 -0.68080650019E-01  0.11537575676E+01 -0.23940304958E+00  0.90007701174E+02  0.89999962029E+02 0.  0.
        -12    1    1    2    0    0  0.68080650019E-01 -0.11537575676E+01  0.23940304958E+00  0.11802988265E+01  0.00000000000E+00 0.  1.
         11    1    3    3    0    0 -0.25267136444E+01  0.58445159065E+01 -0.32993098161E+02  0.33601892425E+02  0.51100000000E-03 0. -1.
        -11    1    3    3    0    0  0.21224248194E+01 -0.28240489511E+01 -0.11541484724E+02  0.12070037676E+02  0.51100000000E-03 0.  1.
        -12    1    3    3    0    0  0.33620817505E+00 -0.18667093878E+01  0.44295179836E+02  0.44335771072E+02  0.00000000000E+00 0.  1.
</event>
<event>
 7    1  0.2542335E-015  0.9000816E+02  0.7816164E-02  0.1186338E+00
        -11   -1    0    0    0    0  0.00000000000E+00  0.00000000000E+00  0.45593999997E+02  0.45594000000E+02  0.51100000000E-03 0. -1.
         11   -1    0    0    0    0 -0.00000000000E+00 -0.00000000000E+00 -0.45593999997E+02  0.45594000000E+02  0.51100000000E-03 0.  1.
    9900012    2    1    2    0    0 -0.66890421516E+00  0.84759493610E+00  0.47558315348E+00  0.90008157061E+02  0.90000423933E+02 0.  0.
        -12    1    1    2    0    0  0.66890421516E+00 -0.84759493610E+00 -0.47558315348E+00  0.11798429390E+01  0.00000000000E+00 0.  1.
         11    1    3    3    0    0  0.11226047899E+02 -0.32698575079E+02 -0.18236453073E+02  0.39086943915E+02  0.51100000000E-03 0. -1.
        -11    1    3    3    0    0  0.23718062129E+01  0.41504765431E+01 -0.75937547051E+01  0.89731282744E+01  0.51100000000E-03 0.  1.
        -12    1    3    3    0    0 -0.14266758327E+02  0.29395693472E+02  0.26305790932E+02  0.41948084872E+02  0.00000000000E+00 0.  1.
</event>
<event>
 7    1  0.2542335E-015  0.9000766E+02  0.7816164E-02  0.1186339E+00
        -11   -1    0    0    0    0  0.00000000000E+00  0.00000000000E+00  0.45593999997E+02  0.45594000000E+02  0.51100000000E-03 0.  1.
         11   -1    0    0    0    0 -0.00000000000E+00 -0.00000000000E+00 -0.45593999997E+02  0.45594000000E+02  0.51100000000E-03 0. -1.
    9900012    2    1    2    0    0 -0.46311104696E+00 -0.96543034245E+00 -0.49667560276E+00  0.90007655032E+02  0.89999915279E+02 0.  0.
        -12    1    1    2    0    0  0.46311104696E+00  0.96543034245E+00  0.49667560276E+00  0.11803449675E+01  0.00000000000E+00 0.  1.
         11    1    3    3    0    0 -0.21803726583E+01 -0.77723050016E+01 -0.57813052765E+01  0.99290604252E+01  0.51100000000E-03 0. -1.
        -11    1    3    3    0    0 -0.36621560346E+02  0.47082307790E+00 -0.10555398721E+02  0.38115309247E+02  0.51100000000E-03 0.  1.
         12    1    3    3    0    0  0.38338821957E+02  0.63360515813E+01  0.15840028395E+02  0.41963285361E+02  0.00000000000E+00 0. -1.
</event>
<event>
 7    1  0.2542335E-015  0.9000764E+02  0.7816164E-02  0.1186339E+00
        -11   -1    0    0    0    0  0.00000000000E+00  0.00000000000E+00  0.45593999997E+02  0.45594000000E+02  0.51100000000E-03 0.  1.
         11   -1    0    0    0    0 -0.00000000000E+00 -0.00000000000E+00 -0.45593999997E+02  0.45594000000E+02  0.51100000000E-03 0. -1.
    9900012    2    1    2    0    0  0.74569445108E+00 -0.91251792935E+00 -0.67168873502E-01  0.90007635292E+02  0.89999895278E+02 0.  0.
        -12    1    1    2    0    0 -0.74569445108E+00  0.91251792935E+00  0.67168873502E-01  0.11803647078E+01  0.00000000000E+00 0.  1.
         11    1    3    3    0    0  0.59794408478E+01 -0.53365587178E+01  0.17321740471E+02  0.19085996568E+02  0.51100000000E-03 0. -1.
        -11    1    3    3    0    0 -0.17617926785E+02  0.34932319026E+00  0.22716815401E+02  0.28750079532E+02  0.51100000000E-03 0.  1.
         12    1    3    3    0    0  0.12384180388E+02  0.40747175982E+01 -0.40105724745E+02  0.42171559192E+02  0.00000000000E+00 0. -1.
</event>
<event>
 7    1  0.2542335E-015  0.9000831E+02  0.7816164E-02  0.1186338E+00
        -11   -1    0    0    0    0  0.00000000000E+00  0.00000000000E+00  0.45593999997E+02  0.45594000000E+02  0.51100000000E-03 0. -1.
         11   -1    0    0    0    0 -0.00000000000E+00 -0.00000000000E+00 -0.45593999997E+02  0.45594000000E+02  0.51100000000E-03 0.  1.
    9900012    2    1    2    0    0 -0.75108329268E+00 -0.72123917260E+00  0.55439695751E+00  0.90008310192E+02  0.90000579085E+02 0.  0.
        -12    1    1    2    0    0  0.75108329268E+00  0.72123917260E+00 -0.55439695751E+00  0.11796898080E+01  0.00000000000E+00 0.  1.
         11    1    3    3    0    0 -0.23935640787E+02 -0.31308860909E+02  0.99698860839E+01  0.40651670323E+02  0.51100000000E-03 0. -1.
        -11    1    3    3    0    0 -0.68758464342E+01  0.77913916381E+01  0.31190920702E+00  0.10396169269E+02  0.51100000000E-03 0.  1.
        -12    1    3    3    0    0  0.30060403929E+02  0.22796230098E+02 -0.97273983334E+01  0.38960470600E+02  0.00000000000E+00 0.  1.
</event>
<event>
 7    1  0.2542335E-015  0.9000771E+02  0.7816164E-02  0.1186339E+00
        -11   -1    0    0    0    0  0.00000000000E+00  0.00000000000E+00  0.45593999997E+02  0.45594000000E+02  0.51100000000E-03 0.  1.
         11   -1    0    0    0    0 -0.00000000000E+00 -0.00000000000E+00 -0.45593999997E+02  0.45594000000E+02  0.51100000000E-03 0. -1.
    9900012    2    1    2    0    0 -0.25610116291E+00  0.59936272164E+00 -0.98399795987E+00  0.90007713822E+02  0.89999974844E+02 0.  0.
        -12    1    1    2    0    0  0.25610116291E+00 -0.59936272164E+00  0.98399795987E+00  0.11802861783E+01  0.00000000000E+00 0.  1.
         11    1    3    3    0    0  0.15199264705E+02  0.27361545904E+02 -0.78851280112E+01  0.32277656139E+02  0.51100000000E-03 0. -1.
        -11    1    3    3    0    0  0.55891081229E+01  0.11161108704E+02 -0.38196262586E+01  0.13053659339E+02  0.51100000000E-03 0.  1.
        -12    1    3    3    0    0 -0.21044473991E+02 -0.37923291887E+02  0.10720756310E+02  0.44676398343E+02  0.00000000000E+00 0.  1.
</event>
<event>
 7    1  0.2542335E-015  0.9000771E+02  0.7816164E-02  0.1186339E+00
        -11   -1    0    0    0    0  0.00000000000E+00  0.00000000000E+00  0.45593999997E+02  0.45594000000E+02  0.51100000000E-03 0. -1.
         11   -1    0    0    0    0 -0.00000000000E+00 -0.00000000000E+00 -0.45593999997E+02  0.45594000000E+02  0.51100000000E-03 0.  1.
    9900012    2    1    2    0    0 -0.18294983256E+00 -0.76421817933E+00 -0.88067462164E+00  0.90007708572E+02  0.89999969525E+02 0.  0.
        -12    1    1    2    0    0  0.18294983256E+00  0.76421817933E+00  0.88067462164E+00  0.11802914284E+01  0.00000000000E+00 0.  1.
         11    1    3    3    0    0 -0.12037745315E+01 -0.78985339140E+01  0.10612321528E+02  0.13283722354E+02  0.51100000000E-03 0. -1.
        -11    1    3    3    0    0 -0.23499274017E+02 -0.39985782497E+01 -0.34071366384E+02  0.41581997486E+02  0.51100000000E-03 0.  1.
         12    1    3    3    0    0  0.24520098716E+02  0.11132893984E+02  0.22578370235E+02  0.35141988731E+02  0.00000000000E+00 0. -1.
</event>
<event>
 7    1  0.2542335E-015  0.9000778E+02  0.7816164E-02  0.1186339E+00
        -11   -1    0    0    0    0  0.00000000000E+00  0.00000000000E+00  0.45593999997E+02  0.45594000000E+02  0.51100000000E-03 0. -1.
         11   -1    0    0    0    0 -0.00000000000E+00 -0.00000000000E+00 -0.45593999997E+02  0.45594000000E+02  0.51100000000E-03 0.  1.
    9900012    2    1    2    0    0 -0.52731706101E+00 -0.51655422195E+00  0.92088718439E+00  0.90007777668E+02  0.90000039533E+02 0.  0.
        -12    1    1    2    0    0  0.52731706101E+00  0.51655422195E+00 -0.92088718439E+00  0.11802223322E+01  0.00000000000E+00 0.  1.
         11    1    3    3    0    0  0.78644864964E+01  0.17957755614E+02  0.33847073999E+02  0.39114646274E+02  0.51100000000E-03 0. -1.
        -11    1    3    3    0    0  0.68579350819E+01 -0.59562093508E+01  0.32823607576E+01  0.96582397890E+01  0.51100000000E-03 0.  1.
        -12    1    3    3    0    0 -0.15249738639E+02 -0.12518100485E+02 -0.36208547573E+02  0.41234891605E+02  0.00000000000E+00 0.  1.
</event>
<event>
 7    1  0.2542335E-015  0.9000808E+02  0.7816164E-02  0.1186338E+00
        -11   -1    0    0    0    0  0.00000000000E+00  0.00000000000E+00  0.45593999997E+02  0.45594000000E+02  0.51100000000E-03 0. -1.
         11   -1    0    0    0    0 -0.00000000000E+00 -0.00000000000E+00 -0.45593999997E+02  0.45594000000E+02  0.51100000000E-03 0.  1.
    9900012    2    1    2    0    0  0.20722561319E+00 -0.95976306215E-01  0.11576084460E+01  0.90008079994E+02  0.90000345849E+02 0.  0.
        -12    1    1    2    0    0 -0.20722561319E+00  0.95976306215E-01 -0.11576084460E+01  0.11799200059E+01  0.00000000000E+00 0.  1.
         11    1    3    3    0    0 -0.44871914589E+01  0.36731087713E+01  0.12108902586E+02  0.13425801180E+02  0.51100000000E-03 0. -1.
        -11    1    3    3    0    0 -0.17313862809E+02  0.22686623892E+02 -0.26384952493E+02  0.38866675537E+02  0.51100000000E-03 0.  1.
         12    1    3    3    0    0  0.22008279881E+02 -0.26455708970E+02  0.15433658353E+02  0.37715603277E+02  0.00000000000E+00 0. -1.
</event>
<event>
 7    1  0.2542335E-015  0.9000781E+02  0.7816164E-02  0.1186339E+00
        -11   -1    0    0    0    0  0.00000000000E+00  0.00000000000E+00  0.45593999997E+02  0.45594000000E+02  0.51100000000E-03 0. -1.
         11   -1    0    0    0    0 -0.00000000000E+00 -0.00000000000E+00 -0.45593999997E+02  0.45594000000E+02  0.51100000000E-03 0.  1.
    9900012    2    1    2    0    0  0.28217178854E+00 -0.95444461083E+00 -0.63424539291E+00  0.90007808214E+02  0.90000070482E+02 0.  0.
        -12    1    1    2    0    0 -0.28217178854E+00  0.95444461083E+00  0.63424539291E+00  0.11801917860E+01  0.00000000000E+00 0.  1.
         11    1    3    3    0    0  0.16878163404E+01  0.94936041774E+00 -0.11364048526E+02  0.11527862263E+02  0.51100000000E-03 0. -1.
        -11    1    3    3    0    0  0.40898135846E+01 -0.33498114698E+02 -0.15418219140E+02  0.37102179790E+02  0.51100000000E-03 0.  1.
         12    1    3    3    0    0 -0.54954581364E+01  0.31594309670E+02  0.26148022273E+02  0.41377766160E+02  0.00000000000E+00 0. -1.
</event>
<event>
 7    1  0.2615752E-015  0.9000784E+02  0.7816164E-02  0.1186339E+00
        -11   -1    0    0    0    0  0.00000000000E+00  0.00000000000E+00  0.45593999997E+02  0.45594000000E+02  0.51100000000E-03 0. -1.
         11   -1    0    0    0    0 -0.00000000000E+00 -0.00000000000E+00 -0.45593999997E+02  0.45594000000E+02  0.51100000000E-03 0.  1.
    9900012    2    1    2    0    0  0.78840232517E+00  0.87147402888E+00  0.10832336867E+00  0.90007839349E+02  0.90000102029E+02 0.  0.
        -12    1    1    2    0    0 -0.78840232517E+00 -0.87147402888E+00 -0.10832336867E+00  0.11801606507E+01  0.00000000000E+00 0.  1.
         11    1    3    3    0    0 -0.27132705350E+01  0.32519526479E+01  0.83542952106E+01  0.93664978379E+01  0.51100000000E-03 0. -1.
        -11    1    3    3    0    0 -0.17047287150E+02 -0.36177332241E+02  0.10642857802E+01  0.40006775323E+02  0.51100000000E-03 0.  1.
         12    1    3    3    0    0  0.20548960011E+02  0.33796853622E+02 -0.93102576222E+01  0.40634566188E+02  0.00000000000E+00 0. -1.
</event>
<event>
 7    1  0.2542335E-015  0.9000770E+02  0.7816164E-02  0.1186339E+00
        -11   -1    0    0    0    0  0.00000000000E+00  0.00000000000E+00  0.45593999997E+02  0.45594000000E+02  0.51100000000E-03 0. -1.
         11   -1    0    0    0    0 -0.00000000000E+00 -0.00000000000E+00 -0.45593999997E+02  0.45594000000E+02  0.51100000000E-03 0.  1.
    9900012    2    1    2    0    0 -0.91466087143E+00 -0.49215347813E+00 -0.56061303370E+00  0.90007700661E+02  0.89999961510E+02 0.  0.
        -12    1    1    2    0    0  0.91466087143E+00  0.49215347813E+00  0.56061303370E+00  0.11802993389E+01  0.00000000000E+00 0.  1.
         11    1    3    3    0    0 -0.53214670200E+01  0.67292386283E+01  0.68462326598E+01  0.10975953975E+02  0.51100000000E-03 0. -1.
        -11    1    3    3    0    0  0.35339913449E+02  0.14541540751E+02 -0.13885364323E+02  0.40659183866E+02  0.51100000000E-03 0.  1.
         12    1    3    3    0    0 -0.30933107300E+02 -0.21762932858E+02  0.64785186292E+01  0.38372562821E+02  0.00000000000E+00 0. -1.
</event>
<event>
 7    1  0.2542335E-015  0.9000791E+02  0.7816164E-02  0.1186339E+00
        -11   -1    0    0    0    0  0.00000000000E+00  0.00000000000E+00  0.45593999997E+02  0.45594000000E+02  0.51100000000E-03 0. -1.
         11   -1    0    0    0    0 -0.00000000000E+00 -0.00000000000E+00 -0.45593999997E+02  0.45594000000E+02  0.51100000000E-03 0.  1.
    9900012    2    1    2    0    0 -0.32841113668E+00  0.41033558656E+00  0.10565946718E+01  0.90007906161E+02  0.90000169722E+02 0.  0.
        -12    1    1    2    0    0  0.32841113668E+00 -0.41033558656E+00 -0.10565946718E+01  0.11800938390E+01  0.00000000000E+00 0.  1.
         11    1    3    3    0    0 -0.32208361574E+02 -0.94064651329E+01  0.14640163474E+02  0.36608667394E+02  0.51100000000E-03 0. -1.
        -11    1    3    3    0    0 -0.81323163537E+01  0.20108983780E+01  0.36522726431E+01  0.91387842344E+01  0.51100000000E-03 0.  1.
        -12    1    3    3    0    0  0.40012266791E+02  0.78059023415E+01 -0.17235841446E+02  0.44260454533E+02  0.00000000000E+00 0.  1.
</event>
<event>
 7    1  0.2542335E-015  0.9000755E+02  0.7816164E-02  0.1186339E+00
        -11   -1    0    0    0    0  0.00000000000E+00  0.00000000000E+00  0.45593999997E+02  0.45594000000E+02  0.51100000000E-03 0. -1.
         11   -1    0    0    0    0 -0.00000000000E+00 -0.00000000000E+00 -0.45593999997E+02  0.45594000000E+02  0.51100000000E-03 0.  1.
    9900012    2    1    2    0    0  0.44816590959E+00  0.47715110224E+00  0.98230651985E+00  0.90007554340E+02  0.89999813257E+02 0.  0.
        -12    1    1    2    0    0 -0.44816590959E+00 -0.47715110224E+00 -0.98230651985E+00  0.11804456598E+01  0.00000000000E+00 0.  1.
         11    1    3    3    0    0  0.55986535641E+01 -0.69450425266E+01  0.67894641299E+01  0.11210502257E+02  0.51100000000E-03 0. -1.
        -11    1    3    3    0    0 -0.17204262160E+02 -0.12308508633E+02  0.29677063905E+02  0.36444672361E+02  0.51100000000E-03 0.  1.
         12    1    3    3    0    0  0.12053774506E+02  0.19730702262E+02 -0.35484221515E+02  0.42352379722E+02  0.00000000000E+00 0. -1.
</event>
<event>
 7    1  0.2542335E-015  0.9000757E+02  0.7816164E-02  0.1186339E+00
        -11   -1    0    0    0    0  0.00000000000E+00  0.00000000000E+00  0.45593999997E+02  0.45594000000E+02  0.51100000000E-03 0. -1.
         11   -1    0    0    0    0 -0.00000000000E+00 -0.00000000000E+00 -0.45593999997E+02  0.45594000000E+02  0.51100000000E-03 0.  1.
    9900012    2    1    2    0    0  0.16767974728E+00 -0.83308417959E+00  0.81930433875E+00  0.90007574082E+02  0.89999833260E+02 0.  0.
        -12    1    1    2    0    0 -0.16767974728E+00  0.83308417959E+00 -0.81930433875E+00  0.11804259178E+01  0.00000000000E+00 0.  1.
         11    1    3    3    0    0 -0.96101104875E+01 -0.17246032079E+01  0.37900902604E+01  0.10473455220E+02  0.51100000000E-03 0. -1.
        -11    1    3    3    0    0 -0.22651055381E+02  0.28510155483E+02 -0.56745071434E+01  0.36852398933E+02  0.51100000000E-03 0.  1.
         12    1    3    3    0    0  0.32428845616E+02 -0.27618636455E+02  0.27037212218E+01  0.42681719929E+02  0.00000000000E+00 0. -1.
</event>
<event>
 7    1  0.2542335E-015  0.9000774E+02  0.7816164E-02  0.1186339E+00
        -11   -1    0    0    0    0  0.00000000000E+00  0.00000000000E+00  0.45593999997E+02  0.45594000000E+02  0.51100000000E-03 0. -1.
         11   -1    0    0    0    0 -0.00000000000E+00 -0.00000000000E+00 -0.45593999997E+02  0.45594000000E+02  0.51100000000E-03 0.  1.
    9900012    2    1    2    0    0  0.46107282165E+00  0.51070962196E+00  0.95895443317E+00  0.90007743219E+02  0.90000004629E+02 0.  0.
        -12    1    1    2    0    0 -0.46107282165E+00 -0.51070962196E+00 -0.95895443317E+00  0.11802567813E+01  0.00000000000E+00 0.  1.
         11    1    3    3    0    0 -0.18546299163E+02 -0.25655245942E+00  0.10017958932E+01  0.18575107727E+02  0.51100000000E-03 0. -1.
        -11    1    3    3    0    0  0.67710816741E+01  0.13156773525E+02 -0.31878809243E+02  0.35145507759E+02  0.51100000000E-03 0.  1.
         12    1    3    3    0    0  0.12236290310E+02 -0.12389511443E+02  0.31835967784E+02  0.36287127732E+02  0.00000000000E+00 0. -1.
</event>
<event>
 7    1  0.4976070E-015  0.9000763E+02  0.7816164E-02  0.1186339E+00
        -11   -1    0    0    0    0  0.00000000000E+00  0.00000000000E+00  0.45593999997E+02  0.45594000000E+02  0.51100000000E-03 0. -1.
         11   -1    0    0    0    0 -0.00000000000E+00 -0.00000000000E+00 -0.45593999997E+02  0.45594000000E+02  0.51100000000E-03 0.  1.
    9900012    2    1    2    0    0  0.56505214641E+00 -0.13404898956E+00  0.10276271069E+01  0.90007631189E+02  0.89999891120E+02 0.  0.
        -12    1    1    2    0    0 -0.56505214641E+00  0.13404898956E+00 -0.10276271069E+01  0.11803688113E+01  0.00000000000E+00 0.  1.
         11    1    3    3    0    0  0.29335881260E+01 -0.53457703795E+01  0.79101122752E+01  0.99876462047E+01  0.51100000000E-03 0. -1.
        -11    1    3    3    0    0  0.19839546463E+02 -0.94347111177E+01 -0.34992741257E+02  0.41317227868E+02  0.51100000000E-03 0.  1.
         12    1    3    3    0    0 -0.22208082443E+02  0.14646432508E+02  0.28110256089E+02  0.38702757116E+02  0.00000000000E+00 0. -1.
</event>
<event>
 7    1  0.2542335E-015  0.9000755E+02  0.7816164E-02  0.1186339E+00
        -11   -1    0    0    0    0  0.00000000000E+00  0.00000000000E+00  0.45593999997E+02  0.45594000000E+02  0.51100000000E-03 0.  1.
         11   -1    0    0    0    0 -0.00000000000E+00 -0.00000000000E+00 -0.45593999997E+02  0.45594000000E+02  0.51100000000E-03 0. -1.
    9900012    2    1    2    0    0 -0.11496286756E+01 -0.26584478877E+00  0.33739834463E-01  0.90007551814E+02  0.89999810698E+02 0.  0.
        -12    1    1    2    0    0  0.11496286756E+01  0.26584478877E+00 -0.33739834463E-01  0.11804481861E+01  0.00000000000E+00 0.  1.
         11    1    3    3    0    0  0.40193189878E+01  0.61288952952E+01  0.57973719782E+01  0.93449347124E+01  0.51100000000E-03 0. -1.
        -11    1    3    3    0    0 -0.21717402709E+02  0.17656705671E+02  0.25516762754E+02  0.37874925971E+02  0.51100000000E-03 0.  1.
         12    1    3    3    0    0  0.16548455046E+02 -0.24051445755E+02 -0.31280394898E+02  0.42787691131E+02  0.00000000000E+00 0. -1.
</event>
<event>
 7    1  0.2542335E-015  0.9000773E+02  0.7816164E-02  0.1186339E+00
        -11   -1    0    0    0    0  0.00000000000E+00  0.00000000000E+00  0.45593999997E+02  0.45594000000E+02  0.51100000000E-03 0. -1.
         11   -1    0    0    0    0 -0.00000000000E+00 -0.00000000000E+00 -0.45593999997E+02  0.45594000000E+02  0.51100000000E-03 0.  1.
    9900012    2    1    2    0    0  0.97613896533E+00  0.48127229019E+00  0.45668795422E+00  0.90007731308E+02  0.89999992562E+02 0.  0.
        -12    1    1    2    0    0 -0.97613896533E+00 -0.48127229019E+00 -0.45668795422E+00  0.11802686916E+01  0.00000000000E+00 0.  1.
         11    1    3    3    0    0 -0.21390556209E+01 -0.10041682200E+02  0.41873065835E+00  0.10275518282E+02  0.51100000000E-03 0. -1.
        -11    1    3    3    0    0  0.35098039308E+01 -0.16124885036E+02 -0.33232163129E+02  0.37104006624E+02  0.51100000000E-03 0.  1.
         12    1    3    3    0    0 -0.39460934458E+00  0.26647839526E+02  0.33270120425E+02  0.42628206402E+02  0.00000000000E+00 0. -1.
</event>
<event>
 7    1  0.2691884E-015  0.9000775E+02  0.7816164E-02  0.1186339E+00
        -11   -1    0    0    0    0  0.00000000000E+00  0.00000000000E+00  0.45593999997E+02  0.45594000000E+02  0.51100000000E-03 0. -1.
         11   -1    0    0    0    0 -0.00000000000E+00 -0.00000000000E+00 -0.45593999997E+02  0.45594000000E+02  0.51100000000E-03 0.  1.
    9900012    2    1    2    0    0 -0.18099937328E+00  0.47227512874E+00  0.10663926918E+01  0.90007746661E+02  0.90000008117E+02 0.  0.
        -12    1    1    2    0    0  0.18099937328E+00 -0.47227512874E+00 -0.10663926918E+01  0.11802533387E+01  0.00000000000E+00 0.  1.
         11    1    3    3    0    0  0.73489694243E+01 -0.11745363347E+01  0.46314109726E+01  0.87656634124E+01  0.51100000000E-03 0. -1.
        -11    1    3    3    0    0  0.19278168318E+02 -0.23872937392E+02 -0.24006410010E+02  0.38959884949E+02  0.51100000000E-03 0.  1.
         12    1    3    3    0    0 -0.26808137115E+02  0.25519748856E+02  0.20441391729E+02  0.42282198300E+02  0.00000000000E+00 0. -1.
</event>
<event>
 7    1  0.2542335E-015  0.9000771E+02  0.7816164E-02  0.1186339E+00
        -11   -1    0    0    0    0  0.00000000000E+00  0.00000000000E+00  0.45593999997E+02  0.45594000000E+02  0.51100000000E-03 0.  1.
         11   -1    0    0    0    0 -0.00000000000E+00 -0.00000000000E+00 -0.45593999997E+02  0.45594000000E+02  0.51100000000E-03 0. -1.
    9900012    2    1    2    0    0 -0.11318220662E+01 -0.32852811454E+00  0.64204107301E-01  0.90007714408E+02  0.89999975438E+02 0.  0.
        -12    1    1    2    0    0  0.11318220662E+01  0.32852811454E+00 -0.64204107301E-01  0.11802855921E+01  0.00000000000E+00 0.  1.
         11    1    3    3    0    0 -0.28384560937E+01  0.83021484218E+01  0.50300099982E+01  0.10113530652E+02  0.51100000000E-03 0. -1.
        -11    1    3    3    0    0  0.93940612434E+01 -0.42799427170E+02  0.31900909278E+01  0.43934223939E+02  0.51100000000E-03 0.  1.
         12    1    3    3    0    0 -0.76874272159E+01  0.34168750634E+02 -0.81558968187E+01  0.35959959816E+02  0.00000000000E+00 0. -1.
</event>
<event>
 7    1  0.2977359E-015  0.9000770E+02  0.7816164E-02  0.1186339E+00
        -11   -1    0    0    0    0  0.00000000000E+00  0.00000000000E+00  0.45593999997E+02  0.45594000000E+02  0.51100000000E-03 0.  1.
         11   -1    0    0    0    0 -0.00000000000E+00 -0.00000000000E+00 -0.45593999997E+02  0.45594000000E+02  0.51100000000E-03 0. -1.
    9900012    2    1    2    0    0 -0.25401820485E+00  0.74552963122E+00 -0.87906935172E+00  0.90007702324E+02  0.89999963194E+02 0.  0.
        -12    1    1    2    0    0  0.25401820485E+00 -0.74552963122E+00  0.87906935172E+00  0.11802976762E+01  0.00000000000E+00 0.  1.
         11    1    3    3    0    0 -0.55059637289E+01 -0.50061679565E+01 -0.62577809211E+01  0.97230230130E+01  0.51100000000E-03 0. -1.
        -11    1    3    3    0    0 -0.31116130902E+02 -0.10504863198E+02  0.19292150130E+02  0.38088749127E+02  0.51100000000E-03 0.  1.
         12    1    3    3    0    0  0.36368076426E+02  0.16256560786E+02 -0.13913438561E+02  0.42195930184E+02  0.00000000000E+00 0. -1.
</event>
<event>
 7    1  0.2542335E-015  0.9000771E+02  0.7816164E-02  0.1186339E+00
        -11   -1    0    0    0    0  0.00000000000E+00  0.00000000000E+00  0.45593999997E+02  0.45594000000E+02  0.51100000000E-03 0.  1.
         11   -1    0    0    0    0 -0.00000000000E+00 -0.00000000000E+00 -0.45593999997E+02  0.45594000000E+02  0.51100000000E-03 0. -1.
    9900012    2    1    2    0    0 -0.97095436851E+00  0.52738029055E+00 -0.41496705366E+00  0.90007711894E+02  0.89999972891E+02 0.  0.
        -12    1    1    2    0    0  0.97095436851E+00 -0.52738029055E+00  0.41496705366E+00  0.11802881056E+01  0.00000000000E+00 0.  1.
         11    1    3    3    0    0  0.38716967114E+01  0.61333434078E+01 -0.49134466422E+01  0.87607017384E+01  0.51100000000E-03 0. -1.
        -11    1    3    3    0    0  0.32042804219E+02 -0.18821997249E+02  0.15929229566E+02  0.40432032319E+02  0.51100000000E-03 0.  1.
         12    1    3    3    0    0 -0.36885455299E+02  0.13216034132E+02 -0.11430749977E+02  0.40814977837E+02  0.00000000000E+00 0. -1.
</event>
<event>
 7    1  0.2542335E-015  0.9000769E+02  0.7816164E-02  0.1186339E+00
        -11   -1    0    0    0    0  0.00000000000E+00  0.00000000000E+00  0.45593999997E+02  0.45594000000E+02  0.51100000000E-03 0.  1.
         11   -1    0    0    0    0 -0.00000000000E+00 -0.00000000000E+00 -0.45593999997E+02  0.45594000000E+02  0.51100000000E-03 0. -1.
    9900012    2    1    2    0    0  0.25074937330E+00 -0.91576159023E+00  0.70116056426E+00  0.90007694669E+02  0.89999955438E+02 0.  0.
        -12    1    1    2    0    0 -0.25074937330E+00  0.91576159023E+00 -0.70116056426E+00  0.11803053314E+01  0.00000000000E+00 0.  1.
         11    1    3    3    0    0 -0.41009705509E+01  0.16553344621E+02 -0.40105523143E+02  0.43580777465E+02  0.51100000000E-03 0. -1.
        -11    1    3    3    0    0 -0.44010724013E+01 -0.41435904781E+01  0.88984776197E+01  0.10757401384E+02  0.51100000000E-03 0.  1.
        -12    1    3    3    0    0  0.87527923255E+01 -0.13325515733E+02  0.31908206088E+02  0.35669515819E+02  0.00000000000E+00 0.  1.
</event>
<event>
 7    1  0.2542335E-015  0.9000774E+02  0.7816164E-02  0.1186339E+00
        -11   -1    0    0    0    0  0.00000000000E+00  0.00000000000E+00  0.45593999997E+02  0.45594000000E+02  0.51100000000E-03 0.  1.
         11   -1    0    0    0    0 -0.00000000000E+00 -0.00000000000E+00 -0.45593999997E+02  0.45594000000E+02  0.51100000000E-03 0. -1.
    9900012    2    1    2    0    0 -0.70785025853E+00 -0.48769554926E+00 -0.80877709050E+00  0.90007737606E+02  0.89999998942E+02 0.  0.
        -12    1    1    2    0    0  0.70785025853E+00  0.48769554926E+00  0.80877709050E+00  0.11802623943E+01  0.00000000000E+00 0.  1.
         11    1    3    3    0    0 -0.27052075705E+02 -0.12181255285E+02 -0.21468401056E+02  0.36620896008E+02  0.51100000000E-03 0. -1.
        -11    1    3    3    0    0 -0.82073020257E+01 -0.45626651057E+01 -0.10719292453E+01  0.94512830862E+01  0.51100000000E-03 0.  1.
        -12    1    3    3    0    0  0.34551527472E+02  0.16256224842E+02  0.21731553211E+02  0.43935558511E+02  0.00000000000E+00 0.  1.
</event>
<event>
 7    1  0.2542335E-015  0.9000775E+02  0.7816164E-02  0.1186339E+00
        -11   -1    0    0    0    0  0.00000000000E+00  0.00000000000E+00  0.45593999997E+02  0.45594000000E+02  0.51100000000E-03 0. -1.
         11   -1    0    0    0    0 -0.00000000000E+00 -0.00000000000E+00 -0.45593999997E+02  0.45594000000E+02  0.51100000000E-03 0.  1.
    9900012    2    1    2    0    0  0.69669452635E+00  0.19694860373E+00  0.93210603939E+00  0.90007748466E+02  0.90000009945E+02 0.  0.
        -12    1    1    2    0    0 -0.69669452635E+00 -0.19694860373E+00 -0.93210603939E+00  0.11802515343E+01  0.00000000000E+00 0.  1.
         11    1    3    3    0    0 -0.76994554205E+01  0.19663049216E+01 -0.10922204144E+02  0.13507128209E+02  0.51100000000E-03 0. -1.
        -11    1    3    3    0    0 -0.16152552653E+02  0.17239304038E+02 -0.20775513271E+02  0.31459823789E+02  0.51100000000E-03 0.  1.
         12    1    3    3    0    0  0.24548702600E+02 -0.19008660355E+02  0.32629823454E+02  0.45040796468E+02  0.00000000000E+00 0. -1.
</event>
<event>
 7    1  0.2542335E-015  0.9000773E+02  0.7816164E-02  0.1186339E+00
        -11   -1    0    0    0    0  0.00000000000E+00  0.00000000000E+00  0.45593999997E+02  0.45594000000E+02  0.51100000000E-03 0.  1.
         11   -1    0    0    0    0 -0.00000000000E+00 -0.00000000000E+00 -0.45593999997E+02  0.45594000000E+02  0.51100000000E-03 0. -1.
    9900012    2    1    2    0    0 -0.11022373882E+01 -0.32933548346E-01 -0.42073451941E+00  0.90007733329E+02  0.89999994609E+02 0.  0.
        -12    1    1    2    0    0  0.11022373882E+01  0.32933548346E-01  0.42073451941E+00  0.11802666709E+01  0.00000000000E+00 0.  1.
         11    1    3    3    0    0 -0.15838525349E+02  0.38868901529E+01 -0.32273424657E+02  0.36159932794E+02  0.51100000000E-03 0. -1.
        -11    1    3    3    0    0 -0.18075681715E+01  0.29173784959E+01 -0.87906860296E+01  0.94368724223E+01  0.51100000000E-03 0.  1.
        -12    1    3    3    0    0  0.16543856132E+02 -0.68372021972E+01  0.40643376167E+02  0.44410928113E+02  0.00000000000E+00 0.  1.
</event>
<event>
 7    1  0.3556935E-015  0.9000786E+02  0.7816164E-02  0.1186339E+00
        -11   -1    0    0    0    0  0.00000000000E+00  0.00000000000E+00  0.45593999997E+02  0.45594000000E+02  0.51100000000E-03 0.  1.
         11   -1    0    0    0    0 -0.00000000000E+00 -0.00000000000E+00 -0.45593999997E+02  0.45594000000E+02  0.51100000000E-03 0. -1.
    9900012    2    1    2    0    0 -0.67052222096E+00 -0.53323241585E+00 -0.81166189832E+00  0.90007859375E+02  0.90000122318E+02 0.  0.
        -12    1    1    2    0    0  0.67052222096E+00  0.53323241585E+00  0.81166189832E+00  0.11801406252E+01  0.00000000000E+00 0.  1.
         11    1    3    3    0    0 -0.60824923999E+01  0.55808615489E+01  0.43025586274E+01  0.93088527985E+01  0.51100000000E-03 0. -1.
        -11    1    3    3    0    0  0.15547675116E+02 -0.92967838344E+01  0.34887676472E+02  0.39310435778E+02  0.51100000000E-03 0.  1.
         12    1    3    3    0    0 -0.10135704937E+02  0.31826898697E+01 -0.40001896997E+02  0.41388570799E+02  0.00000000000E+00 0. -1.
</event>
<event>
 7    1  0.2542335E-015  0.9000744E+02  0.7816164E-02  0.1186340E+00
        -11   -1    0    0    0    0  0.00000000000E+00  0.00000000000E+00  0.45593999997E+02  0.45594000000E+02  0.51100000000E-03 0.  1.
         11   -1    0    0    0    0 -0.00000000000E+00 -0.00000000000E+00 -0.45593999997E+02  0.45594000000E+02  0.51100000000E-03 0. -1.
    9900012    2    1    2    0    0 -0.59935865264E+00  0.98221973007E+00 -0.26408361867E+00  0.90007438036E+02  0.89999695418E+02 0.  0.
        -12    1    1    2    0    0  0.59935865264E+00 -0.98221973007E+00  0.26408361867E+00  0.11805619638E+01  0.00000000000E+00 0.  1.
         11    1    3    3    0    0  0.65305120489E+01  0.47318413202E+01  0.35380560455E+01  0.88065742909E+01  0.51100000000E-03 0. -1.
        -11    1    3    3    0    0  0.33079975481E+02  0.76865257108E+01  0.12698522675E+02  0.36257687926E+02  0.51100000000E-03 0.  1.
         12    1    3    3    0    0 -0.40209846183E+02 -0.11436147301E+02 -0.16500662339E+02  0.44943175820E+02  0.00000000000E+00 0. -1.
</event>
<event>
 7    1  0.2542335E-015  0.9000781E+02  0.7816164E-02  0.1186339E+00
        -11   -1    0    0    0    0  0.00000000000E+00  0.00000000000E+00  0.45593999997E+02  0.45594000000E+02  0.51100000000E-03 0.  1.
         11   -1    0    0    0    0 -0.00000000000E+00 -0.00000000000E+00 -0.45593999997E+02  0.45594000000E+02  0.51100000000E-03 0. -1.
    9900012    2    1    2    0    0  0.10345286632E+01 -0.25262746766E+00 -0.50870644156E+00  0.90007808305E+02  0.90000070575E+02 0.  0.
        -12    1    1    2    0    0 -0.10345286632E+01  0.25262746766E+00  0.50870644156E+00  0.11801916946E+01  0.00000000000E+00 0.  1.
         11    1    3    3    0    0 -0.40416279957E+01  0.10001572969E+02 -0.10699236057E+02  0.15193415389E+02  0.51100000000E-03 0. -1.
        -11    1    3    3    0    0 -0.34017131290E+02 -0.75678066318E+01  0.30321624077E+01  0.34980436354E+02  0.51100000000E-03 0.  1.
         12    1    3    3    0    0  0.39093287949E+02 -0.26863938049E+01  0.71583672074E+01  0.39833956562E+02  0.00000000000E+00 0. -1.
</event>
<event>
 7    1  0.2542335E-015  0.9000778E+02  0.7816164E-02  0.1186339E+00
        -11   -1    0    0    0    0  0.00000000000E+00  0.00000000000E+00  0.45593999997E+02  0.45594000000E+02  0.51100000000E-03 0.  1.
         11   -1    0    0    0    0 -0.00000000000E+00 -0.00000000000E+00 -0.45593999997E+02  0.45594000000E+02  0.51100000000E-03 0. -1.
    9900012    2    1    2    0    0 -0.66644063781E+00  0.88884731299E+00 -0.39840022201E+00  0.90007781628E+02  0.90000043545E+02 0.  0.
        -12    1    1    2    0    0  0.66644063781E+00 -0.88884731299E+00  0.39840022201E+00  0.11802183723E+01  0.00000000000E+00 0.  1.
         11    1    3    3    0    0  0.29982910438E+02 -0.10268206106E+02 -0.15785985027E+02  0.35406331334E+02  0.51100000000E-03 0. -1.
        -11    1    3    3    0    0  0.75786122791E+01 -0.11387530620E+01 -0.54078635112E+01  0.93796114328E+01  0.51100000000E-03 0.  1.
        -12    1    3    3    0    0 -0.38227963355E+02  0.12295806481E+02  0.20795448316E+02  0.45221838861E+02  0.00000000000E+00 0.  1.
</event>
<event>
 7    1  0.2542335E-015  0.9000818E+02  0.7816164E-02  0.1186338E+00
        -11   -1    0    0    0    0  0.00000000000E+00  0.00000000000E+00  0.45593999997E+02  0.45594000000E+02  0.51100000000E-03 0.  1.
         11   -1    0    0    0    0 -0.00000000000E+00 -0.00000000000E+00 -0.45593999997E+02  0.45594000000E+02  0.51100000000E-03 0. -1.
    9900012    2    1    2    0    0  0.63911651613E+00  0.39586490512E+00  0.90927762516E+00  0.90008184445E+02  0.90000451678E+02 0.  0.
        -12    1    1    2    0    0 -0.63911651613E+00 -0.39586490512E+00 -0.90927762516E+00  0.11798155550E+01  0.00000000000E+00 0.  1.
         11    1    3    3    0    0  0.31858719673E+02  0.49775897120E+01 -0.19663419881E+02  0.37767770655E+02  0.51100000000E-03 0. -1.
        -11    1    3    3    0    0  0.76702889186E+01  0.32135490223E+01  0.43770323984E+01  0.93977998644E+01  0.51100000000E-03 0.  1.
        -12    1    3    3    0    0 -0.38889892076E+02 -0.77952738292E+01  0.16195665108E+02  0.42842613926E+02  0.00000000000E+00 0.  1.
</event>
<event>
 7    1  0.2542335E-015  0.9000775E+02  0.7816164E-02  0.1186339E+00
        -11   -1    0    0    0    0  0.00000000000E+00  0.00000000000E+00  0.45593999997E+02  0.45594000000E+02  0.51100000000E-03 0.  1.
         11   -1    0    0    0    0 -0.00000000000E+00 -0.00000000000E+00 -0.45593999997E+02  0.45594000000E+02  0.51100000000E-03 0. -1.
    9900012    2    1    2    0    0 -0.80656338957E+00 -0.86162640782E+00  0.74513309884E-02  0.90007745752E+02  0.90000007196E+02 0.  0.
        -12    1    1    2    0    0  0.80656338957E+00  0.86162640782E+00 -0.74513309884E-02  0.11802542482E+01  0.00000000000E+00 0.  1.
         11    1    3    3    0    0 -0.62949221622E-01 -0.31493225570E+02 -0.91688696946E+01  0.32800844366E+02  0.51100000000E-03 0. -1.
        -11    1    3    3    0    0  0.19414003084E+01 -0.12724571623E+02  0.32998970031E+00  0.12876049535E+02  0.51100000000E-03 0.  1.
        -12    1    3    3    0    0 -0.26850144763E+01  0.43356170785E+02  0.88463313252E+01  0.44330851851E+02  0.00000000000E+00 0.  1.
</event>
<event>
 7    1  0.2542335E-015  0.9000778E+02  0.7816164E-02  0.1186339E+00
        -11   -1    0    0    0    0  0.00000000000E+00  0.00000000000E+00  0.45593999997E+02  0.45594000000E+02  0.51100000000E-03 0. -1.
         11   -1    0    0    0    0 -0.00000000000E+00 -0.00000000000E+00 -0.45593999997E+02  0.45594000000E+02  0.51100000000E-03 0.  1.
    9900012    2    1    2    0    0 -0.99237580918E+00  0.63173223146E+00 -0.95002067603E-01  0.90007779363E+02  0.90000041251E+02 0.  0.
        -12    1    1    2    0    0  0.99237580918E+00 -0.63173223146E+00  0.95002067603E-01  0.11802206369E+01  0.00000000000E+00 0.  1.
         11    1    3    3    0    0 -0.28982177166E+01  0.38472792948E+01 -0.79967530564E+01  0.93353780648E+01  0.51100000000E-03 0. -1.
        -11    1    3    3    0    0 -0.28061906828E+02 -0.26489182235E+02 -0.82041182143E+01  0.39451932097E+02  0.51100000000E-03 0.  1.
         12    1    3    3    0    0  0.29967748735E+02  0.23273635172E+02  0.16105869203E+02  0.41220469201E+02  0.00000000000E+00 0. -1.
</event>
<event>
 7    1  0.2542335E-015  0.9000730E+02  0.7816164E-02  0.1186340E+00
        -11   -1    0    0    0    0  0.00000000000E+00  0.00000000000E+00  0.45593999997E+02  0.45594000000E+02  0.51100000000E-03 0.  1.
         11   -1    0    0    0    0 -0.00000000000E+00 -0.00000000000E+00 -0.45593999997E+02  0.45594000000E+02  0.51100000000E-03 0. -1.
    9900012    2    1    2    0    0 -0.10362844523E+01  0.50149275036E+00  0.26205994298E+00  0.90007298574E+02  0.89999554114E+02 0.  0.
        -12    1    1    2    0    0  0.10362844523E+01 -0.50149275036E+00 -0.26205994298E+00  0.11807014264E+01  0.00000000000E+00 0.  1.
         11    1    3    3    0    0  0.17942577835E+02  0.16183682829E+02 -0.26889335483E+02  0.36150851335E+02  0.51100000000E-03 0. -1.
        -11    1    3    3    0    0 -0.75319679379E-01  0.11223079593E+02  0.15146197452E+02  0.18851272798E+02  0.51100000000E-03 0.  1.
        -12    1    3    3    0    0 -0.18903542608E+02 -0.26905269672E+02  0.12005197974E+02  0.35005174441E+02  0.00000000000E+00 0.  1.
</event>
<event>
 7    1  0.2542335E-015  0.9000777E+02  0.7816164E-02  0.1186339E+00
        -11   -1    0    0    0    0  0.00000000000E+00  0.00000000000E+00  0.45593999997E+02  0.45594000000E+02  0.51100000000E-03 0. -1.
         11   -1    0    0    0    0 -0.00000000000E+00 -0.00000000000E+00 -0.45593999997E+02  0.45594000000E+02  0.51100000000E-03 0.  1.
    9900012    2    1    2    0    0 -0.64371690280E+00  0.87426267437E+00  0.46286267073E+00  0.90007767596E+02  0.90000029329E+02 0.  0.
        -12    1    1    2    0    0  0.64371690280E+00 -0.87426267437E+00 -0.46286267073E+00  0.11802324037E+01  0.00000000000E+00 0.  1.
         11    1    3    3    0    0 -0.10277108080E+01 -0.72046324332E+01 -0.62264755964E+00  0.73041500701E+01  0.51100000000E-03 0. -1.
        -11    1    3    3    0    0  0.15656117430E+02 -0.17428278892E+02  0.32100903454E+02  0.39740746356E+02  0.51100000000E-03 0.  1.
         12    1    3    3    0    0 -0.15272123525E+02  0.25507173999E+02 -0.31015393223E+02  0.42962871170E+02  0.00000000000E+00 0. -1.
</event>
<event>
 7    1  0.2542335E-015  0.9000774E+02  0.7816164E-02  0.1186339E+00
        -11   -1    0    0    0    0  0.00000000000E+00  0.00000000000E+00  0.45593999997E+02  0.45594000000E+02  0.51100000000E-03 0. -1.
         11   -1    0    0    0    0 -0.00000000000E+00 -0.00000000000E+00 -0.45593999997E+02  0.45594000000E+02  0.51100000000E-03 0.  1.
    9900012    2    1    2    0    0 -0.38570884289E+00 -0.11151862598E+01 -0.24334976814E-01  0.90007744139E+02  0.90000005562E+02 0.  0.
        -12    1    1    2    0    0  0.38570884289E+00  0.11151862598E+01  0.24334976814E-01  0.11802558607E+01  0.00000000000E+00 0.  1.
         11    1    3    3    0    0  0.31916150670E+01  0.30539835212E+02  0.18213393182E+02  0.35701479423E+02  0.51100000000E-03 0. -1.
        -11    1    3    3    0    0 -0.85432080136E+00  0.79980662326E+01  0.37594519555E+01  0.88787615555E+01  0.51100000000E-03 0.  1.
        -12    1    3    3    0    0 -0.27230031085E+01 -0.39653087705E+02 -0.21997180114E+02  0.45427503161E+02  0.00000000000E+00 0.  1.
</event>
<event>
 7    1  0.2542335E-015  0.9000755E+02  0.7816164E-02  0.1186339E+00
        -11   -1    0    0    0    0  0.00000000000E+00  0.00000000000E+00  0.45593999997E+02  0.45594000000E+02  0.51100000000E-03 0.  1.
         11   -1    0    0    0    0 -0.00000000000E+00 -0.00000000000E+00 -0.45593999997E+02  0.45594000000E+02  0.51100000000E-03 0. -1.
    9900012    2    1    2    0    0 -0.80387606579E+00  0.57979752105E+00 -0.64115303803E+00  0.90007551309E+02  0.89999810186E+02 0.  0.
        -12    1    1    2    0    0  0.80387606579E+00 -0.57979752105E+00  0.64115303803E+00  0.11804486913E+01  0.00000000000E+00 0.  1.
         11    1    3    3    0    0  0.38781726990E-01 -0.52320393032E+01 -0.91235673646E+01  0.10517377097E+02  0.51100000000E-03 0. -1.
        -11    1    3    3    0    0 -0.17696340457E+02  0.37783732319E+02 -0.22650518040E+01  0.41783984413E+02  0.51100000000E-03 0.  1.
         12    1    3    3    0    0  0.16853682664E+02 -0.31971895495E+02  0.10747466131E+02  0.37706189798E+02  0.00000000000E+00 0. -1.
</event>
<event>
 7    1  0.2542335E-015  0.9000775E+02  0.7816164E-02  0.1186339E+00
        -11   -1    0    0    0    0  0.00000000000E+00  0.00000000000E+00  0.45593999997E+02  0.45594000000E+02  0.51100000000E-03 0.  1.
         11   -1    0    0    0    0 -0.00000000000E+00 -0.00000000000E+00 -0.45593999997E+02  0.45594000000E+02  0.51100000000E-03 0. -1.
    9900012    2    1    2    0    0  0.37527723525E+00  0.69863203610E+00 -0.87411776046E+00  0.90007745119E+02  0.90000006554E+02 0.  0.
        -12    1    1    2    0    0 -0.37527723525E+00 -0.69863203610E+00  0.87411776046E+00  0.11802548811E+01  0.00000000000E+00 0.  1.
         11    1    3    3    0    0  0.31312493420E+02 -0.13670524397E+02 -0.65186181119E+00  0.34172802132E+02  0.51100000000E-03 0. -1.
        -11    1    3    3    0    0  0.15609788093E+01 -0.24543098055E+00  0.16427886802E+02  0.16503707349E+02  0.51100000000E-03 0.  1.
        -12    1    3    3    0    0 -0.32498194994E+02  0.14614587414E+02 -0.16650142752E+02  0.39331235638E+02  0.00000000000E+00 0.  1.
</event>
<event>
 7    1  0.2542335E-015  0.9000777E+02  0.7816164E-02  0.1186339E+00
        -11   -1    0    0    0    0  0.00000000000E+00  0.00000000000E+00  0.45593999997E+02  0.45594000000E+02  0.51100000000E-03 0.  1.
         11   -1    0    0    0    0 -0.00000000000E+00 -0.00000000000E+00 -0.45593999997E+02  0.45594000000E+02  0.51100000000E-03 0. -1.
    9900012    2    1    2    0    0  0.71523234493E+00 -0.93065453148E+00  0.12359616906E+00  0.90007766473E+02  0.90000028191E+02 0.  0.
        -12    1    1    2    0    0 -0.71523234493E+00  0.93065453148E+00 -0.12359616906E+00  0.11802335266E+01  0.00000000000E+00 0.  1.
         11    1    3    3    0    0  0.25949130934E+02 -0.26429762407E+02 -0.12536357213E+02  0.39103068799E+02  0.51100000000E-03 0. -1.
        -11    1    3    3    0    0 -0.46846156079E+01 -0.82216496946E+01  0.88185269178E-01  0.94630293246E+01  0.51100000000E-03 0.  1.
        -12    1    3    3    0    0 -0.20549282981E+02  0.33720757570E+02  0.12571768113E+02  0.41441668350E+02  0.00000000000E+00 0.  1.
</event>
<event>
 7    1  0.2542335E-015  0.9000778E+02  0.7816164E-02  0.1186339E+00
        -11   -1    0    0    0    0  0.00000000000E+00  0.00000000000E+00  0.45593999997E+02  0.45594000000E+02  0.51100000000E-03 0. -1.
         11   -1    0    0    0    0 -0.00000000000E+00 -0.00000000000E+00 -0.45593999997E+02  0.45594000000E+02  0.51100000000E-03 0.  1.
    9900012    2    1    2    0    0 -0.73511841743E+00 -0.73515356210E+00  0.55862415914E+00  0.90007783580E+02  0.90000045523E+02 0.  0.
        -12    1    1    2    0    0  0.73511841743E+00  0.73515356210E+00 -0.55862415914E+00  0.11802164203E+01  0.00000000000E+00 0.  1.
         11    1    3    3    0    0 -0.52498982793E+01  0.55986050250E+00 -0.96445417288E+01  0.10995092594E+02  0.51100000000E-03 0. -1.
        -11    1    3    3    0    0 -0.29329129057E+02 -0.18916543229E+02  0.19167176154E+02  0.39817258331E+02  0.51100000000E-03 0.  1.
         12    1    3    3    0    0  0.33843908919E+02  0.17621529164E+02 -0.89640102665E+01  0.39195432655E+02  0.00000000000E+00 0. -1.
</event>
<event>
 7    1  0.2542335E-015  0.9000753E+02  0.7816164E-02  0.1186339E+00
        -11   -1    0    0    0    0  0.00000000000E+00  0.00000000000E+00  0.45593999997E+02  0.45594000000E+02  0.51100000000E-03 0.  1.
         11   -1    0    0    0    0 -0.00000000000E+00 -0.00000000000E+00 -0.45593999997E+02  0.45594000000E+02  0.51100000000E-03 0. -1.
    9900012    2    1    2    0    0  0.80078382127E+00 -0.13841446999E+00 -0.85620762716E+00  0.90007531959E+02  0.89999790581E+02 0.  0.
        -12    1    1    2    0    0 -0.80078382127E+00  0.13841446999E+00  0.85620762716E+00  0.11804680405E+01  0.00000000000E+00 0.  1.
         11    1    3    3    0    0 -0.78819504290E+01 -0.31841016258E+01 -0.10856105824E+01  0.85698422580E+01  0.51100000000E-03 0. -1.
        -11    1    3    3    0    0 -0.21024738244E+02  0.10226169328E+02  0.30494254109E+02  0.38425430268E+02  0.51100000000E-03 0.  1.
         12    1    3    3    0    0  0.29707472494E+02 -0.71804821723E+01 -0.30264851154E+02  0.43012259434E+02  0.00000000000E+00 0. -1.
</event>
<event>
 7    1  0.2542335E-015  0.9000771E+02  0.7816164E-02  0.1186339E+00
        -11   -1    0    0    0    0  0.00000000000E+00  0.00000000000E+00  0.45593999997E+02  0.45594000000E+02  0.51100000000E-03 0.  1.
         11   -1    0    0    0    0 -0.00000000000E+00 -0.00000000000E+00 -0.45593999997E+02  0.45594000000E+02  0.51100000000E-03 0. -1.
    9900012    2    1    2    0    0  0.99487166227E+00  0.61533561211E+00 -0.15709812008E+00  0.90007708782E+02  0.89999969738E+02 0.  0.
        -12    1    1    2    0    0 -0.99487166227E+00 -0.61533561211E+00  0.15709812008E+00  0.11802912180E+01  0.00000000000E+00 0.  1.
         11    1    3    3    0    0  0.63006752656E+01 -0.39525792538E+01  0.89333415878E+01  0.11624370252E+02  0.51100000000E-03 0. -1.
        -11    1    3    3    0    0  0.53984382759E+01 -0.21737314871E+02  0.25295161566E+02  0.33786079863E+02  0.51100000000E-03 0.  1.
         12    1    3    3    0    0 -0.10704241879E+02  0.26305229737E+02 -0.34385601273E+02  0.44597258667E+02  0.00000000000E+00 0. -1.
</event>
<event>
 7    1  0.2542335E-015  0.9000771E+02  0.7816164E-02  0.1186339E+00
        -11   -1    0    0    0    0  0.00000000000E+00  0.00000000000E+00  0.45593999997E+02  0.45594000000E+02  0.51100000000E-03 0.  1.
         11   -1    0    0    0    0 -0.00000000000E+00 -0.00000000000E+00 -0.45593999997E+02  0.45594000000E+02  0.51100000000E-03 0. -1.
    9900012    2    1    2    0    0  0.10148356275E+01  0.55784309236E+00  0.22803841351E+00  0.90007711144E+02  0.89999972131E+02 0.  0.
        -12    1    1    2    0    0 -0.10148356275E+01 -0.55784309236E+00 -0.22803841351E+00  0.11802888564E+01  0.00000000000E+00 0.  1.
         11    1    3    3    0    0  0.22777373309E+02 -0.19276330433E+02 -0.20203229307E+02  0.36035484242E+02  0.51100000000E-03 0. -1.
        -11    1    3    3    0    0  0.87903965194E+01 -0.53885742398E+01  0.49304943252E+01  0.11428804743E+02  0.51100000000E-03 0.  1.
        -12    1    3    3    0    0 -0.30552934200E+02  0.25222747766E+02  0.15500773396E+02  0.42543422159E+02  0.00000000000E+00 0.  1.
</event>
<event>
 7    1  0.2542335E-015  0.9000786E+02  0.7816164E-02  0.1186339E+00
        -11   -1    0    0    0    0  0.00000000000E+00  0.00000000000E+00  0.45593999997E+02  0.45594000000E+02  0.51100000000E-03 0.  1.
         11   -1    0    0    0    0 -0.00000000000E+00 -0.00000000000E+00 -0.45593999997E+02  0.45594000000E+02  0.51100000000E-03 0. -1.
    9900012    2    1    2    0    0  0.85183250418E+00 -0.43205620537E+00 -0.69313380064E+00  0.90007862023E+02  0.90000125001E+02 0.  0.
        -12    1    1    2    0    0 -0.85183250418E+00  0.43205620537E+00  0.69313380064E+00  0.11801379773E+01  0.00000000000E+00 0.  1.
         11    1    3    3    0    0 -0.37137047892E+01 -0.99611677222E+01 -0.38146897012E+02  0.39600533047E+02  0.51100000000E-03 0. -1.
        -11    1    3    3    0    0  0.66935962433E+01 -0.88417000931E+01  0.33037610238E+01  0.11571288967E+02  0.51100000000E-03 0.  1.
        -12    1    3    3    0    0 -0.21280589500E+01  0.18370811610E+02  0.34150002188E+02  0.38836040009E+02  0.00000000000E+00 0.  1.
</event>
<event>
 7    1  0.2542335E-015  0.9000785E+02  0.7816164E-02  0.1186339E+00
        -11   -1    0    0    0    0  0.00000000000E+00  0.00000000000E+00  0.45593999997E+02  0.45594000000E+02  0.51100000000E-03 0.  1.
         11   -1    0    0    0    0 -0.00000000000E+00 -0.00000000000E+00 -0.45593999997E+02  0.45594000000E+02  0.51100000000E-03 0. -1.
    9900012    2    1    2    0    0  0.93459304591E-01  0.21920096588E+00 -0.11558449623E+01  0.90007846924E+02  0.90000109704E+02 0.  0.
        -12    1    1    2    0    0 -0.93459304591E-01 -0.21920096588E+00  0.11558449623E+01  0.11801530756E+01  0.00000000000E+00 0.  1.
         11    1    3    3    0    0 -0.13696892013E+02  0.33644517884E+02  0.31332276655E+00  0.36327078136E+02  0.51100000000E-03 0. -1.
        -11    1    3    3    0    0 -0.48890937960E+01  0.72764252879E+01 -0.15208300075E+01  0.88973325941E+01  0.51100000000E-03 0.  1.
        -12    1    3    3    0    0  0.18679445113E+02 -0.40701742206E+02  0.51662278611E-01  0.44783436194E+02  0.00000000000E+00 0.  1.
</event>
<event>
 7    1  0.3369973E-015  0.9000771E+02  0.7816164E-02  0.1186339E+00
        -11   -1    0    0    0    0  0.00000000000E+00  0.00000000000E+00  0.45593999997E+02  0.45594000000E+02  0.51100000000E-03 0. -1.
         11   -1    0    0    0    0 -0.00000000000E+00 -0.00000000000E+00 -0.45593999997E+02  0.45594000000E+02  0.51100000000E-03 0.  1.
    9900012    2    1    2    0    0 -0.88999504107E+00 -0.73419693922E+00  0.24887907043E+00  0.90007713124E+02  0.89999974137E+02 0.  0.
        -12    1    1    2    0    0  0.88999504107E+00  0.73419693922E+00 -0.24887907043E+00  0.11802868763E+01  0.00000000000E+00 0.  1.
         11    1    3    3    0    0 -0.64368911155E+01 -0.70363292015E+01 -0.17378220190E+01  0.96934782971E+01  0.51100000000E-03 0. -1.
        -11    1    3    3    0    0  0.14654617273E+02 -0.26870441751E+02 -0.22586743963E+02  0.38038657316E+02  0.51100000000E-03 0.  1.
         12    1    3    3    0    0 -0.91077211985E+01  0.33172574013E+02  0.24573445052E+02  0.42275577510E+02  0.00000000000E+00 0. -1.
</event>
<event>
 7    1  0.2542335E-015  0.9000824E+02  0.7816164E-02  0.1186338E+00
        -11   -1    0    0    0    0  0.00000000000E+00  0.00000000000E+00  0.45593999997E+02  0.45594000000E+02  0.51100000000E-03 0.  1.
         11   -1    0    0    0    0 -0.00000000000E+00 -0.00000000000E+00 -0.45593999997E+02  0.45594000000E+02  0.51100000000E-03 0. -1.
    9900012    2    1    2    0    0  0.11306202622E+01  0.20301394502E+00 -0.26889951822E+00  0.90008244182E+02  0.90000512204E+02 0.  0.
        -12    1    1    2    0    0 -0.11306202622E+01 -0.20301394502E+00  0.26889951822E+00  0.11797558180E+01  0.00000000000E+00 0.  1.
         11    1    3    3    0    0  0.30111287380E+02 -0.30477156944E+01  0.25739648524E+02  0.39730438017E+02  0.51100000000E-03 0. -1.
        -11    1    3    3    0    0 -0.26439648939E+01  0.69581323951E+01  0.53445484289E+01  0.91635339775E+01  0.51100000000E-03 0.  1.
        -12    1    3    3    0    0 -0.26336702224E+02 -0.37074027556E+01 -0.31353096471E+02  0.41114272188E+02  0.00000000000E+00 0.  1.
</event>
<event>
 7    1  0.2542335E-015  0.9000723E+02  0.7816164E-02  0.1186340E+00
        -11   -1    0    0    0    0  0.00000000000E+00  0.00000000000E+00  0.45593999997E+02  0.45594000000E+02  0.51100000000E-03 0.  1.
         11   -1    0    0    0    0 -0.00000000000E+00 -0.00000000000E+00 -0.45593999997E+02  0.45594000000E+02  0.51100000000E-03 0. -1.
    9900012    2    1    2    0    0 -0.23317210772E+00  0.10504320566E+01  0.48624225735E+00  0.90007234032E+02  0.89999488720E+02 0.  0.
        -12    1    1    2    0    0  0.23317210772E+00 -0.10504320566E+01 -0.48624225735E+00  0.11807659676E+01  0.00000000000E+00 0.  1.
         11    1    3    3    0    0 -0.12703766502E+02  0.17765439174E+02  0.70204205138E+01  0.22940854753E+02  0.51100000000E-03 0. -1.
        -11    1    3    3    0    0 -0.18690375764E+02  0.11539509160E+02 -0.11356147476E+02  0.24727565663E+02  0.51100000000E-03 0.  1.
         12    1    3    3    0    0  0.31160970158E+02 -0.28254516277E+02  0.48219692198E+01  0.42338813616E+02  0.00000000000E+00 0. -1.
</event>
<event>
 7    1  0.2542335E-015  0.9000779E+02  0.7816164E-02  0.1186339E+00
        -11   -1    0    0    0    0  0.00000000000E+00  0.00000000000E+00  0.45593999997E+02  0.45594000000E+02  0.51100000000E-03 0. -1.
         11   -1    0    0    0    0 -0.00000000000E+00 -0.00000000000E+00 -0.45593999997E+02  0.45594000000E+02  0.51100000000E-03 0.  1.
    9900012    2    1    2    0    0 -0.56967372270E+00  0.51769293736E+00  0.89463461968E+00  0.90007785939E+02  0.90000047913E+02 0.  0.
        -12    1    1    2    0    0  0.56967372270E+00 -0.51769293736E+00 -0.89463461968E+00  0.11802140613E+01  0.00000000000E+00 0.  1.
         11    1    3    3    0    0  0.77921392552E+01  0.66176044237E+01  0.32144415138E+02  0.33730898999E+02  0.51100000000E-03 0. -1.
        -11    1    3    3    0    0 -0.18070119992E-01  0.17858373357E+02 -0.26624145318E+01  0.18055754675E+02  0.51100000000E-03 0.  1.
        -12    1    3    3    0    0 -0.83437428579E+01 -0.23958284843E+02 -0.28587365987E+02  0.38221132264E+02  0.00000000000E+00 0.  1.
</event>
<event>
 8    1  0.2542335E-015  0.9000772E+02  0.7816164E-02  0.1186339E+00
        -11   -1    0    0    0    0  0.00000000000E+00  0.00000000000E+00  0.45593999997E+02  0.45594000000E+02  0.51100000000E-03 0. -1.
         11   -1    0    0    0    0 -0.00000000000E+00 -0.00000000000E+00 -0.45593999997E+02  0.45594000000E+02  0.51100000000E-03 0.  1.
    9900012    2    1    2    0    0  0.78843349612E+00 -0.62999666596E+00  0.61199425443E+00  0.90007720311E+02  0.89999981419E+02 0.  0.
         23    2    3    3    0    0 -0.96927920405E+01 -0.35473426535E+01  0.25539189494E+02  0.62809704595E+02  0.56447098542E+02 0.  0.
        -12    1    1    2    0    0 -0.78843349612E+00  0.62999666596E+00 -0.61199425443E+00  0.11802796890E+01  0.00000000000E+00 0.  1.
         11    1    4    4    0    0  0.68412472132E+01 -0.13719931554E+02  0.37150399425E+02  0.40189443427E+02  0.51100000000E-03 0. -1.
        -11    1    4    4    0    0 -0.16534039254E+02  0.10172588900E+02 -0.11611209931E+02  0.22620261168E+02  0.51100000000E-03 0.  1.
        -12    1    3    3    0    0  0.10481225537E+02  0.29173459876E+01 -0.24927195240E+02  0.27198015716E+02  0.00000000000E+00 0.  1.
</event>
<event>
 7    1  0.2542335E-015  0.9000773E+02  0.7816164E-02  0.1186339E+00
        -11   -1    0    0    0    0  0.00000000000E+00  0.00000000000E+00  0.45593999997E+02  0.45594000000E+02  0.51100000000E-03 0. -1.
         11   -1    0    0    0    0 -0.00000000000E+00 -0.00000000000E+00 -0.45593999997E+02  0.45594000000E+02  0.51100000000E-03 0.  1.
    9900012    2    1    2    0    0 -0.10907653693E+01  0.46092996068E-01 -0.44848721900E+00  0.90007731200E+02  0.89999992452E+02 0.  0.
        -12    1    1    2    0    0  0.10907653693E+01 -0.46092996068E-01  0.44848721900E+00  0.11802688002E+01  0.00000000000E+00 0.  1.
         11    1    3    3    0    0  0.19501167138E+00 -0.80518923172E+01 -0.54665263280E+01  0.97341619976E+01  0.51100000000E-03 0. -1.
        -11    1    3    3    0    0 -0.19051799609E+00  0.32503569952E+02 -0.25405877947E+02  0.41255023830E+02  0.51100000000E-03 0.  1.
         12    1    3    3    0    0 -0.10952590446E+01 -0.24405584639E+02  0.30423917056E+02  0.39018545372E+02  0.00000000000E+00 0. -1.
</event>
<event>
 7    1  0.2542335E-015  0.9000771E+02  0.7816164E-02  0.1186339E+00
        -11   -1    0    0    0    0  0.00000000000E+00  0.00000000000E+00  0.45593999997E+02  0.45594000000E+02  0.51100000000E-03 0. -1.
         11   -1    0    0    0    0 -0.00000000000E+00 -0.00000000000E+00 -0.45593999997E+02  0.45594000000E+02  0.51100000000E-03 0.  1.
    9900012    2    1    2    0    0  0.11153978686E+01  0.38019936316E+00  0.66498789524E-01  0.90007709337E+02  0.89999970300E+02 0.  0.
        -12    1    1    2    0    0 -0.11153978686E+01 -0.38019936316E+00 -0.66498789524E-01  0.11802906634E+01  0.00000000000E+00 0.  1.
         11    1    3    3    0    0 -0.12902642836E+02  0.33077787414E+02  0.19472876512E+02  0.40494581518E+02  0.51100000000E-03 0. -1.
        -11    1    3    3    0    0  0.60476111824E+01 -0.83189408624E+01  0.72019463484E+01  0.12555732139E+02  0.51100000000E-03 0.  1.
        -12    1    3    3    0    0  0.79704295219E+01 -0.24378647189E+02 -0.26608324071E+02  0.36957395679E+02  0.00000000000E+00 0.  1.
</event>
<event>
 7    1  0.2542335E-015  0.9000773E+02  0.7816164E-02  0.1186339E+00
        -11   -1    0    0    0    0  0.00000000000E+00  0.00000000000E+00  0.45593999997E+02  0.45594000000E+02  0.51100000000E-03 0. -1.
         11   -1    0    0    0    0 -0.00000000000E+00 -0.00000000000E+00 -0.45593999997E+02  0.45594000000E+02  0.51100000000E-03 0.  1.
    9900012    2    1    2    0    0 -0.99432002608E+00 -0.51182690611E+00 -0.37735271925E+00  0.90007731314E+02  0.89999992567E+02 0.  0.
        -12    1    1    2    0    0  0.99432002608E+00  0.51182690611E+00  0.37735271925E+00  0.11802686859E+01  0.00000000000E+00 0.  1.
         11    1    3    3    0    0  0.26320580344E+02 -0.27747827588E+02 -0.17078298825E+01  0.38283567867E+02  0.51100000000E-03 0. -1.
        -11    1    3    3    0    0 -0.61170460706E+01 -0.79272553075E+01 -0.29619098608E+01  0.10441864758E+02  0.51100000000E-03 0.  1.
        -12    1    3    3    0    0 -0.21197854299E+02  0.35163255989E+02  0.42923870241E+01  0.41282298689E+02  0.00000000000E+00 0.  1.
</event>
<event>
 7    1  0.2542335E-015  0.9000772E+02  0.7816164E-02  0.1186339E+00
        -11   -1    0    0    0    0  0.00000000000E+00  0.00000000000E+00  0.45593999997E+02  0.45594000000E+02  0.51100000000E-03 0.  1.
         11   -1    0    0    0    0 -0.00000000000E+00 -0.00000000000E+00 -0.45593999997E+02  0.45594000000E+02  0.51100000000E-03 0. -1.
    9900012    2    1    2    0    0 -0.85310805974E+00  0.71264070195E+00 -0.39674849691E+00  0.90007720583E+02  0.89999981695E+02 0.  0.
        -12    1    1    2    0    0  0.85310805974E+00 -0.71264070195E+00  0.39674849691E+00  0.11802794167E+01  0.00000000000E+00 0.  1.
         11    1    3    3    0    0 -0.35281937193E+02  0.79261224260E+01  0.10112732988E+02  0.37548713394E+02  0.51100000000E-03 0. -1.
        -11    1    3    3    0    0 -0.10237759089E+01 -0.28396649683E+01  0.10562641133E+02  0.10985499634E+02  0.51100000000E-03 0.  1.
        -12    1    3    3    0    0  0.35452605042E+02 -0.43738167557E+01 -0.21072122618E+02  0.41473507555E+02  0.00000000000E+00 0.  1.
</event>
<event>
 7    1  0.2542335E-015  0.9000772E+02  0.7816164E-02  0.1186339E+00
        -11   -1    0    0    0    0  0.00000000000E+00  0.00000000000E+00  0.45593999997E+02  0.45594000000E+02  0.51100000000E-03 0.  1.
         11   -1    0    0    0    0 -0.00000000000E+00 -0.00000000000E+00 -0.45593999997E+02  0.45594000000E+02  0.51100000000E-03 0. -1.
    9900012    2    1    2    0    0  0.44780904565E+00 -0.10787917991E+01 -0.16950088876E+00  0.90007722389E+02  0.89999983525E+02 0.  0.
        -12    1    1    2    0    0 -0.44780904565E+00  0.10787917991E+01  0.16950088876E+00  0.11802776108E+01  0.00000000000E+00 0.  1.
         11    1    3    3    0    0 -0.77481196113E+01  0.45600248677E+01 -0.64282289261E-01  0.89906238259E+01  0.51100000000E-03 0. -1.
        -11    1    3    3    0    0  0.93847355308E+01  0.12092140142E+02 -0.37013402567E+02  0.40053527736E+02  0.51100000000E-03 0.  1.
         12    1    3    3    0    0 -0.11888068738E+01 -0.17730956809E+02  0.36908183968E+02  0.40963570828E+02  0.00000000000E+00 0. -1.
</event>
<event>
 7    1  0.2542335E-015  0.9000776E+02  0.7816164E-02  0.1186339E+00
        -11   -1    0    0    0    0  0.00000000000E+00  0.00000000000E+00  0.45593999997E+02  0.45594000000E+02  0.51100000000E-03 0.  1.
         11   -1    0    0    0    0 -0.00000000000E+00 -0.00000000000E+00 -0.45593999997E+02  0.45594000000E+02  0.51100000000E-03 0. -1.
    9900012    2    1    2    0    0  0.23927366704E+00  0.88423880229E-01 -0.11523456521E+01  0.90007758003E+02  0.90000019608E+02 0.  0.
        -12    1    1    2    0    0 -0.23927366704E+00 -0.88423880229E-01  0.11523456521E+01  0.11802419973E+01  0.00000000000E+00 0.  1.
         11    1    3    3    0    0 -0.89068315555E+01  0.17088158931E+02 -0.32304605395E+02  0.37615480244E+02  0.51100000000E-03 0. -1.
        -11    1    3    3    0    0  0.99215940653E+00  0.77406910213E+01 -0.38968800895E+01  0.87228637768E+01  0.51100000000E-03 0.  1.
        -12    1    3    3    0    0  0.81539458160E+01 -0.24740426072E+02  0.35049139832E+02  0.43669413982E+02  0.00000000000E+00 0.  1.
</event>
<event>
 7    1  0.2542335E-015  0.9000778E+02  0.7816164E-02  0.1186339E+00
        -11   -1    0    0    0    0  0.00000000000E+00  0.00000000000E+00  0.45593999997E+02  0.45594000000E+02  0.51100000000E-03 0. -1.
         11   -1    0    0    0    0 -0.00000000000E+00 -0.00000000000E+00 -0.45593999997E+02  0.45594000000E+02  0.51100000000E-03 0.  1.
    9900012    2    1    2    0    0 -0.29102648221E+00  0.11281830321E+01  0.18822415699E+00  0.90007778961E+02  0.90000040843E+02 0.  0.
        -12    1    1    2    0    0  0.29102648221E+00 -0.11281830321E+01 -0.18822415699E+00  0.11802210388E+01  0.00000000000E+00 0.  1.
         11    1    3    3    0    0  0.90036798508E+01  0.44747145850E+01  0.10005246332E+01  0.10103977993E+02  0.51100000000E-03 0. -1.
        -11    1    3    3    0    0  0.18187240814E+02 -0.33196290014E+02  0.72404484094E+01  0.38538208216E+02  0.51100000000E-03 0.  1.
         12    1    3    3    0    0 -0.27481947147E+02  0.29849758461E+02 -0.80527488857E+01  0.41365592752E+02  0.00000000000E+00 0. -1.
</event>
<event>
 7    1  0.2542335E-015  0.9000785E+02  0.7816164E-02  0.1186339E+00
        -11   -1    0    0    0    0  0.00000000000E+00  0.00000000000E+00  0.45593999997E+02  0.45594000000E+02  0.51100000000E-03 0. -1.
         11   -1    0    0    0    0 -0.00000000000E+00 -0.00000000000E+00 -0.45593999997E+02  0.45594000000E+02  0.51100000000E-03 0.  1.
    9900012    2    1    2    0    0  0.24760305270E+00  0.10742676007E+01  0.42119306030E+00  0.90007846729E+02  0.90000109506E+02 0.  0.
        -12    1    1    2    0    0 -0.24760305270E+00 -0.10742676007E+01 -0.42119306030E+00  0.11801532712E+01  0.00000000000E+00 0.  1.
         11    1    3    3    0    0  0.90769107038E+01  0.29530167427E+02  0.31989321728E+02  0.44471764087E+02  0.51100000000E-03 0. -1.
        -11    1    3    3    0    0  0.29708253593E+01 -0.61733338581E+01 -0.31371859752E+01  0.75351038707E+01  0.51100000000E-03 0.  1.
        -12    1    3    3    0    0 -0.11800133010E+02 -0.22282565968E+02 -0.28430942692E+02  0.38000978771E+02  0.00000000000E+00 0.  1.
</event>
<event>
 7    1  0.2542335E-015  0.9000777E+02  0.7816164E-02  0.1186339E+00
        -11   -1    0    0    0    0  0.00000000000E+00  0.00000000000E+00  0.45593999997E+02  0.45594000000E+02  0.51100000000E-03 0. -1.
         11   -1    0    0    0    0 -0.00000000000E+00 -0.00000000000E+00 -0.45593999997E+02  0.45594000000E+02  0.51100000000E-03 0.  1.
    9900012    2    1    2    0    0  0.11252855408E+01  0.34650715329E+00  0.81351958512E-01  0.90007765745E+02  0.90000027453E+02 0.  0.
        -12    1    1    2    0    0 -0.11252855408E+01 -0.34650715329E+00 -0.81351958512E-01  0.11802342551E+01  0.00000000000E+00 0.  1.
         11    1    3    3    0    0  0.76673631185E+01  0.17652902742E+02 -0.46695123341E+01  0.19804488838E+02  0.51100000000E-03 0. -1.
        -11    1    3    3    0    0  0.13667485799E+02  0.15228432844E+02 -0.16604125093E+02  0.26351514289E+02  0.51100000000E-03 0.  1.
         12    1    3    3    0    0 -0.20209563377E+02 -0.32534828433E+02  0.21354989386E+02  0.43851762618E+02  0.00000000000E+00 0. -1.
</event>
<event>
 7    1  0.2542335E-015  0.9000794E+02  0.7816164E-02  0.1186339E+00
        -11   -1    0    0    0    0  0.00000000000E+00  0.00000000000E+00  0.45593999997E+02  0.45594000000E+02  0.51100000000E-03 0.  1.
         11   -1    0    0    0    0 -0.00000000000E+00 -0.00000000000E+00 -0.45593999997E+02  0.45594000000E+02  0.51100000000E-03 0. -1.
    9900012    2    1    2    0    0 -0.99449595688E+00  0.61156712263E+00 -0.17175449084E+00  0.90007942307E+02  0.90000206345E+02 0.  0.
        -12    1    1    2    0    0  0.99449595688E+00 -0.61156712263E+00  0.17175449084E+00  0.11800576930E+01  0.00000000000E+00 0.  1.
         11    1    3    3    0    0 -0.14879307795E+01  0.80298532623E+01  0.63994746804E+01  0.10375247364E+02  0.51100000000E-03 0. -1.
        -11    1    3    3    0    0  0.25978591628E+02 -0.16963014434E+02 -0.30417367396E+02  0.43449365027E+02  0.51100000000E-03 0.  1.
         12    1    3    3    0    0 -0.25485156805E+02  0.95447282939E+01  0.23846138225E+02  0.36183329916E+02  0.00000000000E+00 0. -1.
</event>
<event>
 7    1  0.2542335E-015  0.9000778E+02  0.7816164E-02  0.1186339E+00
        -11   -1    0    0    0    0  0.00000000000E+00  0.00000000000E+00  0.45593999997E+02  0.45594000000E+02  0.51100000000E-03 0.  1.
         11   -1    0    0    0    0 -0.00000000000E+00 -0.00000000000E+00 -0.45593999997E+02  0.45594000000E+02  0.51100000000E-03 0. -1.
    9900012    2    1    2    0    0  0.81242078650E+00 -0.15907389739E+00 -0.84118518825E+00  0.90007777750E+02  0.90000039616E+02 0.  0.
        -12    1    1    2    0    0 -0.81242078650E+00  0.15907389739E+00  0.84118518825E+00  0.11802222503E+01  0.00000000000E+00 0.  1.
         11    1    3    3    0    0  0.33999521048E+02 -0.83700276090E+01 -0.17499439493E+02  0.39144031173E+02  0.51100000000E-03 0. -1.
        -11    1    3    3    0    0  0.49095288139E+01  0.66213329310E+01 -0.18976753668E+01  0.84585279462E+01  0.51100000000E-03 0.  1.
        -12    1    3    3    0    0 -0.38096629075E+02  0.15896207806E+01  0.18555929671E+02  0.42405218630E+02  0.00000000000E+00 0.  1.
</event>
<event>
 7    1  0.2542335E-015  0.9000743E+02  0.7816164E-02  0.1186340E+00
        -11   -1    0    0    0    0  0.00000000000E+00  0.00000000000E+00  0.45593999997E+02  0.45594000000E+02  0.51100000000E-03 0.  1.
         11   -1    0    0    0    0 -0.00000000000E+00 -0.00000000000E+00 -0.45593999997E+02  0.45594000000E+02  0.51100000000E-03 0. -1.
    9900012    2    1    2    0    0  0.93373782215E+00  0.26042497067E-01 -0.72193708057E+00  0.90007433322E+02  0.89999690642E+02 0.  0.
        -12    1    1    2    0    0 -0.93373782215E+00 -0.26042497067E-01  0.72193708057E+00  0.11805666777E+01  0.00000000000E+00 0.  1.
         11    1    3    3    0    0 -0.31760562457E+02  0.22721489671E+02 -0.12167192065E+02  0.40902811437E+02  0.51100000000E-03 0. -1.
        -11    1    3    3    0    0  0.92785431187E+01 -0.48573266774E+01 -0.85496063239E+01  0.13519643243E+02  0.51100000000E-03 0.  1.
        -12    1    3    3    0    0  0.23415757160E+02 -0.17838120497E+02  0.19994861308E+02  0.35584978642E+02  0.00000000000E+00 0.  1.
</event>
<event>
 7    1  0.2542335E-015  0.9000777E+02  0.7816164E-02  0.1186339E+00
        -11   -1    0    0    0    0  0.00000000000E+00  0.00000000000E+00  0.45593999997E+02  0.45594000000E+02  0.51100000000E-03 0.  1.
         11   -1    0    0    0    0 -0.00000000000E+00 -0.00000000000E+00 -0.45593999997E+02  0.45594000000E+02  0.51100000000E-03 0. -1.
    9900012    2    1    2    0    0 -0.42200525030E+00 -0.91741589591E+00 -0.61090339877E+00  0.90007769802E+02  0.90000031564E+02 0.  0.
        -12    1    1    2    0    0  0.42200525030E+00  0.91741589591E+00  0.61090339877E+00  0.11802301979E+01  0.00000000000E+00 0.  1.
         11    1    3    3    0    0  0.58632327942E+01  0.67046371318E+01  0.46153332037E+00  0.89186698075E+01  0.51100000000E-03 0. -1.
        -11    1    3    3    0    0 -0.29265701967E+01 -0.25157389442E+02  0.33607962179E+02  0.42082706409E+02  0.51100000000E-03 0.  1.
         12    1    3    3    0    0 -0.33586678479E+01  0.17535336414E+02 -0.34680398898E+02  0.39006393586E+02  0.00000000000E+00 0. -1.
</event>
<event>
 7    1  0.2542335E-015  0.9000776E+02  0.7816164E-02  0.1186339E+00
        -11   -1    0    0    0    0  0.00000000000E+00  0.00000000000E+00  0.45593999997E+02  0.45594000000E+02  0.51100000000E-03 0.  1.
         11   -1    0    0    0    0 -0.00000000000E+00 -0.00000000000E+00 -0.45593999997E+02  0.45594000000E+02  0.51100000000E-03 0. -1.
    9900012    2    1    2    0    0  0.96714557818E+00  0.55971867993E+00 -0.37987896112E+00  0.90007761213E+02  0.90000022861E+02 0.  0.
        -12    1    1    2    0    0 -0.96714557818E+00 -0.55971867993E+00  0.37987896112E+00  0.11802387874E+01  0.00000000000E+00 0.  1.
         11    1    3    3    0    0  0.11091872346E+02 -0.24458492093E+02 -0.25526216242E+02  0.37051790558E+02  0.51100000000E-03 0. -1.
        -11    1    3    3    0    0  0.75559341512E+01  0.54891627135E+01 -0.67971535731E+01  0.11550945639E+02  0.51100000000E-03 0.  1.
        -12    1    3    3    0    0 -0.17680660919E+02  0.19529048060E+02  0.31943490854E+02  0.41405025016E+02  0.00000000000E+00 0.  1.
</event>
<event>
 7    1  0.2542335E-015  0.9000783E+02  0.7816164E-02  0.1186339E+00
        -11   -1    0    0    0    0  0.00000000000E+00  0.00000000000E+00  0.45593999997E+02  0.45594000000E+02  0.51100000000E-03 0.  1.
         11   -1    0    0    0    0 -0.00000000000E+00 -0.00000000000E+00 -0.45593999997E+02  0.45594000000E+02  0.51100000000E-03 0. -1.
    9900012    2    1    2    0    0  0.10712676795E+01  0.14888537217E+00 -0.47224743896E+00  0.90007830970E+02  0.90000093539E+02 0.  0.
        -12    1    1    2    0    0 -0.10712676795E+01 -0.14888537217E+00  0.47224743896E+00  0.11801690297E+01  0.00000000000E+00 0.  1.
         11    1    3    3    0    0  0.46642940047E+01 -0.11356098669E+02  0.16490194733E+01  0.12386923792E+02  0.51100000000E-03 0. -1.
        -11    1    3    3    0    0  0.41154920454E+01  0.52882429381E+01  0.36827874696E+02  0.37432541232E+02  0.51100000000E-03 0.  1.
        -12    1    3    3    0    0 -0.77085183706E+01  0.62167411032E+01 -0.38949141609E+02  0.40188365947E+02  0.00000000000E+00 0.  1.
</event>
<event>
 7    1  0.2542335E-015  0.9000772E+02  0.7816164E-02  0.1186339E+00
        -11   -1    0    0    0    0  0.00000000000E+00  0.00000000000E+00  0.45593999997E+02  0.45594000000E+02  0.51100000000E-03 0. -1.
         11   -1    0    0    0    0 -0.00000000000E+00 -0.00000000000E+00 -0.45593999997E+02  0.45594000000E+02  0.51100000000E-03 0.  1.
    9900012    2    1    2    0    0 -0.34340706045E-01 -0.77416739100E+00  0.89024571590E+00  0.90007723817E+02  0.89999984971E+02 0.  0.
        -12    1    1    2    0    0  0.34340706045E-01  0.77416739100E+00 -0.89024571590E+00  0.11802761830E+01  0.00000000000E+00 0.  1.
         11    1    3    3    0    0 -0.77517704486E+01 -0.80237698739E+01  0.14312880209E+02  0.18147434204E+02  0.51100000000E-03 0. -1.
        -11    1    3    3    0    0  0.35399514074E+02  0.15178364206E+02 -0.18320563174E+02  0.42651510782E+02  0.51100000000E-03 0.  1.
         12    1    3    3    0    0 -0.27682084332E+02 -0.79287617235E+01  0.48979286816E+01  0.29208778831E+02  0.00000000000E+00 0. -1.
</event>
<event>
 7    1  0.2542335E-015  0.9000778E+02  0.7816164E-02  0.1186339E+00
        -11   -1    0    0    0    0  0.00000000000E+00  0.00000000000E+00  0.45593999997E+02  0.45594000000E+02  0.51100000000E-03 0. -1.
         11   -1    0    0    0    0 -0.00000000000E+00 -0.00000000000E+00 -0.45593999997E+02  0.45594000000E+02  0.51100000000E-03 0.  1.
    9900012    2    1    2    0    0 -0.31920522068E+00  0.49716522392E+00  0.10216929460E+01  0.90007778958E+02  0.90000040840E+02 0.  0.
        -12    1    1    2    0    0  0.31920522068E+00 -0.49716522392E+00 -0.10216929460E+01  0.11802210423E+01  0.00000000000E+00 0.  1.
         11    1    3    3    0    0  0.10431053746E+02 -0.21396196293E+00 -0.90881666689E+01  0.13836453145E+02  0.51100000000E-03 0. -1.
        -11    1    3    3    0    0  0.15992381948E+02  0.29224716400E+02 -0.60707338063E+01  0.33862872563E+02  0.51100000000E-03 0.  1.
         12    1    3    3    0    0 -0.26742640914E+02 -0.28513589213E+02  0.16180593421E+02  0.42308453249E+02  0.00000000000E+00 0. -1.
</event>
<event>
 7    1  0.2542335E-015  0.9000780E+02  0.7816164E-02  0.1186339E+00
        -11   -1    0    0    0    0  0.00000000000E+00  0.00000000000E+00  0.45593999997E+02  0.45594000000E+02  0.51100000000E-03 0. -1.
         11   -1    0    0    0    0 -0.00000000000E+00 -0.00000000000E+00 -0.45593999997E+02  0.45594000000E+02  0.51100000000E-03 0.  1.
    9900012    2    1    2    0    0  0.30868258551E+00  0.88782944711E+00  0.71368406226E+00  0.90007800438E+02  0.90000062604E+02 0.  0.
        -12    1    1    2    0    0 -0.30868258551E+00 -0.88782944711E+00 -0.71368406226E+00  0.11801995621E+01  0.00000000000E+00 0.  1.
         11    1    3    3    0    0 -0.76730529519E+01  0.80712362562E+01  0.97416524358E+00  0.11178980029E+02  0.51100000000E-03 0. -1.
        -11    1    3    3    0    0  0.25820514654E+01  0.18323931622E+02 -0.32479955742E+02  0.37381559427E+02  0.51100000000E-03 0.  1.
         12    1    3    3    0    0  0.53996840719E+01 -0.25507338432E+02  0.32219474561E+02  0.41447260982E+02  0.00000000000E+00 0. -1.
</event>
<event>
 7    1  0.2542335E-015  0.9000762E+02  0.7816164E-02  0.1186339E+00
        -11   -1    0    0    0    0  0.00000000000E+00  0.00000000000E+00  0.45593999997E+02  0.45594000000E+02  0.51100000000E-03 0.  1.
         11   -1    0    0    0    0 -0.00000000000E+00 -0.00000000000E+00 -0.45593999997E+02  0.45594000000E+02  0.51100000000E-03 0. -1.
    9900012    2    1    2    0    0  0.45882423832E+00  0.17510238780E+00 -0.10733615915E+01  0.90007624791E+02  0.89999884638E+02 0.  0.
        -12    1    1    2    0    0 -0.45882423832E+00 -0.17510238780E+00  0.10733615915E+01  0.11803752090E+01  0.00000000000E+00 0.  1.
         11    1    3    3    0    0  0.60056326639E+01 -0.24175053608E+01 -0.88723902995E+01  0.10983226564E+02  0.51100000000E-03 0. -1.
        -11    1    3    3    0    0  0.33320966504E+02  0.14428182362E+01  0.19224111378E+02  0.38495908767E+02  0.51100000000E-03 0.  1.
         12    1    3    3    0    0 -0.38867774930E+02  0.11497895124E+01 -0.11425082670E+02  0.40528489460E+02  0.00000000000E+00 0. -1.
</event>
<event>
 7    1  0.2542335E-015  0.9000773E+02  0.7816164E-02  0.1186339E+00
        -11   -1    0    0    0    0  0.00000000000E+00  0.00000000000E+00  0.45593999997E+02  0.45594000000E+02  0.51100000000E-03 0.  1.
         11   -1    0    0    0    0 -0.00000000000E+00 -0.00000000000E+00 -0.45593999997E+02  0.45594000000E+02  0.51100000000E-03 0. -1.
    9900012    2    1    2    0    0  0.27406334468E-01  0.10992887590E+01 -0.42878001623E+00  0.90007729190E+02  0.89999990415E+02 0.  0.
        -12    1    1    2    0    0 -0.27406334468E-01 -0.10992887590E+01  0.42878001623E+00  0.11802708101E+01  0.00000000000E+00 0.  1.
         11    1    3    3    0    0  0.96322127669E+01  0.34891661611E+02 -0.21700741008E+02  0.42203432720E+02  0.51100000000E-03 0. -1.
        -11    1    3    3    0    0 -0.20776355457E+01 -0.66350308014E+01 -0.55523621938E+01  0.88976923631E+01  0.51100000000E-03 0.  1.
        -12    1    3    3    0    0 -0.75271708868E+01 -0.27157342051E+02  0.26824323185E+02  0.38906604107E+02  0.00000000000E+00 0.  1.
</event>
<event>
 7    1  0.2542335E-015  0.9000776E+02  0.7816164E-02  0.1186339E+00
        -11   -1    0    0    0    0  0.00000000000E+00  0.00000000000E+00  0.45593999997E+02  0.45594000000E+02  0.51100000000E-03 0.  1.
         11   -1    0    0    0    0 -0.00000000000E+00 -0.00000000000E+00 -0.45593999997E+02  0.45594000000E+02  0.51100000000E-03 0. -1.
    9900012    2    1    2    0    0  0.60519968179E-01  0.87389512823E+00 -0.79095483108E+00  0.90007760657E+02  0.90000022298E+02 0.  0.
        -12    1    1    2    0    0 -0.60519968179E-01 -0.87389512823E+00  0.79095483108E+00  0.11802393429E+01  0.00000000000E+00 0.  1.
         11    1    3    3    0    0 -0.33208847590E+00 -0.12445419836E+01  0.10755112198E+02  0.10831971481E+02  0.51100000000E-03 0. -1.
        -11    1    3    3    0    0 -0.10058116268E+02  0.38505867639E+02 -0.73762625322E+00  0.39804668549E+02  0.51100000000E-03 0.  1.
         12    1    3    3    0    0  0.10450724712E+02 -0.36387430528E+02 -0.10808440776E+02  0.39371120627E+02  0.00000000000E+00 0. -1.
</event>
<event>
 7    1  0.2736155E-015  0.9000764E+02  0.7816164E-02  0.1186339E+00
        -11   -1    0    0    0    0  0.00000000000E+00  0.00000000000E+00  0.45593999997E+02  0.45594000000E+02  0.51100000000E-03 0. -1.
         11   -1    0    0    0    0 -0.00000000000E+00 -0.00000000000E+00 -0.45593999997E+02  0.45594000000E+02  0.51100000000E-03 0.  1.
    9900012    2    1    2    0    0  0.57127340882E+00 -0.32393339904E+00  0.98080172780E+00  0.90007636419E+02  0.89999896419E+02 0.  0.
        -12    1    1    2    0    0 -0.57127340882E+00  0.32393339904E+00 -0.98080172780E+00  0.11803635812E+01  0.00000000000E+00 0.  1.
         11    1    3    3    0    0 -0.73890766501E+01 -0.47030690185E+01  0.27608019988E+01  0.91836452388E+01  0.51100000000E-03 0. -1.
        -11    1    3    3    0    0  0.13146777288E+02 -0.96630860695E+01 -0.38150680961E+02  0.41493221657E+02  0.51100000000E-03 0.  1.
         12    1    3    3    0    0 -0.51864272290E+01  0.14042221689E+02  0.36370680690E+02  0.39330769523E+02  0.00000000000E+00 0. -1.
</event>
<event>
 7    1  0.2542335E-015  0.9000779E+02  0.7816164E-02  0.1186339E+00
        -11   -1    0    0    0    0  0.00000000000E+00  0.00000000000E+00  0.45593999997E+02  0.45594000000E+02  0.51100000000E-03 0. -1.
         11   -1    0    0    0    0 -0.00000000000E+00 -0.00000000000E+00 -0.45593999997E+02  0.45594000000E+02  0.51100000000E-03 0.  1.
    9900012    2    1    2    0    0 -0.50743690958E+00  0.83943417911E-01  0.10622461314E+01  0.90007785800E+02  0.90000047772E+02 0.  0.
        -12    1    1    2    0    0  0.50743690958E+00 -0.83943417911E-01 -0.10622461314E+01  0.11802142002E+01  0.00000000000E+00 0.  1.
         11    1    3    3    0    0 -0.21770319941E+02  0.59465957472E+01  0.28845804949E+02  0.36624981839E+02  0.51100000000E-03 0. -1.
        -11    1    3    3    0    0 -0.78964389988E+01 -0.21267000519E+01  0.48121331879E+01  0.94885840910E+01  0.51100000000E-03 0.  1.
        -12    1    3    3    0    0  0.29159322030E+02 -0.37359522774E+01 -0.32595692005E+02  0.43894219870E+02  0.00000000000E+00 0.  1.
</event>
<event>
 7    1  0.2542335E-015  0.9000765E+02  0.7816164E-02  0.1186339E+00
        -11   -1    0    0    0    0  0.00000000000E+00  0.00000000000E+00  0.45593999997E+02  0.45594000000E+02  0.51100000000E-03 0.  1.
         11   -1    0    0    0    0 -0.00000000000E+00 -0.00000000000E+00 -0.45593999997E+02  0.45594000000E+02  0.51100000000E-03 0. -1.
    9900012    2    1    2    0    0 -0.50370090860E+00  0.89721088819E+00 -0.57837716062E+00  0.90007651694E+02  0.89999911896E+02 0.  0.
        -12    1    1    2    0    0  0.50370090860E+00 -0.89721088819E+00  0.57837716062E+00  0.11803483059E+01  0.00000000000E+00 0.  1.
         11    1    3    3    0    0  0.35476305388E+01  0.39640776429E+02 -0.94529823280E+01  0.40906426311E+02  0.51100000000E-03 0. -1.
        -11    1    3    3    0    0  0.90802822702E+01 -0.20564485343E+01  0.22101655266E+01  0.95689779285E+01  0.51100000000E-03 0.  1.
        -12    1    3    3    0    0 -0.13131613718E+02 -0.36687117007E+02  0.66644396408E+01  0.39532247455E+02  0.00000000000E+00 0.  1.
</event>
<event>
 7    1  0.2542335E-015  0.9000764E+02  0.7816164E-02  0.1186339E+00
        -11   -1    0    0    0    0  0.00000000000E+00  0.00000000000E+00  0.45593999997E+02  0.45594000000E+02  0.51100000000E-03 0. -1.
         11   -1    0    0    0    0 -0.00000000000E+00 -0.00000000000E+00 -0.45593999997E+02  0.45594000000E+02  0.51100000000E-03 0.  1.
    9900012    2    1    2    0    0 -0.63160946591E+00 -0.97356794261E+00  0.21558246799E+00  0.90007643759E+02  0.89999903856E+02 0.  0.
        -12    1    1    2    0    0  0.63160946591E+00  0.97356794261E+00 -0.21558246799E+00  0.11803562415E+01  0.00000000000E+00 0.  1.
         11    1    3    3    0    0  0.13428561187E+01 -0.39551694137E+01 -0.10186449856E+02  0.11009558964E+02  0.51100000000E-03 0. -1.
        -11    1    3    3    0    0 -0.17100813257E+02  0.37044608219E+02  0.85117364939E+01  0.41679616967E+02  0.51100000000E-03 0.  1.
         12    1    3    3    0    0  0.15126347672E+02 -0.34063006748E+02  0.18902958306E+01  0.37318467827E+02  0.00000000000E+00 0. -1.
</event>
<event>
 7    1  0.2542335E-015  0.9000773E+02  0.7816164E-02  0.1186339E+00
        -11   -1    0    0    0    0  0.00000000000E+00  0.00000000000E+00  0.45593999997E+02  0.45594000000E+02  0.51100000000E-03 0.  1.
         11   -1    0    0    0    0 -0.00000000000E+00 -0.00000000000E+00 -0.45593999997E+02  0.45594000000E+02  0.51100000000E-03 0. -1.
    9900012    2    1    2    0    0  0.26860388673E+00 -0.92930156885E-01  0.11455413039E+01  0.90007725057E+02  0.89999986228E+02 0.  0.
        -12    1    1    2    0    0 -0.26860388673E+00  0.92930156885E-01 -0.11455413039E+01  0.11802749429E+01  0.00000000000E+00 0.  1.
         11    1    3    3    0    0  0.91344423872E+01  0.28493134580E+02 -0.36498813543E+01  0.30143297598E+02  0.51100000000E-03 0. -1.
        -11    1    3    3    0    0 -0.10948181521E+02  0.13557549633E+02  0.25278148451E+01  0.17608511545E+02  0.51100000000E-03 0.  1.
        -12    1    3    3    0    0  0.20823430210E+01 -0.42143614369E+02  0.22676078130E+01  0.42255915914E+02  0.00000000000E+00 0.  1.
</event>
<event>
 7    1  0.2542335E-015  0.9000774E+02  0.7816164E-02  0.1186339E+00
        -11   -1    0    0    0    0  0.00000000000E+00  0.00000000000E+00  0.45593999997E+02  0.45594000000E+02  0.51100000000E-03 0. -1.
         11   -1    0    0    0    0 -0.00000000000E+00 -0.00000000000E+00 -0.45593999997E+02  0.45594000000E+02  0.51100000000E-03 0.  1.
    9900012    2    1    2    0    0 -0.25146922591E+00  0.11209337816E+01 -0.27072735260E+00  0.90007736210E+02  0.89999997528E+02 0.  0.
        -12    1    1    2    0    0  0.25146922591E+00 -0.11209337816E+01  0.27072735260E+00  0.11802637899E+01  0.00000000000E+00 0.  1.
         11    1    3    3    0    0 -0.25919938946E+00 -0.41533544765E+01  0.77236873288E+01  0.87734191707E+01  0.51100000000E-03 0. -1.
        -11    1    3    3    0    0  0.10097948194E+02 -0.29273791366E+02 -0.26505957508E+02  0.40761368995E+02  0.51100000000E-03 0.  1.
         12    1    3    3    0    0 -0.10090218031E+02  0.34548079624E+02  0.18511542826E+02  0.40472948045E+02  0.00000000000E+00 0. -1.
</event>
<event>
 7    1  0.2542335E-015  0.9000761E+02  0.7816164E-02  0.1186339E+00
        -11   -1    0    0    0    0  0.00000000000E+00  0.00000000000E+00  0.45593999997E+02  0.45594000000E+02  0.51100000000E-03 0. -1.
         11   -1    0    0    0    0 -0.00000000000E+00 -0.00000000000E+00 -0.45593999997E+02  0.45594000000E+02  0.51100000000E-03 0.  1.
    9900012    2    1    2    0    0 -0.11617165136E+01 -0.53851768576E-02 -0.20905291989E+00  0.90007611343E+02  0.89999871013E+02 0.  0.
        -12    1    1    2    0    0  0.11617165136E+01  0.53851768576E-02  0.20905291989E+00  0.11803886569E+01  0.00000000000E+00 0.  1.
         11    1    3    3    0    0  0.22127764364E+02 -0.33089790875E+00  0.30686692353E+02  0.37834118689E+02  0.51100000000E-03 0. -1.
        -11    1    3    3    0    0  0.70678533834E+01  0.60465905495E+01 -0.12985838881E+01  0.93915988574E+01  0.51100000000E-03 0.  1.
        -12    1    3    3    0    0 -0.30357334261E+02 -0.57210778176E+01 -0.29597161384E+02  0.42781893797E+02  0.00000000000E+00 0.  1.
</event>
<event>
 7    1  0.2542335E-015  0.9000778E+02  0.7816164E-02  0.1186339E+00
        -11   -1    0    0    0    0  0.00000000000E+00  0.00000000000E+00  0.45593999997E+02  0.45594000000E+02  0.51100000000E-03 0.  1.
         11   -1    0    0    0    0 -0.00000000000E+00 -0.00000000000E+00 -0.45593999997E+02  0.45594000000E+02  0.51100000000E-03 0. -1.
    9900012    2    1    2    0    0  0.27399053168E+00 -0.90313807185E-01 -0.11444137634E+01  0.90007783809E+02  0.90000045755E+02 0.  0.
        -12    1    1    2    0    0 -0.27399053168E+00  0.90313807185E-01  0.11444137634E+01  0.11802161908E+01  0.00000000000E+00 0.  1.
         11    1    3    3    0    0 -0.23259160706E+01  0.10436221549E+02  0.40638455874E+01  0.11438507201E+02  0.51100000000E-03 0. -1.
        -11    1    3    3    0    0 -0.18047409492E+02  0.10722866260E+02  0.27395731728E+02  0.34513982201E+02  0.51100000000E-03 0.  1.
         12    1    3    3    0    0  0.20647316094E+02 -0.21249401616E+02 -0.32603991079E+02  0.44055294406E+02  0.00000000000E+00 0. -1.
</event>
<event>
 7    1  0.2542335E-015  0.9000768E+02  0.7816164E-02  0.1186339E+00
        -11   -1    0    0    0    0  0.00000000000E+00  0.00000000000E+00  0.45593999997E+02  0.45594000000E+02  0.51100000000E-03 0. -1.
         11   -1    0    0    0    0 -0.00000000000E+00 -0.00000000000E+00 -0.45593999997E+02  0.45594000000E+02  0.51100000000E-03 0.  1.
    9900012    2    1    2    0    0 -0.93851742432E+00  0.57343427069E+00 -0.42838472027E+00  0.90007680006E+02  0.89999940583E+02 0.  0.
        -12    1    1    2    0    0  0.93851742432E+00 -0.57343427069E+00  0.42838472027E+00  0.11803199935E+01  0.00000000000E+00 0.  1.
         11    1    3    3    0    0  0.52444320029E+01  0.64178282565E+01 -0.16592317029E+01  0.84525520801E+01  0.51100000000E-03 0. -1.
        -11    1    3    3    0    0  0.10034352029E+02 -0.11751660732E+02 -0.36733543574E+02  0.39851511569E+02  0.51100000000E-03 0.  1.
         12    1    3    3    0    0 -0.16217301456E+02  0.59072667467E+01  0.37964390557E+02  0.41703616357E+02  0.00000000000E+00 0. -1.
</event>
<event>
 7    1  0.2542335E-015  0.9000778E+02  0.7816164E-02  0.1186339E+00
        -11   -1    0    0    0    0  0.00000000000E+00  0.00000000000E+00  0.45593999997E+02  0.45594000000E+02  0.51100000000E-03 0. -1.
         11   -1    0    0    0    0 -0.00000000000E+00 -0.00000000000E+00 -0.45593999997E+02  0.45594000000E+02  0.51100000000E-03 0.  1.
    9900012    2    1    2    0    0 -0.11463231071E+01 -0.27894563804E+00  0.32487482166E-01  0.90007778508E+02  0.90000040384E+02 0.  0.
        -12    1    1    2    0    0  0.11463231071E+01  0.27894563804E+00 -0.32487482166E-01  0.11802214925E+01  0.00000000000E+00 0.  1.
         11    1    3    3    0    0 -0.35937059724E-02 -0.33680774692E+02  0.16914496396E+02  0.37689451911E+02  0.51100000000E-03 0. -1.
        -11    1    3    3    0    0 -0.30009223481E+00 -0.73381860071E+01 -0.75130238216E+01  0.10506405495E+02  0.51100000000E-03 0.  1.
        -12    1    3    3    0    0 -0.84263716631E+00  0.40740015061E+02 -0.93689850925E+01  0.41811921101E+02  0.00000000000E+00 0.  1.
</event>
<event>
 7    1  0.2542335E-015  0.9000793E+02  0.7816164E-02  0.1186339E+00
        -11   -1    0    0    0    0  0.00000000000E+00  0.00000000000E+00  0.45593999997E+02  0.45594000000E+02  0.51100000000E-03 0.  1.
         11   -1    0    0    0    0 -0.00000000000E+00 -0.00000000000E+00 -0.45593999997E+02  0.45594000000E+02  0.51100000000E-03 0. -1.
    9900012    2    1    2    0    0  0.10802062931E+01 -0.46903252517E+00  0.75744150059E-01  0.90007926137E+02  0.90000189962E+02 0.  0.
        -12    1    1    2    0    0 -0.10802062931E+01  0.46903252517E+00 -0.75744150059E-01  0.11800738628E+01  0.00000000000E+00 0.  1.
         11    1    3    3    0    0 -0.28764758341E+02  0.11723694868E+02  0.18144985374E+02  0.35973557487E+02  0.51100000000E-03 0. -1.
        -11    1    3    3    0    0 -0.94280400419E+01 -0.69248133443E+00 -0.40384473600E+00  0.94620589864E+01  0.51100000000E-03 0.  1.
        -12    1    3    3    0    0  0.39273004676E+02 -0.11500246059E+02 -0.17665396488E+02  0.44572309664E+02  0.00000000000E+00 0.  1.
</event>
<event>
 7    1  0.2542335E-015  0.9000730E+02  0.7816164E-02  0.1186340E+00
        -11   -1    0    0    0    0  0.00000000000E+00  0.00000000000E+00  0.45593999997E+02  0.45594000000E+02  0.51100000000E-03 0.  1.
         11   -1    0    0    0    0 -0.00000000000E+00 -0.00000000000E+00 -0.45593999997E+02  0.45594000000E+02  0.51100000000E-03 0. -1.
    9900012    2    1    2    0    0 -0.25545440411E+00  0.37677416984E-02 -0.11527268116E+01  0.90007300948E+02  0.89999556520E+02 0.  0.
        -12    1    1    2    0    0  0.25545440411E+00 -0.37677416984E-02  0.11527268116E+01  0.11806990517E+01  0.00000000000E+00 0.  1.
         11    1    3    3    0    0  0.24948210263E+02  0.26411525047E+02 -0.56292958340E+00  0.36335915299E+02  0.51100000000E-03 0. -1.
        -11    1    3    3    0    0  0.58679580251E+01  0.42989568811E+01  0.60799700279E+01  0.94805061811E+01  0.51100000000E-03 0.  1.
        -12    1    3    3    0    0 -0.31071622693E+02 -0.30706714187E+02 -0.66697672561E+01  0.44190879468E+02  0.00000000000E+00 0.  1.
</event>
<event>
 7    1  0.2542335E-015  0.9000788E+02  0.7816164E-02  0.1186339E+00
        -11   -1    0    0    0    0  0.00000000000E+00  0.00000000000E+00  0.45593999997E+02  0.45594000000E+02  0.51100000000E-03 0. -1.
         11   -1    0    0    0    0 -0.00000000000E+00 -0.00000000000E+00 -0.45593999997E+02  0.45594000000E+02  0.51100000000E-03 0.  1.
    9900012    2    1    2    0    0  0.67447170717E+00 -0.24119523237E+00  0.93786652571E+00  0.90007881004E+02  0.90000144233E+02 0.  0.
        -12    1    1    2    0    0 -0.67447170717E+00  0.24119523237E+00 -0.93786652571E+00  0.11801189957E+01  0.00000000000E+00 0.  1.
         11    1    3    3    0    0  0.27465617943E+02 -0.47022869836E+01  0.25887887307E+02  0.38034910034E+02  0.51100000000E-03 0. -1.
        -11    1    3    3    0    0  0.59271758553E+01 -0.55862755500E+01  0.20269251454E+01  0.83932302450E+01  0.51100000000E-03 0.  1.
        -12    1    3    3    0    0 -0.32718322091E+02  0.10047367301E+02 -0.26976945927E+02  0.43579740725E+02  0.00000000000E+00 0.  1.
</event>
<event>
 7    1  0.2542335E-015  0.9000777E+02  0.7816164E-02  0.1186339E+00
        -11   -1    0    0    0    0  0.00000000000E+00  0.00000000000E+00  0.45593999997E+02  0.45594000000E+02  0.51100000000E-03 0.  1.
         11   -1    0    0    0    0 -0.00000000000E+00 -0.00000000000E+00 -0.45593999997E+02  0.45594000000E+02  0.51100000000E-03 0. -1.
    9900012    2    1    2    0    0  0.23407678709E+00 -0.99860843535E+00 -0.58389412345E+00  0.90007769897E+02  0.90000031659E+02 0.  0.
        -12    1    1    2    0    0 -0.23407678709E+00  0.99860843535E+00  0.58389412345E+00  0.11802301033E+01  0.00000000000E+00 0.  1.
         11    1    3    3    0    0  0.19446826624E+02  0.25898947392E+02 -0.87722638956E+01  0.33554241995E+02  0.51100000000E-03 0. -1.
        -11    1    3    3    0    0  0.39377099180E+01  0.74328698586E+01  0.12237141685E+02  0.14849267679E+02  0.51100000000E-03 0.  1.
        -12    1    3    3    0    0 -0.23150459755E+02 -0.34330425686E+02 -0.40487719126E+01  0.41604260222E+02  0.00000000000E+00 0.  1.
</event>
<event>
 7    1  0.2542335E-015  0.9000772E+02  0.7816164E-02  0.1186339E+00
        -11   -1    0    0    0    0  0.00000000000E+00  0.00000000000E+00  0.45593999997E+02  0.45594000000E+02  0.51100000000E-03 0. -1.
         11   -1    0    0    0    0 -0.00000000000E+00 -0.00000000000E+00 -0.45593999997E+02  0.45594000000E+02  0.51100000000E-03 0.  1.
    9900012    2    1    2    0    0 -0.77996494633E+00 -0.30573866619E+00 -0.83141035175E+00  0.90007718414E+02  0.89999979497E+02 0.  0.
        -12    1    1    2    0    0  0.77996494633E+00  0.30573866619E+00  0.83141035175E+00  0.11802815861E+01  0.00000000000E+00 0.  1.
         11    1    3    3    0    0 -0.21341182528E+02  0.12203204483E+02 -0.29432608611E+02  0.38348959845E+02  0.51100000000E-03 0. -1.
        -11    1    3    3    0    0 -0.92097143451E+01  0.26201718580E+01  0.74156960455E+01  0.12111015110E+02  0.51100000000E-03 0.  1.
        -12    1    3    3    0    0  0.29770931926E+02 -0.15129115007E+02  0.21185502214E+02  0.39547743459E+02  0.00000000000E+00 0.  1.
</event>
<event>
 7    1  0.2542335E-015  0.9000763E+02  0.7816164E-02  0.1186339E+00
        -11   -1    0    0    0    0  0.00000000000E+00  0.00000000000E+00  0.45593999997E+02  0.45594000000E+02  0.51100000000E-03 0.  1.
         11   -1    0    0    0    0 -0.00000000000E+00 -0.00000000000E+00 -0.45593999997E+02  0.45594000000E+02  0.51100000000E-03 0. -1.
    9900012    2    1    2    0    0 -0.11937123360E+00 -0.10658323051E+01 -0.49297787610E+00  0.90007629219E+02  0.89999889125E+02 0.  0.
        -12    1    1    2    0    0  0.11937123360E+00  0.10658323051E+01  0.49297787610E+00  0.11803707809E+01  0.00000000000E+00 0.  1.
         11    1    3    3    0    0 -0.40044071408E+00 -0.11003595492E+02 -0.36967632022E+01  0.11614883768E+02  0.51100000000E-03 0. -1.
        -11    1    3    3    0    0 -0.35037673633E+02 -0.93747873702E+01 -0.68285502873E+01  0.36907374752E+02  0.51100000000E-03 0.  1.
         12    1    3    3    0    0  0.35318743113E+02  0.19312550557E+02  0.10032335613E+02  0.41485370698E+02  0.00000000000E+00 0. -1.
</event>
<event>
 7    1  0.2542335E-015  0.9000773E+02  0.7816164E-02  0.1186339E+00
        -11   -1    0    0    0    0  0.00000000000E+00  0.00000000000E+00  0.45593999997E+02  0.45594000000E+02  0.51100000000E-03 0.  1.
         11   -1    0    0    0    0 -0.00000000000E+00 -0.00000000000E+00 -0.45593999997E+02  0.45594000000E+02  0.51100000000E-03 0. -1.
    9900012    2    1    2    0    0 -0.12803179593E+00 -0.36589171473E+00 -0.11147999390E+01  0.90007725544E+02  0.89999986721E+02 0.  0.
        -12    1    1    2    0    0  0.12803179593E+00  0.36589171473E+00  0.11147999390E+01  0.11802744561E+01  0.00000000000E+00 0.  1.
         11    1    3    3    0    0  0.97544407084E+01 -0.33486670379E+02 -0.89652221907E+01  0.36012239805E+02  0.51100000000E-03 0. -1.
        -11    1    3    3    0    0  0.38614412900E+01 -0.70157063553E+01  0.83481033952E+01  0.11568132739E+02  0.51100000000E-03 0.  1.
        -12    1    3    3    0    0 -0.13743913794E+02  0.40136485019E+02 -0.49768114349E+00  0.42427353000E+02  0.00000000000E+00 0.  1.
</event>
<event>
 7    1  0.2542335E-015  0.9000775E+02  0.7816164E-02  0.1186339E+00
        -11   -1    0    0    0    0  0.00000000000E+00  0.00000000000E+00  0.45593999997E+02  0.45594000000E+02  0.51100000000E-03 0. -1.
         11   -1    0    0    0    0 -0.00000000000E+00 -0.00000000000E+00 -0.45593999997E+02  0.45594000000E+02  0.51100000000E-03 0.  1.
    9900012    2    1    2    0    0  0.63928415007E+00  0.25739665016E+00 -0.95814833091E+00  0.90007751940E+02  0.90000013465E+02 0.  0.
        -12    1    1    2    0    0 -0.63928415007E+00 -0.25739665016E+00  0.95814833091E+00  0.11802480604E+01  0.00000000000E+00 0.  1.
         11    1    3    3    0    0  0.34559130343E+01 -0.11205691244E+02  0.26016164534E+02  0.28536847557E+02  0.51100000000E-03 0. -1.
        -11    1    3    3    0    0  0.18155326489E+02 -0.68629000174E+01  0.39996342179E+01  0.19816971280E+02  0.51100000000E-03 0.  1.
        -12    1    3    3    0    0 -0.20971955373E+02  0.18325987911E+02 -0.30973947083E+02  0.41653933103E+02  0.00000000000E+00 0.  1.
</event>
<event>
 7    1  0.2542335E-015  0.9000778E+02  0.7816164E-02  0.1186339E+00
        -11   -1    0    0    0    0  0.00000000000E+00  0.00000000000E+00  0.45593999997E+02  0.45594000000E+02  0.51100000000E-03 0.  1.
         11   -1    0    0    0    0 -0.00000000000E+00 -0.00000000000E+00 -0.45593999997E+02  0.45594000000E+02  0.51100000000E-03 0. -1.
    9900012    2    1    2    0    0 -0.61425943005E+00 -0.15064796425E+00 -0.99645360722E+00  0.90007775764E+02  0.90000037604E+02 0.  0.
        -12    1    1    2    0    0  0.61425943005E+00  0.15064796425E+00  0.99645360722E+00  0.11802242363E+01  0.00000000000E+00 0.  1.
         11    1    3    3    0    0 -0.91417873587E+01  0.52528202990E+01  0.35415112856E+01  0.11122351354E+02  0.51100000000E-03 0. -1.
        -11    1    3    3    0    0  0.16999693249E+02 -0.33359379437E+02  0.18424791625E+02  0.41729015249E+02  0.51100000000E-03 0.  1.
         12    1    3    3    0    0 -0.84721653207E+01  0.27955911174E+02 -0.22962756518E+02  0.37156409160E+02  0.00000000000E+00 0. -1.
</event>
<event>
 7    1  0.2542335E-015  0.9000775E+02  0.7816164E-02  0.1186339E+00
        -11   -1    0    0    0    0  0.00000000000E+00  0.00000000000E+00  0.45593999997E+02  0.45594000000E+02  0.51100000000E-03 0.  1.
         11   -1    0    0    0    0 -0.00000000000E+00 -0.00000000000E+00 -0.45593999997E+02  0.45594000000E+02  0.51100000000E-03 0. -1.
    9900012    2    1    2    0    0  0.27485242257E+00  0.79156117364E+00 -0.83118503297E+00  0.90007753625E+02  0.90000015173E+02 0.  0.
        -12    1    1    2    0    0 -0.27485242257E+00 -0.79156117364E+00  0.83118503297E+00  0.11802463746E+01  0.00000000000E+00 0.  1.
         11    1    3    3    0    0 -0.46305793620E+01  0.23956784825E+02 -0.24443740514E+02  0.34537895926E+02  0.51100000000E-03 0. -1.
        -11    1    3    3    0    0 -0.24100530679E+01  0.88079764354E+01 -0.62877118114E+01  0.11087115259E+02  0.51100000000E-03 0.  1.
        -12    1    3    3    0    0  0.73154848525E+01 -0.31973200087E+02  0.29900267293E+02  0.44382742441E+02  0.00000000000E+00 0.  1.
</event>
<event>
 7    1  0.2542335E-015  0.9000848E+02  0.7816164E-02  0.1186338E+00
        -11   -1    0    0    0    0  0.00000000000E+00  0.00000000000E+00  0.45593999997E+02  0.45594000000E+02  0.51100000000E-03 0. -1.
         11   -1    0    0    0    0 -0.00000000000E+00 -0.00000000000E+00 -0.45593999997E+02  0.45594000000E+02  0.51100000000E-03 0.  1.
    9900012    2    1    2    0    0 -0.91399809096E+00  0.73953940041E+00  0.94583291606E-01  0.90008484407E+02  0.90000755598E+02 0.  0.
        -12    1    1    2    0    0  0.91399809096E+00 -0.73953940041E+00 -0.94583291606E-01  0.11795155930E+01  0.00000000000E+00 0.  1.
         11    1    3    3    0    0  0.55301075281E+01  0.11753974471E+02  0.34486549860E+02  0.36851867343E+02  0.51100000000E-03 0. -1.
        -11    1    3    3    0    0 -0.39651873159E+01 -0.40320841893E+01  0.81801127956E+01  0.99445793762E+01  0.51100000000E-03 0.  1.
        -12    1    3    3    0    0 -0.24789183032E+01 -0.69823508812E+01 -0.42572079364E+02  0.43212037688E+02  0.00000000000E+00 0.  1.
</event>
<event>
 7    1  0.2542335E-015  0.9000775E+02  0.7816164E-02  0.1186339E+00
        -11   -1    0    0    0    0  0.00000000000E+00  0.00000000000E+00  0.45593999997E+02  0.45594000000E+02  0.51100000000E-03 0.  1.
         11   -1    0    0    0    0 -0.00000000000E+00 -0.00000000000E+00 -0.45593999997E+02  0.45594000000E+02  0.51100000000E-03 0. -1.
    9900012    2    1    2    0    0 -0.85412363833E+00 -0.63556262478E+00 -0.50942348012E+00  0.90007754550E+02  0.90000016110E+02 0.  0.
        -12    1    1    2    0    0  0.85412363833E+00  0.63556262478E+00  0.50942348012E+00  0.11802454498E+01  0.00000000000E+00 0.  1.
         11    1    3    3    0    0 -0.24469605669E+02 -0.15039968390E+02  0.22613132638E+02  0.36555656453E+02  0.51100000000E-03 0. -1.
        -11    1    3    3    0    0  0.88705778644E+00 -0.88867259243E+01  0.51790573657E+01  0.10323923897E+02  0.51100000000E-03 0.  1.
        -12    1    3    3    0    0  0.22728424244E+02  0.23291131690E+02 -0.28301613484E+02  0.43128174200E+02  0.00000000000E+00 0.  1.
</event>
<event>
 7    1  0.2542335E-015  0.9000774E+02  0.7816164E-02  0.1186339E+00
        -11   -1    0    0    0    0  0.00000000000E+00  0.00000000000E+00  0.45593999997E+02  0.45594000000E+02  0.51100000000E-03 0.  1.
         11   -1    0    0    0    0 -0.00000000000E+00 -0.00000000000E+00 -0.45593999997E+02  0.45594000000E+02  0.51100000000E-03 0. -1.
    9900012    2    1    2    0    0  0.52055499953E+00  0.73816524415E+00 -0.75970980793E+00  0.90007735442E+02  0.89999996750E+02 0.  0.
        -12    1    1    2    0    0 -0.52055499953E+00 -0.73816524415E+00  0.75970980793E+00  0.11802645583E+01  0.00000000000E+00 0.  1.
         11    1    3    3    0    0  0.51726486216E+01 -0.70586056218E+01 -0.12418954184E+01  0.88386939973E+01  0.51100000000E-03 0. -1.
        -11    1    3    3    0    0 -0.33789116715E+02  0.10197886051E+02 -0.24293541187E+02  0.42847140301E+02  0.51100000000E-03 0.  1.
         12    1    3    3    0    0  0.29137023093E+02 -0.24011151847E+01  0.24775726798E+02  0.38321901143E+02  0.00000000000E+00 0. -1.
</event>
<event>
 7    1  0.2542335E-015  0.9000777E+02  0.7816164E-02  0.1186339E+00
        -11   -1    0    0    0    0  0.00000000000E+00  0.00000000000E+00  0.45593999997E+02  0.45594000000E+02  0.51100000000E-03 0. -1.
         11   -1    0    0    0    0 -0.00000000000E+00 -0.00000000000E+00 -0.45593999997E+02  0.45594000000E+02  0.51100000000E-03 0.  1.
    9900012    2    1    2    0    0 -0.91072856280E+00 -0.20879687953E+00  0.72105450593E+00  0.90007770254E+02  0.90000032022E+02 0.  0.
        -12    1    1    2    0    0  0.91072856280E+00  0.20879687953E+00 -0.72105450593E+00  0.11802297456E+01  0.00000000000E+00 0.  1.
         11    1    3    3    0    0  0.22475029114E+01 -0.50395111003E+01 -0.91329642703E+01  0.10670472252E+02  0.51100000000E-03 0. -1.
        -11    1    3    3    0    0  0.15192998473E+02  0.83065951808E+01 -0.30386321968E+02  0.34973637059E+02  0.51100000000E-03 0.  1.
         12    1    3    3    0    0 -0.18351229948E+02 -0.34758809601E+01  0.40240340744E+02  0.44363660943E+02  0.00000000000E+00 0. -1.
</event>
<event>
 7    1  0.2542335E-015  0.9000760E+02  0.7816164E-02  0.1186339E+00
        -11   -1    0    0    0    0  0.00000000000E+00  0.00000000000E+00  0.45593999997E+02  0.45594000000E+02  0.51100000000E-03 0.  1.
         11   -1    0    0    0    0 -0.00000000000E+00 -0.00000000000E+00 -0.45593999997E+02  0.45594000000E+02  0.51100000000E-03 0. -1.
    9900012    2    1    2    0    0 -0.86613750798E+00 -0.43015264797E+00 -0.67684617203E+00  0.90007599126E+02  0.89999858634E+02 0.  0.
        -12    1    1    2    0    0  0.86613750798E+00  0.43015264797E+00  0.67684617203E+00  0.11804008742E+01  0.00000000000E+00 0.  1.
         11    1    3    3    0    0 -0.52168622479E+01  0.29903485261E+01 -0.71361563245E+01  0.93318038647E+01  0.51100000000E-03 0. -1.
        -11    1    3    3    0    0 -0.12466933902E+02  0.34258456985E+02 -0.73005264135E+01  0.37180156026E+02  0.51100000000E-03 0.  1.
         12    1    3    3    0    0  0.16817658641E+02 -0.37678958159E+02  0.13759836566E+02  0.43495639235E+02  0.00000000000E+00 0. -1.
</event>
<event>
 7    1  0.2818847E-015  0.9000648E+02  0.7816164E-02  0.1186342E+00
        -11   -1    0    0    0    0  0.00000000000E+00  0.00000000000E+00  0.45593999997E+02  0.45594000000E+02  0.51100000000E-03 0. -1.
         11   -1    0    0    0    0 -0.00000000000E+00 -0.00000000000E+00 -0.45593999997E+02  0.45594000000E+02  0.51100000000E-03 0.  1.
    9900012    2    1    2    0    0  0.51048307738E+00  0.69884574567E+00  0.80437357889E+00  0.90006477591E+02  0.89998722286E+02 0.  0.
        -12    1    1    2    0    0 -0.51048307738E+00 -0.69884574567E+00 -0.80437357889E+00  0.11815224090E+01  0.00000000000E+00 0.  1.
         11    1    3    3    0    0 -0.31445001494E+01 -0.42062877908E+01 -0.75988241925E+01  0.92370378119E+01  0.51100000000E-03 0. -1.
        -11    1    3    3    0    0 -0.17283000583E+02  0.10375529377E+02 -0.30319923469E+02  0.36409497091E+02  0.51100000000E-03 0.  1.
         12    1    3    3    0    0  0.20937983809E+02 -0.54703958404E+01  0.38723121241E+02  0.44359942688E+02  0.00000000000E+00 0. -1.
</event>
<event>
 7    1  0.2542335E-015  0.9000768E+02  0.7816164E-02  0.1186339E+00
        -11   -1    0    0    0    0  0.00000000000E+00  0.00000000000E+00  0.45593999997E+02  0.45594000000E+02  0.51100000000E-03 0.  1.
         11   -1    0    0    0    0 -0.00000000000E+00 -0.00000000000E+00 -0.45593999997E+02  0.45594000000E+02  0.51100000000E-03 0. -1.
    9900012    2    1    2    0    0  0.87150223003E+00 -0.76309237740E+00 -0.22657987774E+00  0.90007676081E+02  0.89999936605E+02 0.  0.
        -12    1    1    2    0    0 -0.87150223003E+00  0.76309237740E+00  0.22657987774E+00  0.11803239193E+01  0.00000000000E+00 0.  1.
         11    1    3    3    0    0  0.75058272434E+00 -0.12281794256E+02  0.15640529113E+01  0.12403713409E+02  0.51100000000E-03 0. -1.
        -11    1    3    3    0    0  0.24409360001E+02 -0.48503079717E+00  0.28125127181E+02  0.37243454320E+02  0.51100000000E-03 0.  1.
         12    1    3    3    0    0 -0.24288440495E+02  0.12003732675E+02 -0.29915759970E+02  0.40360508351E+02  0.00000000000E+00 0. -1.
</event>
<event>
 7    1  0.2542335E-015  0.9000773E+02  0.7816164E-02  0.1186339E+00
        -11   -1    0    0    0    0  0.00000000000E+00  0.00000000000E+00  0.45593999997E+02  0.45594000000E+02  0.51100000000E-03 0.  1.
         11   -1    0    0    0    0 -0.00000000000E+00 -0.00000000000E+00 -0.45593999997E+02  0.45594000000E+02  0.51100000000E-03 0. -1.
    9900012    2    1    2    0    0  0.81308304570E-01  0.64615298005E+00 -0.98433899241E+00  0.90007725470E+02  0.89999986646E+02 0.  0.
        -12    1    1    2    0    0 -0.81308304570E-01 -0.64615298005E+00  0.98433899241E+00  0.11802745299E+01  0.00000000000E+00 0.  1.
         11    1    3    3    0    0 -0.72529751302E+01  0.43770430840E+01  0.47250609137E+01  0.97000183143E+01  0.51100000000E-03 0. -1.
        -11    1    3    3    0    0 -0.36278528033E+02  0.46986414501E+00 -0.20116446940E+01  0.36337296036E+02  0.51100000000E-03 0.  1.
         12    1    3    3    0    0  0.43612811468E+02 -0.42007542490E+01 -0.36977552121E+01  0.43970411120E+02  0.00000000000E+00 0. -1.
</event>
<event>
 7    1  0.2542335E-015  0.9000779E+02  0.7816164E-02  0.1186339E+00
        -11   -1    0    0    0    0  0.00000000000E+00  0.00000000000E+00  0.45593999997E+02  0.45594000000E+02  0.51100000000E-03 0.  1.
         11   -1    0    0    0    0 -0.00000000000E+00 -0.00000000000E+00 -0.45593999997E+02  0.45594000000E+02  0.51100000000E-03 0. -1.
    9900012    2    1    2    0    0 -0.10793675596E+01  0.41043506974E+00 -0.24372622349E+00  0.90007790804E+02  0.90000052842E+02 0.  0.
        -12    1    1    2    0    0  0.10793675596E+01 -0.41043506974E+00  0.24372622349E+00  0.11802091964E+01  0.00000000000E+00 0.  1.
         11    1    3    3    0    0 -0.35710908652E+01 -0.55124433603E+01 -0.55494520279E+01  0.85986126695E+01  0.51100000000E-03 0. -1.
        -11    1    3    3    0    0 -0.38937441380E-01  0.38102200165E+02 -0.17457726213E+02  0.41911232126E+02  0.51100000000E-03 0.  1.
         12    1    3    3    0    0  0.25306607470E+01 -0.32179321734E+02  0.22763452018E+02  0.39497946008E+02  0.00000000000E+00 0. -1.
</event>
<event>
 7    1  0.2542335E-015  0.9000770E+02  0.7816164E-02  0.1186339E+00
        -11   -1    0    0    0    0  0.00000000000E+00  0.00000000000E+00  0.45593999997E+02  0.45594000000E+02  0.51100000000E-03 0.  1.
         11   -1    0    0    0    0 -0.00000000000E+00 -0.00000000000E+00 -0.45593999997E+02  0.45594000000E+02  0.51100000000E-03 0. -1.
    9900012    2    1    2    0    0  0.80196854407E+00  0.71255920809E+00  0.49214141615E+00  0.90007704552E+02  0.89999965452E+02 0.  0.
        -12    1    1    2    0    0 -0.80196854407E+00 -0.71255920809E+00 -0.49214141615E+00  0.11802954478E+01  0.00000000000E+00 0.  1.
         11    1    3    3    0    0 -0.24032258013E+02  0.13010339474E+02 -0.24764749804E+02  0.36879685350E+02  0.51100000000E-03 0. -1.
        -11    1    3    3    0    0 -0.40840022569E+01  0.15066393053E+01 -0.66238363681E+01  0.79261746715E+01  0.51100000000E-03 0.  1.
        -12    1    3    3    0    0  0.28918228814E+02 -0.13804419571E+02  0.31880727588E+02  0.45201844531E+02  0.00000000000E+00 0.  1.
</event>
<event>
 7    1  0.2542335E-015  0.9000787E+02  0.7816164E-02  0.1186339E+00
        -11   -1    0    0    0    0  0.00000000000E+00  0.00000000000E+00  0.45593999997E+02  0.45594000000E+02  0.51100000000E-03 0.  1.
         11   -1    0    0    0    0 -0.00000000000E+00 -0.00000000000E+00 -0.45593999997E+02  0.45594000000E+02  0.51100000000E-03 0. -1.
    9900012    2    1    2    0    0 -0.88761247497E+00 -0.22031590962E+00 -0.74586536235E+00  0.90007868590E+02  0.90000131655E+02 0.  0.
        -12    1    1    2    0    0  0.88761247497E+00  0.22031590962E+00  0.74586536235E+00  0.11801314098E+01  0.00000000000E+00 0.  1.
         11    1    3    3    0    0 -0.14584261990E+02 -0.30850014673E+02 -0.39715696801E+01  0.34354002228E+02  0.51100000000E-03 0. -1.
        -11    1    3    3    0    0 -0.27563144020E+01 -0.10406765161E+02 -0.25578596849E+01  0.11065291529E+02  0.51100000000E-03 0.  1.
        -12    1    3    3    0    0  0.16452963917E+02  0.41036463924E+02  0.57835640026E+01  0.44588574833E+02  0.00000000000E+00 0.  1.
</event>
<event>
 7    1  0.2542335E-015  0.9000903E+02  0.7816164E-02  0.1186336E+00
        -11   -1    0    0    0    0  0.00000000000E+00  0.00000000000E+00  0.45593999997E+02  0.45594000000E+02  0.51100000000E-03 0.  1.
         11   -1    0    0    0    0 -0.00000000000E+00 -0.00000000000E+00 -0.45593999997E+02  0.45594000000E+02  0.51100000000E-03 0. -1.
    9900012    2    1    2    0    0  0.78540898081E+00 -0.55894330581E+00  0.67873277800E+00  0.90009033050E+02  0.90001311476E+02 0.  0.
        -12    1    1    2    0    0 -0.78540898081E+00  0.55894330581E+00 -0.67873277800E+00  0.11789669504E+01  0.00000000000E+00 0.  1.
         11    1    3    3    0    0  0.13395019913E+02 -0.25734423119E+02  0.26095356315E+02  0.39021208505E+02  0.51100000000E-03 0. -1.
        -11    1    3    3    0    0  0.49661817796E+01 -0.62877291611E+01 -0.30578285161E+01  0.85760605738E+01  0.51100000000E-03 0.  1.
        -12    1    3    3    0    0 -0.17575792712E+02  0.31463208974E+02 -0.22358795021E+02  0.42411763971E+02  0.00000000000E+00 0.  1.
</event>
<event>
 7    1  0.2542335E-015  0.9000776E+02  0.7816164E-02  0.1186339E+00
        -11   -1    0    0    0    0  0.00000000000E+00  0.00000000000E+00  0.45593999997E+02  0.45594000000E+02  0.51100000000E-03 0.  1.
         11   -1    0    0    0    0 -0.00000000000E+00 -0.00000000000E+00 -0.45593999997E+02  0.45594000000E+02  0.51100000000E-03 0. -1.
    9900012    2    1    2    0    0  0.74721006386E+00 -0.89317875319E+00 -0.19202627224E+00  0.90007760510E+02  0.90000022149E+02 0.  0.
        -12    1    1    2    0    0 -0.74721006386E+00  0.89317875319E+00  0.19202627224E+00  0.11802394901E+01  0.00000000000E+00 0.  1.
         11    1    3    3    0    0  0.49931908404E+01 -0.26459899251E+01 -0.75576266230E+01  0.94366804484E+01  0.51100000000E-03 0. -1.
        -11    1    3    3    0    0  0.18558190065E+02 -0.26648434891E+02  0.24147199714E+02  0.40467675432E+02  0.51100000000E-03 0.  1.
         12    1    3    3    0    0 -0.22804170841E+02  0.28401246062E+02 -0.16781599364E+02  0.40103404629E+02  0.00000000000E+00 0. -1.
</event>
<event>
 7    1  0.2542335E-015  0.9000777E+02  0.7816164E-02  0.1186339E+00
        -11   -1    0    0    0    0  0.00000000000E+00  0.00000000000E+00  0.45593999997E+02  0.45594000000E+02  0.51100000000E-03 0. -1.
         11   -1    0    0    0    0 -0.00000000000E+00 -0.00000000000E+00 -0.45593999997E+02  0.45594000000E+02  0.51100000000E-03 0.  1.
    9900012    2    1    2    0    0  0.21710930027E+00 -0.59111765850E-02  0.11600740201E+01  0.90007769886E+02  0.90000031648E+02 0.  0.
        -12    1    1    2    0    0 -0.21710930027E+00  0.59111765850E-02 -0.11600740201E+01  0.11802301142E+01  0.00000000000E+00 0.  1.
         11    1    3    3    0    0 -0.23659273935E+02  0.30960986113E+02  0.85943849206E+01  0.39902473064E+02  0.51100000000E-03 0. -1.
        -11    1    3    3    0    0 -0.73356378352E+01 -0.54192115476E+01 -0.25899564805E+01  0.94808918926E+01  0.51100000000E-03 0.  1.
        -12    1    3    3    0    0  0.31212021071E+02 -0.25547685742E+02 -0.48443544200E+01  0.40624404929E+02  0.00000000000E+00 0.  1.
</event>
<event>
 7    1  0.2542335E-015  0.9000768E+02  0.7816164E-02  0.1186339E+00
        -11   -1    0    0    0    0  0.00000000000E+00  0.00000000000E+00  0.45593999997E+02  0.45594000000E+02  0.51100000000E-03 0.  1.
         11   -1    0    0    0    0 -0.00000000000E+00 -0.00000000000E+00 -0.45593999997E+02  0.45594000000E+02  0.51100000000E-03 0. -1.
    9900012    2    1    2    0    0 -0.11066384838E+01  0.33856164657E+00  0.23211202027E+00  0.90007682792E+02  0.89999943405E+02 0.  0.
        -12    1    1    2    0    0  0.11066384838E+01 -0.33856164657E+00 -0.23211202027E+00  0.11803172083E+01  0.00000000000E+00 0.  1.
         11    1    3    3    0    0 -0.12035385614E+02  0.33985674966E+02 -0.13996798786E+02  0.38675405445E+02  0.51100000000E-03 0. -1.
        -11    1    3    3    0    0  0.11282434071E+02  0.26717957624E+01 -0.16148028527E+01  0.11706382860E+02  0.51100000000E-03 0.  1.
        -12    1    3    3    0    0 -0.35368694090E+00 -0.36318909082E+02  0.15843713659E+02  0.39625894487E+02  0.00000000000E+00 0.  1.
</event>
<event>
 7    1  0.2542335E-015  0.9000771E+02  0.7816164E-02  0.1186339E+00
        -11   -1    0    0    0    0  0.00000000000E+00  0.00000000000E+00  0.45593999997E+02  0.45594000000E+02  0.51100000000E-03 0. -1.
         11   -1    0    0    0    0 -0.00000000000E+00 -0.00000000000E+00 -0.45593999997E+02  0.45594000000E+02  0.51100000000E-03 0.  1.
    9900012    2    1    2    0    0  0.52450154073E+00  0.48359733318E-01  0.10562351032E+01  0.90007714813E+02  0.89999975848E+02 0.  0.
        -12    1    1    2    0    0 -0.52450154073E+00 -0.48359733318E-01 -0.10562351032E+01  0.11802851873E+01  0.00000000000E+00 0.  1.
         11    1    3    3    0    0 -0.40717191965E+01  0.62099914770E+01  0.18494451005E-01  0.74258490199E+01  0.51100000000E-03 0. -1.
        -11    1    3    3    0    0 -0.24584030071E+02 -0.26898932252E+01 -0.30638331751E+02  0.39374070565E+02  0.51100000000E-03 0.  1.
         12    1    3    3    0    0  0.29180250808E+02 -0.34717385185E+01  0.31676072404E+02  0.43207795228E+02  0.00000000000E+00 0. -1.
</event>
<event>
 7    1  0.2542335E-015  0.9000787E+02  0.7816164E-02  0.1186339E+00
        -11   -1    0    0    0    0  0.00000000000E+00  0.00000000000E+00  0.45593999997E+02  0.45594000000E+02  0.51100000000E-03 0.  1.
         11   -1    0    0    0    0 -0.00000000000E+00 -0.00000000000E+00 -0.45593999997E+02  0.45594000000E+02  0.51100000000E-03 0. -1.
    9900012    2    1    2    0    0  0.11271940815E+01  0.30377040624E+00 -0.17282556236E+00  0.90007867960E+02  0.90000131017E+02 0.  0.
        -12    1    1    2    0    0 -0.11271940815E+01 -0.30377040624E+00  0.17282556236E+00  0.11801320401E+01  0.00000000000E+00 0.  1.
         11    1    3    3    0    0 -0.95808629511E+01 -0.22615285556E-01 -0.46084842808E+01  0.10631630824E+02  0.51100000000E-03 0. -1.
        -11    1    3    3    0    0  0.25340233903E+02  0.21100297758E+01  0.36269585934E+02  0.44295175178E+02  0.51100000000E-03 0.  1.
         12    1    3    3    0    0 -0.14632176871E+02 -0.17836440841E+01 -0.31833927216E+02  0.35081061959E+02  0.00000000000E+00 0. -1.
</event>
<event>
 7    1  0.2542335E-015  0.9000764E+02  0.7816164E-02  0.1186339E+00
        -11   -1    0    0    0    0  0.00000000000E+00  0.00000000000E+00  0.45593999997E+02  0.45594000000E+02  0.51100000000E-03 0.  1.
         11   -1    0    0    0    0 -0.00000000000E+00 -0.00000000000E+00 -0.45593999997E+02  0.45594000000E+02  0.51100000000E-03 0. -1.
    9900012    2    1    2    0    0 -0.87378486354E-01  0.78789870849E-01 -0.11744858856E+01  0.90007635675E+02  0.89999895666E+02 0.  0.
        -12    1    1    2    0    0  0.87378486354E-01 -0.78789870849E-01  0.11744858856E+01  0.11803643248E+01  0.00000000000E+00 0.  1.
         11    1    3    3    0    0  0.20118762622E+02  0.14065503204E+02 -0.30770291460E+02  0.39362594256E+02  0.51100000000E-03 0. -1.
        -11    1    3    3    0    0  0.84613161395E+01 -0.39367604569E+01  0.18724548621E+01  0.95183003304E+01  0.51100000000E-03 0.  1.
        -12    1    3    3    0    0 -0.28667457247E+02 -0.10049952876E+02  0.27723350712E+02  0.41126741088E+02  0.00000000000E+00 0.  1.
</event>
<event>
 7    1  0.2542335E-015  0.9000781E+02  0.7816164E-02  0.1186339E+00
        -11   -1    0    0    0    0  0.00000000000E+00  0.00000000000E+00  0.45593999997E+02  0.45594000000E+02  0.51100000000E-03 0.  1.
         11   -1    0    0    0    0 -0.00000000000E+00 -0.00000000000E+00 -0.45593999997E+02  0.45594000000E+02  0.51100000000E-03 0. -1.
    9900012    2    1    2    0    0  0.11800382722E+01  0.44568897659E-02  0.18619743615E-01  0.90007806422E+02  0.90000068666E+02 0.  0.
        -12    1    1    2    0    0 -0.11800382722E+01 -0.44568897659E-02 -0.18619743615E-01  0.11801935785E+01  0.00000000000E+00 0.  1.
         11    1    3    3    0    0  0.56358495108E+01  0.28547626860E+02 -0.26831960810E+02  0.39581358241E+02  0.51100000000E-03 0. -1.
        -11    1    3    3    0    0 -0.70086539983E+01 -0.52549808868E+00 -0.44670217882E+01  0.83277645876E+01  0.51100000000E-03 0.  1.
        -12    1    3    3    0    0  0.25528427597E+01 -0.28017671882E+02  0.31317602342E+02  0.42098683593E+02  0.00000000000E+00 0.  1.
</event>
<event>
 7    1  0.2542335E-015  0.9000779E+02  0.7816164E-02  0.1186339E+00
        -11   -1    0    0    0    0  0.00000000000E+00  0.00000000000E+00  0.45593999997E+02  0.45594000000E+02  0.51100000000E-03 0.  1.
         11   -1    0    0    0    0 -0.00000000000E+00 -0.00000000000E+00 -0.45593999997E+02  0.45594000000E+02  0.51100000000E-03 0. -1.
    9900012    2    1    2    0    0 -0.56357802716E+00 -0.49571419593E+00 -0.91079570699E+00  0.90007787487E+02  0.90000049481E+02 0.  0.
        -12    1    1    2    0    0  0.56357802716E+00  0.49571419593E+00  0.91079570699E+00  0.11802125133E+01  0.00000000000E+00 0.  1.
         11    1    3    3    0    0  0.33398011883E+02 -0.11332670403E+02 -0.13909106231E+02  0.37912001432E+02  0.51100000000E-03 0. -1.
        -11    1    3    3    0    0  0.63616220075E+01 -0.30244013505E+01  0.51853670834E+01  0.87467291113E+01  0.51100000000E-03 0.  1.
        -12    1    3    3    0    0 -0.40323211917E+02  0.13861357558E+02  0.78129434408E+01  0.43349056943E+02  0.00000000000E+00 0.  1.
</event>
<event>
 7    1  0.2542335E-015  0.9000780E+02  0.7816164E-02  0.1186339E+00
        -11   -1    0    0    0    0  0.00000000000E+00  0.00000000000E+00  0.45593999997E+02  0.45594000000E+02  0.51100000000E-03 0. -1.
         11   -1    0    0    0    0 -0.00000000000E+00 -0.00000000000E+00 -0.45593999997E+02  0.45594000000E+02  0.51100000000E-03 0.  1.
    9900012    2    1    2    0    0  0.71169283691E+00  0.65688904141E+00  0.67443201873E+00  0.90007801519E+02  0.90000063699E+02 0.  0.
        -12    1    1    2    0    0 -0.71169283691E+00 -0.65688904141E+00 -0.67443201873E+00  0.11801984811E+01  0.00000000000E+00 0.  1.
         11    1    3    3    0    0  0.60925072549E+01  0.18498181487E+01  0.45926103617E+01  0.78506395937E+01  0.51100000000E-03 0. -1.
        -11    1    3    3    0    0  0.29569610982E+02  0.85025267724E+01 -0.25491570715E+02  0.39955913617E+02  0.51100000000E-03 0.  1.
         12    1    3    3    0    0 -0.34950425400E+02 -0.96954558797E+01  0.21573392372E+02  0.42201248309E+02  0.00000000000E+00 0. -1.
</event>
<event>
 7    1  0.2542335E-015  0.9000765E+02  0.7816164E-02  0.1186339E+00
        -11   -1    0    0    0    0  0.00000000000E+00  0.00000000000E+00  0.45593999997E+02  0.45594000000E+02  0.51100000000E-03 0.  1.
         11   -1    0    0    0    0 -0.00000000000E+00 -0.00000000000E+00 -0.45593999997E+02  0.45594000000E+02  0.51100000000E-03 0. -1.
    9900012    2    1    2    0    0 -0.10037130468E+01 -0.59172630067E+00 -0.18877210498E+00  0.90007654795E+02  0.89999915038E+02 0.  0.
        -12    1    1    2    0    0  0.10037130468E+01  0.59172630067E+00  0.18877210498E+00  0.11803452050E+01  0.00000000000E+00 0.  1.
         11    1    3    3    0    0 -0.10457340867E+02  0.13332048166E+01 -0.24403782478E+01  0.10820760571E+02  0.51100000000E-03 0. -1.
        -11    1    3    3    0    0 -0.34761930394E+02 -0.27225403665E+01 -0.58465674295E+00  0.34873282818E+02  0.51100000000E-03 0.  1.
         12    1    3    3    0    0  0.44215558214E+02  0.79760924916E+00  0.28362628858E+01  0.44313611406E+02  0.00000000000E+00 0. -1.
</event>
<event>
 7    1  0.2542335E-015  0.9000773E+02  0.7816164E-02  0.1186339E+00
        -11   -1    0    0    0    0  0.00000000000E+00  0.00000000000E+00  0.45593999997E+02  0.45594000000E+02  0.51100000000E-03 0.  1.
         11   -1    0    0    0    0 -0.00000000000E+00 -0.00000000000E+00 -0.45593999997E+02  0.45594000000E+02  0.51100000000E-03 0. -1.
    9900012    2    1    2    0    0  0.78961554375E+00  0.71858304831E+00 -0.50316401782E+00  0.90007733787E+02  0.89999995073E+02 0.  0.
        -12    1    1    2    0    0 -0.78961554375E+00 -0.71858304831E+00  0.50316401782E+00  0.11802662128E+01  0.00000000000E+00 0.  1.
         11    1    3    3    0    0  0.33378127973E+02 -0.72061444364E+01 -0.11523292973E+02  0.36039065274E+02  0.51100000000E-03 0. -1.
        -11    1    3    3    0    0  0.85478545079E+01 -0.35039654727E+01 -0.17560671924E+01  0.94035824539E+01  0.51100000000E-03 0.  1.
        -12    1    3    3    0    0 -0.41136366937E+02  0.11428692957E+02  0.12776196148E+02  0.44565086059E+02  0.00000000000E+00 0.  1.
</event>
<event>
 7    1  0.2542335E-015  0.9000773E+02  0.7816164E-02  0.1186339E+00
        -11   -1    0    0    0    0  0.00000000000E+00  0.00000000000E+00  0.45593999997E+02  0.45594000000E+02  0.51100000000E-03 0.  1.
         11   -1    0    0    0    0 -0.00000000000E+00 -0.00000000000E+00 -0.45593999997E+02  0.45594000000E+02  0.51100000000E-03 0. -1.
    9900012    2    1    2    0    0 -0.64149932664E+00  0.96236006426E+00  0.23531608577E+00  0.90007732259E+02  0.89999993525E+02 0.  0.
        -12    1    1    2    0    0  0.64149932664E+00 -0.96236006426E+00 -0.23531608577E+00  0.11802677406E+01  0.00000000000E+00 0.  1.
         11    1    3    3    0    0  0.48118417518E+01 -0.61110069259E+01 -0.32766482777E+01  0.84400622562E+01  0.51100000000E-03 0. -1.
        -11    1    3    3    0    0  0.17831722957E+02  0.54775482942E+01  0.36598008459E+02  0.41077829816E+02  0.51100000000E-03 0.  1.
         12    1    3    3    0    0 -0.23285064036E+02  0.15958186960E+01 -0.33086044096E+02  0.40489840187E+02  0.00000000000E+00 0. -1.
</event>
<event>
 7    1  0.2542335E-015  0.9000772E+02  0.7816164E-02  0.1186339E+00
        -11   -1    0    0    0    0  0.00000000000E+00  0.00000000000E+00  0.45593999997E+02  0.45594000000E+02  0.51100000000E-03 0.  1.
         11   -1    0    0    0    0 -0.00000000000E+00 -0.00000000000E+00 -0.45593999997E+02  0.45594000000E+02  0.51100000000E-03 0. -1.
    9900012    2    1    2    0    0 -0.80284515255E+00  0.86293619700E+00 -0.62002131764E-01  0.90007718896E+02  0.89999979986E+02 0.  0.
        -12    1    1    2    0    0  0.80284515255E+00 -0.86293619700E+00  0.62002131764E-01  0.11802811036E+01  0.00000000000E+00 0.  1.
         11    1    3    3    0    0  0.63092399683E+01 -0.27246854602E+01 -0.81702598267E-01  0.68729248076E+01  0.51100000000E-03 0. -1.
        -11    1    3    3    0    0 -0.67547232208E+01  0.41994967508E+02  0.94789430635E+01  0.43578136074E+02  0.51100000000E-03 0.  1.
         12    1    3    3    0    0 -0.35736190004E+00 -0.38407345851E+02 -0.94592425970E+01  0.39556658015E+02  0.00000000000E+00 0. -1.
</event>
<event>
 7    1  0.2542335E-015  0.9000772E+02  0.7816164E-02  0.1186339E+00
        -11   -1    0    0    0    0  0.00000000000E+00  0.00000000000E+00  0.45593999997E+02  0.45594000000E+02  0.51100000000E-03 0.  1.
         11   -1    0    0    0    0 -0.00000000000E+00 -0.00000000000E+00 -0.45593999997E+02  0.45594000000E+02  0.51100000000E-03 0. -1.
    9900012    2    1    2    0    0 -0.98752906309E+00 -0.64530835707E+00  0.37874629739E-01  0.90007715706E+02  0.89999976754E+02 0.  0.
        -12    1    1    2    0    0  0.98752906309E+00  0.64530835707E+00 -0.37874629739E-01  0.11802842936E+01  0.00000000000E+00 0.  1.
         11    1    3    3    0    0 -0.78142655355E+01  0.64434044430E+01  0.76209904978E+01  0.12675160871E+02  0.51100000000E-03 0. -1.
        -11    1    3    3    0    0 -0.32216043933E+02 -0.14052536357E+02  0.54916127157E+01  0.35573938146E+02  0.51100000000E-03 0.  1.
         12    1    3    3    0    0  0.39042780405E+02  0.69638235568E+01 -0.13074728584E+02  0.41758616690E+02  0.00000000000E+00 0. -1.
</event>
<event>
 7    1  0.2631399E-015  0.9000774E+02  0.7816164E-02  0.1186339E+00
        -11   -1    0    0    0    0  0.00000000000E+00  0.00000000000E+00  0.45593999997E+02  0.45594000000E+02  0.51100000000E-03 0.  1.
         11   -1    0    0    0    0 -0.00000000000E+00 -0.00000000000E+00 -0.45593999997E+02  0.45594000000E+02  0.51100000000E-03 0. -1.
    9900012    2    1    2    0    0 -0.43226502264E+00 -0.57045713775E+00 -0.93847411478E+00  0.90007742376E+02  0.90000003775E+02 0.  0.
        -12    1    1    2    0    0  0.43226502264E+00  0.57045713775E+00  0.93847411478E+00  0.11802576244E+01  0.00000000000E+00 0.  1.
         11    1    3    3    0    0 -0.52303251860E+01 -0.18397387074E+01  0.73271495243E+01  0.91884743279E+01  0.51100000000E-03 0. -1.
        -11    1    3    3    0    0 -0.38245877667E+01 -0.52342286204E+01  0.35322799861E+02  0.35912738842E+02  0.51100000000E-03 0.  1.
         12    1    3    3    0    0  0.86226479301E+01  0.65035101901E+01 -0.43588423500E+02  0.44906529206E+02  0.00000000000E+00 0. -1.
</event>
<event>
 7    1  0.2542335E-015  0.9000755E+02  0.7816164E-02  0.1186339E+00
        -11   -1    0    0    0    0  0.00000000000E+00  0.00000000000E+00  0.45593999997E+02  0.45594000000E+02  0.51100000000E-03 0.  1.
         11   -1    0    0    0    0 -0.00000000000E+00 -0.00000000000E+00 -0.45593999997E+02  0.45594000000E+02  0.51100000000E-03 0. -1.
    9900012    2    1    2    0    0  0.54010934742E+00 -0.89088104136E+00 -0.55504951210E+00  0.90007547926E+02  0.89999806759E+02 0.  0.
        -12    1    1    2    0    0 -0.54010934742E+00  0.89088104136E+00  0.55504951210E+00  0.11804520735E+01  0.00000000000E+00 0.  1.
         11    1    3    3    0    0 -0.21870000434E+02  0.34968933016E+02  0.12046981658E+02  0.42968045832E+02  0.51100000000E-03 0. -1.
        -11    1    3    3    0    0 -0.36109167130E+00 -0.73728817433E+01 -0.69422155230E+01  0.10133317770E+02  0.51100000000E-03 0.  1.
        -12    1    3    3    0    0  0.22771201453E+02 -0.28486932314E+02 -0.56598156475E+01  0.36906184325E+02  0.00000000000E+00 0.  1.
</event>
<event>
 7    1  0.2542335E-015  0.9000774E+02  0.7816164E-02  0.1186339E+00
        -11   -1    0    0    0    0  0.00000000000E+00  0.00000000000E+00  0.45593999997E+02  0.45594000000E+02  0.51100000000E-03 0. -1.
         11   -1    0    0    0    0 -0.00000000000E+00 -0.00000000000E+00 -0.45593999997E+02  0.45594000000E+02  0.51100000000E-03 0.  1.
    9900012    2    1    2    0    0  0.24662863397E+00  0.87740826544E+00  0.74989536126E+00  0.90007739859E+02  0.90000001225E+02 0.  0.
        -12    1    1    2    0    0 -0.24662863397E+00 -0.87740826544E+00 -0.74989536126E+00  0.11802601409E+01  0.00000000000E+00 0.  1.
         11    1    3    3    0    0 -0.19529725736E+02  0.10702143483E+02  0.17638169560E+02  0.28408644603E+02  0.51100000000E-03 0. -1.
        -11    1    3    3    0    0 -0.48708096972E+01  0.16475196691E+02  0.67901097924E+01  0.18473291108E+02  0.51100000000E-03 0.  1.
        -12    1    3    3    0    0  0.24647164067E+02 -0.26299931909E+02 -0.23678383991E+02  0.43125804148E+02  0.00000000000E+00 0.  1.
</event>
<event>
 7    1  0.2542335E-015  0.9000780E+02  0.7816164E-02  0.1186339E+00
        -11   -1    0    0    0    0  0.00000000000E+00  0.00000000000E+00  0.45593999997E+02  0.45594000000E+02  0.51100000000E-03 0. -1.
         11   -1    0    0    0    0 -0.00000000000E+00 -0.00000000000E+00 -0.45593999997E+02  0.45594000000E+02  0.51100000000E-03 0.  1.
    9900012    2    1    2    0    0  0.11745627275E+01  0.76125591826E-01 -0.86537223465E-01  0.90007796036E+02  0.90000058143E+02 0.  0.
        -12    1    1    2    0    0 -0.11745627275E+01 -0.76125591826E-01  0.86537223465E-01  0.11802039644E+01  0.00000000000E+00 0.  1.
         11    1    3    3    0    0 -0.25741112852E+01  0.14035971031E+02  0.32395379090E+02  0.35399083581E+02  0.51100000000E-03 0. -1.
        -11    1    3    3    0    0  0.19953255748E+01  0.71293751286E+01  0.67594372314E+01  0.10024934205E+02  0.51100000000E-03 0.  1.
        -12    1    3    3    0    0  0.17533484379E+01 -0.21089220568E+02 -0.39241353545E+02  0.44583778249E+02  0.00000000000E+00 0.  1.
</event>
<event>
 7    1  0.2542335E-015  0.9000788E+02  0.7816164E-02  0.1186339E+00
        -11   -1    0    0    0    0  0.00000000000E+00  0.00000000000E+00  0.45593999997E+02  0.45594000000E+02  0.51100000000E-03 0. -1.
         11   -1    0    0    0    0 -0.00000000000E+00 -0.00000000000E+00 -0.45593999997E+02  0.45594000000E+02  0.51100000000E-03 0.  1.
    9900012    2    1    2    0    0 -0.10030144713E+01  0.58329235228E+00  0.21543269576E+00  0.90007881682E+02  0.90000144920E+02 0.  0.
        -12    1    1    2    0    0  0.10030144713E+01 -0.58329235228E+00 -0.21543269576E+00  0.11801183179E+01  0.00000000000E+00 0.  1.
         11    1    3    3    0    0  0.31731707637E+02  0.22863053677E+02 -0.15177584960E+02  0.41952110536E+02  0.51100000000E-03 0. -1.
        -11    1    3    3    0    0 -0.71751971701E+01  0.10328150063E+01 -0.41195773477E+01  0.83379301420E+01  0.51100000000E-03 0.  1.
        -12    1    3    3    0    0 -0.25559524938E+02 -0.23312576331E+02  0.19512595003E+02  0.39717841004E+02  0.00000000000E+00 0.  1.
</event>
<event>
 7    1  0.2542335E-015  0.9000767E+02  0.7816164E-02  0.1186339E+00
        -11   -1    0    0    0    0  0.00000000000E+00  0.00000000000E+00  0.45593999997E+02  0.45594000000E+02  0.51100000000E-03 0.  1.
         11   -1    0    0    0    0 -0.00000000000E+00 -0.00000000000E+00 -0.45593999997E+02  0.45594000000E+02  0.51100000000E-03 0. -1.
    9900012    2    1    2    0    0 -0.61573714503E+00 -0.63738744235E+00 -0.77960336135E+00  0.90007671069E+02  0.89999931527E+02 0.  0.
        -12    1    1    2    0    0  0.61573714503E+00  0.63738744235E+00  0.77960336135E+00  0.11803289306E+01  0.00000000000E+00 0.  1.
         11    1    3    3    0    0  0.10855296411E+02  0.34788189109E+02 -0.99974338067E+01  0.37788943418E+02  0.51100000000E-03 0. -1.
        -11    1    3    3    0    0 -0.53107309536E+01  0.67352887400E+01  0.33494046239E+01  0.92079579315E+01  0.51100000000E-03 0.  1.
        -12    1    3    3    0    0 -0.61603026021E+01 -0.42160865292E+02  0.58684258214E+01  0.43010769720E+02  0.00000000000E+00 0.  1.
</event>
<event>
 7    1  0.2542335E-015  0.9000758E+02  0.7816164E-02  0.1186339E+00
        -11   -1    0    0    0    0  0.00000000000E+00  0.00000000000E+00  0.45593999997E+02  0.45594000000E+02  0.51100000000E-03 0. -1.
         11   -1    0    0    0    0 -0.00000000000E+00 -0.00000000000E+00 -0.45593999997E+02  0.45594000000E+02  0.51100000000E-03 0.  1.
    9900012    2    1    2    0    0 -0.66623431772E+00  0.75598575798E+00  0.61481830184E+00  0.90007583050E+02  0.89999842346E+02 0.  0.
        -12    1    1    2    0    0  0.66623431772E+00 -0.75598575798E+00 -0.61481830184E+00  0.11804169503E+01  0.00000000000E+00 0.  1.
         11    1    3    3    0    0 -0.18136534602E+02 -0.16605235935E+01  0.36444752237E+02  0.40742007705E+02  0.51100000000E-03 0. -1.
        -11    1    3    3    0    0 -0.75831917504E+01 -0.13135407636E+01 -0.42810682201E+01  0.88066867679E+01  0.51100000000E-03 0.  1.
        -12    1    3    3    0    0  0.25053492035E+02  0.37300501150E+01 -0.31548865715E+02  0.40458888577E+02  0.00000000000E+00 0.  1.
</event>
<event>
 7    1  0.2542335E-015  0.9000772E+02  0.7816164E-02  0.1186339E+00
        -11   -1    0    0    0    0  0.00000000000E+00  0.00000000000E+00  0.45593999997E+02  0.45594000000E+02  0.51100000000E-03 0.  1.
         11   -1    0    0    0    0 -0.00000000000E+00 -0.00000000000E+00 -0.45593999997E+02  0.45594000000E+02  0.51100000000E-03 0. -1.
    9900012    2    1    2    0    0 -0.17998542985E+00 -0.31191638702E+00 -0.11240025489E+01  0.90007716849E+02  0.89999977911E+02 0.  0.
        -12    1    1    2    0    0  0.17998542985E+00  0.31191638702E+00  0.11240025489E+01  0.11802831513E+01  0.00000000000E+00 0.  1.
         11    1    3    3    0    0  0.70053228469E+01 -0.70718466122E+01 -0.26959278459E+01  0.10312787688E+02  0.51100000000E-03 0. -1.
        -11    1    3    3    0    0 -0.24004036245E+02 -0.18389570038E+02  0.26720293124E+02  0.40352745968E+02  0.51100000000E-03 0.  1.
         12    1    3    3    0    0  0.16818727968E+02  0.25149500264E+02 -0.25148367827E+02  0.39342183192E+02  0.00000000000E+00 0. -1.
</event>
<event>
 7    1  0.2542335E-015  0.9000774E+02  0.7816164E-02  0.1186339E+00
        -11   -1    0    0    0    0  0.00000000000E+00  0.00000000000E+00  0.45593999997E+02  0.45594000000E+02  0.51100000000E-03 0.  1.
         11   -1    0    0    0    0 -0.00000000000E+00 -0.00000000000E+00 -0.45593999997E+02  0.45594000000E+02  0.51100000000E-03 0. -1.
    9900012    2    1    2    0    0  0.80508531479E+00  0.11398846763E+00 -0.85548588711E+00  0.90007740775E+02  0.90000002153E+02 0.  0.
        -12    1    1    2    0    0 -0.80508531479E+00 -0.11398846763E+00  0.85548588711E+00  0.11802592249E+01  0.00000000000E+00 0.  1.
         11    1    3    3    0    0 -0.30319199656E+02 -0.14612944370E+02 -0.16005590811E+01  0.33695011508E+02  0.51100000000E-03 0. -1.
        -11    1    3    3    0    0 -0.11363016810E+02  0.37305590356E+01  0.31241178365E+01  0.12361040986E+02  0.51100000000E-03 0.  1.
        -12    1    3    3    0    0  0.42487301780E+02  0.10996373802E+02 -0.23790446425E+01  0.43951688281E+02  0.00000000000E+00 0.  1.
</event>
<event>
 7    1  0.2610278E-015  0.9000778E+02  0.7816164E-02  0.1186339E+00
        -11   -1    0    0    0    0  0.00000000000E+00  0.00000000000E+00  0.45593999997E+02  0.45594000000E+02  0.51100000000E-03 0. -1.
         11   -1    0    0    0    0 -0.00000000000E+00 -0.00000000000E+00 -0.45593999997E+02  0.45594000000E+02  0.51100000000E-03 0.  1.
    9900012    2    1    2    0    0  0.10383576743E+01  0.23732828991E+00  0.50834030061E+00  0.90007779157E+02  0.90000041042E+02 0.  0.
        -12    1    1    2    0    0 -0.10383576743E+01 -0.23732828991E+00 -0.50834030061E+00  0.11802208430E+01  0.00000000000E+00 0.  1.
         11    1    3    3    0    0 -0.82132403903E+01 -0.46604699029E+01 -0.68267020395E+00  0.94680164920E+01  0.51100000000E-03 0. -1.
        -11    1    3    3    0    0 -0.32700543219E+02  0.16659972049E+02  0.37741335501E+01  0.36893417838E+02  0.51100000000E-03 0.  1.
         12    1    3    3    0    0  0.41952141283E+02 -0.11762173856E+02 -0.25831230456E+01  0.43646344827E+02  0.00000000000E+00 0. -1.
</event>
<event>
 7    1  0.2542335E-015  0.9000775E+02  0.7816164E-02  0.1186339E+00
        -11   -1    0    0    0    0  0.00000000000E+00  0.00000000000E+00  0.45593999997E+02  0.45594000000E+02  0.51100000000E-03 0.  1.
         11   -1    0    0    0    0 -0.00000000000E+00 -0.00000000000E+00 -0.45593999997E+02  0.45594000000E+02  0.51100000000E-03 0. -1.
    9900012    2    1    2    0    0 -0.11152872387E+01  0.29513809098E+00 -0.24902146841E+00  0.90007752649E+02  0.90000014184E+02 0.  0.
        -12    1    1    2    0    0  0.11152872387E+01 -0.29513809098E+00  0.24902146841E+00  0.11802473509E+01  0.00000000000E+00 0.  1.
         11    1    3    3    0    0 -0.58421720552E+00 -0.94867352479E+01  0.42535678216E+01  0.10413082871E+02  0.51100000000E-03 0. -1.
        -11    1    3    3    0    0 -0.34954285105E+02  0.28442168306E+01  0.16414908072E+02  0.38721322599E+02  0.51100000000E-03 0.  1.
         12    1    3    3    0    0  0.34423215071E+02  0.69376565083E+01 -0.20917497362E+02  0.40873347179E+02  0.00000000000E+00 0. -1.
</event>
<event>
 7    1  0.2542335E-015  0.9000770E+02  0.7816164E-02  0.1186339E+00
        -11   -1    0    0    0    0  0.00000000000E+00  0.00000000000E+00  0.45593999997E+02  0.45594000000E+02  0.51100000000E-03 0. -1.
         11   -1    0    0    0    0 -0.00000000000E+00 -0.00000000000E+00 -0.45593999997E+02  0.45594000000E+02  0.51100000000E-03 0.  1.
    9900012    2    1    2    0    0  0.10076929954E+01 -0.21081069753E+00  0.57726127675E+00  0.90007696266E+02  0.89999957057E+02 0.  0.
        -12    1    1    2    0    0 -0.10076929954E+01  0.21081069753E+00 -0.57726127675E+00  0.11803037342E+01  0.00000000000E+00 0.  1.
         11    1    3    3    0    0  0.23414688612E+02  0.54547706690E+01  0.33846275349E+02  0.41515930931E+02  0.51100000000E-03 0. -1.
        -11    1    3    3    0    0 -0.26944720675E+01 -0.98887842962E+01 -0.80938891491E+00  0.10281213219E+02  0.51100000000E-03 0.  1.
        -12    1    3    3    0    0 -0.19712523549E+02  0.42232029296E+01 -0.32459625157E+02  0.38210552116E+02  0.00000000000E+00 0.  1.
</event>
<event>
 7    1  0.2542335E-015  0.9000777E+02  0.7816164E-02  0.1186339E+00
        -11   -1    0    0    0    0  0.00000000000E+00  0.00000000000E+00  0.45593999997E+02  0.45594000000E+02  0.51100000000E-03 0. -1.
         11   -1    0    0    0    0 -0.00000000000E+00 -0.00000000000E+00 -0.45593999997E+02  0.45594000000E+02  0.51100000000E-03 0.  1.
    9900012    2    1    2    0    0 -0.83860926225E+00  0.44233586681E+00  0.70286625804E+00  0.90007768035E+02  0.90000029773E+02 0.  0.
        -12    1    1    2    0    0  0.83860926225E+00 -0.44233586681E+00 -0.70286625804E+00  0.11802319647E+01  0.00000000000E+00 0.  1.
         11    1    3    3    0    0  0.20533644608E+02  0.13218042816E+02  0.31651913223E+02  0.39977378950E+02  0.51100000000E-03 0. -1.
        -11    1    3    3    0    0 -0.76488610960E+00  0.78742178295E+01 -0.60076730434E+00  0.79340581547E+01  0.51100000000E-03 0.  1.
        -12    1    3    3    0    0 -0.20607367761E+02 -0.20649924779E+02 -0.30348279661E+02  0.42096330930E+02  0.00000000000E+00 0.  1.
</event>
<event>
 7    1  0.2542335E-015  0.9000772E+02  0.7816164E-02  0.1186339E+00
        -11   -1    0    0    0    0  0.00000000000E+00  0.00000000000E+00  0.45593999997E+02  0.45594000000E+02  0.51100000000E-03 0. -1.
         11   -1    0    0    0    0 -0.00000000000E+00 -0.00000000000E+00 -0.45593999997E+02  0.45594000000E+02  0.51100000000E-03 0.  1.
    9900012    2    1    2    0    0  0.11428227878E+01 -0.47817779072E-01  0.29109930343E+00  0.90007716446E+02  0.89999977503E+02 0.  0.
        -12    1    1    2    0    0 -0.11428227878E+01  0.47817779072E-01 -0.29109930343E+00  0.11802835543E+01  0.00000000000E+00 0.  1.
         11    1    3    3    0    0 -0.47365658567E+01  0.40459724264E+02 -0.11350926337E+02  0.42287916390E+02  0.51100000000E-03 0. -1.
        -11    1    3    3    0    0 -0.58565731841E+01 -0.26443811131E+01  0.74903860646E-01  0.64263373535E+01  0.51100000000E-03 0.  1.
        -12    1    3    3    0    0  0.11735961828E+02 -0.37863160930E+02  0.11567121780E+02  0.41293462702E+02  0.00000000000E+00 0.  1.
</event>
<event>
 7    1  0.2542335E-015  0.9000776E+02  0.7816164E-02  0.1186339E+00
        -11   -1    0    0    0    0  0.00000000000E+00  0.00000000000E+00  0.45593999997E+02  0.45594000000E+02  0.51100000000E-03 0.  1.
         11   -1    0    0    0    0 -0.00000000000E+00 -0.00000000000E+00 -0.45593999997E+02  0.45594000000E+02  0.51100000000E-03 0. -1.
    9900012    2    1    2    0    0  0.10559853080E+01  0.28013420289E+00 -0.44652510554E+00  0.90007760697E+02  0.90000022338E+02 0.  0.
        -12    1    1    2    0    0 -0.10559853080E+01 -0.28013420289E+00  0.44652510554E+00  0.11802393030E+01  0.00000000000E+00 0.  1.
         11    1    3    3    0    0  0.22011728348E+01 -0.58242002330E+01  0.61816691580E+01  0.87737964441E+01  0.51100000000E-03 0. -1.
        -11    1    3    3    0    0 -0.29560498232E+02 -0.35308423254E+01  0.24087888711E+02  0.38295120917E+02  0.51100000000E-03 0.  1.
         12    1    3    3    0    0  0.28415310705E+02  0.96351767613E+01 -0.30716082975E+02  0.42938843336E+02  0.00000000000E+00 0. -1.
</event>
<event>
 7    1  0.2822155E-015  0.9000769E+02  0.7816164E-02  0.1186339E+00
        -11   -1    0    0    0    0  0.00000000000E+00  0.00000000000E+00  0.45593999997E+02  0.45594000000E+02  0.51100000000E-03 0. -1.
         11   -1    0    0    0    0 -0.00000000000E+00 -0.00000000000E+00 -0.45593999997E+02  0.45594000000E+02  0.51100000000E-03 0.  1.
    9900012    2    1    2    0    0 -0.54180914430E+00  0.60483851817E+00  0.85658712506E+00  0.90007691445E+02  0.89999952172E+02 0.  0.
        -12    1    1    2    0    0  0.54180914430E+00 -0.60483851817E+00 -0.85658712506E+00  0.11803085549E+01  0.00000000000E+00 0.  1.
         11    1    3    3    0    0 -0.95524166002E+01  0.24694290653E+01  0.21891665132E+01  0.10106393674E+02  0.51100000000E-03 0. -1.
        -11    1    3    3    0    0  0.12182300199E+02  0.18089128166E+02 -0.34646724285E+02  0.40939229351E+02  0.51100000000E-03 0.  1.
         12    1    3    3    0    0 -0.31716927430E+01 -0.19953718713E+02  0.33314144897E+02  0.38962068420E+02  0.00000000000E+00 0. -1.
</event>
<event>
 7    1  0.2542335E-015  0.9000757E+02  0.7816164E-02  0.1186339E+00
        -11   -1    0    0    0    0  0.00000000000E+00  0.00000000000E+00  0.45593999997E+02  0.45594000000E+02  0.51100000000E-03 0.  1.
         11   -1    0    0    0    0 -0.00000000000E+00 -0.00000000000E+00 -0.45593999997E+02  0.45594000000E+02  0.51100000000E-03 0. -1.
    9900012    2    1    2    0    0 -0.44032443594E+00  0.46982069224E+00 -0.98933885206E+00  0.90007572766E+02  0.89999831926E+02 0.  0.
        -12    1    1    2    0    0  0.44032443594E+00 -0.46982069224E+00  0.98933885206E+00  0.11804272345E+01  0.00000000000E+00 0.  1.
         11    1    3    3    0    0  0.20406583452E+02  0.20591258108E+02 -0.10905376033E+02  0.30973469056E+02  0.51100000000E-03 0. -1.
        -11    1    3    3    0    0  0.85197989638E+01  0.64630193415E+01 -0.10049375506E+02  0.14674724587E+02  0.51100000000E-03 0.  1.
        -12    1    3    3    0    0 -0.29366706851E+02 -0.26584456758E+02  0.19965412687E+02  0.44359379123E+02  0.00000000000E+00 0.  1.
</event>
<event>
 7    1  0.2542335E-015  0.9000774E+02  0.7816164E-02  0.1186339E+00
        -11   -1    0    0    0    0  0.00000000000E+00  0.00000000000E+00  0.45593999997E+02  0.45594000000E+02  0.51100000000E-03 0. -1.
         11   -1    0    0    0    0 -0.00000000000E+00 -0.00000000000E+00 -0.45593999997E+02  0.45594000000E+02  0.51100000000E-03 0.  1.
    9900012    2    1    2    0    0 -0.11581392555E+01  0.25047631577E-01 -0.22603428506E+00  0.90007743495E+02  0.90000004909E+02 0.  0.
        -12    1    1    2    0    0  0.11581392555E+01 -0.25047631577E-01  0.22603428506E+00  0.11802565047E+01  0.00000000000E+00 0.  1.
         11    1    3    3    0    0  0.29046978486E+01  0.13910143218E+01 -0.92467070244E+01  0.97915157913E+01  0.51100000000E-03 0. -1.
        -11    1    3    3    0    0  0.35695511072E+01  0.60215236726E+01 -0.34610191332E+02  0.35310986771E+02  0.51100000000E-03 0.  1.
         12    1    3    3    0    0 -0.76323882112E+01 -0.73874903629E+01  0.43630864071E+02  0.44905240933E+02  0.00000000000E+00 0. -1.
</event>
<event>
 7    1  0.2542335E-015  0.9000776E+02  0.7816164E-02  0.1186339E+00
        -11   -1    0    0    0    0  0.00000000000E+00  0.00000000000E+00  0.45593999997E+02  0.45594000000E+02  0.51100000000E-03 0. -1.
         11   -1    0    0    0    0 -0.00000000000E+00 -0.00000000000E+00 -0.45593999997E+02  0.45594000000E+02  0.51100000000E-03 0.  1.
    9900012    2    1    2    0    0 -0.46846312884E+00 -0.96231110672E+00 -0.49745348476E+00  0.90007762592E+02  0.90000024258E+02 0.  0.
        -12    1    1    2    0    0  0.46846312884E+00  0.96231110672E+00  0.49745348476E+00  0.11802374078E+01  0.00000000000E+00 0.  1.
         11    1    3    3    0    0 -0.86757108200E+01  0.14082791129E+01  0.42767987680E+01  0.97745698757E+01  0.51100000000E-03 0. -1.
        -11    1    3    3    0    0 -0.52810386290E+01  0.79162609014E+01 -0.40010362166E+02  0.41126459081E+02  0.51100000000E-03 0.  1.
         12    1    3    3    0    0  0.13488286320E+02 -0.10286851121E+02  0.35236109913E+02  0.39106733635E+02  0.00000000000E+00 0. -1.
</event>
<event>
 7    1  0.2542335E-015  0.9000766E+02  0.7816164E-02  0.1186339E+00
        -11   -1    0    0    0    0  0.00000000000E+00  0.00000000000E+00  0.45593999997E+02  0.45594000000E+02  0.51100000000E-03 0. -1.
         11   -1    0    0    0    0 -0.00000000000E+00 -0.00000000000E+00 -0.45593999997E+02  0.45594000000E+02  0.51100000000E-03 0.  1.
    9900012    2    1    2    0    0  0.80282924544E+00 -0.76616110416E+00  0.40207306152E+00  0.90007660904E+02  0.89999921228E+02 0.  0.
        -12    1    1    2    0    0 -0.80282924544E+00  0.76616110416E+00 -0.40207306152E+00  0.11803390960E+01  0.00000000000E+00 0.  1.
         11    1    3    3    0    0 -0.35952086036E+02  0.58759190364E+01  0.13589127447E+02  0.38881143243E+02  0.51100000000E-03 0. -1.
        -11    1    3    3    0    0 -0.21973273637E+01 -0.89003736941E+01  0.17761395161E+01  0.93380710685E+01  0.51100000000E-03 0.  1.
        -12    1    3    3    0    0  0.38952242645E+02  0.22582935536E+01 -0.14963193902E+02  0.41788446592E+02  0.00000000000E+00 0.  1.
</event>
<event>
 7    1  0.2542335E-015  0.9000771E+02  0.7816164E-02  0.1186339E+00
        -11   -1    0    0    0    0  0.00000000000E+00  0.00000000000E+00  0.45593999997E+02  0.45594000000E+02  0.51100000000E-03 0. -1.
         11   -1    0    0    0    0 -0.00000000000E+00 -0.00000000000E+00 -0.45593999997E+02  0.45594000000E+02  0.51100000000E-03 0.  1.
    9900012    2    1    2    0    0  0.41683916137E+00 -0.47123835048E+00  0.99863081043E+00  0.90007710220E+02  0.89999971195E+02 0.  0.
        -12    1    1    2    0    0 -0.41683916137E+00  0.47123835048E+00 -0.99863081043E+00  0.11802897801E+01  0.00000000000E+00 0.  1.
         11    1    3    3    0    0  0.22658776209E+02 -0.58714180974E+01  0.25553428864E+02  0.34653591686E+02  0.51100000000E-03 0. -1.
        -11    1    3    3    0    0  0.29910019820E+01 -0.45817215248E+01  0.10011451542E+02  0.11409094058E+02  0.51100000000E-03 0.  1.
        -12    1    3    3    0    0 -0.25232939030E+02  0.99819012717E+01 -0.34566249596E+02  0.43945024476E+02  0.00000000000E+00 0.  1.
</event>
<event>
 7    1  0.2542335E-015  0.9000771E+02  0.7816164E-02  0.1186339E+00
        -11   -1    0    0    0    0  0.00000000000E+00  0.00000000000E+00  0.45593999997E+02  0.45594000000E+02  0.51100000000E-03 0. -1.
         11   -1    0    0    0    0 -0.00000000000E+00 -0.00000000000E+00 -0.45593999997E+02  0.45594000000E+02  0.51100000000E-03 0.  1.
    9900012    2    1    2    0    0  0.17922157326E+00  0.89534444537E+00  0.74787901448E+00  0.90007709752E+02  0.89999970721E+02 0.  0.
        -12    1    1    2    0    0 -0.17922157326E+00 -0.89534444537E+00 -0.74787901448E+00  0.11802902476E+01  0.00000000000E+00 0.  1.
         11    1    3    3    0    0  0.17229284102E+02 -0.19279024234E+02 -0.76599389967E+01  0.26966714145E+02  0.51100000000E-03 0. -1.
        -11    1    3    3    0    0  0.10534885583E+02  0.32182083393E+01 -0.18104255407E+02  0.21192091527E+02  0.51100000000E-03 0.  1.
        -12    1    3    3    0    0 -0.27584948112E+02  0.16956160340E+02  0.26512073419E+02  0.41848904081E+02  0.00000000000E+00 0.  1.
</event>
<event>
 7    1  0.2542335E-015  0.9000798E+02  0.7816164E-02  0.1186339E+00
        -11   -1    0    0    0    0  0.00000000000E+00  0.00000000000E+00  0.45593999997E+02  0.45594000000E+02  0.51100000000E-03 0.  1.
         11   -1    0    0    0    0 -0.00000000000E+00 -0.00000000000E+00 -0.45593999997E+02  0.45594000000E+02  0.51100000000E-03 0. -1.
    9900012    2    1    2    0    0  0.55535643207E-01 -0.46380956468E+00 -0.10836287494E+01  0.90007976786E+02  0.90000241279E+02 0.  0.
        -12    1    1    2    0    0 -0.55535643207E-01  0.46380956468E+00  0.10836287494E+01  0.11800232143E+01  0.00000000000E+00 0.  1.
         11    1    3    3    0    0  0.35398044421E+02  0.44518190798E+01 -0.14676106060E+00  0.35677188524E+02  0.51100000000E-03 0. -1.
        -11    1    3    3    0    0  0.12553179457E+01 -0.28418185479E+01 -0.14813374711E+02  0.15135647538E+02  0.51100000000E-03 0.  1.
        -12    1    3    3    0    0 -0.36597826723E+02 -0.20738100966E+01  0.13876507022E+02  0.39195140723E+02  0.00000000000E+00 0.  1.
</event>
<event>
 7    1  0.2542335E-015  0.9000766E+02  0.7816164E-02  0.1186339E+00
        -11   -1    0    0    0    0  0.00000000000E+00  0.00000000000E+00  0.45593999997E+02  0.45594000000E+02  0.51100000000E-03 0. -1.
         11   -1    0    0    0    0 -0.00000000000E+00 -0.00000000000E+00 -0.45593999997E+02  0.45594000000E+02  0.51100000000E-03 0.  1.
    9900012    2    1    2    0    0  0.61912915751E+00  0.23417519032E+00  0.97725954659E+00  0.90007663118E+02  0.89999923471E+02 0.  0.
        -12    1    1    2    0    0 -0.61912915751E+00 -0.23417519032E+00 -0.97725954659E+00  0.11803368819E+01  0.00000000000E+00 0.  1.
         11    1    3    3    0    0 -0.21799365147E+02 -0.11166743591E+02  0.30424362999E+02  0.39058294220E+02  0.51100000000E-03 0. -1.
        -11    1    3    3    0    0 -0.81408370173E+01 -0.14267698275E+01 -0.41042429559E+01  0.92278767864E+01  0.51100000000E-03 0.  1.
        -12    1    3    3    0    0  0.30559331322E+02  0.12827688609E+02 -0.25342860496E+02  0.41721492112E+02  0.00000000000E+00 0.  1.
</event>
<event>
 7    1  0.2542335E-015  0.9000775E+02  0.7816164E-02  0.1186339E+00
        -11   -1    0    0    0    0  0.00000000000E+00  0.00000000000E+00  0.45593999997E+02  0.45594000000E+02  0.51100000000E-03 0.  1.
         11   -1    0    0    0    0 -0.00000000000E+00 -0.00000000000E+00 -0.45593999997E+02  0.45594000000E+02  0.51100000000E-03 0. -1.
    9900012    2    1    2    0    0 -0.98397585027E+00 -0.48406709960E+00  0.43641448174E+00  0.90007751284E+02  0.90000012801E+02 0.  0.
        -12    1    1    2    0    0  0.98397585027E+00  0.48406709960E+00 -0.43641448174E+00  0.11802487156E+01  0.00000000000E+00 0.  1.
         11    1    3    3    0    0  0.34272245479E+02 -0.14816086553E+02  0.16738009177E+02  0.40917773428E+02  0.51100000000E-03 0. -1.
        -11    1    3    3    0    0 -0.52063668176E+01  0.66392891778E+01  0.64512567881E+01  0.10620975974E+02  0.51100000000E-03 0.  1.
        -12    1    3    3    0    0 -0.30049854511E+02  0.76927302751E+01 -0.22752851483E+02  0.38469001882E+02  0.00000000000E+00 0.  1.
</event>
<event>
 7    1  0.2542335E-015  0.9000793E+02  0.7816164E-02  0.1186339E+00
        -11   -1    0    0    0    0  0.00000000000E+00  0.00000000000E+00  0.45593999997E+02  0.45594000000E+02  0.51100000000E-03 0. -1.
         11   -1    0    0    0    0 -0.00000000000E+00 -0.00000000000E+00 -0.45593999997E+02  0.45594000000E+02  0.51100000000E-03 0.  1.
    9900012    2    1    2    0    0  0.61623536125E+00 -0.55822092948E+00  0.83738886327E+00  0.90007925115E+02  0.90000188926E+02 0.  0.
        -12    1    1    2    0    0 -0.61623536125E+00  0.55822092948E+00 -0.83738886327E+00  0.11800748853E+01  0.00000000000E+00 0.  1.
         11    1    3    3    0    0  0.10232113484E+02 -0.31511118355E+02  0.10139988483E+02  0.34647742972E+02  0.51100000000E-03 0. -1.
        -11    1    3    3    0    0  0.15248289137E+02  0.46916840622E+01  0.46183630431E+01  0.16608777752E+02  0.51100000000E-03 0.  1.
        -12    1    3    3    0    0 -0.24864167260E+02  0.26261213363E+02 -0.13920962663E+02  0.38751404391E+02  0.00000000000E+00 0.  1.
</event>
<event>
 7    1  0.2542335E-015  0.9000747E+02  0.7816164E-02  0.1186340E+00
        -11   -1    0    0    0    0  0.00000000000E+00  0.00000000000E+00  0.45593999997E+02  0.45594000000E+02  0.51100000000E-03 0.  1.
         11   -1    0    0    0    0 -0.00000000000E+00 -0.00000000000E+00 -0.45593999997E+02  0.45594000000E+02  0.51100000000E-03 0. -1.
    9900012    2    1    2    0    0  0.10893618717E+01 -0.67438785949E-01 -0.44987632739E+00  0.90007472157E+02  0.89999729989E+02 0.  0.
        -12    1    1    2    0    0 -0.10893618717E+01  0.67438785949E-01  0.44987632739E+00  0.11805278427E+01  0.00000000000E+00 0.  1.
         11    1    3    3    0    0  0.17253551587E+02  0.37081411309E+01 -0.37951414037E+02  0.41853855028E+02  0.51100000000E-03 0. -1.
        -11    1    3    3    0    0  0.63731154775E+01  0.14551558422E+01  0.48676175915E+01  0.81503239625E+01  0.51100000000E-03 0.  1.
        -12    1    3    3    0    0 -0.22537305193E+02 -0.52307357590E+01  0.32633920118E+02  0.40003293167E+02  0.00000000000E+00 0.  1.
</event>
<event>
 7    1  0.2542335E-015  0.9000768E+02  0.7816164E-02  0.1186339E+00
        -11   -1    0    0    0    0  0.00000000000E+00  0.00000000000E+00  0.45593999997E+02  0.45594000000E+02  0.51100000000E-03 0.  1.
         11   -1    0    0    0    0 -0.00000000000E+00 -0.00000000000E+00 -0.45593999997E+02  0.45594000000E+02  0.51100000000E-03 0. -1.
    9900012    2    1    2    0    0 -0.10621308063E+01 -0.48602776080E+00  0.16974716526E+00  0.90007678462E+02  0.89999939017E+02 0.  0.
        -12    1    1    2    0    0  0.10621308063E+01  0.48602776080E+00 -0.16974716526E+00  0.11803215384E+01  0.00000000000E+00 0.  1.
         11    1    3    3    0    0  0.20535740860E+01  0.11928089564E+02  0.78242740794E+01  0.14412347217E+02  0.51100000000E-03 0. -1.
        -11    1    3    3    0    0 -0.13081421029E+01  0.40756599612E+01  0.32170258244E+02  0.32453778757E+02  0.51100000000E-03 0.  1.
         12    1    3    3    0    0 -0.18075627894E+01 -0.16489777286E+02 -0.39824785158E+02  0.43141552488E+02  0.00000000000E+00 0. -1.
</event>
<event>
 7    1  0.2542335E-015  0.9000781E+02  0.7816164E-02  0.1186339E+00
        -11   -1    0    0    0    0  0.00000000000E+00  0.00000000000E+00  0.45593999997E+02  0.45594000000E+02  0.51100000000E-03 0.  1.
         11   -1    0    0    0    0 -0.00000000000E+00 -0.00000000000E+00 -0.45593999997E+02  0.45594000000E+02  0.51100000000E-03 0. -1.
    9900012    2    1    2    0    0 -0.70677359201E+00  0.69817340441E+00 -0.63708107679E+00  0.90007810476E+02  0.90000072775E+02 0.  0.
        -12    1    1    2    0    0  0.70677359201E+00 -0.69817340441E+00  0.63708107679E+00  0.11801895235E+01  0.00000000000E+00 0.  1.
         11    1    3    3    0    0 -0.12292661223E+01  0.18237366677E+02  0.25653641554E+01  0.18457890779E+02  0.51100000000E-03 0. -1.
        -11    1    3    3    0    0  0.31045334490E+01  0.64593556817E+01  0.29807371948E+02  0.30656823489E+02  0.51100000000E-03 0.  1.
         12    1    3    3    0    0 -0.25820409188E+01 -0.23998548954E+02 -0.33009817180E+02  0.40893096208E+02  0.00000000000E+00 0. -1.
</event>
<event>
 7    1  0.2542335E-015  0.9000747E+02  0.7816164E-02  0.1186340E+00
        -11   -1    0    0    0    0  0.00000000000E+00  0.00000000000E+00  0.45593999997E+02  0.45594000000E+02  0.51100000000E-03 0.  1.
         11   -1    0    0    0    0 -0.00000000000E+00 -0.00000000000E+00 -0.45593999997E+02  0.45594000000E+02  0.51100000000E-03 0. -1.
    9900012    2    1    2    0    0 -0.50155180954E+00 -0.10580546492E+01  0.15037984467E+00  0.90007471323E+02  0.89999729145E+02 0.  0.
        -12    1    1    2    0    0  0.50155180954E+00  0.10580546492E+01 -0.15037984467E+00  0.11805286765E+01  0.00000000000E+00 0.  1.
         11    1    3    3    0    0 -0.39364654053E+02 -0.10932139373E+02 -0.48387995398E+01  0.41140024808E+02  0.51100000000E-03 0. -1.
        -11    1    3    3    0    0  0.21738183745E+01  0.81454715246E+00  0.10431185984E+02  0.10686375189E+02  0.51100000000E-03 0.  1.
        -12    1    3    3    0    0  0.36689283869E+02  0.90595375711E+01 -0.54420065991E+01  0.38181071326E+02  0.00000000000E+00 0.  1.
</event>
<event>
 7    1  0.2542335E-015  0.9000779E+02  0.7816164E-02  0.1186339E+00
        -11   -1    0    0    0    0  0.00000000000E+00  0.00000000000E+00  0.45593999997E+02  0.45594000000E+02  0.51100000000E-03 0. -1.
         11   -1    0    0    0    0 -0.00000000000E+00 -0.00000000000E+00 -0.45593999997E+02  0.45594000000E+02  0.51100000000E-03 0.  1.
    9900012    2    1    2    0    0 -0.57623875336E-01  0.88310657372E+00  0.78083406167E+00  0.90007788340E+02  0.90000050346E+02 0.  0.
        -12    1    1    2    0    0  0.57623875336E-01 -0.88310657372E+00 -0.78083406167E+00  0.11802116604E+01  0.00000000000E+00 0.  1.
         11    1    3    3    0    0 -0.66818164486E+01 -0.32451547517E+02  0.10762027567E+01  0.33149778581E+02  0.51100000000E-03 0. -1.
        -11    1    3    3    0    0 -0.58419646832E+01 -0.10096140351E+02  0.33033459865E+00  0.11669178315E+02  0.51100000000E-03 0.  1.
        -12    1    3    3    0    0  0.12466157256E+02  0.43430794442E+02 -0.62570329369E+00  0.45188831443E+02  0.00000000000E+00 0.  1.
</event>
<event>
 7    1  0.2542335E-015  0.9000769E+02  0.7816164E-02  0.1186339E+00
        -11   -1    0    0    0    0  0.00000000000E+00  0.00000000000E+00  0.45593999997E+02  0.45594000000E+02  0.51100000000E-03 0. -1.
         11   -1    0    0    0    0 -0.00000000000E+00 -0.00000000000E+00 -0.45593999997E+02  0.45594000000E+02  0.51100000000E-03 0.  1.
    9900012    2    1    2    0    0 -0.11413618400E+01  0.29846828431E+00  0.36635244000E-01  0.90007689741E+02  0.89999950446E+02 0.  0.
        -12    1    1    2    0    0  0.11413618400E+01 -0.29846828431E+00 -0.36635244000E-01  0.11803102590E+01  0.00000000000E+00 0.  1.
         11    1    3    3    0    0  0.93021478785E+01  0.18822795515E+01 -0.52828797678E+00  0.95053679524E+01  0.51100000000E-03 0. -1.
        -11    1    3    3    0    0  0.10721286275E+02  0.35664888667E+02  0.43451091547E+01  0.37494136033E+02  0.51100000000E-03 0.  1.
         12    1    3    3    0    0 -0.21164795994E+02 -0.37248699935E+02 -0.37801859339E+01  0.43008185755E+02  0.00000000000E+00 0. -1.
</event>
<event>
 7    1  0.2542335E-015  0.9000794E+02  0.7816164E-02  0.1186339E+00
        -11   -1    0    0    0    0  0.00000000000E+00  0.00000000000E+00  0.45593999997E+02  0.45594000000E+02  0.51100000000E-03 0. -1.
         11   -1    0    0    0    0 -0.00000000000E+00 -0.00000000000E+00 -0.45593999997E+02  0.45594000000E+02  0.51100000000E-03 0.  1.
    9900012    2    1    2    0    0 -0.32052026887E-01 -0.92084498400E+00  0.73726562396E+00  0.90007939232E+02  0.90000203229E+02 0.  0.
        -12    1    1    2    0    0  0.32052026887E-01  0.92084498400E+00 -0.73726562396E+00  0.11800607685E+01  0.00000000000E+00 0.  1.
         11    1    3    3    0    0  0.30455815986E+01 -0.73438808440E+01 -0.78768009163E+01  0.11191610521E+02  0.51100000000E-03 0. -1.
        -11    1    3    3    0    0  0.26423577531E+02  0.76375107825E+00 -0.23120683588E+02  0.35119151116E+02  0.51100000000E-03 0.  1.
         12    1    3    3    0    0 -0.29501211157E+02  0.56592847817E+01  0.31734750129E+02  0.43697177594E+02  0.00000000000E+00 0. -1.
</event>
<event>
 7    1  0.2542335E-015  0.9000775E+02  0.7816164E-02  0.1186339E+00
        -11   -1    0    0    0    0  0.00000000000E+00  0.00000000000E+00  0.45593999997E+02  0.45594000000E+02  0.51100000000E-03 0.  1.
         11   -1    0    0    0    0 -0.00000000000E+00 -0.00000000000E+00 -0.45593999997E+02  0.45594000000E+02  0.51100000000E-03 0. -1.
    9900012    2    1    2    0    0  0.10366897126E+01 -0.67306153739E-01 -0.56012292992E+00  0.90007748597E+02  0.90000010078E+02 0.  0.
        -12    1    1    2    0    0 -0.10366897126E+01  0.67306153739E-01  0.56012292992E+00  0.11802514034E+01  0.00000000000E+00 0.  1.
         11    1    3    3    0    0 -0.34536251933E+01  0.86231733532E+01 -0.30542710903E+01  0.97783034219E+01  0.51100000000E-03 0. -1.
        -11    1    3    3    0    0 -0.21723611708E+02  0.27485049221E+02 -0.32635307673E+01  0.35185137056E+02  0.51100000000E-03 0.  1.
         12    1    3    3    0    0  0.26213926614E+02 -0.36175528728E+02  0.57576789276E+01  0.45044308119E+02  0.00000000000E+00 0. -1.
</event>
<event>
 7    1  0.2542335E-015  0.9000776E+02  0.7816164E-02  0.1186339E+00
        -11   -1    0    0    0    0  0.00000000000E+00  0.00000000000E+00  0.45593999997E+02  0.45594000000E+02  0.51100000000E-03 0.  1.
         11   -1    0    0    0    0 -0.00000000000E+00 -0.00000000000E+00 -0.45593999997E+02  0.45594000000E+02  0.51100000000E-03 0. -1.
    9900012    2    1    2    0    0  0.99600656867E+00  0.87698294837E-01 -0.62709607006E+00  0.90007758687E+02  0.90000020302E+02 0.  0.
        -12    1    1    2    0    0 -0.99600656867E+00 -0.87698294837E-01  0.62709607006E+00  0.11802413130E+01  0.00000000000E+00 0.  1.
         11    1    3    3    0    0 -0.63449546521E+01 -0.27668769991E+01  0.76886981127E+01  0.10345537047E+02  0.51100000000E-03 0. -1.
        -11    1    3    3    0    0  0.20097543959E+02 -0.34183595485E+02 -0.81789098374E+01  0.40488566779E+02  0.51100000000E-03 0.  1.
         12    1    3    3    0    0 -0.12756582738E+02  0.37038170779E+02 -0.13688434532E+00  0.39173654860E+02  0.00000000000E+00 0. -1.
</event>
<event>
 7    1  0.2542335E-015  0.9000775E+02  0.7816164E-02  0.1186339E+00
        -11   -1    0    0    0    0  0.00000000000E+00  0.00000000000E+00  0.45593999997E+02  0.45594000000E+02  0.51100000000E-03 0. -1.
         11   -1    0    0    0    0 -0.00000000000E+00 -0.00000000000E+00 -0.45593999997E+02  0.45594000000E+02  0.51100000000E-03 0.  1.
    9900012    2    1    2    0    0  0.36079455719E+00  0.76378176188E+00  0.82428936220E+00  0.90007750770E+02  0.90000012280E+02 0.  0.
        -12    1    1    2    0    0 -0.36079455719E+00 -0.76378176188E+00 -0.82428936220E+00  0.11802492300E+01  0.00000000000E+00 0.  1.
         11    1    3    3    0    0  0.10916891786E+02  0.44440121725E+01 -0.74887740936E+01  0.13964580486E+02  0.51100000000E-03 0. -1.
        -11    1    3    3    0    0  0.40357824683E+01  0.30494707031E+02 -0.12784986144E+02  0.33311718178E+02  0.51100000000E-03 0.  1.
         12    1    3    3    0    0 -0.14591879697E+02 -0.34174937441E+02  0.21098049599E+02  0.42731452106E+02  0.00000000000E+00 0. -1.
</event>
<event>
 7    1  0.2542335E-015  0.9000782E+02  0.7816164E-02  0.1186339E+00
        -11   -1    0    0    0    0  0.00000000000E+00  0.00000000000E+00  0.45593999997E+02  0.45594000000E+02  0.51100000000E-03 0.  1.
         11   -1    0    0    0    0 -0.00000000000E+00 -0.00000000000E+00 -0.45593999997E+02  0.45594000000E+02  0.51100000000E-03 0. -1.
    9900012    2    1    2    0    0  0.59005141004E+00 -0.10219773888E+01  0.14690019650E-01  0.90007824485E+02  0.90000086968E+02 0.  0.
        -12    1    1    2    0    0 -0.59005141004E+00  0.10219773888E+01 -0.14690019650E-01  0.11801755151E+01  0.00000000000E+00 0.  1.
         11    1    3    3    0    0 -0.34945895621E+01  0.16924666385E+02 -0.31951265938E+02  0.36325471556E+02  0.51100000000E-03 0. -1.
        -11    1    3    3    0    0 -0.50214559561E+01  0.19816468587E+01 -0.70834904158E+01  0.89060530497E+01  0.51100000000E-03 0.  1.
        -12    1    3    3    0    0  0.91060969282E+01 -0.19928290633E+02  0.39049446373E+02  0.44776299879E+02  0.00000000000E+00 0.  1.
</event>
<event>
 7    1  0.2542335E-015  0.9000773E+02  0.7816164E-02  0.1186339E+00
        -11   -1    0    0    0    0  0.00000000000E+00  0.00000000000E+00  0.45593999997E+02  0.45594000000E+02  0.51100000000E-03 0. -1.
         11   -1    0    0    0    0 -0.00000000000E+00 -0.00000000000E+00 -0.45593999997E+02  0.45594000000E+02  0.51100000000E-03 0.  1.
    9900012    2    1    2    0    0 -0.30138866254E+00 -0.10547515696E+01  0.43554114204E+00  0.90007732197E+02  0.89999993462E+02 0.  0.
        -12    1    1    2    0    0  0.30138866254E+00  0.10547515696E+01 -0.43554114204E+00  0.11802678026E+01  0.00000000000E+00 0.  1.
         11    1    3    3    0    0  0.34188733617E+01 -0.18634542264E+02  0.20130442336E+02  0.27643617154E+02  0.51100000000E-03 0. -1.
        -11    1    3    3    0    0 -0.11368173267E+02 -0.18168309535E+02 -0.13380355641E+02  0.25265722870E+02  0.51100000000E-03 0.  1.
        -12    1    3    3    0    0  0.76479112429E+01  0.35748100229E+02 -0.63145455522E+01  0.37098392174E+02  0.00000000000E+00 0.  1.
</event>
<event>
 7    1  0.2542335E-015  0.9000770E+02  0.7816164E-02  0.1186339E+00
        -11   -1    0    0    0    0  0.00000000000E+00  0.00000000000E+00  0.45593999997E+02  0.45594000000E+02  0.51100000000E-03 0. -1.
         11   -1    0    0    0    0 -0.00000000000E+00 -0.00000000000E+00 -0.45593999997E+02  0.45594000000E+02  0.51100000000E-03 0.  1.
    9900012    2    1    2    0    0  0.16130074173E+00 -0.12142192276E+00  0.11629057755E+01  0.90007698744E+02  0.89999959567E+02 0.  0.
        -12    1    1    2    0    0 -0.16130074173E+00  0.12142192276E+00 -0.11629057755E+01  0.11803012562E+01  0.00000000000E+00 0.  1.
         11    1    3    3    0    0 -0.20137316018E+02  0.31217711965E+02 -0.55324215692E+01  0.37558816880E+02  0.51100000000E-03 0. -1.
        -11    1    3    3    0    0  0.40150377014E+01  0.82659423712E+01  0.15429906651E+01  0.93181087932E+01  0.51100000000E-03 0.  1.
        -12    1    3    3    0    0  0.16283579058E+02 -0.39605076259E+02  0.51523366796E+01  0.43130773071E+02  0.00000000000E+00 0.  1.
</event>
<event>
 7    1  0.2542335E-015  0.9000771E+02  0.7816164E-02  0.1186339E+00
        -11   -1    0    0    0    0  0.00000000000E+00  0.00000000000E+00  0.45593999997E+02  0.45594000000E+02  0.51100000000E-03 0. -1.
         11   -1    0    0    0    0 -0.00000000000E+00 -0.00000000000E+00 -0.45593999997E+02  0.45594000000E+02  0.51100000000E-03 0.  1.
    9900012    2    1    2    0    0 -0.10801928062E+01  0.13512446542E+00 -0.45607581749E+00  0.90007711785E+02  0.89999972780E+02 0.  0.
        -12    1    1    2    0    0  0.10801928062E+01 -0.13512446542E+00  0.45607581749E+00  0.11802882153E+01  0.00000000000E+00 0.  1.
         11    1    3    3    0    0 -0.15078913187E+01  0.66250782533E+01 -0.95004221978E+01  0.11680043677E+02  0.51100000000E-03 0. -1.
        -11    1    3    3    0    0 -0.25343586126E+02 -0.84049583870E+01  0.33438022048E+02  0.42790676577E+02  0.51100000000E-03 0.  1.
         12    1    3    3    0    0  0.25771284638E+02  0.19150045991E+01 -0.24393675667E+02  0.35536991531E+02  0.00000000000E+00 0. -1.
</event>
<event>
 7    1  0.2542335E-015  0.9000775E+02  0.7816164E-02  0.1186339E+00
        -11   -1    0    0    0    0  0.00000000000E+00  0.00000000000E+00  0.45593999997E+02  0.45594000000E+02  0.51100000000E-03 0.  1.
         11   -1    0    0    0    0 -0.00000000000E+00 -0.00000000000E+00 -0.45593999997E+02  0.45594000000E+02  0.51100000000E-03 0. -1.
    9900012    2    1    2    0    0 -0.46435268235E+00  0.99508311867E+00 -0.43264899773E+00  0.90007746221E+02  0.90000007672E+02 0.  0.
        -12    1    1    2    0    0  0.46435268235E+00 -0.99508311867E+00  0.43264899773E+00  0.11802537786E+01  0.00000000000E+00 0.  1.
         11    1    3    3    0    0 -0.54723826183E+01  0.71400690662E+01 -0.35960563502E+02  0.37068715724E+02  0.51100000000E-03 0. -1.
        -11    1    3    3    0    0 -0.37617729648E+01 -0.82391142927E+01 -0.57232567039E+01  0.10713991214E+02  0.51100000000E-03 0.  1.
        -12    1    3    3    0    0  0.87698029007E+01  0.20941283451E+01  0.41251171208E+02  0.42225039284E+02  0.00000000000E+00 0.  1.
</event>
<event>
 7    1  0.2542335E-015  0.9000769E+02  0.7816164E-02  0.1186339E+00
        -11   -1    0    0    0    0  0.00000000000E+00  0.00000000000E+00  0.45593999997E+02  0.45594000000E+02  0.51100000000E-03 0.  1.
         11   -1    0    0    0    0 -0.00000000000E+00 -0.00000000000E+00 -0.45593999997E+02  0.45594000000E+02  0.51100000000E-03 0. -1.
    9900012    2    1    2    0    0  0.10871038946E+01 -0.15316565721E+00 -0.43344169865E+00  0.90007692285E+02  0.89999953023E+02 0.  0.
        -12    1    1    2    0    0 -0.10871038946E+01  0.15316565721E+00  0.43344169865E+00  0.11803077151E+01  0.00000000000E+00 0.  1.
         11    1    3    3    0    0 -0.27283940284E+02  0.84282306368E+01 -0.20122294620E+02  0.34933582842E+02  0.51100000000E-03 0. -1.
        -11    1    3    3    0    0  0.48100431936E+01  0.15356742136E+02 -0.94850639162E-01  0.16092701496E+02  0.51100000000E-03 0.  1.
        -12    1    3    3    0    0  0.23561000985E+02 -0.23938138430E+02  0.19783703561E+02  0.38981407947E+02  0.00000000000E+00 0.  1.
</event>
<event>
 7    1  0.2542335E-015  0.9000774E+02  0.7816164E-02  0.1186339E+00
        -11   -1    0    0    0    0  0.00000000000E+00  0.00000000000E+00  0.45593999997E+02  0.45594000000E+02  0.51100000000E-03 0.  1.
         11   -1    0    0    0    0 -0.00000000000E+00 -0.00000000000E+00 -0.45593999997E+02  0.45594000000E+02  0.51100000000E-03 0. -1.
    9900012    2    1    2    0    0  0.10841562167E-01 -0.99171667490E+00  0.63983531376E+00  0.90007742091E+02  0.90000003487E+02 0.  0.
        -12    1    1    2    0    0 -0.10841562167E-01  0.99171667490E+00 -0.63983531376E+00  0.11802579089E+01  0.00000000000E+00 0.  1.
         11    1    3    3    0    0 -0.23394242255E+02  0.15871452705E+02 -0.25006636419E+02  0.37742886044E+02  0.51100000000E-03 0. -1.
        -11    1    3    3    0    0 -0.91101396355E+00 -0.11340637558E+02 -0.52761688888E+01  0.12541051194E+02  0.51100000000E-03 0.  1.
        -12    1    3    3    0    0  0.24316097780E+02 -0.55225318221E+01  0.30922640622E+02  0.39723804853E+02  0.00000000000E+00 0.  1.
</event>
<event>
 7    1  0.2542335E-015  0.9000766E+02  0.7816164E-02  0.1186339E+00
        -11   -1    0    0    0    0  0.00000000000E+00  0.00000000000E+00  0.45593999997E+02  0.45594000000E+02  0.51100000000E-03 0.  1.
         11   -1    0    0    0    0 -0.00000000000E+00 -0.00000000000E+00 -0.45593999997E+02  0.45594000000E+02  0.51100000000E-03 0. -1.
    9900012    2    1    2    0    0 -0.60189508119E+00  0.19069986997E+00 -0.99727483699E+00  0.90007660545E+02  0.89999920864E+02 0.  0.
        -12    1    1    2    0    0  0.60189508119E+00 -0.19069986997E+00  0.99727483699E+00  0.11803394553E+01  0.00000000000E+00 0.  1.
         11    1    3    3    0    0 -0.26815556209E+02 -0.15930704022E+02  0.16158741255E+02  0.35127856534E+02  0.51100000000E-03 0. -1.
        -11    1    3    3    0    0 -0.13115213486E+01 -0.11525401490E+02  0.13910066215E+01  0.11682887804E+02  0.51100000000E-03 0.  1.
        -12    1    3    3    0    0  0.27525182477E+02  0.27646805382E+02 -0.18547022714E+02  0.43196916207E+02  0.00000000000E+00 0.  1.
</event>
<event>
 7    1  0.2542335E-015  0.9000794E+02  0.7816164E-02  0.1186339E+00
        -11   -1    0    0    0    0  0.00000000000E+00  0.00000000000E+00  0.45593999997E+02  0.45594000000E+02  0.51100000000E-03 0. -1.
         11   -1    0    0    0    0 -0.00000000000E+00 -0.00000000000E+00 -0.45593999997E+02  0.45594000000E+02  0.51100000000E-03 0.  1.
    9900012    2    1    2    0    0  0.70277017450E+00 -0.34056576144E+00  0.88468650070E+00  0.90007940188E+02  0.90000204198E+02 0.  0.
        -12    1    1    2    0    0 -0.70277017450E+00  0.34056576144E+00 -0.88468650070E+00  0.11800598123E+01  0.00000000000E+00 0.  1.
         11    1    3    3    0    0  0.39523422137E+01 -0.13510927182E+01 -0.77074379331E+01  0.87664736502E+01  0.51100000000E-03 0. -1.
        -11    1    3    3    0    0  0.27316619163E+02  0.70556281828E+01 -0.23347716387E+02  0.36620969844E+02  0.51100000000E-03 0.  1.
         12    1    3    3    0    0 -0.30566191202E+02 -0.60451012261E+01  0.31939840821E+02  0.44620496693E+02  0.00000000000E+00 0. -1.
</event>
<event>
 7    1  0.2542335E-015  0.9000767E+02  0.7816164E-02  0.1186339E+00
        -11   -1    0    0    0    0  0.00000000000E+00  0.00000000000E+00  0.45593999997E+02  0.45594000000E+02  0.51100000000E-03 0.  1.
         11   -1    0    0    0    0 -0.00000000000E+00 -0.00000000000E+00 -0.45593999997E+02  0.45594000000E+02  0.51100000000E-03 0. -1.
    9900012    2    1    2    0    0 -0.12048140387E+00 -0.80170640495E+00 -0.85786198232E+00  0.90007671186E+02  0.89999931646E+02 0.  0.
        -12    1    1    2    0    0  0.12048140387E+00  0.80170640495E+00  0.85786198232E+00  0.11803288140E+01  0.00000000000E+00 0.  1.
         11    1    3    3    0    0 -0.21802105160E+02  0.24963685321E+01 -0.31560640909E+02  0.38440053331E+02  0.51100000000E-03 0. -1.
        -11    1    3    3    0    0 -0.23028067793E+01 -0.91694620140E+01 -0.28807324807E+01  0.98833482472E+01  0.51100000000E-03 0.  1.
        -12    1    3    3    0    0  0.23984430535E+02  0.58713870770E+01  0.33583511407E+02  0.41684269608E+02  0.00000000000E+00 0.  1.
</event>
<event>
 7    1  0.2542335E-015  0.9000771E+02  0.7816164E-02  0.1186339E+00
        -11   -1    0    0    0    0  0.00000000000E+00  0.00000000000E+00  0.45593999997E+02  0.45594000000E+02  0.51100000000E-03 0.  1.
         11   -1    0    0    0    0 -0.00000000000E+00 -0.00000000000E+00 -0.45593999997E+02  0.45594000000E+02  0.51100000000E-03 0. -1.
    9900012    2    1    2    0    0  0.58108862733E+00 -0.61271225208E+00 -0.82462770043E+00  0.90007707180E+02  0.89999968115E+02 0.  0.
        -12    1    1    2    0    0 -0.58108862733E+00  0.61271225208E+00  0.82462770043E+00  0.11802928200E+01  0.00000000000E+00 0.  1.
         11    1    3    3    0    0 -0.16871164157E+02 -0.14247275277E+02 -0.28041396230E+02  0.35692309194E+02  0.51100000000E-03 0. -1.
        -11    1    3    3    0    0  0.91673896719E+01 -0.47464118870E+01 -0.84525592415E+01  0.13342234340E+02  0.51100000000E-03 0.  1.
        -12    1    3    3    0    0  0.82848631129E+01  0.18380974912E+02  0.35669327771E+02  0.40973163646E+02  0.00000000000E+00 0.  1.
</event>
<event>
 7    1  0.2542335E-015  0.9000769E+02  0.7816164E-02  0.1186339E+00
        -11   -1    0    0    0    0  0.00000000000E+00  0.00000000000E+00  0.45593999997E+02  0.45594000000E+02  0.51100000000E-03 0.  1.
         11   -1    0    0    0    0 -0.00000000000E+00 -0.00000000000E+00 -0.45593999997E+02  0.45594000000E+02  0.51100000000E-03 0. -1.
    9900012    2    1    2    0    0  0.66354777400E+00 -0.31263688004E+00  0.92471210408E+00  0.90007690743E+02  0.89999951461E+02 0.  0.
        -12    1    1    2    0    0 -0.66354777400E+00  0.31263688004E+00 -0.92471210408E+00  0.11803092572E+01  0.00000000000E+00 0.  1.
         11    1    3    3    0    0  0.69628122773E+01  0.10343478142E+02 -0.38628816990E+02  0.40591301990E+02  0.51100000000E-03 0. -1.
        -11    1    3    3    0    0  0.90002873887E+01 -0.27860493844E+01  0.46585748772E+01  0.10510450247E+02  0.51100000000E-03 0.  1.
        -12    1    3    3    0    0 -0.15299551892E+02 -0.78700656378E+01  0.34894954217E+02  0.38905938506E+02  0.00000000000E+00 0.  1.
</event>
<event>
 7    1  0.2542335E-015  0.9000773E+02  0.7816164E-02  0.1186339E+00
        -11   -1    0    0    0    0  0.00000000000E+00  0.00000000000E+00  0.45593999997E+02  0.45594000000E+02  0.51100000000E-03 0.  1.
         11   -1    0    0    0    0 -0.00000000000E+00 -0.00000000000E+00 -0.45593999997E+02  0.45594000000E+02  0.51100000000E-03 0. -1.
    9900012    2    1    2    0    0  0.27402367871E+00  0.70792505332E+00  0.90376651706E+00  0.90007728516E+02  0.89999989733E+02 0.  0.
        -12    1    1    2    0    0 -0.27402367871E+00 -0.70792505332E+00 -0.90376651706E+00  0.11802714836E+01  0.00000000000E+00 0.  1.
         11    1    3    3    0    0  0.49003679159E+01 -0.73917593412E+01 -0.37465083023E+02  0.38500443608E+02  0.51100000000E-03 0. -1.
        -11    1    3    3    0    0 -0.63675311194E+01 -0.44443520470E+01 -0.29382045708E+01  0.83024553016E+01  0.51100000000E-03 0.  1.
        -12    1    3    3    0    0  0.17411868822E+01  0.12544036442E+02  0.41307054111E+02  0.43204829606E+02  0.00000000000E+00 0.  1.
</event>
<event>
 7    1  0.2542335E-015  0.9000779E+02  0.7816164E-02  0.1186339E+00
        -11   -1    0    0    0    0  0.00000000000E+00  0.00000000000E+00  0.45593999997E+02  0.45594000000E+02  0.51100000000E-03 0.  1.
         11   -1    0    0    0    0 -0.00000000000E+00 -0.00000000000E+00 -0.45593999997E+02  0.45594000000E+02  0.51100000000E-03 0. -1.
    9900012    2    1    2    0    0  0.76563227365E+00  0.90752428478E-01 -0.89357589317E+00  0.90007785334E+02  0.90000047300E+02 0.  0.
        -12    1    1    2    0    0 -0.76563227365E+00 -0.90752428478E-01  0.89357589317E+00  0.11802146663E+01  0.00000000000E+00 0.  1.
         11    1    3    3    0    0  0.27432869061E+02 -0.16761058874E+02 -0.24535510392E+02  0.40441150700E+02  0.51100000000E-03 0. -1.
        -11    1    3    3    0    0 -0.36222132277E+01 -0.77280854215E+01  0.23023210481E+00  0.85379587743E+01  0.51100000000E-03 0.  1.
        -12    1    3    3    0    0 -0.23045023560E+02  0.24579896724E+02  0.23411702394E+02  0.41028675859E+02  0.00000000000E+00 0.  1.
</event>
<event>
 7    1  0.2542335E-015  0.9000775E+02  0.7816164E-02  0.1186339E+00
        -11   -1    0    0    0    0  0.00000000000E+00  0.00000000000E+00  0.45593999997E+02  0.45594000000E+02  0.51100000000E-03 0. -1.
         11   -1    0    0    0    0 -0.00000000000E+00 -0.00000000000E+00 -0.45593999997E+02  0.45594000000E+02  0.51100000000E-03 0.  1.
    9900012    2    1    2    0    0 -0.16314997942E+00 -0.55507169969E+00  0.10287170758E+01  0.90007753700E+02  0.90000015248E+02 0.  0.
        -12    1    1    2    0    0  0.16314997942E+00  0.55507169969E+00 -0.10287170758E+01  0.11802463004E+01  0.00000000000E+00 0.  1.
         11    1    3    3    0    0  0.31235483711E+01 -0.79588009820E+01 -0.28955308435E+00  0.85547009736E+01  0.51100000000E-03 0. -1.
        -11    1    3    3    0    0  0.15545681444E+02  0.28831983749E+02 -0.26102129193E+02  0.41884038095E+02  0.51100000000E-03 0.  1.
         12    1    3    3    0    0 -0.18832379794E+02 -0.21428254467E+02  0.27420399353E+02  0.39569014631E+02  0.00000000000E+00 0. -1.
</event>
<event>
 7    1  0.2542335E-015  0.9000774E+02  0.7816164E-02  0.1186339E+00
        -11   -1    0    0    0    0  0.00000000000E+00  0.00000000000E+00  0.45593999997E+02  0.45594000000E+02  0.51100000000E-03 0. -1.
         11   -1    0    0    0    0 -0.00000000000E+00 -0.00000000000E+00 -0.45593999997E+02  0.45594000000E+02  0.51100000000E-03 0.  1.
    9900012    2    1    2    0    0 -0.52309466193E+00  0.90863302051E+00  0.54199937665E+00  0.90007743538E+02  0.90000004953E+02 0.  0.
        -12    1    1    2    0    0  0.52309466193E+00 -0.90863302051E+00 -0.54199937665E+00  0.11802564618E+01  0.00000000000E+00 0.  1.
         11    1    3    3    0    0  0.42791012932E+01 -0.42455478769E+01 -0.20427377529E+01  0.63646023003E+01  0.51100000000E-03 0. -1.
        -11    1    3    3    0    0  0.26889788234E+02  0.31762252162E+02  0.63234029978E+01  0.42093785758E+02  0.51100000000E-03 0.  1.
         12    1    3    3    0    0 -0.31691984189E+02 -0.26608071265E+02 -0.37386658683E+01  0.41549355480E+02  0.00000000000E+00 0. -1.
</event>
<event>
 7    1  0.2542335E-015  0.9000776E+02  0.7816164E-02  0.1186339E+00
        -11   -1    0    0    0    0  0.00000000000E+00  0.00000000000E+00  0.45593999997E+02  0.45594000000E+02  0.51100000000E-03 0.  1.
         11   -1    0    0    0    0 -0.00000000000E+00 -0.00000000000E+00 -0.45593999997E+02  0.45594000000E+02  0.51100000000E-03 0. -1.
    9900012    2    1    2    0    0 -0.44329084789E+00  0.94994573062E+00 -0.54228074933E+00  0.90007757619E+02  0.90000019220E+02 0.  0.
        -12    1    1    2    0    0  0.44329084789E+00 -0.94994573062E+00  0.54228074933E+00  0.11802423811E+01  0.00000000000E+00 0.  1.
         11    1    3    3    0    0  0.19982319403E+02 -0.15319499499E+02 -0.33800059381E+02  0.42147647242E+02  0.51100000000E-03 0. -1.
        -11    1    3    3    0    0  0.17051291342E+01  0.91268837170E+01  0.31232847696E+01  0.97960389832E+01  0.51100000000E-03 0.  1.
        -12    1    3    3    0    0 -0.22130739385E+02  0.71425615122E+01  0.30134493863E+02  0.38064071393E+02  0.00000000000E+00 0.  1.
</event>
<event>
 7    1  0.2542335E-015  0.9000770E+02  0.7816164E-02  0.1186339E+00
        -11   -1    0    0    0    0  0.00000000000E+00  0.00000000000E+00  0.45593999997E+02  0.45594000000E+02  0.51100000000E-03 0. -1.
         11   -1    0    0    0    0 -0.00000000000E+00 -0.00000000000E+00 -0.45593999997E+02  0.45594000000E+02  0.51100000000E-03 0.  1.
    9900012    2    1    2    0    0 -0.11437565101E+01  0.38349798227E-01 -0.28887164887E+00  0.90007704914E+02  0.89999965818E+02 0.  0.
        -12    1    1    2    0    0  0.11437565101E+01 -0.38349798227E-01  0.28887164887E+00  0.11802950864E+01  0.00000000000E+00 0.  1.
         11    1    3    3    0    0  0.26969397327E+01 -0.12516026535E+01  0.39179226647E+02  0.39291879492E+02  0.51100000000E-03 0. -1.
        -11    1    3    3    0    0 -0.72460809705E+01 -0.94795558371E+01 -0.26749322829E+01  0.12227956954E+02  0.51100000000E-03 0.  1.
        -12    1    3    3    0    0  0.34053847277E+01  0.10769508289E+02 -0.36793166013E+02  0.38487868467E+02  0.00000000000E+00 0.  1.
</event>
<event>
 7    1  0.2542335E-015  0.9000734E+02  0.7816164E-02  0.1186340E+00
        -11   -1    0    0    0    0  0.00000000000E+00  0.00000000000E+00  0.45593999997E+02  0.45594000000E+02  0.51100000000E-03 0.  1.
         11   -1    0    0    0    0 -0.00000000000E+00 -0.00000000000E+00 -0.45593999997E+02  0.45594000000E+02  0.51100000000E-03 0. -1.
    9900012    2    1    2    0    0  0.76670853630E+00 -0.89545157057E+00  0.65525234930E-01  0.90007335335E+02  0.89999591360E+02 0.  0.
        -12    1    1    2    0    0 -0.76670853630E+00  0.89545157057E+00 -0.65525234930E-01  0.11806646650E+01  0.00000000000E+00 0.  1.
         11    1    3    3    0    0 -0.21402707985E+02 -0.19707710784E+02 -0.22345721649E+02  0.36685161165E+02  0.51100000000E-03 0. -1.
        -11    1    3    3    0    0  0.57165096811E+01 -0.11728979198E+02  0.23797236100E+01  0.13263126354E+02  0.51100000000E-03 0.  1.
        -12    1    3    3    0    0  0.16452906840E+02  0.30541238412E+02  0.20031523274E+02  0.40059047816E+02  0.00000000000E+00 0.  1.
</event>
<event>
 7    1  0.2542335E-015  0.9000774E+02  0.7816164E-02  0.1186339E+00
        -11   -1    0    0    0    0  0.00000000000E+00  0.00000000000E+00  0.45593999997E+02  0.45594000000E+02  0.51100000000E-03 0.  1.
         11   -1    0    0    0    0 -0.00000000000E+00 -0.00000000000E+00 -0.45593999997E+02  0.45594000000E+02  0.51100000000E-03 0. -1.
    9900012    2    1    2    0    0 -0.13047424065E+00 -0.45042042039E+00 -0.10831023417E+01  0.90007740382E+02  0.90000001755E+02 0.  0.
        -12    1    1    2    0    0  0.13047424065E+00  0.45042042039E+00  0.10831023417E+01  0.11802596177E+01  0.00000000000E+00 0.  1.
         11    1    3    3    0    0  0.27259487956E+02 -0.10733642056E+02 -0.23759770011E+02  0.37720252208E+02  0.51100000000E-03 0. -1.
        -11    1    3    3    0    0  0.43969924829E+01 -0.84497811922E+01  0.12129259120E+01  0.96022671604E+01  0.51100000000E-03 0.  1.
        -12    1    3    3    0    0 -0.31786954680E+02  0.18733002828E+02  0.21463741757E+02  0.42685221014E+02  0.00000000000E+00 0.  1.
</event>
<event>
 7    1  0.2542335E-015  0.9000764E+02  0.7816164E-02  0.1186339E+00
        -11   -1    0    0    0    0  0.00000000000E+00  0.00000000000E+00  0.45593999997E+02  0.45594000000E+02  0.51100000000E-03 0.  1.
         11   -1    0    0    0    0 -0.00000000000E+00 -0.00000000000E+00 -0.45593999997E+02  0.45594000000E+02  0.51100000000E-03 0. -1.
    9900012    2    1    2    0    0 -0.93038419391E+00  0.63683587793E-01 -0.72358587372E+00  0.90007641214E+02  0.89999901278E+02 0.  0.
        -12    1    1    2    0    0  0.93038419391E+00 -0.63683587793E-01  0.72358587372E+00  0.11803587862E+01  0.00000000000E+00 0.  1.
         11    1    3    3    0    0  0.49591368981E+00 -0.77279499383E+01 -0.41982254980E+02  0.42690477558E+02  0.51100000000E-03 0. -1.
        -11    1    3    3    0    0  0.67660805641E+01  0.70255998331E+01  0.68013413034E+01  0.11891053065E+02  0.51100000000E-03 0.  1.
        -12    1    3    3    0    0 -0.81923784478E+01  0.76603369300E+00  0.34457327803E+02  0.35426110591E+02  0.00000000000E+00 0.  1.
</event>
<event>
 7    1  0.2542335E-015  0.9000766E+02  0.7816164E-02  0.1186339E+00
        -11   -1    0    0    0    0  0.00000000000E+00  0.00000000000E+00  0.45593999997E+02  0.45594000000E+02  0.51100000000E-03 0.  1.
         11   -1    0    0    0    0 -0.00000000000E+00 -0.00000000000E+00 -0.45593999997E+02  0.45594000000E+02  0.51100000000E-03 0. -1.
    9900012    2    1    2    0    0 -0.10883389664E+01 -0.42925594588E+00 -0.15636264344E+00  0.90007664603E+02  0.89999924976E+02 0.  0.
        -12    1    1    2    0    0  0.10883389664E+01  0.42925594588E+00  0.15636264344E+00  0.11803353969E+01  0.00000000000E+00 0.  1.
         11    1    3    3    0    0 -0.19972681355E+02 -0.16870118343E+02 -0.26019046391E+02  0.36884951793E+02  0.51100000000E-03 0. -1.
        -11    1    3    3    0    0 -0.20880559280E+01  0.22035438747E+01 -0.92959424724E+01  0.97790659001E+01  0.51100000000E-03 0.  1.
        -12    1    3    3    0    0  0.20972398316E+02  0.14237318522E+02  0.35158626220E+02  0.43343646910E+02  0.00000000000E+00 0.  1.
</event>
<event>
 7    1  0.2542335E-015  0.9000765E+02  0.7816164E-02  0.1186339E+00
        -11   -1    0    0    0    0  0.00000000000E+00  0.00000000000E+00  0.45593999997E+02  0.45594000000E+02  0.51100000000E-03 0. -1.
         11   -1    0    0    0    0 -0.00000000000E+00 -0.00000000000E+00 -0.45593999997E+02  0.45594000000E+02  0.51100000000E-03 0.  1.
    9900012    2    1    2    0    0 -0.11435499799E+01 -0.13733594940E+00  0.25819442224E+00  0.90007647477E+02  0.89999907623E+02 0.  0.
        -12    1    1    2    0    0  0.11435499799E+01  0.13733594940E+00 -0.25819442224E+00  0.11803525232E+01  0.00000000000E+00 0.  1.
         11    1    3    3    0    0 -0.55971058656E+01 -0.44176432049E+01 -0.64446161913E+01  0.96112560923E+01  0.51100000000E-03 0. -1.
        -11    1    3    3    0    0  0.29120007823E+02 -0.23208805952E+02  0.18559674194E+02  0.41606310048E+02  0.51100000000E-03 0.  1.
         12    1    3    3    0    0 -0.24666451937E+02  0.27489113208E+02 -0.11856863581E+02  0.38790081337E+02  0.00000000000E+00 0. -1.
</event>
<event>
 7    1  0.2542335E-015  0.9000795E+02  0.7816164E-02  0.1186339E+00
        -11   -1    0    0    0    0  0.00000000000E+00  0.00000000000E+00  0.45593999997E+02  0.45594000000E+02  0.51100000000E-03 0. -1.
         11   -1    0    0    0    0 -0.00000000000E+00 -0.00000000000E+00 -0.45593999997E+02  0.45594000000E+02  0.51100000000E-03 0.  1.
    9900012    2    1    2    0    0 -0.21971746888E+00 -0.41406584229E+00  0.10829505635E+01  0.90007954149E+02  0.90000218343E+02 0.  0.
        -12    1    1    2    0    0  0.21971746888E+00  0.41406584229E+00 -0.10829505635E+01  0.11800458512E+01  0.00000000000E+00 0.  1.
         11    1    3    3    0    0 -0.10735514313E+02  0.68208656622E+01  0.41084867772E+02  0.43008625135E+02  0.51100000000E-03 0. -1.
        -11    1    3    3    0    0  0.66624065657E+01 -0.68215208029E+01 -0.32951622376E+01  0.10088553005E+02  0.51100000000E-03 0.  1.
        -12    1    3    3    0    0  0.38533902783E+01 -0.41341070156E+00 -0.36706754971E+02  0.36910776008E+02  0.00000000000E+00 0.  1.
</event>
<event>
 7    1  0.2542335E-015  0.9000773E+02  0.7816164E-02  0.1186339E+00
        -11   -1    0    0    0    0  0.00000000000E+00  0.00000000000E+00  0.45593999997E+02  0.45594000000E+02  0.51100000000E-03 0.  1.
         11   -1    0    0    0    0 -0.00000000000E+00 -0.00000000000E+00 -0.45593999997E+02  0.45594000000E+02  0.51100000000E-03 0. -1.
    9900012    2    1    2    0    0 -0.11744366155E+01  0.90034321473E-01  0.75072777003E-01  0.90007727377E+02  0.89999988578E+02 0.  0.
        -12    1    1    2    0    0  0.11744366155E+01 -0.90034321473E-01 -0.75072777003E-01  0.11802726230E+01  0.00000000000E+00 0.  1.
         11    1    3    3    0    0  0.27513268711E+02 -0.18125759208E+02 -0.22099424016E+02  0.39672504889E+02  0.51100000000E-03 0. -1.
        -11    1    3    3    0    0 -0.37893990110E+00  0.10417025010E+02 -0.38369376181E+01  0.11107659341E+02  0.51100000000E-03 0.  1.
        -12    1    3    3    0    0 -0.28308765426E+02  0.77987685198E+01  0.26011434411E+02  0.39227563147E+02  0.00000000000E+00 0.  1.
</event>
<event>
 7    1  0.2542335E-015  0.9000779E+02  0.7816164E-02  0.1186339E+00
        -11   -1    0    0    0    0  0.00000000000E+00  0.00000000000E+00  0.45593999997E+02  0.45594000000E+02  0.51100000000E-03 0. -1.
         11   -1    0    0    0    0 -0.00000000000E+00 -0.00000000000E+00 -0.45593999997E+02  0.45594000000E+02  0.51100000000E-03 0.  1.
    9900012    2    1    2    0    0  0.27331027396E+00  0.11118864932E+01 -0.28620172619E+00  0.90007787516E+02  0.90000049511E+02 0.  0.
        -12    1    1    2    0    0 -0.27331027396E+00 -0.11118864932E+01  0.28620172619E+00  0.11802124841E+01  0.00000000000E+00 0.  1.
         11    1    3    3    0    0 -0.11559140880E+02  0.23286243163E+02  0.27726135840E+02  0.38007913221E+02  0.51100000000E-03 0. -1.
        -11    1    3    3    0    0 -0.92701779319E+01 -0.41711370723E+01  0.27971040482E+01  0.10543167204E+02  0.51100000000E-03 0.  1.
        -12    1    3    3    0    0  0.21102629086E+02 -0.18003219598E+02 -0.30809441614E+02  0.41456707091E+02  0.00000000000E+00 0.  1.
</event>
<event>
 7    1  0.2542335E-015  0.9000772E+02  0.7816164E-02  0.1186339E+00
        -11   -1    0    0    0    0  0.00000000000E+00  0.00000000000E+00  0.45593999997E+02  0.45594000000E+02  0.51100000000E-03 0.  1.
         11   -1    0    0    0    0 -0.00000000000E+00 -0.00000000000E+00 -0.45593999997E+02  0.45594000000E+02  0.51100000000E-03 0. -1.
    9900012    2    1    2    0    0 -0.80965117291E+00  0.30131750270E+00 -0.80419094922E+00  0.90007724464E+02  0.89999985626E+02 0.  0.
        -12    1    1    2    0    0  0.80965117291E+00 -0.30131750270E+00  0.80419094922E+00  0.11802755365E+01  0.00000000000E+00 0.  1.
         11    1    3    3    0    0  0.24693775204E+02 -0.69108946410E+00 -0.26327768310E+02  0.36102791068E+02  0.51100000000E-03 0. -1.
        -11    1    3    3    0    0  0.84573388704E+01 -0.26296780317E+00 -0.35553744613E+01  0.91780401315E+01  0.51100000000E-03 0.  1.
        -12    1    3    3    0    0 -0.33960765247E+02  0.12553747700E+01  0.29078951822E+02  0.44726893264E+02  0.00000000000E+00 0.  1.
</event>
<event>
 7    1  0.2542335E-015  0.9000782E+02  0.7816164E-02  0.1186339E+00
        -11   -1    0    0    0    0  0.00000000000E+00  0.00000000000E+00  0.45593999997E+02  0.45594000000E+02  0.51100000000E-03 0. -1.
         11   -1    0    0    0    0 -0.00000000000E+00 -0.00000000000E+00 -0.45593999997E+02  0.45594000000E+02  0.51100000000E-03 0.  1.
    9900012    2    1    2    0    0  0.59264065333E+00  0.61172053562E+00  0.81694333314E+00  0.90007821468E+02  0.90000083911E+02 0.  0.
        -12    1    1    2    0    0 -0.59264065333E+00 -0.61172053562E+00 -0.81694333314E+00  0.11801785319E+01  0.00000000000E+00 0.  1.
         11    1    3    3    0    0 -0.24607584196E+02  0.53656322646E+01 -0.26411532930E+02  0.36495099418E+02  0.51100000000E-03 0. -1.
        -11    1    3    3    0    0 -0.94720855926E+01 -0.26168769184E+01  0.79107136759E+00  0.98587141377E+01  0.51100000000E-03 0.  1.
        -12    1    3    3    0    0  0.34672310442E+02 -0.21370348107E+01  0.26437404896E+02  0.43654007912E+02  0.00000000000E+00 0.  1.
</event>
<event>
 7    1  0.2542335E-015  0.9000783E+02  0.7816164E-02  0.1186339E+00
        -11   -1    0    0    0    0  0.00000000000E+00  0.00000000000E+00  0.45593999997E+02  0.45594000000E+02  0.51100000000E-03 0.  1.
         11   -1    0    0    0    0 -0.00000000000E+00 -0.00000000000E+00 -0.45593999997E+02  0.45594000000E+02  0.51100000000E-03 0. -1.
    9900012    2    1    2    0    0  0.11696123167E+01 -0.13895432321E+00 -0.74158685333E-01  0.90007830188E+02  0.90000092746E+02 0.  0.
        -12    1    1    2    0    0 -0.11696123167E+01  0.13895432321E+00  0.74158685333E-01  0.11801698123E+01  0.00000000000E+00 0.  1.
         11    1    3    3    0    0  0.17562124348E+02 -0.25419904308E+02 -0.32349664663E+02  0.44733662389E+02  0.51100000000E-03 0. -1.
        -11    1    3    3    0    0 -0.47694512755E+01  0.41857233984E+01  0.21411776844E+01  0.66972074758E+01  0.51100000000E-03 0.  1.
        -12    1    3    3    0    0 -0.11623060756E+02  0.21095226586E+02  0.30134328294E+02  0.38576960323E+02  0.00000000000E+00 0.  1.
</event>
<event>
 7    1  0.2542335E-015  0.9000789E+02  0.7816164E-02  0.1186339E+00
        -11   -1    0    0    0    0  0.00000000000E+00  0.00000000000E+00  0.45593999997E+02  0.45594000000E+02  0.51100000000E-03 0.  1.
         11   -1    0    0    0    0 -0.00000000000E+00 -0.00000000000E+00 -0.45593999997E+02  0.45594000000E+02  0.51100000000E-03 0. -1.
    9900012    2    1    2    0    0  0.10881777475E+01  0.51580827613E-01 -0.45372369368E+00  0.90007891284E+02  0.90000154649E+02 0.  0.
        -12    1    1    2    0    0 -0.10881777475E+01 -0.51580827613E-01  0.45372369368E+00  0.11801087163E+01  0.00000000000E+00 0.  1.
         11    1    3    3    0    0  0.15994063916E+02  0.33873730458E+02 -0.23813922908E-01  0.37459848679E+02  0.51100000000E-03 0. -1.
        -11    1    3    3    0    0 -0.14820298340E+01  0.43106282443E+01 -0.10012490192E+02  0.11001267582E+02  0.51100000000E-03 0.  1.
        -12    1    3    3    0    0 -0.13423856335E+02 -0.38132777874E+02  0.95825804215E+01  0.41546775023E+02  0.00000000000E+00 0.  1.
</event>
<event>
 7    1  0.2542335E-015  0.9000775E+02  0.7816164E-02  0.1186339E+00
        -11   -1    0    0    0    0  0.00000000000E+00  0.00000000000E+00  0.45593999997E+02  0.45594000000E+02  0.51100000000E-03 0.  1.
         11   -1    0    0    0    0 -0.00000000000E+00 -0.00000000000E+00 -0.45593999997E+02  0.45594000000E+02  0.51100000000E-03 0. -1.
    9900012    2    1    2    0    0 -0.14348955316E+00 -0.11394861754E+01 -0.27196587133E+00  0.90007752809E+02  0.90000014346E+02 0.  0.
        -12    1    1    2    0    0  0.14348955316E+00  0.11394861754E+01  0.27196587133E+00  0.11802471906E+01  0.00000000000E+00 0.  1.
         11    1    3    3    0    0  0.52430333727E+01  0.85996434843E+01 -0.66273933106E-02  0.10071907028E+02  0.51100000000E-03 0. -1.
        -11    1    3    3    0    0  0.61456522680E+01  0.33522355349E+02  0.63803753478E+01  0.34673138592E+02  0.51100000000E-03 0.  1.
         12    1    3    3    0    0 -0.11532175194E+02 -0.43261485009E+02 -0.66457138258E+01  0.45262707189E+02  0.00000000000E+00 0. -1.
</event>
<event>
 7    1  0.2542335E-015  0.9000791E+02  0.7816164E-02  0.1186339E+00
        -11   -1    0    0    0    0  0.00000000000E+00  0.00000000000E+00  0.45593999997E+02  0.45594000000E+02  0.51100000000E-03 0.  1.
         11   -1    0    0    0    0 -0.00000000000E+00 -0.00000000000E+00 -0.45593999997E+02  0.45594000000E+02  0.51100000000E-03 0. -1.
    9900012    2    1    2    0    0 -0.81498365110E+00  0.14671420666E+00 -0.84077231140E+00  0.90007906152E+02  0.90000169713E+02 0.  0.
        -12    1    1    2    0    0  0.81498365110E+00 -0.14671420666E+00  0.84077231140E+00  0.11800938478E+01  0.00000000000E+00 0.  1.
         11    1    3    3    0    0  0.16262601644E+02 -0.13017769287E+02 -0.33374421389E+02  0.39341918265E+02  0.51100000000E-03 0. -1.
        -11    1    3    3    0    0 -0.86897026375E+01 -0.19346551486E+01 -0.43722271626E+01  0.99181748872E+01  0.51100000000E-03 0.  1.
        -12    1    3    3    0    0 -0.83878826574E+01  0.15099138642E+02  0.36905876240E+02  0.40747813000E+02  0.00000000000E+00 0.  1.
</event>
<event>
 7    1  0.2542335E-015  0.9000775E+02  0.7816164E-02  0.1186339E+00
        -11   -1    0    0    0    0  0.00000000000E+00  0.00000000000E+00  0.45593999997E+02  0.45594000000E+02  0.51100000000E-03 0.  1.
         11   -1    0    0    0    0 -0.00000000000E+00 -0.00000000000E+00 -0.45593999997E+02  0.45594000000E+02  0.51100000000E-03 0. -1.
    9900012    2    1    2    0    0  0.23523895712E+00 -0.10764353348E+01 -0.42302036309E+00  0.90007747220E+02  0.90000008683E+02 0.  0.
        -12    1    1    2    0    0 -0.23523895712E+00  0.10764353348E+01  0.42302036309E+00  0.11802527799E+01  0.00000000000E+00 0.  1.
         11    1    3    3    0    0 -0.66014661362E+01 -0.52531628588E+00  0.73112338154E+01  0.98645553631E+01  0.51100000000E-03 0. -1.
        -11    1    3    3    0    0 -0.12868363534E+02  0.30877331724E+02  0.14973414883E+02  0.36649796015E+02  0.51100000000E-03 0.  1.
         12    1    3    3    0    0  0.19705068627E+02 -0.31428450773E+02 -0.22707669062E+02  0.43493395841E+02  0.00000000000E+00 0. -1.
</event>
<event>
 7    1  0.2542335E-015  0.9000770E+02  0.7816164E-02  0.1186339E+00
        -11   -1    0    0    0    0  0.00000000000E+00  0.00000000000E+00  0.45593999997E+02  0.45594000000E+02  0.51100000000E-03 0. -1.
         11   -1    0    0    0    0 -0.00000000000E+00 -0.00000000000E+00 -0.45593999997E+02  0.45594000000E+02  0.51100000000E-03 0.  1.
    9900012    2    1    2    0    0 -0.85005277466E+00  0.26482595550E+00  0.77485180946E+00  0.90007695873E+02  0.89999956658E+02 0.  0.
        -12    1    1    2    0    0  0.85005277466E+00 -0.26482595550E+00 -0.77485180946E+00  0.11803041273E+01  0.00000000000E+00 0.  1.
         11    1    3    3    0    0 -0.22075562258E+02  0.29434853098E+02 -0.18727878322E+02  0.41285281307E+02  0.51100000000E-03 0. -1.
        -11    1    3    3    0    0  0.84828289348E+00 -0.76450977433E+01 -0.58933924123E+01  0.96901588098E+01  0.51100000000E-03 0.  1.
        -12    1    3    3    0    0  0.20377226589E+02 -0.21524929400E+02  0.25396122544E+02  0.39032255756E+02  0.00000000000E+00 0.  1.
</event>
<event>
 8    1  0.2542335E-015  0.9000776E+02  0.7816164E-02  0.1186339E+00
        -11   -1    0    0    0    0  0.00000000000E+00  0.00000000000E+00  0.45593999997E+02  0.45594000000E+02  0.51100000000E-03 0. -1.
         11   -1    0    0    0    0 -0.00000000000E+00 -0.00000000000E+00 -0.45593999997E+02  0.45594000000E+02  0.51100000000E-03 0.  1.
    9900012    2    1    2    0    0  0.11499897665E+01 -0.11283371962E+00  0.24034527700E+00  0.90007756905E+02  0.90000018496E+02 0.  0.
         23    2    3    3    0    0  0.19973892147E+02 -0.30007395278E+01  0.17775493932E+02  0.64120293933E+02  0.58202088487E+02 0.  0.
        -12    1    1    2    0    0 -0.11499897665E+01  0.11283371962E+00 -0.24034527700E+00  0.11802430951E+01  0.00000000000E+00 0.  1.
         11    1    4    4    0    0 -0.16355124142E+02  0.13944909934E+02  0.52962408368E+01  0.22135960924E+02  0.51100000000E-03 0.  1.
        -11    1    4    4    0    0  0.36329016288E+02 -0.16945649461E+02  0.12479253096E+02  0.41984333009E+02  0.51100000000E-03 0. -1.
         12    1    3    3    0    0 -0.18823902380E+02  0.28879058081E+01 -0.17535148655E+02  0.25887462972E+02  0.00000000000E+00 0. -1.
</event>
<event>
 7    1  0.2542335E-015  0.9000766E+02  0.7816164E-02  0.1186339E+00
        -11   -1    0    0    0    0  0.00000000000E+00  0.00000000000E+00  0.45593999997E+02  0.45594000000E+02  0.51100000000E-03 0.  1.
         11   -1    0    0    0    0 -0.00000000000E+00 -0.00000000000E+00 -0.45593999997E+02  0.45594000000E+02  0.51100000000E-03 0. -1.
    9900012    2    1    2    0    0  0.78279285316E+00  0.12325988247E+00 -0.87477820040E+00  0.90007663375E+02  0.89999923731E+02 0.  0.
        -12    1    1    2    0    0 -0.78279285316E+00 -0.12325988247E+00  0.87477820040E+00  0.11803366255E+01  0.00000000000E+00 0.  1.
         11    1    3    3    0    0 -0.77535693568E+00  0.75439270445E+01  0.50038715748E+01  0.90857440328E+01  0.51100000000E-03 0. -1.
        -11    1    3    3    0    0 -0.43289000458E+01  0.34187144274E+02 -0.15542149317E+02  0.37802891620E+02  0.51100000000E-03 0.  1.
         12    1    3    3    0    0  0.58870498346E+01 -0.41607811436E+02  0.96634995418E+01  0.43119027721E+02  0.00000000000E+00 0. -1.
</event>
<event>
 7    1  0.2542335E-015  0.9000769E+02  0.7816164E-02  0.1186339E+00
        -11   -1    0    0    0    0  0.00000000000E+00  0.00000000000E+00  0.45593999997E+02  0.45594000000E+02  0.51100000000E-03 0.  1.
         11   -1    0    0    0    0 -0.00000000000E+00 -0.00000000000E+00 -0.45593999997E+02  0.45594000000E+02  0.51100000000E-03 0. -1.
    9900012    2    1    2    0    0 -0.16610775325E+00 -0.10435324615E+01 -0.52590673796E+00  0.90007690854E+02  0.89999951573E+02 0.  0.
        -12    1    1    2    0    0  0.16610775325E+00  0.10435324615E+01  0.52590673796E+00  0.11803091464E+01  0.00000000000E+00 0.  1.
         11    1    3    3    0    0  0.36473469999E+01  0.14558938849E+02 -0.18238925896E+01  0.15119273296E+02  0.51100000000E-03 0. -1.
        -11    1    3    3    0    0  0.29023430277E+02  0.90529473870E+01 -0.10499539482E+02  0.32164509805E+02  0.51100000000E-03 0.  1.
        -12    1    3    3    0    0 -0.32836885030E+02 -0.24655418698E+02  0.11797525334E+02  0.42723907752E+02  0.00000000000E+00 0.  1.
</event>
<event>
 7    1  0.2542335E-015  0.9000777E+02  0.7816164E-02  0.1186339E+00
        -11   -1    0    0    0    0  0.00000000000E+00  0.00000000000E+00  0.45593999997E+02  0.45594000000E+02  0.51100000000E-03 0. -1.
         11   -1    0    0    0    0 -0.00000000000E+00 -0.00000000000E+00 -0.45593999997E+02  0.45594000000E+02  0.51100000000E-03 0.  1.
    9900012    2    1    2    0    0 -0.68236533426E+00 -0.49364678336E+00  0.82681771001E+00  0.90007772428E+02  0.90000034224E+02 0.  0.
        -12    1    1    2    0    0  0.68236533426E+00  0.49364678336E+00 -0.82681771001E+00  0.11802275720E+01  0.00000000000E+00 0.  1.
         11    1    3    3    0    0  0.27819076956E+02  0.16306771709E+02  0.55965578305E+01  0.32728172972E+02  0.51100000000E-03 0. -1.
        -11    1    3    3    0    0  0.59845005112E+01  0.47515642349E+01 -0.13660514221E+02  0.15652516031E+02  0.51100000000E-03 0.  1.
        -12    1    3    3    0    0 -0.34485942802E+02 -0.21551982727E+02  0.88907741009E+01  0.41627083425E+02  0.00000000000E+00 0.  1.
</event>
<event>
 7    1  0.2542335E-015  0.9000777E+02  0.7816164E-02  0.1186339E+00
        -11   -1    0    0    0    0  0.00000000000E+00  0.00000000000E+00  0.45593999997E+02  0.45594000000E+02  0.51100000000E-03 0.  1.
         11   -1    0    0    0    0 -0.00000000000E+00 -0.00000000000E+00 -0.45593999997E+02  0.45594000000E+02  0.51100000000E-03 0. -1.
    9900012    2    1    2    0    0  0.65658498023E+00 -0.94654258510E+00 -0.25670885894E+00  0.90007768607E+02  0.90000030353E+02 0.  0.
        -12    1    1    2    0    0 -0.65658498023E+00  0.94654258510E+00  0.25670885894E+00  0.11802313925E+01  0.00000000000E+00 0.  1.
         11    1    3    3    0    0 -0.32830140537E+01 -0.97519008955E+00  0.97811716264E+01  0.10363421039E+02  0.51100000000E-03 0. -1.
        -11    1    3    3    0    0 -0.26401731173E+02 -0.86174384704E+01 -0.31111592727E+02  0.41704230685E+02  0.51100000000E-03 0.  1.
         12    1    3    3    0    0  0.30341330207E+02  0.86460859748E+01  0.21073712242E+02  0.37940116883E+02  0.00000000000E+00 0. -1.
</event>
<event>
 7    1  0.2542335E-015  0.9000776E+02  0.7816164E-02  0.1186339E+00
        -11   -1    0    0    0    0  0.00000000000E+00  0.00000000000E+00  0.45593999997E+02  0.45594000000E+02  0.51100000000E-03 0.  1.
         11   -1    0    0    0    0 -0.00000000000E+00 -0.00000000000E+00 -0.45593999997E+02  0.45594000000E+02  0.51100000000E-03 0. -1.
    9900012    2    1    2    0    0 -0.10570967960E+01  0.49568064536E+00 -0.17266490942E+00  0.90007760148E+02  0.90000021782E+02 0.  0.
        -12    1    1    2    0    0  0.10570967960E+01 -0.49568064536E+00  0.17266490942E+00  0.11802398524E+01  0.00000000000E+00 0.  1.
         11    1    3    3    0    0  0.16326809784E+02 -0.32196729501E+01 -0.44811873280E+01  0.17234037593E+02  0.51100000000E-03 0. -1.
        -11    1    3    3    0    0 -0.15261282791E+02 -0.10785338601E+02  0.34487128691E+02  0.39224894223E+02  0.51100000000E-03 0.  1.
         12    1    3    3    0    0 -0.21226237883E+01  0.14500692196E+02 -0.30178606272E+02  0.33548828332E+02  0.00000000000E+00 0. -1.
</event>
<event>
 7    1  0.2542335E-015  0.9000764E+02  0.7816164E-02  0.1186339E+00
        -11   -1    0    0    0    0  0.00000000000E+00  0.00000000000E+00  0.45593999997E+02  0.45594000000E+02  0.51100000000E-03 0.  1.
         11   -1    0    0    0    0 -0.00000000000E+00 -0.00000000000E+00 -0.45593999997E+02  0.45594000000E+02  0.51100000000E-03 0. -1.
    9900012    2    1    2    0    0 -0.23896530234E+00  0.11012254004E+01 -0.35134950109E+00  0.90007640618E+02  0.89999900674E+02 0.  0.
        -12    1    1    2    0    0  0.23896530234E+00 -0.11012254004E+01  0.35134950109E+00  0.11803593817E+01  0.00000000000E+00 0.  1.
         11    1    3    3    0    0 -0.37957843294E+02 -0.37996204753E+01  0.13768329107E+02  0.40556156992E+02  0.51100000000E-03 0. -1.
        -11    1    3    3    0    0  0.49360721359E+00  0.49304481854E+01  0.54747127536E+01  0.73841348435E+01  0.51100000000E-03 0.  1.
        -12    1    3    3    0    0  0.37225270778E+02 -0.29602309817E-01 -0.19594391362E+02  0.42067348783E+02  0.00000000000E+00 0.  1.
</event>
<event>
 7    1  0.2542335E-015  0.9000776E+02  0.7816164E-02  0.1186339E+00
        -11   -1    0    0    0    0  0.00000000000E+00  0.00000000000E+00  0.45593999997E+02  0.45594000000E+02  0.51100000000E-03 0. -1.
         11   -1    0    0    0    0 -0.00000000000E+00 -0.00000000000E+00 -0.45593999997E+02  0.45594000000E+02  0.51100000000E-03 0.  1.
    9900012    2    1    2    0    0  0.21863496120E+00  0.10802602379E+01  0.42214215386E+00  0.90007759590E+02  0.90000021216E+02 0.  0.
        -12    1    1    2    0    0 -0.21863496120E+00 -0.10802602379E+01 -0.42214215386E+00  0.11802404102E+01  0.00000000000E+00 0.  1.
         11    1    3    3    0    0 -0.34152086887E+01  0.69294197186E+01 -0.80654508873E+01  0.11168348414E+02  0.51100000000E-03 0. -1.
        -11    1    3    3    0    0  0.30784606250E+01  0.15670721260E+02 -0.30429213401E+02  0.34365468905E+02  0.51100000000E-03 0.  1.
         12    1    3    3    0    0  0.55538302494E+00 -0.21519880741E+02  0.38916806442E+02  0.44473942270E+02  0.00000000000E+00 0. -1.
</event>
<event>
 7    1  0.2542335E-015  0.9000777E+02  0.7816164E-02  0.1186339E+00
        -11   -1    0    0    0    0  0.00000000000E+00  0.00000000000E+00  0.45593999997E+02  0.45594000000E+02  0.51100000000E-03 0.  1.
         11   -1    0    0    0    0 -0.00000000000E+00 -0.00000000000E+00 -0.45593999997E+02  0.45594000000E+02  0.51100000000E-03 0. -1.
    9900012    2    1    2    0    0  0.40488643093E-01  0.86492040415E+00 -0.80200621754E+00  0.90007770951E+02  0.90000032727E+02 0.  0.
        -12    1    1    2    0    0 -0.40488643093E-01 -0.86492040415E+00  0.80200621754E+00  0.11802290493E+01  0.00000000000E+00 0.  1.
         11    1    3    3    0    0 -0.22065507334E+01  0.64910517295E+01 -0.64887562333E+01  0.94396279805E+01  0.51100000000E-03 0. -1.
        -11    1    3    3    0    0 -0.23014661918E+01  0.12875660030E+02  0.39580888227E+02  0.41686041800E+02  0.51100000000E-03 0.  1.
         12    1    3    3    0    0  0.45485055683E+01 -0.18501791356E+02 -0.33894138212E+02  0.38882101170E+02  0.00000000000E+00 0. -1.
</event>
<event>
 7    1  0.2542335E-015  0.9000769E+02  0.7816164E-02  0.1186339E+00
        -11   -1    0    0    0    0  0.00000000000E+00  0.00000000000E+00  0.45593999997E+02  0.45594000000E+02  0.51100000000E-03 0.  1.
         11   -1    0    0    0    0 -0.00000000000E+00 -0.00000000000E+00 -0.45593999997E+02  0.45594000000E+02  0.51100000000E-03 0. -1.
    9900012    2    1    2    0    0  0.41135053822E+00 -0.30939355107E+00 -0.10621711872E+01  0.90007685946E+02  0.89999946601E+02 0.  0.
        -12    1    1    2    0    0 -0.41135053822E+00  0.30939355107E+00  0.10621711872E+01  0.11803140539E+01  0.00000000000E+00 0.  1.
         11    1    3    3    0    0 -0.18787387167E+02  0.32186026129E+02 -0.14527801688E+02  0.39999540206E+02  0.51100000000E-03 0. -1.
        -11    1    3    3    0    0 -0.43524520468E+01 -0.87125326081E+00  0.93669065747E+01  0.10365416543E+02  0.51100000000E-03 0.  1.
        -12    1    3    3    0    0  0.23551189752E+02 -0.31624166419E+02  0.40987239257E+01  0.39642729198E+02  0.00000000000E+00 0.  1.
</event>
<event>
 7    1  0.2542335E-015  0.9000769E+02  0.7816164E-02  0.1186339E+00
        -11   -1    0    0    0    0  0.00000000000E+00  0.00000000000E+00  0.45593999997E+02  0.45594000000E+02  0.51100000000E-03 0.  1.
         11   -1    0    0    0    0 -0.00000000000E+00 -0.00000000000E+00 -0.45593999997E+02  0.45594000000E+02  0.51100000000E-03 0. -1.
    9900012    2    1    2    0    0 -0.47196104114E+00 -0.10394289788E+01  0.29996217000E+00  0.90007687698E+02  0.89999948376E+02 0.  0.
        -12    1    1    2    0    0  0.47196104114E+00  0.10394289788E+01 -0.29996217000E+00  0.11803123018E+01  0.00000000000E+00 0.  1.
         11    1    3    3    0    0 -0.15768531999E+02  0.15817397869E+02 -0.27784627687E+02  0.35648593419E+02  0.51100000000E-03 0. -1.
        -11    1    3    3    0    0  0.33885755390E+01  0.55228070956E+01 -0.79780382546E+01  0.10277788529E+02  0.51100000000E-03 0.  1.
        -12    1    3    3    0    0  0.11907995419E+02 -0.22379633943E+02  0.36062628112E+02  0.44081305750E+02  0.00000000000E+00 0.  1.
</event>
<event>
 7    1  0.2542335E-015  0.9000740E+02  0.7816164E-02  0.1186340E+00
        -11   -1    0    0    0    0  0.00000000000E+00  0.00000000000E+00  0.45593999997E+02  0.45594000000E+02  0.51100000000E-03 0.  1.
         11   -1    0    0    0    0 -0.00000000000E+00 -0.00000000000E+00 -0.45593999997E+02  0.45594000000E+02  0.51100000000E-03 0. -1.
    9900012    2    1    2    0    0 -0.47392866747E+00 -0.77607822968E+00 -0.75293877366E+00  0.90007397358E+02  0.89999654203E+02 0.  0.
        -12    1    1    2    0    0  0.47392866747E+00  0.77607822968E+00  0.75293877366E+00  0.11806026416E+01  0.00000000000E+00 0.  1.
         11    1    3    3    0    0  0.81315065836E+01 -0.25646291484E+00  0.47095406599E+01  0.94003694627E+01  0.51100000000E-03 0. -1.
        -11    1    3    3    0    0  0.34907959976E+02  0.16573642278E+01 -0.11119130176E+02  0.36673526991E+02  0.51100000000E-03 0.  1.
         12    1    3    3    0    0 -0.43513395227E+02 -0.21769795427E+01  0.56566507422E+01  0.43933500904E+02  0.00000000000E+00 0. -1.
</event>
<event>
 7    1  0.2542335E-015  0.9000774E+02  0.7816164E-02  0.1186339E+00
        -11   -1    0    0    0    0  0.00000000000E+00  0.00000000000E+00  0.45593999997E+02  0.45594000000E+02  0.51100000000E-03 0.  1.
         11   -1    0    0    0    0 -0.00000000000E+00 -0.00000000000E+00 -0.45593999997E+02  0.45594000000E+02  0.51100000000E-03 0. -1.
    9900012    2    1    2    0    0 -0.69554323053E+00 -0.80395275575E+00  0.51274081418E+00  0.90007735809E+02  0.89999997121E+02 0.  0.
        -12    1    1    2    0    0  0.69554323053E+00  0.80395275575E+00 -0.51274081418E+00  0.11802641914E+01  0.00000000000E+00 0.  1.
         11    1    3    3    0    0 -0.39861223301E+02 -0.11656905144E+02 -0.50577044934E+01  0.41837554130E+02  0.51100000000E-03 0. -1.
        -11    1    3    3    0    0  0.62433755861E+01 -0.77574784663E+01  0.10058518242E+00  0.99583296041E+01  0.51100000000E-03 0.  1.
        -12    1    3    3    0    0  0.32922304485E+02  0.18610430854E+02  0.54698601251E+01  0.38211852074E+02  0.00000000000E+00 0.  1.
</event>
<event>
 7    1  0.2542335E-015  0.9000774E+02  0.7816164E-02  0.1186339E+00
        -11   -1    0    0    0    0  0.00000000000E+00  0.00000000000E+00  0.45593999997E+02  0.45594000000E+02  0.51100000000E-03 0.  1.
         11   -1    0    0    0    0 -0.00000000000E+00 -0.00000000000E+00 -0.45593999997E+02  0.45594000000E+02  0.51100000000E-03 0. -1.
    9900012    2    1    2    0    0 -0.76334097742E+00  0.86334420039E+00 -0.25486143469E+00  0.90007742822E+02  0.90000004227E+02 0.  0.
        -12    1    1    2    0    0  0.76334097742E+00 -0.86334420039E+00  0.25486143469E+00  0.11802571784E+01  0.00000000000E+00 0.  1.
         11    1    3    3    0    0 -0.23022203805E+01  0.47352013742E-01  0.11213986231E+02  0.11447966996E+02  0.51100000000E-03 0. -1.
        -11    1    3    3    0    0 -0.17793071525E+01 -0.33681309167E+02  0.12988108465E+02  0.36142599283E+02  0.51100000000E-03 0.  1.
         12    1    3    3    0    0  0.33181865556E+01  0.34497301354E+02 -0.24456956131E+02  0.42417176543E+02  0.00000000000E+00 0. -1.
</event>
<event>
 7    1  0.2542335E-015  0.9000773E+02  0.7816164E-02  0.1186339E+00
        -11   -1    0    0    0    0  0.00000000000E+00  0.00000000000E+00  0.45593999997E+02  0.45594000000E+02  0.51100000000E-03 0. -1.
         11   -1    0    0    0    0 -0.00000000000E+00 -0.00000000000E+00 -0.45593999997E+02  0.45594000000E+02  0.51100000000E-03 0.  1.
    9900012    2    1    2    0    0 -0.97319336512E+00  0.56159363476E+00  0.36131530159E+00  0.90007728216E+02  0.89999989429E+02 0.  0.
        -12    1    1    2    0    0  0.97319336512E+00 -0.56159363476E+00 -0.36131530159E+00  0.11802717838E+01  0.00000000000E+00 0.  1.
         11    1    3    3    0    0 -0.12219179630E+02  0.58252992154E+01  0.17947498908E+02  0.22480106296E+02  0.51100000000E-03 0. -1.
        -11    1    3    3    0    0 -0.19745270875E+02  0.23695860352E+01 -0.27651952094E+02  0.34060550711E+02  0.51100000000E-03 0.  1.
        -12    1    3    3    0    0  0.30991257140E+02 -0.76332916158E+01  0.10065768488E+02  0.33467071208E+02  0.00000000000E+00 0.  1.
</event>
<event>
 7    1  0.2542335E-015  0.9000770E+02  0.7816164E-02  0.1186339E+00
        -11   -1    0    0    0    0  0.00000000000E+00  0.00000000000E+00  0.45593999997E+02  0.45594000000E+02  0.51100000000E-03 0. -1.
         11   -1    0    0    0    0 -0.00000000000E+00 -0.00000000000E+00 -0.45593999997E+02  0.45594000000E+02  0.51100000000E-03 0.  1.
    9900012    2    1    2    0    0  0.25179434176E-01  0.32396370316E+00  0.11346868522E+01  0.90007703115E+02  0.89999963996E+02 0.  0.
        -12    1    1    2    0    0 -0.25179434176E-01 -0.32396370316E+00 -0.11346868522E+01  0.11802968853E+01  0.00000000000E+00 0.  1.
         11    1    3    3    0    0  0.26287453564E+02  0.18980765889E+02  0.15344348410E+02  0.35871279835E+02  0.51100000000E-03 0. -1.
        -11    1    3    3    0    0  0.39565583250E+01  0.59186732392E+01  0.68308626694E+01  0.98663940607E+01  0.51100000000E-03 0.  1.
        -12    1    3    3    0    0 -0.30218832455E+02 -0.24575475425E+02 -0.21040524227E+02  0.44270029219E+02  0.00000000000E+00 0.  1.
</event>
<event>
 7    1  0.2542335E-015  0.9000774E+02  0.7816164E-02  0.1186339E+00
        -11   -1    0    0    0    0  0.00000000000E+00  0.00000000000E+00  0.45593999997E+02  0.45594000000E+02  0.51100000000E-03 0.  1.
         11   -1    0    0    0    0 -0.00000000000E+00 -0.00000000000E+00 -0.45593999997E+02  0.45594000000E+02  0.51100000000E-03 0. -1.
    9900012    2    1    2    0    0 -0.10007350680E+01  0.62292706579E+00 -0.59216718139E-01  0.90007739255E+02  0.90000000614E+02 0.  0.
        -12    1    1    2    0    0  0.10007350680E+01 -0.62292706579E+00  0.59216718139E-01  0.11802607447E+01  0.00000000000E+00 0.  1.
         11    1    3    3    0    0  0.11511213995E+02  0.16169226709E+02 -0.33518988899E+02  0.38954775793E+02  0.51100000000E-03 0. -1.
        -11    1    3    3    0    0  0.83009564059E+01  0.24105508738E+01  0.12919220473E+01  0.87398910523E+01  0.51100000000E-03 0.  1.
        -12    1    3    3    0    0 -0.20812905469E+02 -0.17956850517E+02  0.32167850134E+02  0.42313072410E+02  0.00000000000E+00 0.  1.
</event>
<event>
 7    1  0.2542335E-015  0.9000773E+02  0.7816164E-02  0.1186339E+00
        -11   -1    0    0    0    0  0.00000000000E+00  0.00000000000E+00  0.45593999997E+02  0.45594000000E+02  0.51100000000E-03 0.  1.
         11   -1    0    0    0    0 -0.00000000000E+00 -0.00000000000E+00 -0.45593999997E+02  0.45594000000E+02  0.51100000000E-03 0. -1.
    9900012    2    1    2    0    0 -0.56225160674E+00  0.81594174868E+00  0.64120261994E+00  0.90007733671E+02  0.89999994956E+02 0.  0.
        -12    1    1    2    0    0  0.56225160674E+00 -0.81594174868E+00 -0.64120261994E+00  0.11802663286E+01  0.00000000000E+00 0.  1.
         11    1    3    3    0    0 -0.60577652696E+01  0.38199485439E+02 -0.12460303661E+02  0.40634423528E+02  0.51100000000E-03 0. -1.
        -11    1    3    3    0    0  0.50859738757E+01  0.10139819125E+01 -0.47448297753E+01  0.70291321968E+01  0.51100000000E-03 0.  1.
        -12    1    3    3    0    0  0.40953978720E+00 -0.38397525603E+02  0.17846336056E+02  0.42344177946E+02  0.00000000000E+00 0.  1.
</event>
<event>
 7    1  0.2542335E-015  0.9000767E+02  0.7816164E-02  0.1186339E+00
        -11   -1    0    0    0    0  0.00000000000E+00  0.00000000000E+00  0.45593999997E+02  0.45594000000E+02  0.51100000000E-03 0. -1.
         11   -1    0    0    0    0 -0.00000000000E+00 -0.00000000000E+00 -0.45593999997E+02  0.45594000000E+02  0.51100000000E-03 0.  1.
    9900012    2    1    2    0    0  0.11563407903E+01 -0.22539334158E+00  0.72406135785E-01  0.90007674269E+02  0.89999934770E+02 0.  0.
        -12    1    1    2    0    0 -0.11563407903E+01  0.22539334158E+00 -0.72406135785E-01  0.11803257305E+01  0.00000000000E+00 0.  1.
         11    1    3    3    0    0 -0.84807625880E+01  0.51422883205E+01 -0.22499817161E+01  0.10169999077E+02  0.51100000000E-03 0. -1.
        -11    1    3    3    0    0 -0.20145278742E+02  0.24862421356E+02 -0.13249945726E+02  0.34634279454E+02  0.51100000000E-03 0.  1.
         12    1    3    3    0    0  0.29782382120E+02 -0.30230103018E+02  0.15572333578E+02  0.45203395739E+02  0.00000000000E+00 0. -1.
</event>
<event>
 7    1  0.2542335E-015  0.9000790E+02  0.7816164E-02  0.1186339E+00
        -11   -1    0    0    0    0  0.00000000000E+00  0.00000000000E+00  0.45593999997E+02  0.45594000000E+02  0.51100000000E-03 0.  1.
         11   -1    0    0    0    0 -0.00000000000E+00 -0.00000000000E+00 -0.45593999997E+02  0.45594000000E+02  0.51100000000E-03 0. -1.
    9900012    2    1    2    0    0 -0.88457995719E+00 -0.43661755509E+00 -0.64769803134E+00  0.90007902830E+02  0.90000166348E+02 0.  0.
        -12    1    1    2    0    0  0.88457995719E+00  0.43661755509E+00  0.64769803134E+00  0.11800971697E+01  0.00000000000E+00 0.  1.
         11    1    3    3    0    0  0.33069435206E+01 -0.76759974931E+01 -0.67200957278E+01  0.10724574575E+02  0.51100000000E-03 0. -1.
        -11    1    3    3    0    0  0.58584506852E+01 -0.17115995094E+02  0.35463646239E+02  0.39811417173E+02  0.51100000000E-03 0.  1.
         12    1    3    3    0    0 -0.10049974163E+02  0.24355375032E+02 -0.29391248542E+02  0.39471911083E+02  0.00000000000E+00 0. -1.
</event>
<event>
 7    1  0.2542335E-015  0.9000776E+02  0.7816164E-02  0.1186339E+00
        -11   -1    0    0    0    0  0.00000000000E+00  0.00000000000E+00  0.45593999997E+02  0.45594000000E+02  0.51100000000E-03 0.  1.
         11   -1    0    0    0    0 -0.00000000000E+00 -0.00000000000E+00 -0.45593999997E+02  0.45594000000E+02  0.51100000000E-03 0. -1.
    9900012    2    1    2    0    0 -0.95520427611E+00  0.14514244173E+00  0.67785331555E+00  0.90007759916E+02  0.90000021547E+02 0.  0.
        -12    1    1    2    0    0  0.95520427611E+00 -0.14514244173E+00 -0.67785331555E+00  0.11802400836E+01  0.00000000000E+00 0.  1.
         11    1    3    3    0    0 -0.26096346819E+01  0.51803423963E+00 -0.89760958582E+01  0.93620964406E+01  0.51100000000E-03 0. -1.
        -11    1    3    3    0    0  0.40457379544E+01  0.31555663082E+02 -0.19523921638E+02  0.37327086472E+02  0.51100000000E-03 0.  1.
         12    1    3    3    0    0 -0.23913075486E+01 -0.31928554880E+02  0.29177870812E+02  0.43318577003E+02  0.00000000000E+00 0. -1.
</event>
<event>
 7    1  0.2542335E-015  0.9000771E+02  0.7816164E-02  0.1186339E+00
        -11   -1    0    0    0    0  0.00000000000E+00  0.00000000000E+00  0.45593999997E+02  0.45594000000E+02  0.51100000000E-03 0. -1.
         11   -1    0    0    0    0 -0.00000000000E+00 -0.00000000000E+00 -0.45593999997E+02  0.45594000000E+02  0.51100000000E-03 0.  1.
    9900012    2    1    2    0    0  0.11412290924E+01  0.13712758915E+00 -0.26809255973E+00  0.90007711291E+02  0.89999972280E+02 0.  0.
        -12    1    1    2    0    0 -0.11412290924E+01 -0.13712758915E+00  0.26809255973E+00  0.11802887095E+01  0.00000000000E+00 0.  1.
         11    1    3    3    0    0  0.63565147011E+00 -0.25462153336E+01 -0.70370387165E+01  0.75104713218E+01  0.51100000000E-03 0. -1.
        -11    1    3    3    0    0  0.23218473969E+02 -0.11389408476E+02 -0.28347274843E+02  0.38371658163E+02  0.51100000000E-03 0.  1.
         12    1    3    3    0    0 -0.22712896347E+02  0.14072751399E+02  0.35116221000E+02  0.44125581806E+02  0.00000000000E+00 0. -1.
</event>
<event>
 7    1  0.2542335E-015  0.9000773E+02  0.7816164E-02  0.1186339E+00
        -11   -1    0    0    0    0  0.00000000000E+00  0.00000000000E+00  0.45593999997E+02  0.45594000000E+02  0.51100000000E-03 0.  1.
         11   -1    0    0    0    0 -0.00000000000E+00 -0.00000000000E+00 -0.45593999997E+02  0.45594000000E+02  0.51100000000E-03 0. -1.
    9900012    2    1    2    0    0 -0.84883895235E+00 -0.58829693342E+00 -0.57132743538E+00  0.90007730587E+02  0.89999991831E+02 0.  0.
        -12    1    1    2    0    0  0.84883895235E+00  0.58829693342E+00  0.57132743538E+00  0.11802694130E+01  0.00000000000E+00 0.  1.
         11    1    3    3    0    0 -0.11182149442E+01 -0.19011613719E+02 -0.15039812849E+02  0.24267011182E+02  0.51100000000E-03 0. -1.
        -11    1    3    3    0    0 -0.16958979884E+02 -0.13907898332E+02  0.18752060258E+02  0.28856132778E+02  0.51100000000E-03 0.  1.
         12    1    3    3    0    0  0.17228355876E+02  0.32331215119E+02 -0.42835748439E+01  0.36884586627E+02  0.00000000000E+00 0. -1.
</event>
<event>
 7    1  0.2542335E-015  0.9000791E+02  0.7816164E-02  0.1186339E+00
        -11   -1    0    0    0    0  0.00000000000E+00  0.00000000000E+00  0.45593999997E+02  0.45594000000E+02  0.51100000000E-03 0.  1.
         11   -1    0    0    0    0 -0.00000000000E+00 -0.00000000000E+00 -0.45593999997E+02  0.45594000000E+02  0.51100000000E-03 0. -1.
    9900012    2    1    2    0    0  0.50993814177E+00 -0.38941084559E+00 -0.99041771092E+00  0.90007913157E+02  0.90000176810E+02 0.  0.
        -12    1    1    2    0    0 -0.50993814177E+00  0.38941084559E+00  0.99041771092E+00  0.11800868431E+01  0.00000000000E+00 0.  1.
         11    1    3    3    0    0  0.12495944825E+01  0.36001436888E+01 -0.59302855426E+01  0.70491707193E+01  0.51100000000E-03 0. -1.
        -11    1    3    3    0    0 -0.84129498706E+01  0.37796659673E+02 -0.57586204598E+01  0.39147502064E+02  0.51100000000E-03 0.  1.
         12    1    3    3    0    0  0.76732935299E+01 -0.41786214207E+02  0.10698488292E+02  0.43811240374E+02  0.00000000000E+00 0. -1.
</event>
<event>
 7    1  0.2542335E-015  0.9000791E+02  0.7816164E-02  0.1186339E+00
        -11   -1    0    0    0    0  0.00000000000E+00  0.00000000000E+00  0.45593999997E+02  0.45594000000E+02  0.51100000000E-03 0.  1.
         11   -1    0    0    0    0 -0.00000000000E+00 -0.00000000000E+00 -0.45593999997E+02  0.45594000000E+02  0.51100000000E-03 0. -1.
    9900012    2    1    2    0    0  0.13896189381E-01  0.25569820106E+00 -0.11519739094E+01  0.90007907393E+02  0.90000170970E+02 0.  0.
        -12    1    1    2    0    0 -0.13896189381E-01 -0.25569820106E+00  0.11519739094E+01  0.11800926074E+01  0.00000000000E+00 0.  1.
         11    1    3    3    0    0 -0.61623553588E+01  0.56155920524E+00  0.52754736502E+01  0.81314571145E+01  0.51100000000E-03 0. -1.
        -11    1    3    3    0    0  0.18035337888E+02 -0.14593580479E+02  0.31808511192E+02  0.39370387202E+02  0.51100000000E-03 0.  1.
         12    1    3    3    0    0 -0.11859086339E+02  0.14287719475E+02 -0.38235958751E+02  0.42506063076E+02  0.00000000000E+00 0. -1.
</event>
<event>
 7    1  0.2542335E-015  0.9000775E+02  0.7816164E-02  0.1186339E+00
        -11   -1    0    0    0    0  0.00000000000E+00  0.00000000000E+00  0.45593999997E+02  0.45594000000E+02  0.51100000000E-03 0.  1.
         11   -1    0    0    0    0 -0.00000000000E+00 -0.00000000000E+00 -0.45593999997E+02  0.45594000000E+02  0.51100000000E-03 0. -1.
    9900012    2    1    2    0    0  0.75890043172E+00 -0.90178983424E+00 -0.61979495542E-01  0.90007747388E+02  0.90000008853E+02 0.  0.
        -12    1    1    2    0    0 -0.75890043172E+00  0.90178983424E+00  0.61979495542E-01  0.11802526121E+01  0.00000000000E+00 0.  1.
         11    1    3    3    0    0  0.73392999504E+01  0.67393737882E+01 -0.49640902376E+01  0.11132235848E+02  0.51100000000E-03 0. -1.
        -11    1    3    3    0    0 -0.36860526129E+02 -0.20119543842E+02 -0.95689159657E+01  0.43070391035E+02  0.51100000000E-03 0.  1.
         12    1    3    3    0    0  0.30280126610E+02  0.12478380220E+02  0.14471026708E+02  0.35805120505E+02  0.00000000000E+00 0. -1.
</event>
<event>
 7    1  0.2542335E-015  0.9000773E+02  0.7816164E-02  0.1186339E+00
        -11   -1    0    0    0    0  0.00000000000E+00  0.00000000000E+00  0.45593999997E+02  0.45594000000E+02  0.51100000000E-03 0.  1.
         11   -1    0    0    0    0 -0.00000000000E+00 -0.00000000000E+00 -0.45593999997E+02  0.45594000000E+02  0.51100000000E-03 0. -1.
    9900012    2    1    2    0    0 -0.43404801870E+00 -0.25495374042E+00  0.10675433790E+01  0.90007725473E+02  0.89999986650E+02 0.  0.
        -12    1    1    2    0    0  0.43404801870E+00  0.25495374042E+00 -0.10675433790E+01  0.11802745267E+01  0.00000000000E+00 0.  1.
         11    1    3    3    0    0 -0.19457737908E+02  0.35207464851E+02  0.10286293464E+02  0.41520801765E+02  0.51100000000E-03 0. -1.
        -11    1    3    3    0    0  0.10945349275E+02  0.26464275293E+00 -0.27848607465E+01  0.11297174699E+02  0.51100000000E-03 0.  1.
        -12    1    3    3    0    0  0.80783406145E+01 -0.35727061344E+02 -0.64338893384E+01  0.37189749010E+02  0.00000000000E+00 0.  1.
</event>
<event>
 7    1  0.2542335E-015  0.9000805E+02  0.7816164E-02  0.1186338E+00
        -11   -1    0    0    0    0  0.00000000000E+00  0.00000000000E+00  0.45593999997E+02  0.45594000000E+02  0.51100000000E-03 0.  1.
         11   -1    0    0    0    0 -0.00000000000E+00 -0.00000000000E+00 -0.45593999997E+02  0.45594000000E+02  0.51100000000E-03 0. -1.
    9900012    2    1    2    0    0  0.11603430636E+01  0.11587600746E+00  0.18017475187E+00  0.90008048215E+02  0.90000313651E+02 0.  0.
        -12    1    1    2    0    0 -0.11603430636E+01 -0.11587600746E+00 -0.18017475187E+00  0.11799517853E+01  0.00000000000E+00 0.  1.
         11    1    3    3    0    0 -0.15944094448E+01  0.51081522459E+01 -0.24578680675E+02  0.25154460933E+02  0.51100000000E-03 0. -1.
        -11    1    3    3    0    0  0.16129077955E+02  0.18000141188E+02 -0.52709707379E+01  0.24737327488E+02  0.51100000000E-03 0.  1.
        -12    1    3    3    0    0 -0.13374325447E+02 -0.22992417427E+02  0.30029826165E+02  0.40116259793E+02  0.00000000000E+00 0.  1.
</event>
<event>
 7    1  0.2542335E-015  0.9000771E+02  0.7816164E-02  0.1186339E+00
        -11   -1    0    0    0    0  0.00000000000E+00  0.00000000000E+00  0.45593999997E+02  0.45594000000E+02  0.51100000000E-03 0. -1.
         11   -1    0    0    0    0 -0.00000000000E+00 -0.00000000000E+00 -0.45593999997E+02  0.45594000000E+02  0.51100000000E-03 0.  1.
    9900012    2    1    2    0    0  0.99406287162E+00  0.13529375683E+00  0.62178689661E+00  0.90007710062E+02  0.89999971035E+02 0.  0.
        -12    1    1    2    0    0 -0.99406287162E+00 -0.13529375683E+00 -0.62178689661E+00  0.11802899382E+01  0.00000000000E+00 0.  1.
         11    1    3    3    0    0 -0.21159329619E+02 -0.11315698053E+02  0.26854955057E+02  0.36013204019E+02  0.51100000000E-03 0. -1.
        -11    1    3    3    0    0 -0.85264784960E+01 -0.83449588127E+00  0.37685291252E+01  0.93594353969E+01  0.51100000000E-03 0.  1.
        -12    1    3    3    0    0  0.30679870986E+02  0.12285487691E+02 -0.30001697285E+02  0.44635070646E+02  0.00000000000E+00 0.  1.
</event>
<event>
 7    1  0.2542335E-015  0.9000777E+02  0.7816164E-02  0.1186339E+00
        -11   -1    0    0    0    0  0.00000000000E+00  0.00000000000E+00  0.45593999997E+02  0.45594000000E+02  0.51100000000E-03 0.  1.
         11   -1    0    0    0    0 -0.00000000000E+00 -0.00000000000E+00 -0.45593999997E+02  0.45594000000E+02  0.51100000000E-03 0. -1.
    9900012    2    1    2    0    0  0.65267345077E+00  0.51108130660E+00 -0.84009898846E+00  0.90007765682E+02  0.90000027389E+02 0.  0.
        -12    1    1    2    0    0 -0.65267345077E+00 -0.51108130660E+00  0.84009898846E+00  0.11802343181E+01  0.00000000000E+00 0.  1.
         11    1    3    3    0    0  0.30791122634E+02 -0.21664822593E+02  0.13485193333E+02  0.39991351696E+02  0.51100000000E-03 0. -1.
        -11    1    3    3    0    0 -0.86480272732E+01  0.13861116198E+01  0.86486648918E+01  0.12308902705E+02  0.51100000000E-03 0.  1.
        -12    1    3    3    0    0 -0.21490421910E+02  0.20789792280E+02 -0.22973957213E+02  0.37707511280E+02  0.00000000000E+00 0.  1.
</event>
<event>
 7    1  0.2906491E-015  0.9000777E+02  0.7816164E-02  0.1186339E+00
        -11   -1    0    0    0    0  0.00000000000E+00  0.00000000000E+00  0.45593999997E+02  0.45594000000E+02  0.51100000000E-03 0.  1.
         11   -1    0    0    0    0 -0.00000000000E+00 -0.00000000000E+00 -0.45593999997E+02  0.45594000000E+02  0.51100000000E-03 0. -1.
    9900012    2    1    2    0    0  0.86737317858E+00  0.62778286495E+00  0.49648795749E+00  0.90007767884E+02  0.90000029620E+02 0.  0.
        -12    1    1    2    0    0 -0.86737317858E+00 -0.62778286495E+00 -0.49648795749E+00  0.11802321163E+01  0.00000000000E+00 0.  1.
         11    1    3    3    0    0 -0.26205444324E+01 -0.54402201096E+00  0.92603955769E+01  0.96394055612E+01  0.51100000000E-03 0. -1.
        -11    1    3    3    0    0 -0.36871481848E+02 -0.61406473281E+01  0.35389660915E+01  0.37546477924E+02  0.51100000000E-03 0.  1.
         12    1    3    3    0    0  0.40359399459E+02  0.73124522040E+01 -0.12302873711E+02  0.42821884398E+02  0.00000000000E+00 0. -1.
</event>
<event>
 7    1  0.2542335E-015  0.9000779E+02  0.7816164E-02  0.1186339E+00
        -11   -1    0    0    0    0  0.00000000000E+00  0.00000000000E+00  0.45593999997E+02  0.45594000000E+02  0.51100000000E-03 0.  1.
         11   -1    0    0    0    0 -0.00000000000E+00 -0.00000000000E+00 -0.45593999997E+02  0.45594000000E+02  0.51100000000E-03 0. -1.
    9900012    2    1    2    0    0  0.92267022436E+00  0.70351200627E+00 -0.21595003949E+00  0.90007794973E+02  0.90000057067E+02 0.  0.
        -12    1    1    2    0    0 -0.92267022436E+00 -0.70351200627E+00  0.21595003949E+00  0.11802050269E+01  0.00000000000E+00 0.  1.
         11    1    3    3    0    0 -0.52969303730E+00 -0.79089881267E+01  0.33451217137E+01  0.86036333861E+01  0.51100000000E-03 0. -1.
        -11    1    3    3    0    0 -0.11523020056E+02 -0.33102002336E+02  0.85350866139E+01  0.36074509749E+02  0.51100000000E-03 0.  1.
         12    1    3    3    0    0  0.12975383317E+02  0.41714502469E+02 -0.12096158367E+02  0.45329651838E+02  0.00000000000E+00 0. -1.
</event>
<event>
 7    1  0.2542335E-015  0.9000780E+02  0.7816164E-02  0.1186339E+00
        -11   -1    0    0    0    0  0.00000000000E+00  0.00000000000E+00  0.45593999997E+02  0.45594000000E+02  0.51100000000E-03 0. -1.
         11   -1    0    0    0    0 -0.00000000000E+00 -0.00000000000E+00 -0.45593999997E+02  0.45594000000E+02  0.51100000000E-03 0.  1.
    9900012    2    1    2    0    0 -0.11280257848E+01  0.15874525155E+00  0.30860212666E+00  0.90007797687E+02  0.90000059817E+02 0.  0.
        -12    1    1    2    0    0  0.11280257848E+01 -0.15874525155E+00 -0.30860212666E+00  0.11802023126E+01  0.00000000000E+00 0.  1.
         11    1    3    3    0    0  0.17182305596E+02  0.30383133201E+02  0.87785756237E+01  0.35992079669E+02  0.51100000000E-03 0. -1.
        -11    1    3    3    0    0  0.64741248432E+01  0.13251630836E+01  0.82331736267E+01  0.10557248596E+02  0.51100000000E-03 0.  1.
        -12    1    3    3    0    0 -0.24784456224E+02 -0.31549551033E+02 -0.16703147124E+02  0.43458469422E+02  0.00000000000E+00 0.  1.
</event>
<event>
 7    1  0.2542335E-015  0.9000771E+02  0.7816164E-02  0.1186339E+00
        -11   -1    0    0    0    0  0.00000000000E+00  0.00000000000E+00  0.45593999997E+02  0.45594000000E+02  0.51100000000E-03 0.  1.
         11   -1    0    0    0    0 -0.00000000000E+00 -0.00000000000E+00 -0.45593999997E+02  0.45594000000E+02  0.51100000000E-03 0. -1.
    9900012    2    1    2    0    0 -0.94938325795E+00 -0.43180672137E+00  0.55252896307E+00  0.90007714496E+02  0.89999975528E+02 0.  0.
        -12    1    1    2    0    0  0.94938325795E+00  0.43180672137E+00 -0.55252896307E+00  0.11802855037E+01  0.00000000000E+00 0.  1.
         11    1    3    3    0    0 -0.36243050526E+02 -0.98986450822E+01  0.10945402966E+01  0.37586432454E+02  0.51100000000E-03 0. -1.
        -11    1    3    3    0    0 -0.78941664551E+01  0.97486748733E+00  0.23998461757E+01  0.83082785561E+01  0.51100000000E-03 0.  1.
        -12    1    3    3    0    0  0.43187833723E+02  0.84919708735E+01 -0.29418575092E+01  0.44113003486E+02  0.00000000000E+00 0.  1.
</event>
<event>
 7    1  0.2542335E-015  0.9000775E+02  0.7816164E-02  0.1186339E+00
        -11   -1    0    0    0    0  0.00000000000E+00  0.00000000000E+00  0.45593999997E+02  0.45594000000E+02  0.51100000000E-03 0. -1.
         11   -1    0    0    0    0 -0.00000000000E+00 -0.00000000000E+00 -0.45593999997E+02  0.45594000000E+02  0.51100000000E-03 0.  1.
    9900012    2    1    2    0    0  0.91003860992E+00  0.51110193723E-01  0.74981246817E+00  0.90007745256E+02  0.90000006693E+02 0.  0.
        -12    1    1    2    0    0 -0.91003860992E+00 -0.51110193723E-01 -0.74981246817E+00  0.11802547441E+01  0.00000000000E+00 0.  1.
         11    1    3    3    0    0  0.24417838896E+02  0.24332077559E+02  0.19605126580E+02  0.39656548554E+02  0.51100000000E-03 0. -1.
        -11    1    3    3    0    0 -0.31496411243E+01 -0.77127134671E+00  0.83966876658E+01  0.90010811973E+01  0.51100000000E-03 0.  1.
        -12    1    3    3    0    0 -0.20358159162E+02 -0.23509696019E+02 -0.27252001778E+02  0.41350115505E+02  0.00000000000E+00 0.  1.
</event>
<event>
 7    1  0.2542335E-015  0.9000774E+02  0.7816164E-02  0.1186339E+00
        -11   -1    0    0    0    0  0.00000000000E+00  0.00000000000E+00  0.45593999997E+02  0.45594000000E+02  0.51100000000E-03 0.  1.
         11   -1    0    0    0    0 -0.00000000000E+00 -0.00000000000E+00 -0.45593999997E+02  0.45594000000E+02  0.51100000000E-03 0. -1.
    9900012    2    1    2    0    0  0.50308187218E+00  0.68249262781E+00 -0.82105618197E+00  0.90007736974E+02  0.89999998302E+02 0.  0.
        -12    1    1    2    0    0 -0.50308187218E+00 -0.68249262781E+00  0.82105618197E+00  0.11802630262E+01  0.00000000000E+00 0.  1.
         11    1    3    3    0    0 -0.22204650649E+01  0.12792179065E+02  0.36061148377E+01  0.13474953611E+02  0.51100000000E-03 0. -1.
        -11    1    3    3    0    0  0.33579744401E+02 -0.18755571421E+02 -0.17640372087E+02  0.42314931419E+02  0.51100000000E-03 0.  1.
         12    1    3    3    0    0 -0.30856197464E+02  0.66458849843E+01  0.13213201068E+02  0.34217851944E+02  0.00000000000E+00 0. -1.
</event>
<event>
 7    1  0.2542335E-015  0.9000773E+02  0.7816164E-02  0.1186339E+00
        -11   -1    0    0    0    0  0.00000000000E+00  0.00000000000E+00  0.45593999997E+02  0.45594000000E+02  0.51100000000E-03 0.  1.
         11   -1    0    0    0    0 -0.00000000000E+00 -0.00000000000E+00 -0.45593999997E+02  0.45594000000E+02  0.51100000000E-03 0. -1.
    9900012    2    1    2    0    0  0.67787461007E+00 -0.72242613778E+00 -0.64158715128E+00  0.90007725632E+02  0.89999986810E+02 0.  0.
        -12    1    1    2    0    0 -0.67787461007E+00  0.72242613778E+00  0.64158715128E+00  0.11802743682E+01  0.00000000000E+00 0.  1.
         11    1    3    3    0    0 -0.24149409791E+01 -0.35652492484E+02 -0.63895602973E+01  0.36300945460E+02  0.51100000000E-03 0. -1.
        -11    1    3    3    0    0  0.12820538934E+02 -0.37668057744E+01 -0.20680808130E+00  0.13364049317E+02  0.51100000000E-03 0.  1.
        -12    1    3    3    0    0 -0.97277233445E+01  0.38696872121E+02  0.59547812273E+01  0.40342730855E+02  0.00000000000E+00 0.  1.
</event>
<event>
 7    1  0.2542335E-015  0.9000789E+02  0.7816164E-02  0.1186339E+00
        -11   -1    0    0    0    0  0.00000000000E+00  0.00000000000E+00  0.45593999997E+02  0.45594000000E+02  0.51100000000E-03 0.  1.
         11   -1    0    0    0    0 -0.00000000000E+00 -0.00000000000E+00 -0.45593999997E+02  0.45594000000E+02  0.51100000000E-03 0. -1.
    9900012    2    1    2    0    0  0.47546464124E-01 -0.49011506408E+00 -0.10724727128E+01  0.90007885106E+02  0.90000148390E+02 0.  0.
        -12    1    1    2    0    0 -0.47546464124E-01  0.49011506408E+00  0.10724727128E+01  0.11801148935E+01  0.00000000000E+00 0.  1.
         11    1    3    3    0    0  0.87112702398E+01  0.83966332478E+01 -0.16628512389E+01  0.12212892925E+02  0.51100000000E-03 0. -1.
        -11    1    3    3    0    0  0.18738465330E+02  0.19810069176E+02  0.19811939053E+02  0.33705813341E+02  0.51100000000E-03 0.  1.
         12    1    3    3    0    0 -0.27402189106E+02 -0.28696817488E+02 -0.19221560527E+02  0.44089178840E+02  0.00000000000E+00 0. -1.
</event>
<event>
 7    1  0.2542335E-015  0.9000775E+02  0.7816164E-02  0.1186339E+00
        -11   -1    0    0    0    0  0.00000000000E+00  0.00000000000E+00  0.45593999997E+02  0.45594000000E+02  0.51100000000E-03 0.  1.
         11   -1    0    0    0    0 -0.00000000000E+00 -0.00000000000E+00 -0.45593999997E+02  0.45594000000E+02  0.51100000000E-03 0. -1.
    9900012    2    1    2    0    0 -0.82310209658E+00  0.48587995613E+00 -0.69239598474E+00  0.90007750623E+02  0.90000012131E+02 0.  0.
        -12    1    1    2    0    0  0.82310209658E+00 -0.48587995613E+00  0.69239598474E+00  0.11802493774E+01  0.00000000000E+00 0.  1.
         11    1    3    3    0    0 -0.33768968145E+01 -0.32826115947E+02 -0.19187681124E+02  0.38172299216E+02  0.51100000000E-03 0. -1.
        -11    1    3    3    0    0 -0.30969994694E+01 -0.58007469203E+01 -0.25612684713E+01  0.70569233374E+01  0.51100000000E-03 0.  1.
        -12    1    3    3    0    0  0.56507941873E+01  0.39112742823E+02  0.21056553610E+02  0.44778528069E+02  0.00000000000E+00 0.  1.
</event>
<event>
 7    1  0.2542335E-015  0.9000772E+02  0.7816164E-02  0.1186339E+00
        -11   -1    0    0    0    0  0.00000000000E+00  0.00000000000E+00  0.45593999997E+02  0.45594000000E+02  0.51100000000E-03 0.  1.
         11   -1    0    0    0    0 -0.00000000000E+00 -0.00000000000E+00 -0.45593999997E+02  0.45594000000E+02  0.51100000000E-03 0. -1.
    9900012    2    1    2    0    0  0.47912905917E+00  0.41649449960E+00 -0.99499929818E+00  0.90007722098E+02  0.89999983229E+02 0.  0.
        -12    1    1    2    0    0 -0.47912905917E+00 -0.41649449960E+00  0.99499929818E+00  0.11802779024E+01  0.00000000000E+00 0.  1.
         11    1    3    3    0    0 -0.62195016382E+01  0.14927429206E+01 -0.27412886402E+01  0.69588178395E+01  0.51100000000E-03 0. -1.
        -11    1    3    3    0    0 -0.28314015063E+02  0.24136392913E+02  0.11249256458E+02  0.38868942396E+02  0.51100000000E-03 0.  1.
         12    1    3    3    0    0  0.35012645760E+02 -0.25212641334E+02 -0.95029671158E+01  0.44179961863E+02  0.00000000000E+00 0. -1.
</event>
<event>
 7    1  0.2542335E-015  0.9000764E+02  0.7816164E-02  0.1186339E+00
        -11   -1    0    0    0    0  0.00000000000E+00  0.00000000000E+00  0.45593999997E+02  0.45594000000E+02  0.51100000000E-03 0.  1.
         11   -1    0    0    0    0 -0.00000000000E+00 -0.00000000000E+00 -0.45593999997E+02  0.45594000000E+02  0.51100000000E-03 0. -1.
    9900012    2    1    2    0    0 -0.56940810117E+00 -0.69245462938E+00 -0.76781419049E+00  0.90007636653E+02  0.89999896657E+02 0.  0.
        -12    1    1    2    0    0  0.56940810117E+00  0.69245462938E+00  0.76781419049E+00  0.11803633468E+01  0.00000000000E+00 0.  1.
         11    1    3    3    0    0 -0.12888816840E+02  0.19216269561E+02 -0.22464932923E+02  0.32249958556E+02  0.51100000000E-03 0. -1.
        -11    1    3    3    0    0  0.14532924634E+01  0.15934081359E+02  0.51204073995E+01  0.16799570826E+02  0.51100000000E-03 0.  1.
        -12    1    3    3    0    0  0.10866116275E+02 -0.35842805550E+02  0.16576711333E+02  0.40958107271E+02  0.00000000000E+00 0.  1.
</event>
<event>
 7    1  0.2542335E-015  0.9000781E+02  0.7816164E-02  0.1186339E+00
        -11   -1    0    0    0    0  0.00000000000E+00  0.00000000000E+00  0.45593999997E+02  0.45594000000E+02  0.51100000000E-03 0.  1.
         11   -1    0    0    0    0 -0.00000000000E+00 -0.00000000000E+00 -0.45593999997E+02  0.45594000000E+02  0.51100000000E-03 0. -1.
    9900012    2    1    2    0    0  0.63660184514E+00 -0.35300739051E+00 -0.92896364379E+00  0.90007809516E+02  0.90000071802E+02 0.  0.
        -12    1    1    2    0    0 -0.63660184514E+00  0.35300739051E+00  0.92896364379E+00  0.11801904840E+01  0.00000000000E+00 0.  1.
         11    1    3    3    0    0 -0.71324096382E+01  0.27201625110E+01 -0.61120968292E+01  0.97789712773E+01  0.51100000000E-03 0. -1.
        -11    1    3    3    0    0  0.25532968969E+02  0.28059516506E+02  0.18221834932E+02  0.42086865403E+02  0.51100000000E-03 0.  1.
         12    1    3    3    0    0 -0.17763957485E+02 -0.31132686408E+02 -0.13038701747E+02  0.38141972835E+02  0.00000000000E+00 0. -1.
</event>
<event>
 7    1  0.2542335E-015  0.9000775E+02  0.7816164E-02  0.1186339E+00
        -11   -1    0    0    0    0  0.00000000000E+00  0.00000000000E+00  0.45593999997E+02  0.45594000000E+02  0.51100000000E-03 0. -1.
         11   -1    0    0    0    0 -0.00000000000E+00 -0.00000000000E+00 -0.45593999997E+02  0.45594000000E+02  0.51100000000E-03 0.  1.
    9900012    2    1    2    0    0  0.76524969185E+00  0.87485853847E+00  0.20497084148E+00  0.90007746807E+02  0.90000008265E+02 0.  0.
        -12    1    1    2    0    0 -0.76524969185E+00 -0.87485853847E+00 -0.20497084148E+00  0.11802531928E+01  0.00000000000E+00 0.  1.
         11    1    3    3    0    0  0.12139358503E+02  0.27850248394E+02  0.28934212946E+01  0.30518391955E+02  0.51100000000E-03 0. -1.
        -11    1    3    3    0    0 -0.17005832413E+02  0.10143346746E+02 -0.84085922021E+01  0.21512560106E+02  0.51100000000E-03 0.  1.
        -12    1    3    3    0    0  0.56317236018E+01 -0.37118736601E+02  0.57201417490E+01  0.37976794746E+02  0.00000000000E+00 0.  1.
</event>
<event>
 7    1  0.2542335E-015  0.9000770E+02  0.7816164E-02  0.1186339E+00
        -11   -1    0    0    0    0  0.00000000000E+00  0.00000000000E+00  0.45593999997E+02  0.45594000000E+02  0.51100000000E-03 0. -1.
         11   -1    0    0    0    0 -0.00000000000E+00 -0.00000000000E+00 -0.45593999997E+02  0.45594000000E+02  0.51100000000E-03 0.  1.
    9900012    2    1    2    0    0  0.43158172238E+00  0.74807574015E+00  0.80451208067E+00  0.90007695046E+02  0.89999955821E+02 0.  0.
        -12    1    1    2    0    0 -0.43158172238E+00 -0.74807574015E+00 -0.80451208067E+00  0.11803049538E+01  0.00000000000E+00 0.  1.
         11    1    3    3    0    0 -0.19337587217E+02 -0.11661957283E+02  0.29770156530E+02  0.37365836631E+02  0.51100000000E-03 0. -1.
        -11    1    3    3    0    0 -0.88287177237E+01  0.35494698052E+01  0.18319467492E+01  0.96902539541E+01  0.51100000000E-03 0.  1.
        -12    1    3    3    0    0  0.28597886663E+02  0.88605632181E+01 -0.30797591199E+02  0.42951604461E+02  0.00000000000E+00 0.  1.
</event>
<event>
 7    1  0.4519754E-015  0.9000770E+02  0.7816164E-02  0.1186339E+00
        -11   -1    0    0    0    0  0.00000000000E+00  0.00000000000E+00  0.45593999997E+02  0.45594000000E+02  0.51100000000E-03 0. -1.
         11   -1    0    0    0    0 -0.00000000000E+00 -0.00000000000E+00 -0.45593999997E+02  0.45594000000E+02  0.51100000000E-03 0.  1.
    9900012    2    1    2    0    0  0.48069927332E+00 -0.72655572259E+00  0.79634360359E+00  0.90007695741E+02  0.89999956525E+02 0.  0.
        -12    1    1    2    0    0 -0.48069927332E+00  0.72655572259E+00 -0.79634360359E+00  0.11803042592E+01  0.00000000000E+00 0.  1.
         11    1    3    3    0    0 -0.65050934795E+00 -0.65199496189E+01  0.79317358372E+01  0.10288116402E+02  0.51100000000E-03 0. -1.
        -11    1    3    3    0    0 -0.73084465115E+01 -0.21518844488E+02 -0.33732354984E+02  0.40673650334E+02  0.51100000000E-03 0.  1.
         12    1    3    3    0    0  0.84396551328E+01  0.27312238384E+02  0.26596962750E+02  0.39045929005E+02  0.00000000000E+00 0. -1.
</event>
<event>
 7    1  0.2542335E-015  0.9000779E+02  0.7816164E-02  0.1186339E+00
        -11   -1    0    0    0    0  0.00000000000E+00  0.00000000000E+00  0.45593999997E+02  0.45594000000E+02  0.51100000000E-03 0.  1.
         11   -1    0    0    0    0 -0.00000000000E+00 -0.00000000000E+00 -0.45593999997E+02  0.45594000000E+02  0.51100000000E-03 0. -1.
    9900012    2    1    2    0    0 -0.10109027558E+01  0.56553514590E+00 -0.22612493880E+00  0.90007793717E+02  0.90000055794E+02 0.  0.
        -12    1    1    2    0    0  0.10109027558E+01 -0.56553514590E+00  0.22612493880E+00  0.11802062832E+01  0.00000000000E+00 0.  1.
         11    1    3    3    0    0  0.25187349036E+02  0.81206344044E+01 -0.25543863737E+02  0.36780922086E+02  0.51100000000E-03 0. -1.
        -11    1    3    3    0    0  0.57210090271E+00  0.94048764057E+01 -0.38292341599E+01  0.10170645710E+02  0.51100000000E-03 0.  1.
        -12    1    3    3    0    0 -0.26770352695E+02 -0.16959975664E+02  0.29146972958E+02  0.43056225921E+02  0.00000000000E+00 0.  1.
</event>
<event>
 7    1  0.2542335E-015  0.9000773E+02  0.7816164E-02  0.1186339E+00
        -11   -1    0    0    0    0  0.00000000000E+00  0.00000000000E+00  0.45593999997E+02  0.45594000000E+02  0.51100000000E-03 0. -1.
         11   -1    0    0    0    0 -0.00000000000E+00 -0.00000000000E+00 -0.45593999997E+02  0.45594000000E+02  0.51100000000E-03 0.  1.
    9900012    2    1    2    0    0  0.36001587763E+00  0.89222556876E+00  0.68362944622E+00  0.90007734302E+02  0.89999995595E+02 0.  0.
        -12    1    1    2    0    0 -0.36001587763E+00 -0.89222556876E+00 -0.68362944622E+00  0.11802656978E+01  0.00000000000E+00 0.  1.
         11    1    3    3    0    0  0.84223686958E+01  0.14103145601E+02  0.34889012322E+02  0.38562652805E+02  0.51100000000E-03 0. -1.
        -11    1    3    3    0    0  0.35894168175E+00  0.93806647698E+01  0.25121441652E+00  0.93908902452E+01  0.51100000000E-03 0.  1.
        -12    1    3    3    0    0 -0.84212945000E+01 -0.22591584802E+02 -0.34456597292E+02  0.42054191252E+02  0.00000000000E+00 0.  1.
</event>
<event>
 7    1  0.2542335E-015  0.9000779E+02  0.7816164E-02  0.1186339E+00
        -11   -1    0    0    0    0  0.00000000000E+00  0.00000000000E+00  0.45593999997E+02  0.45594000000E+02  0.51100000000E-03 0.  1.
         11   -1    0    0    0    0 -0.00000000000E+00 -0.00000000000E+00 -0.45593999997E+02  0.45594000000E+02  0.51100000000E-03 0. -1.
    9900012    2    1    2    0    0  0.11305640855E+01 -0.33683785957E+00  0.35623126251E-01  0.90007786501E+02  0.90000048483E+02 0.  0.
        -12    1    1    2    0    0 -0.11305640855E+01  0.33683785957E+00 -0.35623126251E-01  0.11802134985E+01  0.00000000000E+00 0.  1.
         11    1    3    3    0    0  0.32880452020E+02 -0.19014943997E+02 -0.10431517816E+01  0.37997110234E+02  0.51100000000E-03 0. -1.
        -11    1    3    3    0    0  0.78120231668E+01  0.75785288212E+01 -0.44296733156E+00  0.10893026456E+02  0.51100000000E-03 0.  1.
        -12    1    3    3    0    0 -0.39561911101E+02  0.11099577316E+02  0.15217422394E+01  0.41117649812E+02  0.00000000000E+00 0.  1.
</event>
<event>
 7    1  0.2542335E-015  0.9000765E+02  0.7816164E-02  0.1186339E+00
        -11   -1    0    0    0    0  0.00000000000E+00  0.00000000000E+00  0.45593999997E+02  0.45594000000E+02  0.51100000000E-03 0. -1.
         11   -1    0    0    0    0 -0.00000000000E+00 -0.00000000000E+00 -0.45593999997E+02  0.45594000000E+02  0.51100000000E-03 0.  1.
    9900012    2    1    2    0    0  0.18773686031E-01 -0.93917742176E+00  0.71472349049E+00  0.90007645668E+02  0.89999905791E+02 0.  0.
        -12    1    1    2    0    0 -0.18773686031E-01  0.93917742176E+00 -0.71472349049E+00  0.11803543318E+01  0.00000000000E+00 0.  1.
         11    1    3    3    0    0  0.10185042822E+02  0.62398186894E+01  0.10753181346E+02  0.16071756092E+02  0.51100000000E-03 0. -1.
        -11    1    3    3    0    0  0.15995194315E+02  0.24490245254E+02 -0.14443978647E+02  0.32622796833E+02  0.51100000000E-03 0.  1.
         12    1    3    3    0    0 -0.26161463451E+02 -0.31669241365E+02  0.44055207910E+01  0.41313092743E+02  0.00000000000E+00 0. -1.
</event>
<event>
 7    1  0.2542335E-015  0.9000773E+02  0.7816164E-02  0.1186339E+00
        -11   -1    0    0    0    0  0.00000000000E+00  0.00000000000E+00  0.45593999997E+02  0.45594000000E+02  0.51100000000E-03 0. -1.
         11   -1    0    0    0    0 -0.00000000000E+00 -0.00000000000E+00 -0.45593999997E+02  0.45594000000E+02  0.51100000000E-03 0.  1.
    9900012    2    1    2    0    0 -0.11170947775E+01 -0.25956043447E+00 -0.27885530612E+00  0.90007731961E+02  0.89999993223E+02 0.  0.
        -12    1    1    2    0    0  0.11170947775E+01  0.25956043447E+00  0.27885530612E+00  0.11802680386E+01  0.00000000000E+00 0.  1.
         11    1    3    3    0    0  0.23963857948E+02 -0.22307245770E+01  0.24104597577E+02  0.34062798542E+02  0.51100000000E-03 0. -1.
        -11    1    3    3    0    0  0.48000511317E+01 -0.11975772417E+02  0.28083379883E+01  0.13204028869E+02  0.51100000000E-03 0.  1.
        -12    1    3    3    0    0 -0.29881003857E+02  0.13946936560E+02 -0.27191790872E+02  0.42740904550E+02  0.00000000000E+00 0.  1.
</event>
<event>
 7    1  0.2542335E-015  0.9000766E+02  0.7816164E-02  0.1186339E+00
        -11   -1    0    0    0    0  0.00000000000E+00  0.00000000000E+00  0.45593999997E+02  0.45594000000E+02  0.51100000000E-03 0.  1.
         11   -1    0    0    0    0 -0.00000000000E+00 -0.00000000000E+00 -0.45593999997E+02  0.45594000000E+02  0.51100000000E-03 0. -1.
    9900012    2    1    2    0    0  0.28228855713E+00  0.10975335910E+01 -0.33004772267E+00  0.90007661781E+02  0.89999922116E+02 0.  0.
        -12    1    1    2    0    0 -0.28228855713E+00 -0.10975335910E+01  0.33004772267E+00  0.11803382194E+01  0.00000000000E+00 0.  1.
         11    1    3    3    0    0  0.30495216461E+02  0.11205053672E+02  0.46728133509E+01  0.32822959033E+02  0.51100000000E-03 0. -1.
        -11    1    3    3    0    0  0.39941526688E+01  0.64856304954E+01 -0.15903735939E+02  0.17633646122E+02  0.51100000000E-03 0.  1.
        -12    1    3    3    0    0 -0.34207080573E+02 -0.16593150577E+02  0.10900874865E+02  0.39551056626E+02  0.00000000000E+00 0.  1.
</event>
<event>
 7    1  0.2542335E-015  0.9000767E+02  0.7816164E-02  0.1186339E+00
        -11   -1    0    0    0    0  0.00000000000E+00  0.00000000000E+00  0.45593999997E+02  0.45594000000E+02  0.51100000000E-03 0. -1.
         11   -1    0    0    0    0 -0.00000000000E+00 -0.00000000000E+00 -0.45593999997E+02  0.45594000000E+02  0.51100000000E-03 0.  1.
    9900012    2    1    2    0    0 -0.11464692896E+01  0.15162376027E+00 -0.23621860811E+00  0.90007669187E+02  0.89999929620E+02 0.  0.
        -12    1    1    2    0    0  0.11464692896E+01 -0.15162376027E+00  0.23621860811E+00  0.11803308128E+01  0.00000000000E+00 0.  1.
         11    1    3    3    0    0  0.51866579598E+01  0.16129742058E+01 -0.73239152855E+01  0.91182696796E+01  0.51100000000E-03 0. -1.
        -11    1    3    3    0    0 -0.25070377916E+02 -0.22894571174E+02 -0.21786950259E+02  0.40340506193E+02  0.51100000000E-03 0.  1.
         12    1    3    3    0    0  0.18737250666E+02  0.21433220729E+02  0.28874646936E+02  0.40548893314E+02  0.00000000000E+00 0. -1.
</event>
<event>
 7    1  0.2542335E-015  0.9000772E+02  0.7816164E-02  0.1186339E+00
        -11   -1    0    0    0    0  0.00000000000E+00  0.00000000000E+00  0.45593999997E+02  0.45594000000E+02  0.51100000000E-03 0.  1.
         11   -1    0    0    0    0 -0.00000000000E+00 -0.00000000000E+00 -0.45593999997E+02  0.45594000000E+02  0.51100000000E-03 0. -1.
    9900012    2    1    2    0    0  0.60173880489E+00 -0.87092361581E+00  0.52198103272E+00  0.90007719638E+02  0.89999980737E+02 0.  0.
        -12    1    1    2    0    0 -0.60173880489E+00  0.87092361581E+00 -0.52198103272E+00  0.11802803618E+01  0.00000000000E+00 0.  1.
         11    1    3    3    0    0  0.54035740472E+01  0.15583994262E+01  0.58074907028E+01  0.80841925867E+01  0.51100000000E-03 0. -1.
        -11    1    3    3    0    0 -0.20000427109E+02  0.23873908461E+02  0.24312203474E+02  0.39510300275E+02  0.51100000000E-03 0.  1.
         12    1    3    3    0    0  0.15198591867E+02 -0.26303231503E+02 -0.29597713144E+02  0.42413226777E+02  0.00000000000E+00 0. -1.
</event>
<event>
 7    1  0.2542335E-015  0.9000768E+02  0.7816164E-02  0.1186339E+00
        -11   -1    0    0    0    0  0.00000000000E+00  0.00000000000E+00  0.45593999997E+02  0.45594000000E+02  0.51100000000E-03 0.  1.
         11   -1    0    0    0    0 -0.00000000000E+00 -0.00000000000E+00 -0.45593999997E+02  0.45594000000E+02  0.51100000000E-03 0. -1.
    9900012    2    1    2    0    0  0.80156490167E+00  0.58008946956E+00 -0.64353609234E+00  0.90007682760E+02  0.89999943373E+02 0.  0.
        -12    1    1    2    0    0 -0.80156490167E+00 -0.58008946956E+00  0.64353609234E+00  0.11803172397E+01  0.00000000000E+00 0.  1.
         11    1    3    3    0    0  0.16557553497E+02  0.21882197644E+02  0.26565579406E+02  0.38193103579E+02  0.51100000000E-03 0. -1.
        -11    1    3    3    0    0  0.14668238036E+01  0.89782170279E+01 -0.38880277714E+01  0.98932660574E+01  0.51100000000E-03 0.  1.
        -12    1    3    3    0    0 -0.17222812399E+02 -0.30280325202E+02 -0.23321087727E+02  0.41921313124E+02  0.00000000000E+00 0.  1.
</event>
<event>
 7    1  0.2542335E-015  0.9000768E+02  0.7816164E-02  0.1186339E+00
        -11   -1    0    0    0    0  0.00000000000E+00  0.00000000000E+00  0.45593999997E+02  0.45594000000E+02  0.51100000000E-03 0. -1.
         11   -1    0    0    0    0 -0.00000000000E+00 -0.00000000000E+00 -0.45593999997E+02  0.45594000000E+02  0.51100000000E-03 0.  1.
    9900012    2    1    2    0    0  0.11015266287E+01  0.39813220134E+00  0.14590574919E+00  0.90007678581E+02  0.89999939139E+02 0.  0.
        -12    1    1    2    0    0 -0.11015266287E+01 -0.39813220134E+00 -0.14590574919E+00  0.11803214186E+01  0.00000000000E+00 0.  1.
         11    1    3    3    0    0  0.25940064021E+01 -0.13457907302E+00  0.72839134611E+01  0.77331996167E+01  0.51100000000E-03 0. -1.
        -11    1    3    3    0    0  0.36359693477E+02  0.91366820664E+01  0.11499902432E+02  0.39214206930E+02  0.51100000000E-03 0.  1.
         12    1    3    3    0    0 -0.37852173251E+02 -0.86039707921E+01 -0.18637910144E+02  0.43060272035E+02  0.00000000000E+00 0. -1.
</event>
<event>
 7    1  0.2542335E-015  0.9000771E+02  0.7816164E-02  0.1186339E+00
        -11   -1    0    0    0    0  0.00000000000E+00  0.00000000000E+00  0.45593999997E+02  0.45594000000E+02  0.51100000000E-03 0.  1.
         11   -1    0    0    0    0 -0.00000000000E+00 -0.00000000000E+00 -0.45593999997E+02  0.45594000000E+02  0.51100000000E-03 0. -1.
    9900012    2    1    2    0    0 -0.52171510768E-01 -0.10344648542E+01 -0.56589630405E+00  0.90007712735E+02  0.89999973743E+02 0.  0.
        -12    1    1    2    0    0  0.52171510768E-01  0.10344648542E+01  0.56589630405E+00  0.11802872651E+01  0.00000000000E+00 0.  1.
         11    1    3    3    0    0  0.37704240728E+02 -0.72758447103E+01 -0.12314243615E+02  0.40326024863E+02  0.51100000000E-03 0. -1.
        -11    1    3    3    0    0  0.42196400667E+01  0.34682827541E+01  0.43185536199E+01  0.69630634913E+01  0.51100000000E-03 0.  1.
        -12    1    3    3    0    0 -0.41976052306E+02  0.27730971020E+01  0.74297936911E+01  0.42718624381E+02  0.00000000000E+00 0.  1.
</event>
<event>
 7    1  0.2542335E-015  0.9000773E+02  0.7816164E-02  0.1186339E+00
        -11   -1    0    0    0    0  0.00000000000E+00  0.00000000000E+00  0.45593999997E+02  0.45594000000E+02  0.51100000000E-03 0.  1.
         11   -1    0    0    0    0 -0.00000000000E+00 -0.00000000000E+00 -0.45593999997E+02  0.45594000000E+02  0.51100000000E-03 0. -1.
    9900012    2    1    2    0    0  0.88137664792E+00 -0.60645244732E+00 -0.49842143969E+00  0.90007731684E+02  0.89999992942E+02 0.  0.
        -12    1    1    2    0    0 -0.88137664792E+00  0.60645244732E+00  0.49842143969E+00  0.11802683161E+01  0.00000000000E+00 0.  1.
         11    1    3    3    0    0 -0.19549779818E+02  0.30336416505E+02 -0.15986461550E+02  0.39472256212E+02  0.51100000000E-03 0. -1.
        -11    1    3    3    0    0 -0.80514614329E+01 -0.44306133681E+01  0.28092545127E+01  0.96098011010E+01  0.51100000000E-03 0.  1.
        -12    1    3    3    0    0  0.28482617899E+02 -0.26512255584E+02  0.12678785597E+02  0.40925674371E+02  0.00000000000E+00 0.  1.
</event>
<event>
 7    1  0.2542335E-015  0.9000755E+02  0.7816164E-02  0.1186339E+00
        -11   -1    0    0    0    0  0.00000000000E+00  0.00000000000E+00  0.45593999997E+02  0.45594000000E+02  0.51100000000E-03 0. -1.
         11   -1    0    0    0    0 -0.00000000000E+00 -0.00000000000E+00 -0.45593999997E+02  0.45594000000E+02  0.51100000000E-03 0.  1.
    9900012    2    1    2    0    0 -0.92862037826E+00 -0.71424830202E+00 -0.14481436890E+00  0.90007551930E+02  0.89999810816E+02 0.  0.
        -12    1    1    2    0    0  0.92862037826E+00  0.71424830202E+00  0.14481436890E+00  0.11804480697E+01  0.00000000000E+00 0.  1.
         11    1    3    3    0    0 -0.47520664565E+01 -0.56952636864E+01 -0.69697519630E+01  0.10178192706E+02  0.51100000000E-03 0. -1.
        -11    1    3    3    0    0  0.33271342032E+02  0.11301455956E+02 -0.19184770722E+02  0.40034491820E+02  0.51100000000E-03 0.  1.
         12    1    3    3    0    0 -0.29447895954E+02 -0.63204405712E+01  0.26009708316E+02  0.39794867405E+02  0.00000000000E+00 0. -1.
</event>
<event>
 7    1  0.2542335E-015  0.9000778E+02  0.7816164E-02  0.1186339E+00
        -11   -1    0    0    0    0  0.00000000000E+00  0.00000000000E+00  0.45593999997E+02  0.45594000000E+02  0.51100000000E-03 0.  1.
         11   -1    0    0    0    0 -0.00000000000E+00 -0.00000000000E+00 -0.45593999997E+02  0.45594000000E+02  0.51100000000E-03 0. -1.
    9900012    2    1    2    0    0  0.58251273506E+00  0.98894455635E+00 -0.27494696244E+00  0.90007776185E+02  0.90000038030E+02 0.  0.
        -12    1    1    2    0    0 -0.58251273506E+00 -0.98894455635E+00  0.27494696244E+00  0.11802238153E+01  0.00000000000E+00 0.  1.
         11    1    3    3    0    0 -0.13041731534E+02 -0.58147724245E+01  0.67285935980E+01  0.15785192802E+02  0.51100000000E-03 0. -1.
        -11    1    3    3    0    0 -0.16880957643E+01  0.37439266199E+02 -0.12559289622E+02  0.39525739422E+02  0.51100000000E-03 0.  1.
         12    1    3    3    0    0  0.15312340033E+02 -0.30635549218E+02  0.55557490615E+01  0.34696843960E+02  0.00000000000E+00 0. -1.
</event>
<event>
 7    1  0.2542335E-015  0.9000776E+02  0.7816164E-02  0.1186339E+00
        -11   -1    0    0    0    0  0.00000000000E+00  0.00000000000E+00  0.45593999997E+02  0.45594000000E+02  0.51100000000E-03 0. -1.
         11   -1    0    0    0    0 -0.00000000000E+00 -0.00000000000E+00 -0.45593999997E+02  0.45594000000E+02  0.51100000000E-03 0.  1.
    9900012    2    1    2    0    0  0.10004689776E+01 -0.59721522607E+00  0.18803256613E+00  0.90007762546E+02  0.90000024212E+02 0.  0.
        -12    1    1    2    0    0 -0.10004689776E+01  0.59721522607E+00 -0.18803256613E+00  0.11802374538E+01  0.00000000000E+00 0.  1.
         11    1    3    3    0    0 -0.93819632646E+00 -0.87644269385E+01  0.39494063070E+02  0.40465743660E+02  0.51100000000E-03 0. -1.
        -11    1    3    3    0    0  0.30412812806E+01 -0.95432662391E+01 -0.56632550265E+01  0.11506336519E+02  0.51100000000E-03 0.  1.
        -12    1    3    3    0    0 -0.11026159765E+01  0.17710477952E+02 -0.33642775478E+02  0.38035682367E+02  0.00000000000E+00 0.  1.
</event>
<event>
 7    1  0.2542335E-015  0.9000779E+02  0.7816164E-02  0.1186339E+00
        -11   -1    0    0    0    0  0.00000000000E+00  0.00000000000E+00  0.45593999997E+02  0.45594000000E+02  0.51100000000E-03 0.  1.
         11   -1    0    0    0    0 -0.00000000000E+00 -0.00000000000E+00 -0.45593999997E+02  0.45594000000E+02  0.51100000000E-03 0. -1.
    9900012    2    1    2    0    0 -0.11204514806E+00  0.16391482934E+00 -0.11633839956E+01  0.90007794718E+02  0.90000056808E+02 0.  0.
        -12    1    1    2    0    0  0.11204514806E+00 -0.16391482934E+00  0.11633839956E+01  0.11802052820E+01  0.00000000000E+00 0.  1.
         11    1    3    3    0    0 -0.12694876063E+02  0.53130617074E+01 -0.45575962347E+01  0.14496902657E+02  0.51100000000E-03 0. -1.
        -11    1    3    3    0    0  0.88626960123E+01 -0.87711113106E+01  0.38270314272E+02  0.40250425202E+02  0.51100000000E-03 0.  1.
         12    1    3    3    0    0  0.37201349024E+01  0.36219644325E+01 -0.34876102033E+02  0.35260466858E+02  0.00000000000E+00 0. -1.
</event>
<event>
 7    1  0.2542335E-015  0.9000773E+02  0.7816164E-02  0.1186339E+00
        -11   -1    0    0    0    0  0.00000000000E+00  0.00000000000E+00  0.45593999997E+02  0.45594000000E+02  0.51100000000E-03 0. -1.
         11   -1    0    0    0    0 -0.00000000000E+00 -0.00000000000E+00 -0.45593999997E+02  0.45594000000E+02  0.51100000000E-03 0.  1.
    9900012    2    1    2    0    0  0.90474934711E+00 -0.45254268951E+00  0.60800865555E+00  0.90007728509E+02  0.89999989725E+02 0.  0.
        -12    1    1    2    0    0 -0.90474934711E+00  0.45254268951E+00 -0.60800865555E+00  0.11802714909E+01  0.00000000000E+00 0.  1.
         11    1    3    3    0    0  0.34958220746E+02  0.88528378161E+01 -0.16108785962E+02  0.39496112727E+02  0.51100000000E-03 0. -1.
        -11    1    3    3    0    0  0.52186048310E+01 -0.10438254403E+01  0.77319121450E+01  0.93864729057E+01  0.51100000000E-03 0.  1.
        -12    1    3    3    0    0 -0.39272076230E+02 -0.82615550653E+01  0.89848824725E+01  0.41125142876E+02  0.00000000000E+00 0.  1.
</event>
<event>
 7    1  0.2542335E-015  0.9000767E+02  0.7816164E-02  0.1186339E+00
        -11   -1    0    0    0    0  0.00000000000E+00  0.00000000000E+00  0.45593999997E+02  0.45594000000E+02  0.51100000000E-03 0.  1.
         11   -1    0    0    0    0 -0.00000000000E+00 -0.00000000000E+00 -0.45593999997E+02  0.45594000000E+02  0.51100000000E-03 0. -1.
    9900012    2    1    2    0    0 -0.59428101383E+00 -0.44664215076E+00 -0.91679484914E+00  0.90007672956E+02  0.89999933439E+02 0.  0.
        -12    1    1    2    0    0  0.59428101383E+00  0.44664215076E+00  0.91679484914E+00  0.11803270435E+01  0.00000000000E+00 0.  1.
         11    1    3    3    0    0  0.74405440680E+01  0.70781213356E+01 -0.48338334710E+01  0.11350217793E+02  0.51100000000E-03 0. -1.
        -11    1    3    3    0    0  0.28757350389E+02 -0.43313596267E+01  0.23009645141E+02  0.37083549552E+02  0.51100000000E-03 0.  1.
         12    1    3    3    0    0 -0.36792175471E+02 -0.31934038597E+01 -0.19092606519E+02  0.41573905611E+02  0.00000000000E+00 0. -1.
</event>
<event>
 7    1  0.2542335E-015  0.9000771E+02  0.7816164E-02  0.1186339E+00
        -11   -1    0    0    0    0  0.00000000000E+00  0.00000000000E+00  0.45593999997E+02  0.45594000000E+02  0.51100000000E-03 0.  1.
         11   -1    0    0    0    0 -0.00000000000E+00 -0.00000000000E+00 -0.45593999997E+02  0.45594000000E+02  0.51100000000E-03 0. -1.
    9900012    2    1    2    0    0  0.11135295026E+01 -0.27839566494E+00 -0.27501504040E+00  0.90007709624E+02  0.89999970591E+02 0.  0.
        -12    1    1    2    0    0 -0.11135295026E+01  0.27839566494E+00  0.27501504040E+00  0.11802903761E+01  0.00000000000E+00 0.  1.
         11    1    3    3    0    0  0.17880153336E+02 -0.25409687998E+02 -0.18626660192E+02  0.36225744957E+02  0.51100000000E-03 0. -1.
        -11    1    3    3    0    0  0.59007990889E+01 -0.70838633434E+01 -0.20154936079E+01  0.94373070577E+01  0.51100000000E-03 0.  1.
        -12    1    3    3    0    0 -0.22667422923E+02  0.32215155677E+02  0.20367138760E+02  0.44344657609E+02  0.00000000000E+00 0.  1.
</event>
<event>
 7    1  0.2542335E-015  0.9000761E+02  0.7816164E-02  0.1186339E+00
        -11   -1    0    0    0    0  0.00000000000E+00  0.00000000000E+00  0.45593999997E+02  0.45594000000E+02  0.51100000000E-03 0.  1.
         11   -1    0    0    0    0 -0.00000000000E+00 -0.00000000000E+00 -0.45593999997E+02  0.45594000000E+02  0.51100000000E-03 0. -1.
    9900012    2    1    2    0    0  0.20748392032E+00 -0.25951430554E+00 -0.11326646417E+01  0.90007607505E+02  0.89999867124E+02 0.  0.
        -12    1    1    2    0    0 -0.20748392032E+00  0.25951430554E+00  0.11326646417E+01  0.11803924952E+01  0.00000000000E+00 0.  1.
         11    1    3    3    0    0 -0.14130716084E+01 -0.16402158681E+02 -0.12057107767E+02  0.20405916513E+02  0.51100000000E-03 0. -1.
        -11    1    3    3    0    0 -0.20852513478E+02 -0.13910579429E+02 -0.95847149561E+01  0.26836510567E+02  0.51100000000E-03 0.  1.
         12    1    3    3    0    0  0.22473069006E+02  0.30053223804E+02  0.20509158081E+02  0.42765180425E+02  0.00000000000E+00 0. -1.
</event>
<event>
 7    1  0.2542335E-015  0.9000832E+02  0.7816164E-02  0.1186338E+00
        -11   -1    0    0    0    0  0.00000000000E+00  0.00000000000E+00  0.45593999997E+02  0.45594000000E+02  0.51100000000E-03 0.  1.
         11   -1    0    0    0    0 -0.00000000000E+00 -0.00000000000E+00 -0.45593999997E+02  0.45594000000E+02  0.51100000000E-03 0. -1.
    9900012    2    1    2    0    0  0.48286624711E+00  0.86338796549E+00 -0.64268179456E+00  0.90008322722E+02  0.90000591780E+02 0.  0.
        -12    1    1    2    0    0 -0.48286624711E+00 -0.86338796549E+00  0.64268179456E+00  0.11796772782E+01  0.00000000000E+00 0.  1.
         11    1    3    3    0    0  0.60391322283E+01 -0.57032153341E+01 -0.10750195896E+02  0.13585451604E+02  0.51100000000E-03 0. -1.
        -11    1    3    3    0    0  0.70598259880E+01  0.39358397852E+02  0.10282436233E+02  0.41287445060E+02  0.51100000000E-03 0.  1.
         12    1    3    3    0    0 -0.12616091969E+02 -0.32791794552E+02 -0.17492213145E+00  0.35135426058E+02  0.00000000000E+00 0. -1.
</event>
<event>
 7    1  0.2542335E-015  0.9000777E+02  0.7816164E-02  0.1186339E+00
        -11   -1    0    0    0    0  0.00000000000E+00  0.00000000000E+00  0.45593999997E+02  0.45594000000E+02  0.51100000000E-03 0. -1.
         11   -1    0    0    0    0 -0.00000000000E+00 -0.00000000000E+00 -0.45593999997E+02  0.45594000000E+02  0.51100000000E-03 0.  1.
    9900012    2    1    2    0    0 -0.63930125223E+00  0.49128146208E+00  0.86191009831E+00  0.90007765878E+02  0.90000027587E+02 0.  0.
        -12    1    1    2    0    0  0.63930125223E+00 -0.49128146208E+00 -0.86191009831E+00  0.11802341224E+01  0.00000000000E+00 0.  1.
         11    1    3    3    0    0 -0.79480645092E+01 -0.39070418112E+02  0.97881988432E+01  0.41054575114E+02  0.51100000000E-03 0. -1.
        -11    1    3    3    0    0  0.96316927018E+01  0.17744948258E+01  0.91501276657E+00  0.98364416744E+01  0.51100000000E-03 0.  1.
        -12    1    3    3    0    0 -0.23229294449E+01  0.37787204748E+02 -0.98413015114E+01  0.39116749090E+02  0.00000000000E+00 0.  1.
</event>
<event>
 7    1  0.3348485E-015  0.9000774E+02  0.7816164E-02  0.1186339E+00
        -11   -1    0    0    0    0  0.00000000000E+00  0.00000000000E+00  0.45593999997E+02  0.45594000000E+02  0.51100000000E-03 0. -1.
         11   -1    0    0    0    0 -0.00000000000E+00 -0.00000000000E+00 -0.45593999997E+02  0.45594000000E+02  0.51100000000E-03 0.  1.
    9900012    2    1    2    0    0 -0.40149646593E+00  0.64759000126E+00  0.90136131159E+00  0.90007735438E+02  0.89999996746E+02 0.  0.
        -12    1    1    2    0    0  0.40149646593E+00 -0.64759000126E+00 -0.90136131159E+00  0.11802645618E+01  0.00000000000E+00 0.  1.
         11    1    3    3    0    0  0.31037370649E+01 -0.66527520751E+01  0.55836991423E+01  0.92233394340E+01  0.51100000000E-03 0. -1.
        -11    1    3    3    0    0  0.18667562145E+02  0.13906084504E+02 -0.35376146512E+02  0.42347713102E+02  0.51100000000E-03 0.  1.
         12    1    3    3    0    0 -0.22172795676E+02 -0.66057424275E+01  0.30693808682E+02  0.38436682902E+02  0.00000000000E+00 0. -1.
</event>
<event>
 7    1  0.2542335E-015  0.9000719E+02  0.7816164E-02  0.1186340E+00
        -11   -1    0    0    0    0  0.00000000000E+00  0.00000000000E+00  0.45593999997E+02  0.45594000000E+02  0.51100000000E-03 0.  1.
         11   -1    0    0    0    0 -0.00000000000E+00 -0.00000000000E+00 -0.45593999997E+02  0.45594000000E+02  0.51100000000E-03 0. -1.
    9900012    2    1    2    0    0 -0.69458563917E+00  0.92065176700E+00 -0.25348889172E+00  0.90007192859E+02  0.89999447003E+02 0.  0.
        -12    1    1    2    0    0  0.69458563917E+00 -0.92065176700E+00  0.25348889172E+00  0.11808071411E+01  0.00000000000E+00 0.  1.
         11    1    3    3    0    0  0.23057718913E+02 -0.21908592020E+02  0.17917355358E+02  0.36505841026E+02  0.51100000000E-03 0. -1.
        -11    1    3    3    0    0  0.32466764598E+01 -0.61009439940E+01 -0.11434266658E+02  0.13360571841E+02  0.51100000000E-03 0.  1.
        -12    1    3    3    0    0 -0.26998981012E+02  0.28930187781E+02 -0.67365775918E+01  0.40140779992E+02  0.00000000000E+00 0.  1.
</event>
<event>
 7    1  0.2542335E-015  0.9000766E+02  0.7816164E-02  0.1186339E+00
        -11   -1    0    0    0    0  0.00000000000E+00  0.00000000000E+00  0.45593999997E+02  0.45594000000E+02  0.51100000000E-03 0.  1.
         11   -1    0    0    0    0 -0.00000000000E+00 -0.00000000000E+00 -0.45593999997E+02  0.45594000000E+02  0.51100000000E-03 0. -1.
    9900012    2    1    2    0    0 -0.38834874842E+00  0.10818887922E+01 -0.26816260548E+00  0.90007657129E+02  0.89999917404E+02 0.  0.
        -12    1    1    2    0    0  0.38834874842E+00 -0.10818887922E+01  0.26816260548E+00  0.11803428705E+01  0.00000000000E+00 0.  1.
         11    1    3    3    0    0  0.46044844272E+01  0.69444808965E+01 -0.59112123360E+01  0.10216140333E+02  0.51100000000E-03 0. -1.
        -11    1    3    3    0    0  0.36280707876E+02  0.55345452516E+01  0.43090508674E+01  0.36952521899E+02  0.51100000000E-03 0.  1.
         12    1    3    3    0    0 -0.41273541051E+02 -0.11397137356E+02  0.13339988631E+01  0.42838994897E+02  0.00000000000E+00 0. -1.
</event>
<event>
 7    1  0.2542335E-015  0.9000777E+02  0.7816164E-02  0.1186339E+00
        -11   -1    0    0    0    0  0.00000000000E+00  0.00000000000E+00  0.45593999997E+02  0.45594000000E+02  0.51100000000E-03 0. -1.
         11   -1    0    0    0    0 -0.00000000000E+00 -0.00000000000E+00 -0.45593999997E+02  0.45594000000E+02  0.51100000000E-03 0.  1.
    9900012    2    1    2    0    0 -0.11494947955E+01 -0.19048218038E+00 -0.18797039272E+00  0.90007765017E+02  0.90000026716E+02 0.  0.
        -12    1    1    2    0    0  0.11494947955E+01  0.19048218038E+00  0.18797039272E+00  0.11802349827E+01  0.00000000000E+00 0.  1.
         11    1    3    3    0    0  0.12177440636E+02 -0.35770832822E+02 -0.88126818463E+01  0.38800849253E+02  0.51100000000E-03 0. -1.
        -11    1    3    3    0    0  0.96206485186E+01  0.23308603996E+01  0.93151156369E-02  0.98989835414E+01  0.51100000000E-03 0.  1.
        -12    1    3    3    0    0 -0.22947583950E+02  0.33249490242E+02  0.86153963379E+01  0.41307932223E+02  0.00000000000E+00 0.  1.
</event>
<event>
 7    1  0.2542335E-015  0.9000795E+02  0.7816164E-02  0.1186339E+00
        -11   -1    0    0    0    0  0.00000000000E+00  0.00000000000E+00  0.45593999997E+02  0.45594000000E+02  0.51100000000E-03 0.  1.
         11   -1    0    0    0    0 -0.00000000000E+00 -0.00000000000E+00 -0.45593999997E+02  0.45594000000E+02  0.51100000000E-03 0. -1.
    9900012    2    1    2    0    0  0.60586748622E+00  0.35134339550E+00 -0.94973863871E+00  0.90007948698E+02  0.90000212821E+02 0.  0.
        -12    1    1    2    0    0 -0.60586748622E+00 -0.35134339550E+00  0.94973863871E+00  0.11800513015E+01  0.00000000000E+00 0.  1.
         11    1    3    3    0    0  0.58624665130E+01  0.23924252911E+01 -0.82968449042E+01  0.10436946297E+02  0.51100000000E-03 0. -1.
        -11    1    3    3    0    0  0.27462176079E+02  0.23048036749E+02  0.12610938726E+02  0.38005511295E+02  0.51100000000E-03 0.  1.
         12    1    3    3    0    0 -0.32718775105E+02 -0.25089118645E+02 -0.52638324605E+01  0.41565491107E+02  0.00000000000E+00 0. -1.
</event>
<event>
 7    1  0.2542335E-015  0.9000742E+02  0.7816164E-02  0.1186340E+00
        -11   -1    0    0    0    0  0.00000000000E+00  0.00000000000E+00  0.45593999997E+02  0.45594000000E+02  0.51100000000E-03 0.  1.
         11   -1    0    0    0    0 -0.00000000000E+00 -0.00000000000E+00 -0.45593999997E+02  0.45594000000E+02  0.51100000000E-03 0. -1.
    9900012    2    1    2    0    0 -0.26949014249E+00 -0.85098856567E+00 -0.77262819704E+00  0.90007423528E+02  0.89999680718E+02 0.  0.
        -12    1    1    2    0    0  0.26949014249E+00  0.85098856567E+00  0.77262819704E+00  0.11805764722E+01  0.00000000000E+00 0.  1.
         11    1    3    3    0    0  0.10888712973E+02  0.94124057560E+01  0.23158275226E+01  0.14578083197E+02  0.51100000000E-03 0. -1.
        -11    1    3    3    0    0 -0.22144251606E+02  0.26373891846E+02 -0.11423244663E+02  0.36282786128E+02  0.51100000000E-03 0.  1.
         12    1    3    3    0    0  0.10986048491E+02 -0.36637286168E+02  0.83347889437E+01  0.39146554203E+02  0.00000000000E+00 0. -1.
</event>
<event>
 7    1  0.2542335E-015  0.9000785E+02  0.7816164E-02  0.1186339E+00
        -11   -1    0    0    0    0  0.00000000000E+00  0.00000000000E+00  0.45593999997E+02  0.45594000000E+02  0.51100000000E-03 0.  1.
         11   -1    0    0    0    0 -0.00000000000E+00 -0.00000000000E+00 -0.45593999997E+02  0.45594000000E+02  0.51100000000E-03 0. -1.
    9900012    2    1    2    0    0 -0.65544162436E+00  0.55114623265E+00 -0.81202915869E+00  0.90007848634E+02  0.90000111436E+02 0.  0.
        -12    1    1    2    0    0  0.65544162436E+00 -0.55114623265E+00  0.81202915869E+00  0.11801513663E+01  0.00000000000E+00 0.  1.
         11    1    3    3    0    0 -0.60171868498E+01 -0.40976099917E+01  0.15629337986E+01  0.74457845489E+01  0.51100000000E-03 0. -1.
        -11    1    3    3    0    0  0.10989457174E+02  0.65059086928E+01  0.38859341156E+02  0.40904075742E+02  0.51100000000E-03 0.  1.
         12    1    3    3    0    0 -0.56277119486E+01 -0.18571524685E+01 -0.41234304114E+02  0.41657988343E+02  0.00000000000E+00 0. -1.
</event>
<event>
 7    1  0.2542335E-015  0.9000781E+02  0.7816164E-02  0.1186339E+00
        -11   -1    0    0    0    0  0.00000000000E+00  0.00000000000E+00  0.45593999997E+02  0.45594000000E+02  0.51100000000E-03 0.  1.
         11   -1    0    0    0    0 -0.00000000000E+00 -0.00000000000E+00 -0.45593999997E+02  0.45594000000E+02  0.51100000000E-03 0. -1.
    9900012    2    1    2    0    0 -0.87737865043E+00  0.10984185974E+00 -0.78166495017E+00  0.90007805683E+02  0.90000067918E+02 0.  0.
        -12    1    1    2    0    0  0.87737865043E+00 -0.10984185974E+00  0.78166495017E+00  0.11801943165E+01  0.00000000000E+00 0.  1.
         11    1    3    3    0    0 -0.54573085337E+01 -0.74496675036E+01 -0.13288889592E+02  0.16182532224E+02  0.51100000000E-03 0. -1.
        -11    1    3    3    0    0 -0.14077250767E+02  0.35601803711E+02  0.12067050196E+02  0.40140641716E+02  0.51100000000E-03 0.  1.
         12    1    3    3    0    0  0.18657180650E+02 -0.28042294348E+02  0.44017444573E+00  0.33684631743E+02  0.00000000000E+00 0. -1.
</event>
<event>
 7    1  0.2542335E-015  0.9000766E+02  0.7816164E-02  0.1186339E+00
        -11   -1    0    0    0    0  0.00000000000E+00  0.00000000000E+00  0.45593999997E+02  0.45594000000E+02  0.51100000000E-03 0. -1.
         11   -1    0    0    0    0 -0.00000000000E+00 -0.00000000000E+00 -0.45593999997E+02  0.45594000000E+02  0.51100000000E-03 0.  1.
    9900012    2    1    2    0    0  0.10087360896E+01 -0.34154574194E+00  0.50891723501E+00  0.90007661597E+02  0.89999921931E+02 0.  0.
        -12    1    1    2    0    0 -0.10087360896E+01  0.34154574194E+00 -0.50891723501E+00  0.11803384025E+01  0.00000000000E+00 0.  1.
         11    1    3    3    0    0 -0.26700155862E+02  0.28497940730E+02 -0.16227986585E+02  0.42289224369E+02  0.51100000000E-03 0. -1.
        -11    1    3    3    0    0  0.46247106166E+00 -0.94477988010E+01 -0.15769807377E+01  0.95896637155E+01  0.51100000000E-03 0.  1.
        -12    1    3    3    0    0  0.27246420890E+02 -0.19391687671E+02  0.18313884558E+02  0.38128773513E+02  0.00000000000E+00 0.  1.
</event>
<event>
 7    1  0.2542335E-015  0.9000794E+02  0.7816164E-02  0.1186339E+00
        -11   -1    0    0    0    0  0.00000000000E+00  0.00000000000E+00  0.45593999997E+02  0.45594000000E+02  0.51100000000E-03 0. -1.
         11   -1    0    0    0    0 -0.00000000000E+00 -0.00000000000E+00 -0.45593999997E+02  0.45594000000E+02  0.51100000000E-03 0.  1.
    9900012    2    1    2    0    0  0.90875292023E+00 -0.10346442362E+00  0.74566110616E+00  0.90007937611E+02  0.90000201587E+02 0.  0.
        -12    1    1    2    0    0 -0.90875292023E+00  0.10346442362E+00 -0.74566110616E+00  0.11800623891E+01  0.00000000000E+00 0.  1.
         11    1    3    3    0    0  0.13729229433E+02 -0.31746573621E+02  0.23737834494E+02  0.41950226033E+02  0.51100000000E-03 0. -1.
        -11    1    3    3    0    0 -0.47477806027E+01 -0.25495409703E+01  0.10445174416E+01  0.54893166020E+01  0.51100000000E-03 0.  1.
        -12    1    3    3    0    0 -0.80726959103E+01  0.34192650168E+02 -0.24036690830E+02  0.42568394976E+02  0.00000000000E+00 0.  1.
</event>
<event>
 7    1  0.2542335E-015  0.9000789E+02  0.7816164E-02  0.1186339E+00
        -11   -1    0    0    0    0  0.00000000000E+00  0.00000000000E+00  0.45593999997E+02  0.45594000000E+02  0.51100000000E-03 0. -1.
         11   -1    0    0    0    0 -0.00000000000E+00 -0.00000000000E+00 -0.45593999997E+02  0.45594000000E+02  0.51100000000E-03 0.  1.
    9900012    2    1    2    0    0  0.15841511242E+00 -0.10719184370E+01 -0.46749326847E+00  0.90007892192E+02  0.90000155568E+02 0.  0.
        -12    1    1    2    0    0 -0.15841511242E+00  0.10719184370E+01  0.46749326847E+00  0.11801078084E+01  0.00000000000E+00 0.  1.
         11    1    3    3    0    0 -0.19359845253E+01 -0.30554650367E+02 -0.26203725495E+02  0.40298510210E+02  0.51100000000E-03 0. -1.
        -11    1    3    3    0    0  0.12334125001E+02  0.14631749084E+02  0.10912180920E+01  0.19167928370E+02  0.51100000000E-03 0.  1.
        -12    1    3    3    0    0 -0.10239725364E+02  0.14850982845E+02  0.24645014134E+02  0.30541453611E+02  0.00000000000E+00 0.  1.
</event>
<event>
 7    1  0.2542335E-015  0.9000781E+02  0.7816164E-02  0.1186339E+00
        -11   -1    0    0    0    0  0.00000000000E+00  0.00000000000E+00  0.45593999997E+02  0.45594000000E+02  0.51100000000E-03 0.  1.
         11   -1    0    0    0    0 -0.00000000000E+00 -0.00000000000E+00 -0.45593999997E+02  0.45594000000E+02  0.51100000000E-03 0. -1.
    9900012    2    1    2    0    0 -0.83435978684E+00  0.82965400708E+00  0.91444964194E-01  0.90007811792E+02  0.90000074107E+02 0.  0.
        -12    1    1    2    0    0  0.83435978684E+00 -0.82965400708E+00 -0.91444964194E-01  0.11801882082E+01  0.00000000000E+00 0.  1.
         11    1    3    3    0    0  0.38396723499E+02 -0.89162318395E+01  0.66260870867E+01  0.39971397224E+02  0.51100000000E-03 0. -1.
        -11    1    3    3    0    0  0.92933327100E+00  0.50229909149E+01 -0.80917800767E+01  0.95692739082E+01  0.51100000000E-03 0.  1.
        -12    1    3    3    0    0 -0.40160416557E+02  0.47228949317E+01  0.15571379541E+01  0.40467140660E+02  0.00000000000E+00 0.  1.
</event>
<event>
 7    1  0.2542335E-015  0.9000768E+02  0.7816164E-02  0.1186339E+00
        -11   -1    0    0    0    0  0.00000000000E+00  0.00000000000E+00  0.45593999997E+02  0.45594000000E+02  0.51100000000E-03 0. -1.
         11   -1    0    0    0    0 -0.00000000000E+00 -0.00000000000E+00 -0.45593999997E+02  0.45594000000E+02  0.51100000000E-03 0.  1.
    9900012    2    1    2    0    0 -0.11306169600E+01 -0.21804824241E+00  0.25947500982E+00  0.90007675033E+02  0.89999935544E+02 0.  0.
        -12    1    1    2    0    0  0.11306169600E+01  0.21804824241E+00 -0.25947500982E+00  0.11803249667E+01  0.00000000000E+00 0.  1.
         11    1    3    3    0    0 -0.16506882972E+02  0.23402011116E+02 -0.22768135919E+02  0.36585780342E+02  0.51100000000E-03 0. -1.
        -11    1    3    3    0    0  0.48226823463E+01  0.38908592168E+01 -0.83368583749E+01  0.10387504911E+02  0.51100000000E-03 0.  1.
        -12    1    3    3    0    0  0.10553583666E+02 -0.27510918575E+02  0.31364469304E+02  0.43034389780E+02  0.00000000000E+00 0.  1.
</event>
<event>
 7    1  0.2542335E-015  0.9000783E+02  0.7816164E-02  0.1186339E+00
        -11   -1    0    0    0    0  0.00000000000E+00  0.00000000000E+00  0.45593999997E+02  0.45594000000E+02  0.51100000000E-03 0.  1.
         11   -1    0    0    0    0 -0.00000000000E+00 -0.00000000000E+00 -0.45593999997E+02  0.45594000000E+02  0.51100000000E-03 0. -1.
    9900012    2    1    2    0    0 -0.58399804396E+00  0.92953867459E+00  0.43325509103E+00  0.90007828048E+02  0.90000090578E+02 0.  0.
        -12    1    1    2    0    0  0.58399804396E+00 -0.92953867459E+00 -0.43325509103E+00  0.11801719522E+01  0.00000000000E+00 0.  1.
         11    1    3    3    0    0  0.54693225740E+00  0.19617522383E+00 -0.84514646977E+01  0.84714151953E+01  0.51100000000E-03 0. -1.
        -11    1    3    3    0    0  0.33554246156E+02 -0.14240684448E+02  0.20742684413E+02  0.41939760199E+02  0.51100000000E-03 0.  1.
         12    1    3    3    0    0 -0.34685176457E+02  0.14974047898E+02 -0.11857964624E+02  0.39596652654E+02  0.00000000000E+00 0. -1.
</event>
<event>
 7    1  0.2542335E-015  0.9000773E+02  0.7816164E-02  0.1186339E+00
        -11   -1    0    0    0    0  0.00000000000E+00  0.00000000000E+00  0.45593999997E+02  0.45594000000E+02  0.51100000000E-03 0. -1.
         11   -1    0    0    0    0 -0.00000000000E+00 -0.00000000000E+00 -0.45593999997E+02  0.45594000000E+02  0.51100000000E-03 0.  1.
    9900012    2    1    2    0    0 -0.45816736882E+00  0.10691359636E+01  0.20019621810E+00  0.90007725637E+02  0.89999986815E+02 0.  0.
        -12    1    1    2    0    0  0.45816736882E+00 -0.10691359636E+01 -0.20019621810E+00  0.11802743632E+01  0.00000000000E+00 0.  1.
         11    1    3    3    0    0  0.27521717723E+01  0.35002763593E+01  0.75417562270E+01  0.87581088886E+01  0.51100000000E-03 0. -1.
        -11    1    3    3    0    0 -0.35949771749E+02 -0.10200682912E+02  0.15631455091E+02  0.40506572420E+02  0.51100000000E-03 0.  1.
         12    1    3    3    0    0  0.32739432608E+02  0.77695425168E+01 -0.22973015100E+02  0.40743044329E+02  0.00000000000E+00 0. -1.
</event>
<event>
 7    1  0.2542335E-015  0.9000775E+02  0.7816164E-02  0.1186339E+00
        -11   -1    0    0    0    0  0.00000000000E+00  0.00000000000E+00  0.45593999997E+02  0.45594000000E+02  0.51100000000E-03 0.  1.
         11   -1    0    0    0    0 -0.00000000000E+00 -0.00000000000E+00 -0.45593999997E+02  0.45594000000E+02  0.51100000000E-03 0. -1.
    9900012    2    1    2    0    0 -0.82163641059E+00 -0.19179170422E+00 -0.82529728222E+00  0.90007751699E+02  0.90000013221E+02 0.  0.
        -12    1    1    2    0    0  0.82163641059E+00  0.19179170422E+00  0.82529728222E+00  0.11802483014E+01  0.00000000000E+00 0.  1.
         11    1    3    3    0    0  0.21357232932E+02  0.21579839705E+02  0.45009983821E+01  0.30693319581E+02  0.51100000000E-03 0. -1.
        -11    1    3    3    0    0 -0.23240419386E+02  0.10521972813E+02 -0.83971275725E+01  0.26857787639E+02  0.51100000000E-03 0.  1.
        -12    1    3    3    0    0  0.10615500433E+01 -0.32293604223E+02  0.30708319082E+01  0.32456644479E+02  0.00000000000E+00 0.  1.
</event>
<event>
 7    1  0.2542335E-015  0.9000783E+02  0.7816164E-02  0.1186339E+00
        -11   -1    0    0    0    0  0.00000000000E+00  0.00000000000E+00  0.45593999997E+02  0.45594000000E+02  0.51100000000E-03 0. -1.
         11   -1    0    0    0    0 -0.00000000000E+00 -0.00000000000E+00 -0.45593999997E+02  0.45594000000E+02  0.51100000000E-03 0.  1.
    9900012    2    1    2    0    0 -0.32857408403E+00 -0.74054096768E+00 -0.85816425159E+00  0.90007827243E+02  0.90000089763E+02 0.  0.
        -12    1    1    2    0    0  0.32857408403E+00  0.74054096768E+00  0.85816425159E+00  0.11801727569E+01  0.00000000000E+00 0.  1.
         11    1    3    3    0    0 -0.36308231984E+01  0.12264685943E+01 -0.65911931440E+01  0.76243642118E+01  0.51100000000E-03 0. -1.
        -11    1    3    3    0    0  0.32568281466E+02 -0.20770391401E+02 -0.15508587266E+02  0.41624732982E+02  0.51100000000E-03 0.  1.
         12    1    3    3    0    0 -0.29266032352E+02  0.18803381839E+02  0.21241616158E+02  0.40758730049E+02  0.00000000000E+00 0. -1.
</event>
<event>
 7    1  0.2542335E-015  0.9000773E+02  0.7816164E-02  0.1186339E+00
        -11   -1    0    0    0    0  0.00000000000E+00  0.00000000000E+00  0.45593999997E+02  0.45594000000E+02  0.51100000000E-03 0.  1.
         11   -1    0    0    0    0 -0.00000000000E+00 -0.00000000000E+00 -0.45593999997E+02  0.45594000000E+02  0.51100000000E-03 0. -1.
    9900012    2    1    2    0    0  0.99159253126E+00 -0.58776987673E+00  0.25356782938E+00  0.90007734852E+02  0.89999996152E+02 0.  0.
        -12    1    1    2    0    0 -0.99159253126E+00  0.58776987673E+00 -0.25356782938E+00  0.11802651482E+01  0.00000000000E+00 0.  1.
         11    1    3    3    0    0 -0.79024252830E+01 -0.36500215104E+01 -0.34655384531E+02  0.35731871762E+02  0.51100000000E-03 0. -1.
        -11    1    3    3    0    0 -0.43604176799E+01 -0.44861190994E+01 -0.71711962349E+01  0.95165415261E+01  0.51100000000E-03 0.  1.
        -12    1    3    3    0    0  0.13254435494E+02  0.75483707331E+01  0.42080148595E+02  0.44759321563E+02  0.00000000000E+00 0.  1.
</event>
<event>
 7    1  0.2542335E-015  0.9000772E+02  0.7816164E-02  0.1186339E+00
        -11   -1    0    0    0    0  0.00000000000E+00  0.00000000000E+00  0.45593999997E+02  0.45594000000E+02  0.51100000000E-03 0.  1.
         11   -1    0    0    0    0 -0.00000000000E+00 -0.00000000000E+00 -0.45593999997E+02  0.45594000000E+02  0.51100000000E-03 0. -1.
    9900012    2    1    2    0    0  0.95241726596E+00 -0.19933597036E+00 -0.66799577261E+00  0.90007723833E+02  0.89999984988E+02 0.  0.
        -12    1    1    2    0    0 -0.95241726596E+00  0.19933597036E+00  0.66799577261E+00  0.11802761667E+01  0.00000000000E+00 0.  1.
         11    1    3    3    0    0  0.37340795349E+01  0.56493800894E+01 -0.66811012048E+01  0.95129363993E+01  0.51100000000E-03 0. -1.
        -11    1    3    3    0    0  0.33901125644E+02 -0.21702443027E+02  0.15268410839E+01  0.40281678183E+02  0.51100000000E-03 0.  1.
         12    1    3    3    0    0 -0.36682787913E+02  0.15853726968E+02  0.44862643483E+01  0.40213109251E+02  0.00000000000E+00 0. -1.
</event>
<event>
 7    1  0.2542335E-015  0.9000772E+02  0.7816164E-02  0.1186339E+00
        -11   -1    0    0    0    0  0.00000000000E+00  0.00000000000E+00  0.45593999997E+02  0.45594000000E+02  0.51100000000E-03 0.  1.
         11   -1    0    0    0    0 -0.00000000000E+00 -0.00000000000E+00 -0.45593999997E+02  0.45594000000E+02  0.51100000000E-03 0. -1.
    9900012    2    1    2    0    0  0.20285412691E+00  0.62660414629E+00 -0.97942806534E+00  0.90007719572E+02  0.89999980671E+02 0.  0.
        -12    1    1    2    0    0 -0.20285412691E+00 -0.62660414629E+00  0.97942806534E+00  0.11802804278E+01  0.00000000000E+00 0.  1.
         11    1    3    3    0    0  0.56122035715E+01  0.49421087937E+01  0.47113728414E+01  0.88384558928E+01  0.51100000000E-03 0. -1.
        -11    1    3    3    0    0  0.22890827181E+02  0.28578847449E+02  0.36009087140E+01  0.36792757907E+02  0.51100000000E-03 0.  1.
         12    1    3    3    0    0 -0.28300176626E+02 -0.32894352097E+02 -0.92917096208E+01  0.44376505773E+02  0.00000000000E+00 0. -1.
</event>
<event>
 7    1  0.2542335E-015  0.9000773E+02  0.7816164E-02  0.1186339E+00
        -11   -1    0    0    0    0  0.00000000000E+00  0.00000000000E+00  0.45593999997E+02  0.45594000000E+02  0.51100000000E-03 0.  1.
         11   -1    0    0    0    0 -0.00000000000E+00 -0.00000000000E+00 -0.45593999997E+02  0.45594000000E+02  0.51100000000E-03 0. -1.
    9900012    2    1    2    0    0  0.98265757062E+00 -0.42101125983E+00 -0.50016808306E+00  0.90007731178E+02  0.89999992429E+02 0.  0.
        -12    1    1    2    0    0 -0.98265757062E+00  0.42101125983E+00  0.50016808306E+00  0.11802688225E+01  0.00000000000E+00 0.  1.
         11    1    3    3    0    0 -0.30761321818E+02 -0.26336647757E+02  0.20603572748E+01  0.40547786714E+02  0.51100000000E-03 0. -1.
        -11    1    3    3    0    0 -0.37192946334E+01  0.94787657860E+01  0.88715854398E+00  0.10220919916E+02  0.51100000000E-03 0.  1.
        -12    1    3    3    0    0  0.35463274022E+02  0.16436870711E+02 -0.34476839019E+01  0.39239024547E+02  0.00000000000E+00 0.  1.
</event>
<event>
 7    1  0.2542335E-015  0.9000769E+02  0.7816164E-02  0.1186339E+00
        -11   -1    0    0    0    0  0.00000000000E+00  0.00000000000E+00  0.45593999997E+02  0.45594000000E+02  0.51100000000E-03 0.  1.
         11   -1    0    0    0    0 -0.00000000000E+00 -0.00000000000E+00 -0.45593999997E+02  0.45594000000E+02  0.51100000000E-03 0. -1.
    9900012    2    1    2    0    0 -0.11657294274E+01  0.11564566955E+00  0.14434792279E+00  0.90007688456E+02  0.89999949143E+02 0.  0.
        -12    1    1    2    0    0  0.11657294274E+01 -0.11564566955E+00 -0.14434792279E+00  0.11803115443E+01  0.00000000000E+00 0.  1.
         11    1    3    3    0    0 -0.26955279578E+02  0.38576979684E+01 -0.27789204119E+02  0.38906410739E+02  0.51100000000E-03 0. -1.
        -11    1    3    3    0    0 -0.38755687410E+01  0.84882259775E+01  0.13414170265E+01  0.94270575055E+01  0.51100000000E-03 0.  1.
        -12    1    3    3    0    0  0.29665118891E+02 -0.12230278276E+02  0.26592135015E+02  0.41674220211E+02  0.00000000000E+00 0.  1.
</event>
<event>
 7    1  0.2542335E-015  0.9000778E+02  0.7816164E-02  0.1186339E+00
        -11   -1    0    0    0    0  0.00000000000E+00  0.00000000000E+00  0.45593999997E+02  0.45594000000E+02  0.51100000000E-03 0. -1.
         11   -1    0    0    0    0 -0.00000000000E+00 -0.00000000000E+00 -0.45593999997E+02  0.45594000000E+02  0.51100000000E-03 0.  1.
    9900012    2    1    2    0    0 -0.21928173104E+00 -0.14788999007E+00  0.11502017024E+01  0.90007779731E+02  0.90000041624E+02 0.  0.
        -12    1    1    2    0    0  0.21928173104E+00  0.14788999007E+00 -0.11502017024E+01  0.11802202688E+01  0.00000000000E+00 0.  1.
         11    1    3    3    0    0 -0.11704401990E+02  0.49829712185E-01  0.93119398303E+00  0.11741491874E+02  0.51100000000E-03 0. -1.
        -11    1    3    3    0    0  0.38497992639E+01  0.17834253796E+02 -0.34145431083E+02  0.38714235456E+02  0.51100000000E-03 0.  1.
         12    1    3    3    0    0  0.76353209947E+01 -0.18031973499E+02  0.34364438802E+02  0.39552052401E+02  0.00000000000E+00 0. -1.
</event>
<event>
 7    1  0.2542335E-015  0.9000772E+02  0.7816164E-02  0.1186339E+00
        -11   -1    0    0    0    0  0.00000000000E+00  0.00000000000E+00  0.45593999997E+02  0.45594000000E+02  0.51100000000E-03 0. -1.
         11   -1    0    0    0    0 -0.00000000000E+00 -0.00000000000E+00 -0.45593999997E+02  0.45594000000E+02  0.51100000000E-03 0.  1.
    9900012    2    1    2    0    0  0.79584130868E+00  0.20069361241E+00  0.84818420548E+00  0.90007721321E+02  0.89999982442E+02 0.  0.
        -12    1    1    2    0    0 -0.79584130868E+00 -0.20069361241E+00 -0.84818420548E+00  0.11802786794E+01  0.00000000000E+00 0.  1.
         11    1    3    3    0    0  0.36094019246E+01  0.70315756125E+01 -0.15893543022E+01  0.80620645747E+01  0.51100000000E-03 0. -1.
        -11    1    3    3    0    0  0.33505034365E+02 -0.18790362680E+02 -0.13222148677E+02  0.40626226423E+02  0.51100000000E-03 0.  1.
         12    1    3    3    0    0 -0.36318594981E+02  0.11959480680E+02  0.15659687184E+02  0.41319430323E+02  0.00000000000E+00 0. -1.
</event>
<event>
 7    1  0.2542335E-015  0.9000762E+02  0.7816164E-02  0.1186339E+00
        -11   -1    0    0    0    0  0.00000000000E+00  0.00000000000E+00  0.45593999997E+02  0.45594000000E+02  0.51100000000E-03 0.  1.
         11   -1    0    0    0    0 -0.00000000000E+00 -0.00000000000E+00 -0.45593999997E+02  0.45594000000E+02  0.51100000000E-03 0. -1.
    9900012    2    1    2    0    0 -0.41698887669E+00  0.10972476927E+01 -0.12436827562E+00  0.90007618837E+02  0.89999878605E+02 0.  0.
        -12    1    1    2    0    0  0.41698887669E+00 -0.10972476927E+01  0.12436827562E+00  0.11803811632E+01  0.00000000000E+00 0.  1.
         11    1    3    3    0    0  0.61387157186E+01 -0.18253782121E+02 -0.33920153503E+02  0.39005912453E+02  0.51100000000E-03 0. -1.
        -11    1    3    3    0    0 -0.37715746214E+00  0.29793517851E+01 -0.64507837393E+01  0.71155741808E+01  0.51100000000E-03 0.  1.
        -12    1    3    3    0    0 -0.61785471331E+01  0.16371678029E+02  0.40246568966E+02  0.43886132203E+02  0.00000000000E+00 0.  1.
</event>
<event>
 7    1  0.2542335E-015  0.9000774E+02  0.7816164E-02  0.1186339E+00
        -11   -1    0    0    0    0  0.00000000000E+00  0.00000000000E+00  0.45593999997E+02  0.45594000000E+02  0.51100000000E-03 0. -1.
         11   -1    0    0    0    0 -0.00000000000E+00 -0.00000000000E+00 -0.45593999997E+02  0.45594000000E+02  0.51100000000E-03 0.  1.
    9900012    2    1    2    0    0 -0.80824713153E+00 -0.72952878859E-01  0.85699238022E+00  0.90007736687E+02  0.89999998011E+02 0.  0.
        -12    1    1    2    0    0  0.80824713153E+00  0.72952878859E-01 -0.85699238022E+00  0.11802633130E+01  0.00000000000E+00 0.  1.
         11    1    3    3    0    0  0.34182587483E+02 -0.80866670530E+00  0.24630420290E+02  0.42139777323E+02  0.51100000000E-03 0. -1.
        -11    1    3    3    0    0 -0.31101742908E+01 -0.49203796226E+01  0.23376693361E+01  0.62727998482E+01  0.51100000000E-03 0.  1.
        -12    1    3    3    0    0 -0.31880660324E+02  0.56560934491E+01 -0.26111097246E+02  0.41595159516E+02  0.00000000000E+00 0.  1.
</event>
<event>
 7    1  0.2542335E-015  0.9000786E+02  0.7816164E-02  0.1186339E+00
        -11   -1    0    0    0    0  0.00000000000E+00  0.00000000000E+00  0.45593999997E+02  0.45594000000E+02  0.51100000000E-03 0.  1.
         11   -1    0    0    0    0 -0.00000000000E+00 -0.00000000000E+00 -0.45593999997E+02  0.45594000000E+02  0.51100000000E-03 0. -1.
    9900012    2    1    2    0    0  0.46424921328E+00 -0.12125621426E+00 -0.10781914063E+01  0.90007861402E+02  0.90000124373E+02 0.  0.
        -12    1    1    2    0    0 -0.46424921328E+00  0.12125621426E+00  0.10781914063E+01  0.11801385978E+01  0.00000000000E+00 0.  1.
         11    1    3    3    0    0  0.78209078278E+01 -0.26183138516E+01 -0.46032104018E+01  0.94451952305E+01  0.51100000000E-03 0. -1.
        -11    1    3    3    0    0 -0.21977849524E+02 -0.12039606100E+02 -0.31297716850E+02  0.40093952973E+02  0.51100000000E-03 0.  1.
         12    1    3    3    0    0  0.14621190909E+02  0.14536663737E+02  0.34822735845E+02  0.40468713199E+02  0.00000000000E+00 0. -1.
</event>
<event>
 7    1  0.2542335E-015  0.9000835E+02  0.7816164E-02  0.1186338E+00
        -11   -1    0    0    0    0  0.00000000000E+00  0.00000000000E+00  0.45593999997E+02  0.45594000000E+02  0.51100000000E-03 0.  1.
         11   -1    0    0    0    0 -0.00000000000E+00 -0.00000000000E+00 -0.45593999997E+02  0.45594000000E+02  0.51100000000E-03 0. -1.
    9900012    2    1    2    0    0 -0.31621289626E+00 -0.71595751469E+00 -0.88260249400E+00  0.90008350509E+02  0.90000619934E+02 0.  0.
        -12    1    1    2    0    0  0.31621289626E+00  0.71595751469E+00  0.88260249400E+00  0.11796494907E+01  0.00000000000E+00 0.  1.
         11    1    3    3    0    0 -0.36202479872E+01 -0.95212872130E+01  0.56571786723E+01  0.11651814300E+02  0.51100000000E-03 0. -1.
        -11    1    3    3    0    0 -0.12273220266E+02 -0.30028184275E+01  0.32405185048E+02  0.34781386869E+02  0.51100000000E-03 0.  1.
         12    1    3    3    0    0  0.15577255357E+02  0.11808148126E+02 -0.38944966215E+02  0.43575149341E+02  0.00000000000E+00 0. -1.
</event>
<event>
 7    1  0.2542335E-015  0.9000759E+02  0.7816164E-02  0.1186339E+00
        -11   -1    0    0    0    0  0.00000000000E+00  0.00000000000E+00  0.45593999997E+02  0.45594000000E+02  0.51100000000E-03 0. -1.
         11   -1    0    0    0    0 -0.00000000000E+00 -0.00000000000E+00 -0.45593999997E+02  0.45594000000E+02  0.51100000000E-03 0.  1.
    9900012    2    1    2    0    0  0.17329771837E-01 -0.80288457185E+00  0.86511966992E+00  0.90007594985E+02  0.89999854438E+02 0.  0.
        -12    1    1    2    0    0 -0.17329771837E-01  0.80288457185E+00 -0.86511966992E+00  0.11804050152E+01  0.00000000000E+00 0.  1.
         11    1    3    3    0    0 -0.24362572300E+01 -0.37800026561E+02  0.19936464792E+01  0.37930884301E+02  0.51100000000E-03 0. -1.
        -11    1    3    3    0    0 -0.93742103410E+01 -0.33327983353E+01 -0.14014002800E+01  0.10047252722E+02  0.51100000000E-03 0.  1.
        -12    1    3    3    0    0  0.11827797343E+02  0.40329940325E+02  0.27287347079E+00  0.42029457961E+02  0.00000000000E+00 0.  1.
</event>
<event>
 7    1  0.2542335E-015  0.9000776E+02  0.7816164E-02  0.1186339E+00
        -11   -1    0    0    0    0  0.00000000000E+00  0.00000000000E+00  0.45593999997E+02  0.45594000000E+02  0.51100000000E-03 0.  1.
         11   -1    0    0    0    0 -0.00000000000E+00 -0.00000000000E+00 -0.45593999997E+02  0.45594000000E+02  0.51100000000E-03 0. -1.
    9900012    2    1    2    0    0 -0.84585208436E+00  0.58854503261E+00 -0.57541901667E+00  0.90007763562E+02  0.90000025241E+02 0.  0.
        -12    1    1    2    0    0  0.84585208436E+00 -0.58854503261E+00  0.57541901667E+00  0.11802364377E+01  0.00000000000E+00 0.  1.
         11    1    3    3    0    0  0.24589604303E+01  0.53767377621E+01  0.56798311699E+01  0.81985533931E+01  0.51100000000E-03 0. -1.
        -11    1    3    3    0    0  0.22608008903E+02  0.25859672130E+02  0.13709061577E+02  0.36983551463E+02  0.51100000000E-03 0.  1.
         12    1    3    3    0    0 -0.25912821418E+02 -0.30647864859E+02 -0.19964311764E+02  0.44825658706E+02  0.00000000000E+00 0. -1.
</event>
<event>
 7    1  0.2542335E-015  0.9000761E+02  0.7816164E-02  0.1186339E+00
        -11   -1    0    0    0    0  0.00000000000E+00  0.00000000000E+00  0.45593999997E+02  0.45594000000E+02  0.51100000000E-03 0.  1.
         11   -1    0    0    0    0 -0.00000000000E+00 -0.00000000000E+00 -0.45593999997E+02  0.45594000000E+02  0.51100000000E-03 0. -1.
    9900012    2    1    2    0    0 -0.65161679393E+00 -0.15102010342E+00 -0.97257981649E+00  0.90007608956E+02  0.89999868594E+02 0.  0.
        -12    1    1    2    0    0  0.65161679393E+00  0.15102010342E+00  0.97257981649E+00  0.11803910442E+01  0.00000000000E+00 0.  1.
         11    1    3    3    0    0  0.28725521549E+01  0.63558629269E+01 -0.43752292189E+01  0.82335399682E+01  0.51100000000E-03 0. -1.
        -11    1    3    3    0    0  0.18788726895E+02  0.12477483973E+02  0.33102878366E+02  0.40056265690E+02  0.51100000000E-03 0.  1.
         12    1    3    3    0    0 -0.22312895844E+02 -0.18984367004E+02 -0.29700228964E+02  0.41717803298E+02  0.00000000000E+00 0. -1.
</event>
<event>
 7    1  0.2542335E-015  0.9000771E+02  0.7816164E-02  0.1186339E+00
        -11   -1    0    0    0    0  0.00000000000E+00  0.00000000000E+00  0.45593999997E+02  0.45594000000E+02  0.51100000000E-03 0.  1.
         11   -1    0    0    0    0 -0.00000000000E+00 -0.00000000000E+00 -0.45593999997E+02  0.45594000000E+02  0.51100000000E-03 0. -1.
    9900012    2    1    2    0    0 -0.17510457243E+00  0.11112530864E+01  0.35712845146E+00  0.90007709458E+02  0.89999970423E+02 0.  0.
        -12    1    1    2    0    0  0.17510457243E+00 -0.11112530864E+01 -0.35712845146E+00  0.11802905423E+01  0.00000000000E+00 0.  1.
         11    1    3    3    0    0  0.14971031640E+01  0.81805844042E+01 -0.65735856792E+01  0.10600722052E+02  0.51100000000E-03 0. -1.
        -11    1    3    3    0    0 -0.17466496666E+02  0.18015132920E+02  0.31944183617E+02  0.40620861477E+02  0.51100000000E-03 0.  1.
         12    1    3    3    0    0  0.15794288930E+02 -0.25084464238E+02 -0.25013469486E+02  0.38786125929E+02  0.00000000000E+00 0. -1.
</event>
<event>
 7    1  0.2542335E-015  0.9000820E+02  0.7816164E-02  0.1186338E+00
        -11   -1    0    0    0    0  0.00000000000E+00  0.00000000000E+00  0.45593999997E+02  0.45594000000E+02  0.51100000000E-03 0.  1.
         11   -1    0    0    0    0 -0.00000000000E+00 -0.00000000000E+00 -0.45593999997E+02  0.45594000000E+02  0.51100000000E-03 0. -1.
    9900012    2    1    2    0    0 -0.61662275600E+00 -0.77623663907E+00 -0.63965556341E+00  0.90008200787E+02  0.90000468236E+02 0.  0.
        -12    1    1    2    0    0  0.61662275600E+00  0.77623663907E+00  0.63965556341E+00  0.11797992129E+01  0.00000000000E+00 0.  1.
         11    1    3    3    0    0 -0.32541430806E+01  0.38274732418E+01 -0.38260668743E+02  0.38589088763E+02  0.51100000000E-03 0. -1.
        -11    1    3    3    0    0 -0.69306350004E+01  0.47639156926E+01 -0.27794311022E+01  0.88574167649E+01  0.51100000000E-03 0.  1.
        -12    1    3    3    0    0  0.95681553250E+01 -0.93676255735E+01  0.40400444282E+02  0.42561695260E+02  0.00000000000E+00 0.  1.
</event>
<event>
 7    1  0.2542335E-015  0.9000778E+02  0.7816164E-02  0.1186339E+00
        -11   -1    0    0    0    0  0.00000000000E+00  0.00000000000E+00  0.45593999997E+02  0.45594000000E+02  0.51100000000E-03 0.  1.
         11   -1    0    0    0    0 -0.00000000000E+00 -0.00000000000E+00 -0.45593999997E+02  0.45594000000E+02  0.51100000000E-03 0. -1.
    9900012    2    1    2    0    0  0.21980032275E+00 -0.43855878423E+00 -0.10734377809E+01  0.90007781944E+02  0.90000043866E+02 0.  0.
        -12    1    1    2    0    0 -0.21980032275E+00  0.43855878423E+00  0.10734377809E+01  0.11802180555E+01  0.00000000000E+00 0.  1.
         11    1    3    3    0    0  0.10855867198E+02 -0.39630600924E+02 -0.59697275088E+01  0.41521946354E+02  0.51100000000E-03 0. -1.
        -11    1    3    3    0    0  0.75633474707E+01  0.38559795136E+01  0.98105230208E+00  0.85460673325E+01  0.51100000000E-03 0.  1.
        -12    1    3    3    0    0 -0.18199414346E+02  0.35336062626E+02  0.39152374258E+01  0.39939768258E+02  0.00000000000E+00 0.  1.
</event>
<event>
 7    1  0.2542335E-015  0.9000782E+02  0.7816164E-02  0.1186339E+00
        -11   -1    0    0    0    0  0.00000000000E+00  0.00000000000E+00  0.45593999997E+02  0.45594000000E+02  0.51100000000E-03 0.  1.
         11   -1    0    0    0    0 -0.00000000000E+00 -0.00000000000E+00 -0.45593999997E+02  0.45594000000E+02  0.51100000000E-03 0. -1.
    9900012    2    1    2    0    0 -0.96480021679E+00 -0.27802561192E+00 -0.62023311681E+00  0.90007819159E+02  0.90000081571E+02 0.  0.
        -12    1    1    2    0    0  0.96480021679E+00  0.27802561192E+00  0.62023311681E+00  0.11801808414E+01  0.00000000000E+00 0.  1.
         11    1    3    3    0    0  0.16097059853E+02  0.20511073391E+02 -0.34398240885E+02  0.43163160725E+02  0.51100000000E-03 0. -1.
        -11    1    3    3    0    0 -0.57669039485E+00 -0.20078421579E+00  0.13657794441E+02  0.13671438672E+02  0.51100000000E-03 0.  1.
        -12    1    3    3    0    0 -0.16485169675E+02 -0.20588314787E+02  0.20120213327E+02  0.33173219761E+02  0.00000000000E+00 0.  1.
</event>
<event>
 7    1  0.2542335E-015  0.9000775E+02  0.7816164E-02  0.1186339E+00
        -11   -1    0    0    0    0  0.00000000000E+00  0.00000000000E+00  0.45593999997E+02  0.45594000000E+02  0.51100000000E-03 0.  1.
         11   -1    0    0    0    0 -0.00000000000E+00 -0.00000000000E+00 -0.45593999997E+02  0.45594000000E+02  0.51100000000E-03 0. -1.
    9900012    2    1    2    0    0  0.10763638626E+01  0.18903841102E+00  0.44575503347E+00  0.90007749079E+02  0.90000010567E+02 0.  0.
        -12    1    1    2    0    0 -0.10763638626E+01 -0.18903841102E+00 -0.44575503347E+00  0.11802509205E+01  0.00000000000E+00 0.  1.
         11    1    3    3    0    0  0.42871044579E+01  0.23606124368E+02  0.62721216014E+01  0.24798545965E+02  0.51100000000E-03 0. -1.
        -11    1    3    3    0    0  0.14611720666E+02 -0.21039259864E+02  0.20857247984E+02  0.33032977919E+02  0.51100000000E-03 0.  1.
         12    1    3    3    0    0 -0.17822461261E+02 -0.23778260930E+01 -0.26683614552E+02  0.32176225196E+02  0.00000000000E+00 0. -1.
</event>
<event>
 7    1  0.2542335E-015  0.9000775E+02  0.7816164E-02  0.1186339E+00
        -11   -1    0    0    0    0  0.00000000000E+00  0.00000000000E+00  0.45593999997E+02  0.45594000000E+02  0.51100000000E-03 0. -1.
         11   -1    0    0    0    0 -0.00000000000E+00 -0.00000000000E+00 -0.45593999997E+02  0.45594000000E+02  0.51100000000E-03 0.  1.
    9900012    2    1    2    0    0 -0.43827753561E+00 -0.77630237558E+00  0.77347358073E+00  0.90007748350E+02  0.90000009829E+02 0.  0.
        -12    1    1    2    0    0  0.43827753561E+00  0.77630237558E+00 -0.77347358073E+00  0.11802516497E+01  0.00000000000E+00 0.  1.
         11    1    3    3    0    0  0.98374773716E+01  0.16636431985E+02  0.28518652165E+02  0.34450839639E+02  0.51100000000E-03 0. -1.
        -11    1    3    3    0    0  0.12327584097E+01  0.45221798271E+01  0.96347875764E+01  0.10714426517E+02  0.51100000000E-03 0.  1.
        -12    1    3    3    0    0 -0.11508513317E+02 -0.21934914187E+02 -0.37379966161E+02  0.44842482195E+02  0.00000000000E+00 0.  1.
</event>
<event>
 7    1  0.2542335E-015  0.9000783E+02  0.7816164E-02  0.1186339E+00
        -11   -1    0    0    0    0  0.00000000000E+00  0.00000000000E+00  0.45593999997E+02  0.45594000000E+02  0.51100000000E-03 0.  1.
         11   -1    0    0    0    0 -0.00000000000E+00 -0.00000000000E+00 -0.45593999997E+02  0.45594000000E+02  0.51100000000E-03 0. -1.
    9900012    2    1    2    0    0  0.66221857271E+00 -0.31559280789E+00 -0.92448415436E+00  0.90007829161E+02  0.90000091706E+02 0.  0.
        -12    1    1    2    0    0 -0.66221857271E+00  0.31559280789E+00  0.92448415436E+00  0.11801708394E+01  0.00000000000E+00 0.  1.
         11    1    3    3    0    0 -0.16120111656E+02  0.21094383462E+01 -0.33476956386E+02  0.37215780780E+02  0.51100000000E-03 0. -1.
        -11    1    3    3    0    0  0.26895453976E+01 -0.49694283381E+01 -0.79948483153E+01  0.97901211585E+01  0.51100000000E-03 0.  1.
        -12    1    3    3    0    0  0.14092784831E+02  0.25443971840E+01  0.40547320547E+02  0.43001927222E+02  0.00000000000E+00 0.  1.
</event>
<event>
 7    1  0.2542335E-015  0.9000787E+02  0.7816164E-02  0.1186339E+00
        -11   -1    0    0    0    0  0.00000000000E+00  0.00000000000E+00  0.45593999997E+02  0.45594000000E+02  0.51100000000E-03 0.  1.
         11   -1    0    0    0    0 -0.00000000000E+00 -0.00000000000E+00 -0.45593999997E+02  0.45594000000E+02  0.51100000000E-03 0. -1.
    9900012    2    1    2    0    0  0.60043084269E+00  0.10103190036E+01  0.10697299003E+00  0.90007870809E+02  0.90000133904E+02 0.  0.
        -12    1    1    2    0    0 -0.60043084269E+00 -0.10103190036E+01 -0.10697299003E+00  0.11801291906E+01  0.00000000000E+00 0.  1.
         11    1    3    3    0    0 -0.75863704170E+01 -0.25121596104E+01 -0.35959150775E+01  0.87632509674E+01  0.51100000000E-03 0. -1.
        -11    1    3    3    0    0 -0.25086644508E+02 -0.20870212508E+02 -0.15037533728E+02  0.35930946602E+02  0.51100000000E-03 0.  1.
         12    1    3    3    0    0  0.33273445768E+02  0.24392691122E+02  0.18740421796E+02  0.45313673240E+02  0.00000000000E+00 0. -1.
</event>
<event>
 7    1  0.2542335E-015  0.9000774E+02  0.7816164E-02  0.1186339E+00
        -11   -1    0    0    0    0  0.00000000000E+00  0.00000000000E+00  0.45593999997E+02  0.45594000000E+02  0.51100000000E-03 0.  1.
         11   -1    0    0    0    0 -0.00000000000E+00 -0.00000000000E+00 -0.45593999997E+02  0.45594000000E+02  0.51100000000E-03 0. -1.
    9900012    2    1    2    0    0 -0.19986452112E+00  0.79052488519E+00 -0.85330590316E+00  0.90007743085E+02  0.90000004494E+02 0.  0.
        -12    1    1    2    0    0  0.19986452112E+00 -0.79052488519E+00  0.85330590316E+00  0.11802569149E+01  0.00000000000E+00 0.  1.
         11    1    3    3    0    0  0.26123387810E+01  0.96993500413E+01  0.18570359372E+01  0.10215198866E+02  0.51100000000E-03 0. -1.
        -11    1    3    3    0    0 -0.19662597707E+02  0.18005298994E+02  0.25812571964E+02  0.37109263157E+02  0.51100000000E-03 0.  1.
         12    1    3    3    0    0  0.16850394404E+02 -0.26914124150E+02 -0.28522913804E+02  0.42683281062E+02  0.00000000000E+00 0. -1.
</event>
<event>
 7    1  0.2542335E-015  0.9000781E+02  0.7816164E-02  0.1186339E+00
        -11   -1    0    0    0    0  0.00000000000E+00  0.00000000000E+00  0.45593999997E+02  0.45594000000E+02  0.51100000000E-03 0. -1.
         11   -1    0    0    0    0 -0.00000000000E+00 -0.00000000000E+00 -0.45593999997E+02  0.45594000000E+02  0.51100000000E-03 0.  1.
    9900012    2    1    2    0    0  0.49311222822E+00  0.10258637826E+01  0.31193068863E+00  0.90007806404E+02  0.90000068648E+02 0.  0.
        -12    1    1    2    0    0 -0.49311222822E+00 -0.10258637826E+01 -0.31193068863E+00  0.11801935962E+01  0.00000000000E+00 0.  1.
         11    1    3    3    0    0  0.87810752314E+00  0.19260715483E+02  0.16828250941E+01  0.19354021140E+02  0.51100000000E-03 0. -1.
        -11    1    3    3    0    0  0.30766456700E+02  0.28913403360E+01  0.78867359678E+01  0.31892558870E+02  0.51100000000E-03 0.  1.
         12    1    3    3    0    0 -0.31151451995E+02 -0.21126192037E+02 -0.92576303732E+01  0.38761226393E+02  0.00000000000E+00 0. -1.
</event>
<event>
 7    1  0.2542335E-015  0.9000776E+02  0.7816164E-02  0.1186339E+00
        -11   -1    0    0    0    0  0.00000000000E+00  0.00000000000E+00  0.45593999997E+02  0.45594000000E+02  0.51100000000E-03 0. -1.
         11   -1    0    0    0    0 -0.00000000000E+00 -0.00000000000E+00 -0.45593999997E+02  0.45594000000E+02  0.51100000000E-03 0.  1.
    9900012    2    1    2    0    0  0.10361614297E+00  0.11706112824E+01  0.10910008127E+00  0.90007758539E+02  0.90000020151E+02 0.  0.
        -12    1    1    2    0    0 -0.10361614297E+00 -0.11706112824E+01 -0.10910008127E+00  0.11802414614E+01  0.00000000000E+00 0.  1.
         11    1    3    3    0    0 -0.31917487790E+02 -0.10476920406E+02 -0.44123888067E+01  0.33881574097E+02  0.51100000000E-03 0. -1.
        -11    1    3    3    0    0 -0.39948433514E+01 -0.11853402664E+02  0.39496897043E+01  0.13117239692E+02  0.51100000000E-03 0.  1.
        -12    1    3    3    0    0  0.36015947285E+02  0.23500934352E+02  0.57179918364E+00  0.43008944750E+02  0.00000000000E+00 0.  1.
</event>
<event>
 7    1  0.2542335E-015  0.9000786E+02  0.7816164E-02  0.1186339E+00
        -11   -1    0    0    0    0  0.00000000000E+00  0.00000000000E+00  0.45593999997E+02  0.45594000000E+02  0.51100000000E-03 0.  1.
         11   -1    0    0    0    0 -0.00000000000E+00 -0.00000000000E+00 -0.45593999997E+02  0.45594000000E+02  0.51100000000E-03 0. -1.
    9900012    2    1    2    0    0  0.70047087771E+00  0.43496450460E+00 -0.84432314108E+00  0.90007858001E+02  0.90000120927E+02 0.  0.
        -12    1    1    2    0    0 -0.70047087771E+00 -0.43496450460E+00  0.84432314108E+00  0.11801419988E+01  0.00000000000E+00 0.  1.
         11    1    3    3    0    0 -0.10219569470E+02  0.11236315549E+01  0.62179407247E+01  0.12015196010E+02  0.51100000000E-03 0. -1.
        -11    1    3    3    0    0 -0.13947909824E+01  0.34821013641E+02 -0.17485504723E+02  0.38989630783E+02  0.51100000000E-03 0.  1.
         12    1    3    3    0    0  0.12314831331E+02 -0.35509680692E+02  0.10423240857E+02  0.39003031209E+02  0.00000000000E+00 0. -1.
</event>
<event>
 7    1  0.2542335E-015  0.9000827E+02  0.7816164E-02  0.1186338E+00
        -11   -1    0    0    0    0  0.00000000000E+00  0.00000000000E+00  0.45593999997E+02  0.45594000000E+02  0.51100000000E-03 0.  1.
         11   -1    0    0    0    0 -0.00000000000E+00 -0.00000000000E+00 -0.45593999997E+02  0.45594000000E+02  0.51100000000E-03 0. -1.
    9900012    2    1    2    0    0 -0.99391307119E+00 -0.62778686915E+00 -0.98866549793E-01  0.90008273701E+02  0.90000542112E+02 0.  0.
        -12    1    1    2    0    0  0.99391307119E+00  0.62778686915E+00  0.98866549793E-01  0.11797262991E+01  0.00000000000E+00 0.  1.
         11    1    3    3    0    0 -0.62449140629E+01 -0.39300507623E+01 -0.55107040461E+01  0.92093490536E+01  0.51100000000E-03 0. -1.
        -11    1    3    3    0    0 -0.23835658764E+02  0.30262991317E+02 -0.71841945065E+01  0.39186731468E+02  0.51100000000E-03 0.  1.
         12    1    3    3    0    0  0.29086659756E+02 -0.26960727424E+02  0.12596032003E+02  0.41612193179E+02  0.00000000000E+00 0. -1.
</event>
<event>
 7    1  0.2542335E-015  0.9000831E+02  0.7816164E-02  0.1186338E+00
        -11   -1    0    0    0    0  0.00000000000E+00  0.00000000000E+00  0.45593999997E+02  0.45594000000E+02  0.51100000000E-03 0.  1.
         11   -1    0    0    0    0 -0.00000000000E+00 -0.00000000000E+00 -0.45593999997E+02  0.45594000000E+02  0.51100000000E-03 0. -1.
    9900012    2    1    2    0    0  0.54759543296E+00 -0.22282131388E+00 -0.10208566398E+01  0.90008314290E+02  0.90000583236E+02 0.  0.
        -12    1    1    2    0    0 -0.54759543296E+00  0.22282131388E+00  0.10208566398E+01  0.11796857103E+01  0.00000000000E+00 0.  1.
         11    1    3    3    0    0  0.23765783387E+01  0.42223779647E+01  0.84005706420E+01  0.96977413684E+01  0.51100000000E-03 0. -1.
        -11    1    3    3    0    0 -0.63366865347E+00 -0.84913607031E+01  0.34831393674E+02  0.35857087557E+02  0.51100000000E-03 0.  1.
         12    1    3    3    0    0 -0.11953142522E+01  0.40461614244E+01 -0.44252820956E+02  0.44453485364E+02  0.00000000000E+00 0. -1.
</event>
<event>
 7    1  0.2542335E-015  0.9000773E+02  0.7816164E-02  0.1186339E+00
        -11   -1    0    0    0    0  0.00000000000E+00  0.00000000000E+00  0.45593999997E+02  0.45594000000E+02  0.51100000000E-03 0.  1.
         11   -1    0    0    0    0 -0.00000000000E+00 -0.00000000000E+00 -0.45593999997E+02  0.45594000000E+02  0.51100000000E-03 0. -1.
    9900012    2    1    2    0    0 -0.59027147520E+00 -0.63118131855E+00  0.80388309600E+00  0.90007729563E+02  0.89999990794E+02 0.  0.
        -12    1    1    2    0    0  0.59027147520E+00  0.63118131855E+00 -0.80388309600E+00  0.11802704365E+01  0.00000000000E+00 0.  1.
         11    1    3    3    0    0 -0.52892557006E+01  0.17167820896E+01  0.16628411192E+01  0.58041887855E+01  0.51100000000E-03 0. -1.
        -11    1    3    3    0    0 -0.39648960955E+02  0.55734815917E+00 -0.24862857425E+01  0.39730748280E+02  0.51100000000E-03 0.  1.
         12    1    3    3    0    0  0.44347945181E+02 -0.29053115673E+01  0.16273277193E+01  0.44472792498E+02  0.00000000000E+00 0. -1.
</event>
<event>
 7    1  0.2542335E-015  0.9000773E+02  0.7816164E-02  0.1186339E+00
        -11   -1    0    0    0    0  0.00000000000E+00  0.00000000000E+00  0.45593999997E+02  0.45594000000E+02  0.51100000000E-03 0. -1.
         11   -1    0    0    0    0 -0.00000000000E+00 -0.00000000000E+00 -0.45593999997E+02  0.45594000000E+02  0.51100000000E-03 0.  1.
    9900012    2    1    2    0    0 -0.85623519581E+00  0.70162063506E+00  0.40941057049E+00  0.90007734250E+02  0.89999995542E+02 0.  0.
        -12    1    1    2    0    0  0.85623519581E+00 -0.70162063506E+00 -0.40941057049E+00  0.11802657503E+01  0.00000000000E+00 0.  1.
         11    1    3    3    0    0  0.75955045465E+01 -0.33411460472E+01 -0.15591597800E+01  0.84430992950E+01  0.51100000000E-03 0. -1.
        -11    1    3    3    0    0  0.25598033872E+02 -0.14887024973E+02 -0.21034237625E+02  0.36322472429E+02  0.51100000000E-03 0.  1.
         12    1    3    3    0    0 -0.34049773614E+02  0.18929791655E+02  0.23002807975E+02  0.45242162526E+02  0.00000000000E+00 0. -1.
</event>
<event>
 7    1  0.2542335E-015  0.9000786E+02  0.7816164E-02  0.1186339E+00
        -11   -1    0    0    0    0  0.00000000000E+00  0.00000000000E+00  0.45593999997E+02  0.45594000000E+02  0.51100000000E-03 0.  1.
         11   -1    0    0    0    0 -0.00000000000E+00 -0.00000000000E+00 -0.45593999997E+02  0.45594000000E+02  0.51100000000E-03 0. -1.
    9900012    2    1    2    0    0 -0.50371164607E-01 -0.99725508091E+00 -0.62901968754E+00  0.90007864110E+02  0.90000127117E+02 0.  0.
        -12    1    1    2    0    0  0.50371164607E-01  0.99725508091E+00  0.62901968754E+00  0.11801358896E+01  0.00000000000E+00 0.  1.
         11    1    3    3    0    0 -0.13983772283E+02  0.87046933063E+01 -0.58087297229E+00  0.16481959425E+02  0.51100000000E-03 0. -1.
        -11    1    3    3    0    0 -0.16440242603E+02 -0.31911923081E+02 -0.14748610076E+00  0.35898108084E+02  0.51100000000E-03 0.  1.
         12    1    3    3    0    0  0.30373643721E+02  0.22209974694E+02  0.99339385514E-01  0.37627796602E+02  0.00000000000E+00 0. -1.
</event>
<event>
 7    1  0.2542335E-015  0.9000764E+02  0.7816164E-02  0.1186339E+00
        -11   -1    0    0    0    0  0.00000000000E+00  0.00000000000E+00  0.45593999997E+02  0.45594000000E+02  0.51100000000E-03 0.  1.
         11   -1    0    0    0    0 -0.00000000000E+00 -0.00000000000E+00 -0.45593999997E+02  0.45594000000E+02  0.51100000000E-03 0. -1.
    9900012    2    1    2    0    0  0.77292247354E+00 -0.50895089736E+00 -0.73266649513E+00  0.90007643969E+02  0.89999904070E+02 0.  0.
        -12    1    1    2    0    0 -0.77292247354E+00  0.50895089736E+00  0.73266649513E+00  0.11803560307E+01  0.00000000000E+00 0.  1.
         11    1    3    3    0    0  0.29614631414E+02  0.23388008251E+02 -0.19709932733E+02  0.42573545451E+02  0.51100000000E-03 0. -1.
        -11    1    3    3    0    0 -0.73413312175E+01 -0.17561128489E+01 -0.43821174113E+01  0.87282317597E+01  0.51100000000E-03 0.  1.
        -12    1    3    3    0    0 -0.21500377723E+02 -0.22140846299E+02  0.23359383649E+02  0.38705866758E+02  0.00000000000E+00 0.  1.
</event>
<event>
 7    1  0.2542335E-015  0.9000780E+02  0.7816164E-02  0.1186339E+00
        -11   -1    0    0    0    0  0.00000000000E+00  0.00000000000E+00  0.45593999997E+02  0.45594000000E+02  0.51100000000E-03 0.  1.
         11   -1    0    0    0    0 -0.00000000000E+00 -0.00000000000E+00 -0.45593999997E+02  0.45594000000E+02  0.51100000000E-03 0. -1.
    9900012    2    1    2    0    0  0.97401160861E-01 -0.52502687674E+00 -0.10524904376E+01  0.90007798183E+02  0.90000060319E+02 0.  0.
        -12    1    1    2    0    0 -0.97401160861E-01  0.52502687674E+00  0.10524904376E+01  0.11802018170E+01  0.00000000000E+00 0.  1.
         11    1    3    3    0    0  0.14260619137E+01 -0.26002211065E+02 -0.27352647242E+02  0.37766598262E+02  0.51100000000E-03 0. -1.
        -11    1    3    3    0    0  0.66795500850E-01 -0.97097576241E+01  0.36614514887E+01  0.10377383197E+02  0.51100000000E-03 0.  1.
        -12    1    3    3    0    0 -0.13954562537E+01  0.35186941813E+02  0.22638705316E+02  0.41863816724E+02  0.00000000000E+00 0.  1.
</event>
<event>
 7    1  0.2542335E-015  0.9000768E+02  0.7816164E-02  0.1186339E+00
        -11   -1    0    0    0    0  0.00000000000E+00  0.00000000000E+00  0.45593999997E+02  0.45594000000E+02  0.51100000000E-03 0. -1.
         11   -1    0    0    0    0 -0.00000000000E+00 -0.00000000000E+00 -0.45593999997E+02  0.45594000000E+02  0.51100000000E-03 0.  1.
    9900012    2    1    2    0    0  0.45026402564E+00 -0.39142609046E-01  0.10903645292E+01  0.90007676043E+02  0.89999936567E+02 0.  0.
        -12    1    1    2    0    0 -0.45026402564E+00  0.39142609046E-01 -0.10903645292E+01  0.11803239569E+01  0.00000000000E+00 0.  1.
         11    1    3    3    0    0  0.22228274639E+02 -0.43779571511E+01  0.18544775205E+02  0.29277489474E+02  0.51100000000E-03 0. -1.
        -11    1    3    3    0    0 -0.41759505249E+01 -0.56813112111E+01  0.18314459706E+02  0.19624864190E+02  0.51100000000E-03 0.  1.
        -12    1    3    3    0    0 -0.17602060088E+02  0.10020125753E+02 -0.35768870382E+02  0.41105322379E+02  0.00000000000E+00 0.  1.
</event>
<event>
 7    1  0.2542335E-015  0.9000757E+02  0.7816164E-02  0.1186339E+00
        -11   -1    0    0    0    0  0.00000000000E+00  0.00000000000E+00  0.45593999997E+02  0.45594000000E+02  0.51100000000E-03 0. -1.
         11   -1    0    0    0    0 -0.00000000000E+00 -0.00000000000E+00 -0.45593999997E+02  0.45594000000E+02  0.51100000000E-03 0.  1.
    9900012    2    1    2    0    0  0.61804470082E+00 -0.72198293871E+00  0.70012411221E+00  0.90007571100E+02  0.89999830238E+02 0.  0.
        -12    1    1    2    0    0 -0.61804470082E+00  0.72198293871E+00 -0.70012411221E+00  0.11804289002E+01  0.00000000000E+00 0.  1.
         11    1    3    3    0    0  0.28299277583E+01  0.24070187058E+01  0.11180755110E+02  0.11781829877E+02  0.51100000000E-03 0. -1.
        -11    1    3    3    0    0 -0.27832595802E+02 -0.77675098756E+01 -0.32955742104E+02  0.43829995855E+02  0.51100000000E-03 0.  1.
         12    1    3    3    0    0  0.25620712745E+02  0.46385082312E+01  0.22475111106E+02  0.34395745368E+02  0.00000000000E+00 0. -1.
</event>
<event>
 7    1  0.2542335E-015  0.9000774E+02  0.7816164E-02  0.1186339E+00
        -11   -1    0    0    0    0  0.00000000000E+00  0.00000000000E+00  0.45593999997E+02  0.45594000000E+02  0.51100000000E-03 0. -1.
         11   -1    0    0    0    0 -0.00000000000E+00 -0.00000000000E+00 -0.45593999997E+02  0.45594000000E+02  0.51100000000E-03 0.  1.
    9900012    2    1    2    0    0 -0.61147733724E+00 -0.10236748074E+00  0.10043046130E+01  0.90007740965E+02  0.90000002345E+02 0.  0.
        -12    1    1    2    0    0  0.61147733724E+00  0.10236748074E+00 -0.10043046130E+01  0.11802590355E+01  0.00000000000E+00 0.  1.
         11    1    3    3    0    0 -0.12388795551E+02  0.29458475303E+02  0.12665967861E+02  0.34376020196E+02  0.51100000000E-03 0. -1.
        -11    1    3    3    0    0  0.87017422404E+01  0.74240640585E+01  0.76839076645E+01  0.13779676427E+02  0.51100000000E-03 0.  1.
        -12    1    3    3    0    0  0.30755759737E+01 -0.36984906842E+02 -0.19345570912E+02  0.41852044342E+02  0.00000000000E+00 0.  1.
</event>
<event>
 7    1  0.3496655E-015  0.9000765E+02  0.7816164E-02  0.1186339E+00
        -11   -1    0    0    0    0  0.00000000000E+00  0.00000000000E+00  0.45593999997E+02  0.45594000000E+02  0.51100000000E-03 0.  1.
         11   -1    0    0    0    0 -0.00000000000E+00 -0.00000000000E+00 -0.45593999997E+02  0.45594000000E+02  0.51100000000E-03 0. -1.
    9900012    2    1    2    0    0 -0.68584908985E+00 -0.71757171850E+00 -0.63868771613E+00  0.90007652533E+02  0.89999912746E+02 0.  0.
        -12    1    1    2    0    0  0.68584908985E+00  0.71757171850E+00  0.63868771613E+00  0.11803474675E+01  0.00000000000E+00 0.  1.
         11    1    3    3    0    0  0.14719176353E+01  0.74392031812E+01  0.59659475319E+01  0.96488763963E+01  0.51100000000E-03 0. -1.
        -11    1    3    3    0    0 -0.16918958874E+01  0.23126396066E+02  0.26226536909E+02  0.35007484131E+02  0.51100000000E-03 0.  1.
         12    1    3    3    0    0 -0.46587083780E+00 -0.31283170966E+02 -0.32831172157E+02  0.45351292005E+02  0.00000000000E+00 0. -1.
</event>
<event>
 7    1  0.2542335E-015  0.9000771E+02  0.7816164E-02  0.1186339E+00
        -11   -1    0    0    0    0  0.00000000000E+00  0.00000000000E+00  0.45593999997E+02  0.45594000000E+02  0.51100000000E-03 0.  1.
         11   -1    0    0    0    0 -0.00000000000E+00 -0.00000000000E+00 -0.45593999997E+02  0.45594000000E+02  0.51100000000E-03 0. -1.
    9900012    2    1    2    0    0 -0.70284339192E+00 -0.84328025145E+00 -0.43357052536E+00  0.90007706047E+02  0.89999966966E+02 0.  0.
        -12    1    1    2    0    0  0.70284339192E+00  0.84328025145E+00  0.43357052536E+00  0.11802939534E+01  0.00000000000E+00 0.  1.
         11    1    3    3    0    0 -0.30162456738E+02  0.11556242998E+02 -0.19711341405E+02  0.37839893353E+02  0.51100000000E-03 0. -1.
        -11    1    3    3    0    0 -0.59967456725E+01  0.60203603444E+01  0.39884068327E+01  0.93868571237E+01  0.51100000000E-03 0.  1.
        -12    1    3    3    0    0  0.35456359019E+02 -0.18419883594E+02  0.15289364047E+02  0.42780955570E+02  0.00000000000E+00 0.  1.
</event>
<event>
 7    1  0.2542335E-015  0.9000773E+02  0.7816164E-02  0.1186339E+00
        -11   -1    0    0    0    0  0.00000000000E+00  0.00000000000E+00  0.45593999997E+02  0.45594000000E+02  0.51100000000E-03 0.  1.
         11   -1    0    0    0    0 -0.00000000000E+00 -0.00000000000E+00 -0.45593999997E+02  0.45594000000E+02  0.51100000000E-03 0. -1.
    9900012    2    1    2    0    0 -0.99488610544E+00  0.57733858368E+00  0.26443270505E+00  0.90007727634E+02  0.89999988839E+02 0.  0.
        -12    1    1    2    0    0  0.99488610544E+00 -0.57733858368E+00 -0.26443270505E+00  0.11802723662E+01  0.00000000000E+00 0.  1.
         11    1    3    3    0    0 -0.61280097723E+01  0.33244021201E+01 -0.10825412640E+02  0.12876090723E+02  0.51100000000E-03 0. -1.
        -11    1    3    3    0    0  0.30197580617E+02  0.24408794480E+02  0.10284920163E+02  0.40167931315E+02  0.51100000000E-03 0.  1.
         12    1    3    3    0    0 -0.25064456950E+02 -0.27155858016E+02  0.80492518148E+00  0.36963705596E+02  0.00000000000E+00 0. -1.
</event>
<event>
 7    1  0.3555100E-015  0.9000781E+02  0.7816164E-02  0.1186339E+00
        -11   -1    0    0    0    0  0.00000000000E+00  0.00000000000E+00  0.45593999997E+02  0.45594000000E+02  0.51100000000E-03 0.  1.
         11   -1    0    0    0    0 -0.00000000000E+00 -0.00000000000E+00 -0.45593999997E+02  0.45594000000E+02  0.51100000000E-03 0. -1.
    9900012    2    1    2    0    0 -0.55733458795E+00 -0.68971068025E+00 -0.77879680958E+00  0.90007810551E+02  0.90000072850E+02 0.  0.
        -12    1    1    2    0    0  0.55733458795E+00  0.68971068025E+00  0.77879680958E+00  0.11801894492E+01  0.00000000000E+00 0.  1.
         11    1    3    3    0    0  0.29231014709E+01 -0.13756679313E+01  0.90635011451E+01  0.96220599527E+01  0.51100000000E-03 0. -1.
        -11    1    3    3    0    0 -0.43373869257E+01 -0.27546455699E+02  0.23656374962E+02  0.36568350025E+02  0.51100000000E-03 0.  1.
         12    1    3    3    0    0  0.85695086684E+00  0.28232412950E+02 -0.33498672917E+02  0.43817400573E+02  0.00000000000E+00 0. -1.
</event>
<event>
 7    1  0.2542335E-015  0.9000775E+02  0.7816164E-02  0.1186339E+00
        -11   -1    0    0    0    0  0.00000000000E+00  0.00000000000E+00  0.45593999997E+02  0.45594000000E+02  0.51100000000E-03 0. -1.
         11   -1    0    0    0    0 -0.00000000000E+00 -0.00000000000E+00 -0.45593999997E+02  0.45594000000E+02  0.51100000000E-03 0.  1.
    9900012    2    1    2    0    0  0.99388918719E+00 -0.45499643542E+00  0.44515042905E+00  0.90007747325E+02  0.90000008790E+02 0.  0.
        -12    1    1    2    0    0 -0.99388918719E+00  0.45499643542E+00 -0.44515042905E+00  0.11802526751E+01  0.00000000000E+00 0.  1.
         11    1    3    3    0    0 -0.24340370763E+02 -0.25654301217E+02  0.17600723402E+02  0.39501674450E+02  0.51100000000E-03 0. -1.
        -11    1    3    3    0    0 -0.38330107376E+01 -0.17841926585E+01 -0.89993254789E+01  0.99429962332E+01  0.51100000000E-03 0.  1.
        -12    1    3    3    0    0  0.29167270687E+02  0.26983497440E+02 -0.81562474942E+01  0.40563076642E+02  0.00000000000E+00 0.  1.
</event>
<event>
 7    1  0.2542335E-015  0.9000776E+02  0.7816164E-02  0.1186339E+00
        -11   -1    0    0    0    0  0.00000000000E+00  0.00000000000E+00  0.45593999997E+02  0.45594000000E+02  0.51100000000E-03 0. -1.
         11   -1    0    0    0    0 -0.00000000000E+00 -0.00000000000E+00 -0.45593999997E+02  0.45594000000E+02  0.51100000000E-03 0.  1.
    9900012    2    1    2    0    0  0.76326617484E+00 -0.80776380413E+00  0.39737532854E+00  0.90007760716E+02  0.90000022357E+02 0.  0.
        -12    1    1    2    0    0 -0.76326617484E+00  0.80776380413E+00 -0.39737532854E+00  0.11802392845E+01  0.00000000000E+00 0.  1.
         11    1    3    3    0    0  0.13539354924E+02 -0.49071027821E+01  0.34096713308E+02  0.37013236121E+02  0.51100000000E-03 0. -1.
        -11    1    3    3    0    0  0.58364220175E+01 -0.58108448170E+01  0.44827064128E+01  0.93768009736E+01  0.51100000000E-03 0.  1.
        -12    1    3    3    0    0 -0.18612510766E+02  0.99101837950E+01 -0.38182044393E+02  0.43617723621E+02  0.00000000000E+00 0.  1.
</event>
<event>
 7    1  0.2542335E-015  0.9000774E+02  0.7816164E-02  0.1186339E+00
        -11   -1    0    0    0    0  0.00000000000E+00  0.00000000000E+00  0.45593999997E+02  0.45594000000E+02  0.51100000000E-03 0. -1.
         11   -1    0    0    0    0 -0.00000000000E+00 -0.00000000000E+00 -0.45593999997E+02  0.45594000000E+02  0.51100000000E-03 0.  1.
    9900012    2    1    2    0    0 -0.81677991505E+00  0.29027286791E+00  0.80101117316E+00  0.90007742966E+02  0.90000004373E+02 0.  0.
        -12    1    1    2    0    0  0.81677991505E+00 -0.29027286791E+00 -0.80101117316E+00  0.11802570343E+01  0.00000000000E+00 0.  1.
         11    1    3    3    0    0 -0.30388440756E+01  0.35232121317E+01 -0.65376286893E+01  0.80242249583E+01  0.51100000000E-03 0. -1.
        -11    1    3    3    0    0  0.30328942772E+02 -0.22003535113E+02 -0.16173230346E+02  0.40811440886E+02  0.51100000000E-03 0.  1.
         12    1    3    3    0    0 -0.28106878611E+02  0.18770595849E+02  0.23511870209E+02  0.41172077121E+02  0.00000000000E+00 0. -1.
</event>
<event>
 7    1  0.2542335E-015  0.9000774E+02  0.7816164E-02  0.1186339E+00
        -11   -1    0    0    0    0  0.00000000000E+00  0.00000000000E+00  0.45593999997E+02  0.45594000000E+02  0.51100000000E-03 0. -1.
         11   -1    0    0    0    0 -0.00000000000E+00 -0.00000000000E+00 -0.45593999997E+02  0.45594000000E+02  0.51100000000E-03 0.  1.
    9900012    2    1    2    0    0 -0.57990700471E-01 -0.11784742826E+01  0.29249311461E-01  0.90007737284E+02  0.89999998616E+02 0.  0.
        -12    1    1    2    0    0  0.57990700471E-01  0.11784742826E+01 -0.29249311461E-01  0.11802627158E+01  0.00000000000E+00 0.  1.
         11    1    3    3    0    0  0.25359464647E+01  0.17529534963E+02  0.32865260058E+02  0.37334179238E+02  0.51100000000E-03 0. -1.
        -11    1    3    3    0    0  0.19791728240E+01  0.91339324581E+01  0.45432752536E-01  0.93460104650E+01  0.51100000000E-03 0.  1.
        -12    1    3    3    0    0 -0.45731099891E+01 -0.27841941704E+02 -0.32881443499E+02  0.43327547581E+02  0.00000000000E+00 0.  1.
</event>
<event>
 7    1  0.2542335E-015  0.9000776E+02  0.7816164E-02  0.1186339E+00
        -11   -1    0    0    0    0  0.00000000000E+00  0.00000000000E+00  0.45593999997E+02  0.45594000000E+02  0.51100000000E-03 0. -1.
         11   -1    0    0    0    0 -0.00000000000E+00 -0.00000000000E+00 -0.45593999997E+02  0.45594000000E+02  0.51100000000E-03 0.  1.
    9900012    2    1    2    0    0 -0.10303817007E+01 -0.53477793144E+00 -0.21283377961E+00  0.90007757608E+02  0.90000019209E+02 0.  0.
        -12    1    1    2    0    0  0.10303817007E+01  0.53477793144E+00  0.21283377961E+00  0.11802423916E+01  0.00000000000E+00 0.  1.
         11    1    3    3    0    0 -0.54251385736E+01  0.20962452150E+01 -0.60662581586E+01  0.84039193744E+01  0.51100000000E-03 0. -1.
        -11    1    3    3    0    0  0.11297845869E+02 -0.25155340097E+02 -0.28688697529E+02  0.39792886586E+02  0.51100000000E-03 0.  1.
         12    1    3    3    0    0 -0.69030889961E+01  0.22524316950E+02  0.34542121908E+02  0.41810951648E+02  0.00000000000E+00 0. -1.
</event>
<event>
 7    1  0.2542335E-015  0.9000778E+02  0.7816164E-02  0.1186339E+00
        -11   -1    0    0    0    0  0.00000000000E+00  0.00000000000E+00  0.45593999997E+02  0.45594000000E+02  0.51100000000E-03 0. -1.
         11   -1    0    0    0    0 -0.00000000000E+00 -0.00000000000E+00 -0.45593999997E+02  0.45594000000E+02  0.51100000000E-03 0.  1.
    9900012    2    1    2    0    0  0.49508610360E-01 -0.45021578786E+00  0.10898481422E+01  0.90007782083E+02  0.90000044007E+02 0.  0.
        -12    1    1    2    0    0 -0.49508610360E-01  0.45021578786E+00 -0.10898481422E+01  0.11802179168E+01  0.00000000000E+00 0.  1.
         11    1    3    3    0    0  0.30891287083E+02  0.42302128360E+01 -0.28446351544E+02  0.42206175315E+02  0.51100000000E-03 0. -1.
        -11    1    3    3    0    0  0.93019317630E+00 -0.25583117740E+01  0.10179293871E+02  0.10536993995E+02  0.51100000000E-03 0.  1.
        -12    1    3    3    0    0 -0.31771971649E+02 -0.21221168499E+01  0.19356905815E+02  0.37264612773E+02  0.00000000000E+00 0.  1.
</event>
<event>
 7    1  0.2542335E-015  0.9000782E+02  0.7816164E-02  0.1186339E+00
        -11   -1    0    0    0    0  0.00000000000E+00  0.00000000000E+00  0.45593999997E+02  0.45594000000E+02  0.51100000000E-03 0. -1.
         11   -1    0    0    0    0 -0.00000000000E+00 -0.00000000000E+00 -0.45593999997E+02  0.45594000000E+02  0.51100000000E-03 0.  1.
    9900012    2    1    2    0    0 -0.66563312438E+00 -0.40752159698E+00  0.88525539353E+00  0.90007822717E+02  0.90000085177E+02 0.  0.
        -12    1    1    2    0    0  0.66563312438E+00  0.40752159698E+00 -0.88525539353E+00  0.11801772833E+01  0.00000000000E+00 0.  1.
         11    1    3    3    0    0  0.91054999978E+01 -0.80664172844E+01  0.35199725491E+02  0.37242420610E+02  0.51100000000E-03 0. -1.
        -11    1    3    3    0    0 -0.72789868686E+00 -0.85774397305E+01  0.45127878377E+01  0.97194425333E+01  0.51100000000E-03 0.  1.
        -12    1    3    3    0    0 -0.90432344353E+01  0.16236335418E+02 -0.38827257935E+02  0.43045959573E+02  0.00000000000E+00 0.  1.
</event>
<event>
 7    1  0.2542335E-015  0.9000795E+02  0.7816164E-02  0.1186339E+00
        -11   -1    0    0    0    0  0.00000000000E+00  0.00000000000E+00  0.45593999997E+02  0.45594000000E+02  0.51100000000E-03 0. -1.
         11   -1    0    0    0    0 -0.00000000000E+00 -0.00000000000E+00 -0.45593999997E+02  0.45594000000E+02  0.51100000000E-03 0.  1.
    9900012    2    1    2    0    0 -0.18829352673E-01 -0.11797175424E+01  0.20520257571E-01  0.90007953770E+02  0.90000217959E+02 0.  0.
        -12    1    1    2    0    0  0.18829352673E-01  0.11797175424E+01 -0.20520257571E-01  0.11800462301E+01  0.00000000000E+00 0.  1.
         11    1    3    3    0    0 -0.33102972031E+01 -0.76364199795E+01  0.33412932369E+01  0.89686798601E+01  0.51100000000E-03 0. -1.
        -11    1    3    3    0    0 -0.21628157332E+02 -0.29232452842E+02  0.50527454786E+01  0.36712991242E+02  0.51100000000E-03 0.  1.
         12    1    3    3    0    0  0.24919625183E+02  0.35689155280E+02 -0.83735184579E+01  0.44326282668E+02  0.00000000000E+00 0. -1.
</event>
<event>
 7    1  0.2542335E-015  0.9000753E+02  0.7816164E-02  0.1186339E+00
        -11   -1    0    0    0    0  0.00000000000E+00  0.00000000000E+00  0.45593999997E+02  0.45594000000E+02  0.51100000000E-03 0.  1.
         11   -1    0    0    0    0 -0.00000000000E+00 -0.00000000000E+00 -0.45593999997E+02  0.45594000000E+02  0.51100000000E-03 0. -1.
    9900012    2    1    2    0    0 -0.50752775528E+00  0.10441871796E+01 -0.21352887549E+00  0.90007531504E+02  0.89999790120E+02 0.  0.
        -12    1    1    2    0    0  0.50752775528E+00 -0.10441871796E+01  0.21352887549E+00  0.11804684956E+01  0.00000000000E+00 0.  1.
         11    1    3    3    0    0  0.36198051550E+02  0.15253187362E+02 -0.13084147976E+02  0.41402337968E+02  0.51100000000E-03 0. -1.
        -11    1    3    3    0    0 -0.79644930144E+01 -0.18521854547E+01 -0.76444796808E+01  0.11193829094E+02  0.51100000000E-03 0.  1.
        -12    1    3    3    0    0 -0.28741086291E+02 -0.12356814728E+02  0.20515098782E+02  0.37411364442E+02  0.00000000000E+00 0.  1.
</event>
<event>
 7    1  0.2542335E-015  0.9000817E+02  0.7816164E-02  0.1186338E+00
        -11   -1    0    0    0    0  0.00000000000E+00  0.00000000000E+00  0.45593999997E+02  0.45594000000E+02  0.51100000000E-03 0. -1.
         11   -1    0    0    0    0 -0.00000000000E+00 -0.00000000000E+00 -0.45593999997E+02  0.45594000000E+02  0.51100000000E-03 0.  1.
    9900012    2    1    2    0    0  0.11080861302E+01  0.65524022863E-01 -0.39980411225E+00  0.90008173064E+02  0.90000440148E+02 0.  0.
        -12    1    1    2    0    0 -0.11080861302E+01 -0.65524022863E-01  0.39980411225E+00  0.11798269355E+01  0.00000000000E+00 0.  1.
         11    1    3    3    0    0 -0.46099429749E+01  0.60356122086E+00 -0.91820752506E+01  0.10292053563E+02  0.51100000000E-03 0. -1.
        -11    1    3    3    0    0  0.93399761494E+01 -0.17132030883E+02 -0.30903718077E+02  0.36548343709E+02  0.51100000000E-03 0.  1.
         12    1    3    3    0    0 -0.36219470442E+01  0.16593993685E+02  0.39685989216E+02  0.43167775792E+02  0.00000000000E+00 0. -1.
</event>
<event>
 7    1  0.2542335E-015  0.9000775E+02  0.7816164E-02  0.1186339E+00
        -11   -1    0    0    0    0  0.00000000000E+00  0.00000000000E+00  0.45593999997E+02  0.45594000000E+02  0.51100000000E-03 0.  1.
         11   -1    0    0    0    0 -0.00000000000E+00 -0.00000000000E+00 -0.45593999997E+02  0.45594000000E+02  0.51100000000E-03 0. -1.
    9900012    2    1    2    0    0  0.23213764985E+00  0.61582446676E-01 -0.11555527508E+01  0.90007753227E+02  0.90000014769E+02 0.  0.
        -12    1    1    2    0    0 -0.23213764985E+00 -0.61582446676E-01  0.11555527508E+01  0.11802467734E+01  0.00000000000E+00 0.  1.
         11    1    3    3    0    0 -0.31195023750E+02 -0.10988432528E+02  0.10787602237E+02  0.34788611908E+02  0.51100000000E-03 0. -1.
        -11    1    3    3    0    0 -0.85830842755E+01 -0.36197349177E+01  0.34148666315E+01  0.99213472335E+01  0.51100000000E-03 0.  1.
        -12    1    3    3    0    0  0.40010245676E+02  0.14669749893E+02 -0.15358021619E+02  0.45297794085E+02  0.00000000000E+00 0.  1.
</event>
<event>
 7    1  0.2542335E-015  0.9000767E+02  0.7816164E-02  0.1186339E+00
        -11   -1    0    0    0    0  0.00000000000E+00  0.00000000000E+00  0.45593999997E+02  0.45594000000E+02  0.51100000000E-03 0. -1.
         11   -1    0    0    0    0 -0.00000000000E+00 -0.00000000000E+00 -0.45593999997E+02  0.45594000000E+02  0.51100000000E-03 0.  1.
    9900012    2    1    2    0    0  0.85109935744E+00 -0.72802346502E+00  0.37254817210E+00  0.90007669359E+02  0.89999929794E+02 0.  0.
        -12    1    1    2    0    0 -0.85109935744E+00  0.72802346502E+00 -0.37254817210E+00  0.11803306411E+01  0.00000000000E+00 0.  1.
         11    1    3    3    0    0  0.59461673776E+01 -0.50532643909E+01  0.49330396920E+01  0.92318615864E+01  0.51100000000E-03 0. -1.
        -11    1    3    3    0    0  0.94684195440E+01  0.74087707741E+00 -0.40623208175E+02  0.41718639841E+02  0.51100000000E-03 0.  1.
         12    1    3    3    0    0 -0.14563487564E+02  0.35843638485E+01  0.36062716655E+02  0.39057167931E+02  0.00000000000E+00 0. -1.
</event>
<event>
 7    1  0.2542335E-015  0.9000770E+02  0.7816164E-02  0.1186339E+00
        -11   -1    0    0    0    0  0.00000000000E+00  0.00000000000E+00  0.45593999997E+02  0.45594000000E+02  0.51100000000E-03 0.  1.
         11   -1    0    0    0    0 -0.00000000000E+00 -0.00000000000E+00 -0.45593999997E+02  0.45594000000E+02  0.51100000000E-03 0. -1.
    9900012    2    1    2    0    0 -0.98005245066E+00  0.34214435376E+00 -0.56172433954E+00  0.90007703512E+02  0.89999964399E+02 0.  0.
        -12    1    1    2    0    0  0.98005245066E+00 -0.34214435376E+00  0.56172433954E+00  0.11802964875E+01  0.00000000000E+00 0.  1.
         11    1    3    3    0    0 -0.17659494423E+02 -0.65141390886E+01 -0.32749335240E+01  0.19105416541E+02  0.51100000000E-03 0. -1.
        -11    1    3    3    0    0  0.44445101544E+01 -0.17591630742E+02  0.28195574908E+02  0.33529234816E+02  0.51100000000E-03 0.  1.
         12    1    3    3    0    0  0.12234931818E+02  0.24447914185E+02 -0.25482365724E+02  0.37373052156E+02  0.00000000000E+00 0. -1.
</event>
<event>
 7    1  0.2542335E-015  0.9000762E+02  0.7816164E-02  0.1186339E+00
        -11   -1    0    0    0    0  0.00000000000E+00  0.00000000000E+00  0.45593999997E+02  0.45594000000E+02  0.51100000000E-03 0.  1.
         11   -1    0    0    0    0 -0.00000000000E+00 -0.00000000000E+00 -0.45593999997E+02  0.45594000000E+02  0.51100000000E-03 0. -1.
    9900012    2    1    2    0    0 -0.11166004565E+01 -0.28921287615E+00 -0.25071700630E+00  0.90007618839E+02  0.89999878608E+02 0.  0.
        -12    1    1    2    0    0  0.11166004565E+01  0.28921287615E+00  0.25071700630E+00  0.11803811607E+01  0.00000000000E+00 0.  1.
         11    1    3    3    0    0  0.43238386182E+01 -0.16789169257E+02 -0.34879282342E+02  0.38950431598E+02  0.51100000000E-03 0. -1.
        -11    1    3    3    0    0  0.83638751777E+01  0.60971417219E+01 -0.20120330205E+01  0.10544089449E+02  0.51100000000E-03 0.  1.
        -12    1    3    3    0    0 -0.13804314252E+02  0.10402814659E+02  0.36640598356E+02  0.40513097792E+02  0.00000000000E+00 0.  1.
</event>
<event>
 7    1  0.2542335E-015  0.9000786E+02  0.7816164E-02  0.1186339E+00
        -11   -1    0    0    0    0  0.00000000000E+00  0.00000000000E+00  0.45593999997E+02  0.45594000000E+02  0.51100000000E-03 0.  1.
         11   -1    0    0    0    0 -0.00000000000E+00 -0.00000000000E+00 -0.45593999997E+02  0.45594000000E+02  0.51100000000E-03 0. -1.
    9900012    2    1    2    0    0  0.85710299499E+00 -0.26737921227E-02  0.81122754008E+00  0.90007863222E+02  0.90000126216E+02 0.  0.
        -12    1    1    2    0    0 -0.85710299499E+00  0.26737921227E-02 -0.81122754008E+00  0.11801367781E+01  0.00000000000E+00 0.  1.
         11    1    3    3    0    0 -0.21630937965E+02  0.28380297454E+02  0.11200097556E+01  0.35701445110E+02  0.51100000000E-03 0. -1.
        -11    1    3    3    0    0 -0.28221051932E+01  0.82465937495E+01  0.39705628747E+01  0.95778889112E+01  0.51100000000E-03 0.  1.
        -12    1    3    3    0    0  0.25310146153E+02 -0.36629564996E+02 -0.42793450902E+01  0.44728529201E+02  0.00000000000E+00 0.  1.
</event>
<event>
 7    1  0.2542335E-015  0.9000764E+02  0.7816164E-02  0.1186339E+00
        -11   -1    0    0    0    0  0.00000000000E+00  0.00000000000E+00  0.45593999997E+02  0.45594000000E+02  0.51100000000E-03 0. -1.
         11   -1    0    0    0    0 -0.00000000000E+00 -0.00000000000E+00 -0.45593999997E+02  0.45594000000E+02  0.51100000000E-03 0.  1.
    9900012    2    1    2    0    0  0.67665118590E+00  0.41268329251E-01  0.96627650376E+00  0.90007639807E+02  0.89999899853E+02 0.  0.
        -12    1    1    2    0    0 -0.67665118590E+00 -0.41268329251E-01 -0.96627650376E+00  0.11803601925E+01  0.00000000000E+00 0.  1.
         11    1    3    3    0    0  0.87693387384E+01  0.25309880061E+01  0.75551750155E+01  0.11848538812E+02  0.51100000000E-03 0. -1.
        -11    1    3    3    0    0  0.14539806654E+02 -0.33039875437E+02  0.87799146131E+01  0.37150050435E+02  0.51100000000E-03 0.  1.
         12    1    3    3    0    0 -0.22632494207E+02  0.30550155761E+02 -0.15368813125E+02  0.41009050561E+02  0.00000000000E+00 0. -1.
</event>
<event>
 7    1  0.2542335E-015  0.9000785E+02  0.7816164E-02  0.1186339E+00
        -11   -1    0    0    0    0  0.00000000000E+00  0.00000000000E+00  0.45593999997E+02  0.45594000000E+02  0.51100000000E-03 0.  1.
         11   -1    0    0    0    0 -0.00000000000E+00 -0.00000000000E+00 -0.45593999997E+02  0.45594000000E+02  0.51100000000E-03 0. -1.
    9900012    2    1    2    0    0 -0.18561661188E+00  0.10571862531E+01  0.49056006289E+00  0.90007853621E+02  0.90000116489E+02 0.  0.
        -12    1    1    2    0    0  0.18561661188E+00 -0.10571862531E+01 -0.49056006289E+00  0.11801463789E+01  0.00000000000E+00 0.  1.
         11    1    3    3    0    0  0.57665167841E+01 -0.96254074022E+01 -0.32721844936E+01  0.11687958551E+02  0.51100000000E-03 0. -1.
        -11    1    3    3    0    0  0.17398687567E+02 -0.26604351203E+01  0.33734914695E+02  0.38050449588E+02  0.51100000000E-03 0.  1.
         12    1    3    3    0    0 -0.23350820963E+02  0.13343028776E+02 -0.29972170139E+02  0.40269445482E+02  0.00000000000E+00 0. -1.
</event>
<event>
 7    1  0.2542335E-015  0.9000830E+02  0.7816164E-02  0.1186338E+00
        -11   -1    0    0    0    0  0.00000000000E+00  0.00000000000E+00  0.45593999997E+02  0.45594000000E+02  0.51100000000E-03 0.  1.
         11   -1    0    0    0    0 -0.00000000000E+00 -0.00000000000E+00 -0.45593999997E+02  0.45594000000E+02  0.51100000000E-03 0. -1.
    9900012    2    1    2    0    0  0.88815253613E+00  0.69639923919E+00  0.34337696800E+00  0.90008298949E+02  0.90000567693E+02 0.  0.
        -12    1    1    2    0    0 -0.88815253613E+00 -0.69639923919E+00 -0.34337696800E+00  0.11797010511E+01  0.00000000000E+00 0.  1.
         11    1    3    3    0    0 -0.90028749126E+01 -0.16212945523E+01 -0.25495540800E+01  0.94963455595E+01  0.51100000000E-03 0. -1.
        -11    1    3    3    0    0 -0.14794287876E+02 -0.18444810665E+02  0.30126152535E+02  0.38297089460E+02  0.51100000000E-03 0.  1.
         12    1    3    3    0    0  0.24685315325E+02  0.20762504457E+02 -0.27233221487E+02  0.42214863930E+02  0.00000000000E+00 0. -1.
</event>
<event>
 7    1  0.2542335E-015  0.9000774E+02  0.7816164E-02  0.1186339E+00
        -11   -1    0    0    0    0  0.00000000000E+00  0.00000000000E+00  0.45593999997E+02  0.45594000000E+02  0.51100000000E-03 0. -1.
         11   -1    0    0    0    0 -0.00000000000E+00 -0.00000000000E+00 -0.45593999997E+02  0.45594000000E+02  0.51100000000E-03 0.  1.
    9900012    2    1    2    0    0 -0.11532638066E+00 -0.36518991375E+00  0.11163957175E+01  0.90007744415E+02  0.90000005842E+02 0.  0.
        -12    1    1    2    0    0  0.11532638066E+00  0.36518991375E+00 -0.11163957175E+01  0.11802555847E+01  0.00000000000E+00 0.  1.
         11    1    3    3    0    0  0.64912575888E+01  0.40076023722E+01  0.23833506878E+01  0.79923502563E+01  0.51100000000E-03 0. -1.
        -11    1    3    3    0    0  0.29772296224E+02  0.21797625473E+02  0.28719380881E+01  0.37010459702E+02  0.51100000000E-03 0.  1.
         12    1    3    3    0    0 -0.36378880193E+02 -0.26170417759E+02 -0.41388930584E+01  0.45004934457E+02  0.00000000000E+00 0. -1.
</event>
<event>
 7    1  0.2542335E-015  0.9000810E+02  0.7816164E-02  0.1186338E+00
        -11   -1    0    0    0    0  0.00000000000E+00  0.00000000000E+00  0.45593999997E+02  0.45594000000E+02  0.51100000000E-03 0.  1.
         11   -1    0    0    0    0 -0.00000000000E+00 -0.00000000000E+00 -0.45593999997E+02  0.45594000000E+02  0.51100000000E-03 0. -1.
    9900012    2    1    2    0    0  0.76470542614E+00 -0.58174383217E+00 -0.68480312885E+00  0.90008103564E+02  0.90000369730E+02 0.  0.
        -12    1    1    2    0    0 -0.76470542614E+00  0.58174383217E+00  0.68480312885E+00  0.11798964363E+01  0.00000000000E+00 0.  1.
         11    1    3    3    0    0  0.45855097505E+01  0.12802608432E+02  0.44996803997E+01  0.14324133702E+02  0.51100000000E-03 0. -1.
        -11    1    3    3    0    0  0.30326097953E+02 -0.23752625979E+02 -0.96721135735E+01  0.39716611628E+02  0.51100000000E-03 0.  1.
         12    1    3    3    0    0 -0.34146902277E+02  0.10368273714E+02  0.44876300449E+01  0.35967358235E+02  0.00000000000E+00 0. -1.
</event>
<event>
 7    1  0.2542335E-015  0.9000779E+02  0.7816164E-02  0.1186339E+00
        -11   -1    0    0    0    0  0.00000000000E+00  0.00000000000E+00  0.45593999997E+02  0.45594000000E+02  0.51100000000E-03 0.  1.
         11   -1    0    0    0    0 -0.00000000000E+00 -0.00000000000E+00 -0.45593999997E+02  0.45594000000E+02  0.51100000000E-03 0. -1.
    9900012    2    1    2    0    0 -0.39745824318E-01 -0.11461509119E+01  0.27868513848E+00  0.90007785168E+02  0.90000047132E+02 0.  0.
        -12    1    1    2    0    0  0.39745824318E-01  0.11461509119E+01 -0.27868513848E+00  0.11802148321E+01  0.00000000000E+00 0.  1.
         11    1    3    3    0    0 -0.17476626733E+02 -0.19173484525E+02  0.17541809473E+01  0.26002541065E+02  0.51100000000E-03 0. -1.
        -11    1    3    3    0    0 -0.10243162941E+02  0.30884937515E+02 -0.61898993145E+01  0.33122750582E+02  0.51100000000E-03 0.  1.
         12    1    3    3    0    0  0.27680043850E+02 -0.12857603902E+02  0.47144035057E+01  0.30882493521E+02  0.00000000000E+00 0. -1.
</event>
<event>
 7    1  0.2542335E-015  0.9000777E+02  0.7816164E-02  0.1186339E+00
        -11   -1    0    0    0    0  0.00000000000E+00  0.00000000000E+00  0.45593999997E+02  0.45594000000E+02  0.51100000000E-03 0. -1.
         11   -1    0    0    0    0 -0.00000000000E+00 -0.00000000000E+00 -0.45593999997E+02  0.45594000000E+02  0.51100000000E-03 0.  1.
    9900012    2    1    2    0    0  0.10772482488E+01  0.36667356862E+00 -0.31307842104E+00  0.90007774855E+02  0.90000036683E+02 0.  0.
        -12    1    1    2    0    0 -0.10772482488E+01 -0.36667356862E+00  0.31307842104E+00  0.11802251451E+01  0.00000000000E+00 0.  1.
         11    1    3    3    0    0  0.58049678661E+01 -0.64467037036E+01 -0.79897716151E+01  0.11793815807E+02  0.51100000000E-03 0. -1.
        -11    1    3    3    0    0  0.10459049702E+02 -0.32206007695E+02  0.12437185234E+02  0.36073566904E+02  0.51100000000E-03 0.  1.
         12    1    3    3    0    0 -0.15186769319E+02  0.39019384968E+02 -0.47604920398E+01  0.42140392144E+02  0.00000000000E+00 0. -1.
</event>
<event>
 7    1  0.2542335E-015  0.9000811E+02  0.7816164E-02  0.1186338E+00
        -11   -1    0    0    0    0  0.00000000000E+00  0.00000000000E+00  0.45593999997E+02  0.45594000000E+02  0.51100000000E-03 0. -1.
         11   -1    0    0    0    0 -0.00000000000E+00 -0.00000000000E+00 -0.45593999997E+02  0.45594000000E+02  0.51100000000E-03 0.  1.
    9900012    2    1    2    0    0  0.86596306879E+00  0.56488682336E+00  0.56845774139E+00  0.90008112987E+02  0.90000379278E+02 0.  0.
        -12    1    1    2    0    0 -0.86596306879E+00 -0.56488682336E+00 -0.56845774139E+00  0.11798870130E+01  0.00000000000E+00 0.  1.
         11    1    3    3    0    0 -0.24708463333E+02  0.18283744989E+02  0.25256417266E+02  0.39783037899E+02  0.51100000000E-03 0. -1.
        -11    1    3    3    0    0 -0.69604160634E+01 -0.23621684596E+01 -0.69384517484E+01  0.10107885265E+02  0.51100000000E-03 0.  1.
        -12    1    3    3    0    0  0.32534842465E+02 -0.15356689706E+02 -0.17749507776E+02  0.40117189823E+02  0.00000000000E+00 0.  1.
</event>
<event>
 7    1  0.2542335E-015  0.9000784E+02  0.7816164E-02  0.1186339E+00
        -11   -1    0    0    0    0  0.00000000000E+00  0.00000000000E+00  0.45593999997E+02  0.45594000000E+02  0.51100000000E-03 0. -1.
         11   -1    0    0    0    0 -0.00000000000E+00 -0.00000000000E+00 -0.45593999997E+02  0.45594000000E+02  0.51100000000E-03 0.  1.
    9900012    2    1    2    0    0 -0.19342671227E+00 -0.90829302014E-01  0.11606520951E+01  0.90007840205E+02  0.90000102896E+02 0.  0.
        -12    1    1    2    0    0  0.19342671227E+00  0.90829302014E-01 -0.11606520951E+01  0.11801597947E+01  0.00000000000E+00 0.  1.
         11    1    3    3    0    0 -0.85093448334E+01  0.13078200075E+01 -0.13153856582E+01  0.87091665707E+01  0.51100000000E-03 0. -1.
        -11    1    3    3    0    0 -0.30667351889E+02 -0.17949313392E+02 -0.10415347874E+02  0.37028958866E+02  0.51100000000E-03 0.  1.
         12    1    3    3    0    0  0.38983270010E+02  0.16550664082E+02  0.12891385628E+02  0.44269714768E+02  0.00000000000E+00 0. -1.
</event>
<event>
 7    1  0.2950361E-015  0.9000774E+02  0.7816164E-02  0.1186339E+00
        -11   -1    0    0    0    0  0.00000000000E+00  0.00000000000E+00  0.45593999997E+02  0.45594000000E+02  0.51100000000E-03 0.  1.
         11   -1    0    0    0    0 -0.00000000000E+00 -0.00000000000E+00 -0.45593999997E+02  0.45594000000E+02  0.51100000000E-03 0. -1.
    9900012    2    1    2    0    0  0.33752475121E+00  0.24908571474E+00 -0.11031995188E+01  0.90007739084E+02  0.90000000440E+02 0.  0.
        -12    1    1    2    0    0 -0.33752475121E+00 -0.24908571474E+00  0.11031995188E+01  0.11802609158E+01  0.00000000000E+00 0.  1.
         11    1    3    3    0    0 -0.81671980509E+01  0.15808145786E+01  0.47988362280E+01  0.96036934634E+01  0.51100000000E-03 0. -1.
        -11    1    3    3    0    0  0.59714950668E+01 -0.21026181182E+02  0.31333974658E+02  0.38204410957E+02  0.51100000000E-03 0.  1.
         12    1    3    3    0    0  0.25332277353E+01  0.19694452319E+02 -0.37236010405E+02  0.42199634664E+02  0.00000000000E+00 0. -1.
</event>
<event>
 7    1  0.2542335E-015  0.9000788E+02  0.7816164E-02  0.1186339E+00
        -11   -1    0    0    0    0  0.00000000000E+00  0.00000000000E+00  0.45593999997E+02  0.45594000000E+02  0.51100000000E-03 0.  1.
         11   -1    0    0    0    0 -0.00000000000E+00 -0.00000000000E+00 -0.45593999997E+02  0.45594000000E+02  0.51100000000E-03 0. -1.
    9900012    2    1    2    0    0 -0.20626057162E-01 -0.26550402664E+00 -0.11496791184E+01  0.90007881405E+02  0.90000144640E+02 0.  0.
        -12    1    1    2    0    0  0.20626057162E-01  0.26550402664E+00  0.11496791184E+01  0.11801185948E+01  0.00000000000E+00 0.  1.
         11    1    3    3    0    0 -0.25850665867E+02  0.23326797290E+02  0.16973334096E+02  0.38736164861E+02  0.51100000000E-03 0. -1.
        -11    1    3    3    0    0  0.82845680499E+00  0.62438405118E+01 -0.95052051388E+01  0.11402666794E+02  0.51100000000E-03 0.  1.
        -12    1    3    3    0    0  0.25001583005E+02 -0.29836141829E+02 -0.86178080752E+01  0.39869049750E+02  0.00000000000E+00 0.  1.
</event>
<event>
 7    1  0.2542335E-015  0.9000774E+02  0.7816164E-02  0.1186339E+00
        -11   -1    0    0    0    0  0.00000000000E+00  0.00000000000E+00  0.45593999997E+02  0.45594000000E+02  0.51100000000E-03 0.  1.
         11   -1    0    0    0    0 -0.00000000000E+00 -0.00000000000E+00 -0.45593999997E+02  0.45594000000E+02  0.51100000000E-03 0. -1.
    9900012    2    1    2    0    0 -0.41186689126E+00  0.15079355318E+00 -0.10957323476E+01  0.90007744769E+02  0.90000006200E+02 0.  0.
        -12    1    1    2    0    0  0.41186689126E+00 -0.15079355318E+00  0.10957323476E+01  0.11802552306E+01  0.00000000000E+00 0.  1.
         11    1    3    3    0    0 -0.44723889404E+01  0.34090361180E+01 -0.85514547667E+01  0.10234801853E+02  0.51100000000E-03 0. -1.
        -11    1    3    3    0    0 -0.19529433709E+02  0.14528791546E+02 -0.25677234461E+02  0.35380855482E+02  0.51100000000E-03 0.  1.
         12    1    3    3    0    0  0.23589955758E+02 -0.17787034111E+02  0.33132956880E+02  0.44392087434E+02  0.00000000000E+00 0. -1.
</event>
<event>
 7    1  0.2542335E-015  0.9000770E+02  0.7816164E-02  0.1186339E+00
        -11   -1    0    0    0    0  0.00000000000E+00  0.00000000000E+00  0.45593999997E+02  0.45594000000E+02  0.51100000000E-03 0.  1.
         11   -1    0    0    0    0 -0.00000000000E+00 -0.00000000000E+00 -0.45593999997E+02  0.45594000000E+02  0.51100000000E-03 0. -1.
    9900012    2    1    2    0    0  0.90931586946E+00  0.49594774826E+00 -0.56593018642E+00  0.90007704912E+02  0.89999965817E+02 0.  0.
        -12    1    1    2    0    0 -0.90931586946E+00 -0.49594774826E+00  0.56593018642E+00  0.11802950883E+01  0.00000000000E+00 0.  1.
         11    1    3    3    0    0 -0.15909337091E+02 -0.32613649004E+02 -0.41835719189E+01  0.36527515413E+02  0.51100000000E-03 0. -1.
        -11    1    3    3    0    0  0.11777863991E+02  0.26558583873E-01  0.14137533562E+02  0.18400778273E+02  0.51100000000E-03 0.  1.
        -12    1    3    3    0    0  0.50407889692E+01  0.33083038168E+02 -0.10519891830E+02  0.35079411226E+02  0.00000000000E+00 0.  1.
</event>
<event>
 7    1  0.2542335E-015  0.9000783E+02  0.7816164E-02  0.1186339E+00
        -11   -1    0    0    0    0  0.00000000000E+00  0.00000000000E+00  0.45593999997E+02  0.45594000000E+02  0.51100000000E-03 0. -1.
         11   -1    0    0    0    0 -0.00000000000E+00 -0.00000000000E+00 -0.45593999997E+02  0.45594000000E+02  0.51100000000E-03 0.  1.
    9900012    2    1    2    0    0  0.31053488764E-01  0.32246007230E+00 -0.11348350978E+01  0.90007832420E+02  0.90000095008E+02 0.  0.
        -12    1    1    2    0    0 -0.31053488764E-01 -0.32246007230E+00  0.11348350978E+01  0.11801675799E+01  0.00000000000E+00 0.  1.
         11    1    3    3    0    0  0.37740822313E+02  0.30088095461E+01 -0.85964767338E+01  0.38824245211E+02  0.51100000000E-03 0. -1.
        -11    1    3    3    0    0  0.26431628598E+01 -0.83304399446E+01 -0.27785736188E+01  0.91707693892E+01  0.51100000000E-03 0.  1.
        -12    1    3    3    0    0 -0.40352931684E+02  0.56440904707E+01  0.10240215255E+02  0.42012817820E+02  0.00000000000E+00 0.  1.
</event>
<event>
 7    1  0.2542335E-015  0.9000765E+02  0.7816164E-02  0.1186339E+00
        -11   -1    0    0    0    0  0.00000000000E+00  0.00000000000E+00  0.45593999997E+02  0.45594000000E+02  0.51100000000E-03 0. -1.
         11   -1    0    0    0    0 -0.00000000000E+00 -0.00000000000E+00 -0.45593999997E+02  0.45594000000E+02  0.51100000000E-03 0.  1.
    9900012    2    1    2    0    0  0.35484575309E+00 -0.79888213249E+00  0.79316102928E+00  0.90007647261E+02  0.89999907405E+02 0.  0.
        -12    1    1    2    0    0 -0.35484575309E+00  0.79888213249E+00 -0.79316102928E+00  0.11803527390E+01  0.00000000000E+00 0.  1.
         11    1    3    3    0    0 -0.12594072200E+02 -0.16777997727E+02  0.33529007536E+02  0.39551311090E+02  0.51100000000E-03 0. -1.
        -11    1    3    3    0    0  0.85128200057E+01  0.24339769184E+00  0.46133568560E+01  0.96855773513E+01  0.51100000000E-03 0.  1.
        -12    1    3    3    0    0  0.44360979470E+01  0.15735717903E+02 -0.37349203363E+02  0.40770758820E+02  0.00000000000E+00 0.  1.
</event>
<event>
 7    1  0.2542335E-015  0.9000770E+02  0.7816164E-02  0.1186339E+00
        -11   -1    0    0    0    0  0.00000000000E+00  0.00000000000E+00  0.45593999997E+02  0.45594000000E+02  0.51100000000E-03 0.  1.
         11   -1    0    0    0    0 -0.00000000000E+00 -0.00000000000E+00 -0.45593999997E+02  0.45594000000E+02  0.51100000000E-03 0. -1.
    9900012    2    1    2    0    0 -0.93628477295E+00 -0.50109301993E+00  0.51516583312E+00  0.90007695282E+02  0.89999956060E+02 0.  0.
        -12    1    1    2    0    0  0.93628477295E+00  0.50109301993E+00 -0.51516583312E+00  0.11803047176E+01  0.00000000000E+00 0.  1.
         11    1    3    3    0    0  0.10064174213E+02 -0.61515966419E+01 -0.38015126310E+02  0.39803009590E+02  0.51100000000E-03 0. -1.
        -11    1    3    3    0    0  0.64355999363E+01 -0.64910683202E+01  0.47580973139E+01  0.10304872866E+02  0.51100000000E-03 0.  1.
        -12    1    3    3    0    0 -0.17436058923E+02  0.12141571942E+02  0.33772194829E+02  0.39899812826E+02  0.00000000000E+00 0.  1.
</event>
<event>
 7    1  0.2542335E-015  0.9000768E+02  0.7816164E-02  0.1186339E+00
        -11   -1    0    0    0    0  0.00000000000E+00  0.00000000000E+00  0.45593999997E+02  0.45594000000E+02  0.51100000000E-03 0. -1.
         11   -1    0    0    0    0 -0.00000000000E+00 -0.00000000000E+00 -0.45593999997E+02  0.45594000000E+02  0.51100000000E-03 0.  1.
    9900012    2    1    2    0    0 -0.35376033466E-01 -0.11711904782E+01  0.14216339913E+00  0.90007682656E+02  0.89999943267E+02 0.  0.
        -12    1    1    2    0    0  0.35376033466E-01  0.11711904782E+01 -0.14216339913E+00  0.11803173438E+01  0.00000000000E+00 0.  1.
         11    1    3    3    0    0 -0.10951967244E+02  0.73796407898E+01  0.37967558895E+02  0.40198758854E+02  0.51100000000E-03 0. -1.
        -11    1    3    3    0    0  0.10070752654E+02  0.45837535524E+01 -0.14919115591E+01  0.11164974519E+02  0.51100000000E-03 0.  1.
        -12    1    3    3    0    0  0.84583855602E+00 -0.13134584820E+02 -0.36333483936E+02  0.38643949284E+02  0.00000000000E+00 0.  1.
</event>
<event>
 7    1  0.2542335E-015  0.9000773E+02  0.7816164E-02  0.1186339E+00
        -11   -1    0    0    0    0  0.00000000000E+00  0.00000000000E+00  0.45593999997E+02  0.45594000000E+02  0.51100000000E-03 0. -1.
         11   -1    0    0    0    0 -0.00000000000E+00 -0.00000000000E+00 -0.45593999997E+02  0.45594000000E+02  0.51100000000E-03 0.  1.
    9900012    2    1    2    0    0  0.63561039100E+00  0.69065998594E+00  0.71556624988E+00  0.90007725946E+02  0.89999987128E+02 0.  0.
        -12    1    1    2    0    0 -0.63561039100E+00 -0.69065998594E+00 -0.71556624988E+00  0.11802740543E+01  0.00000000000E+00 0.  1.
         11    1    3    3    0    0  0.87677111822E+01  0.95396285942E+00  0.40193414919E+02  0.41149646507E+02  0.51100000000E-03 0. -1.
        -11    1    3    3    0    0  0.73054443784E+01  0.69936839554E+01 -0.74168458552E+01  0.12541560331E+02  0.51100000000E-03 0.  1.
        -12    1    3    3    0    0 -0.15437545170E+02 -0.72569868289E+01 -0.32061002814E+02  0.36316519108E+02  0.00000000000E+00 0.  1.
</event>
<event>
 7    1  0.2542335E-015  0.9000774E+02  0.7816164E-02  0.1186339E+00
        -11   -1    0    0    0    0  0.00000000000E+00  0.00000000000E+00  0.45593999997E+02  0.45594000000E+02  0.51100000000E-03 0.  1.
         11   -1    0    0    0    0 -0.00000000000E+00 -0.00000000000E+00 -0.45593999997E+02  0.45594000000E+02  0.51100000000E-03 0. -1.
    9900012    2    1    2    0    0  0.43704575942E-01 -0.11288644178E+01  0.34172240445E+00  0.90007737671E+02  0.89999999008E+02 0.  0.
        -12    1    1    2    0    0 -0.43704575942E-01  0.11288644178E+01 -0.34172240445E+00  0.11802623291E+01  0.00000000000E+00 0.  1.
         11    1    3    3    0    0  0.25097963291E+01  0.67023511511E+01 -0.24458481472E+01  0.75632507552E+01  0.51100000000E-03 0. -1.
        -11    1    3    3    0    0 -0.34901353206E+02 -0.23724777507E+01  0.24787579078E+02  0.42873735353E+02  0.51100000000E-03 0.  1.
         12    1    3    3    0    0  0.32435261453E+02 -0.54587378182E+01 -0.22000008527E+02  0.39570751563E+02  0.00000000000E+00 0. -1.
</event>
<event>
 7    1  0.2542335E-015  0.9000772E+02  0.7816164E-02  0.1186339E+00
        -11   -1    0    0    0    0  0.00000000000E+00  0.00000000000E+00  0.45593999997E+02  0.45594000000E+02  0.51100000000E-03 0.  1.
         11   -1    0    0    0    0 -0.00000000000E+00 -0.00000000000E+00 -0.45593999997E+02  0.45594000000E+02  0.51100000000E-03 0. -1.
    9900012    2    1    2    0    0 -0.36779097190E+00  0.33974400195E+00 -0.10688111571E+01  0.90007723136E+02  0.89999984281E+02 0.  0.
        -12    1    1    2    0    0  0.36779097190E+00 -0.33974400195E+00  0.10688111571E+01  0.11802768639E+01  0.00000000000E+00 0.  1.
         11    1    3    3    0    0 -0.35646150842E+02  0.86289282520E+01 -0.14941767035E+02  0.39602561470E+02  0.51100000000E-03 0. -1.
        -11    1    3    3    0    0 -0.44099742852E+01  0.14560073830E+01  0.78158095606E+01  0.90914635810E+01  0.51100000000E-03 0.  1.
        -12    1    3    3    0    0  0.39688334155E+02 -0.97451916330E+01  0.60571463170E+01  0.41313698085E+02  0.00000000000E+00 0.  1.
</event>
<event>
 7    1  0.2542335E-015  0.9000779E+02  0.7816164E-02  0.1186339E+00
        -11   -1    0    0    0    0  0.00000000000E+00  0.00000000000E+00  0.45593999997E+02  0.45594000000E+02  0.51100000000E-03 0.  1.
         11   -1    0    0    0    0 -0.00000000000E+00 -0.00000000000E+00 -0.45593999997E+02  0.45594000000E+02  0.51100000000E-03 0. -1.
    9900012    2    1    2    0    0  0.43831309988E+00  0.78964683003E+00 -0.75976466330E+00  0.90007786954E+02  0.90000048942E+02 0.  0.
        -12    1    1    2    0    0 -0.43831309988E+00 -0.78964683003E+00  0.75976466330E+00  0.11802130457E+01  0.00000000000E+00 0.  1.
         11    1    3    3    0    0 -0.81693896012E+01 -0.18699637273E+01  0.48658095715E+01  0.96908097621E+01  0.51100000000E-03 0. -1.
        -11    1    3    3    0    0 -0.27265733415E+02  0.24783801664E+02  0.40655124402E+01  0.37070007219E+02  0.51100000000E-03 0.  1.
         12    1    3    3    0    0  0.35873436116E+02 -0.22124191107E+02 -0.96910866750E+01  0.43246969973E+02  0.00000000000E+00 0. -1.
</event>
<event>
 7    1  0.4327741E-015  0.9000711E+02  0.7816164E-02  0.1186340E+00
        -11   -1    0    0    0    0  0.00000000000E+00  0.00000000000E+00  0.45593999997E+02  0.45594000000E+02  0.51100000000E-03 0. -1.
         11   -1    0    0    0    0 -0.00000000000E+00 -0.00000000000E+00 -0.45593999997E+02  0.45594000000E+02  0.51100000000E-03 0.  1.
    9900012    2    1    2    0    0 -0.86191343904E+00 -0.18933916026E-01  0.80699525342E+00  0.90007112788E+02  0.89999365874E+02 0.  0.
        -12    1    1    2    0    0  0.86191343904E+00  0.18933916026E-01 -0.80699525342E+00  0.11808872125E+01  0.00000000000E+00 0.  1.
         11    1    3    3    0    0 -0.51483885739E+01 -0.37415064993E+01 -0.68280880887E+01  0.93342146429E+01  0.51100000000E-03 0. -1.
        -11    1    3    3    0    0  0.10345562732E+02  0.64266842260E+01 -0.35241130724E+02  0.37286327700E+02  0.51100000000E-03 0.  1.
         12    1    3    3    0    0 -0.60590875972E+01 -0.27041116427E+01  0.42876214066E+02  0.43386570445E+02  0.00000000000E+00 0. -1.
</event>
<event>
 7    1  0.2542335E-015  0.9000779E+02  0.7816164E-02  0.1186339E+00
        -11   -1    0    0    0    0  0.00000000000E+00  0.00000000000E+00  0.45593999997E+02  0.45594000000E+02  0.51100000000E-03 0. -1.
         11   -1    0    0    0    0 -0.00000000000E+00 -0.00000000000E+00 -0.45593999997E+02  0.45594000000E+02  0.51100000000E-03 0.  1.
    9900012    2    1    2    0    0 -0.88280970411E-01  0.81978762183E+00  0.84442477129E+00  0.90007788803E+02  0.90000050815E+02 0.  0.
        -12    1    1    2    0    0  0.88280970411E-01 -0.81978762183E+00 -0.84442477129E+00  0.11802111968E+01  0.00000000000E+00 0.  1.
         11    1    3    3    0    0  0.10736466810E+01 -0.45001025380E+01  0.67518106354E+01  0.81847777713E+01  0.51100000000E-03 0. -1.
        -11    1    3    3    0    0  0.36470267428E+02 -0.87811590884E+01 -0.15365838100E+02  0.40537613915E+02  0.51100000000E-03 0.  1.
         12    1    3    3    0    0 -0.37632195079E+02  0.14101049248E+02  0.94584522359E+01  0.41285397117E+02  0.00000000000E+00 0. -1.
</event>
<event>
 7    1  0.2542335E-015  0.9000766E+02  0.7816164E-02  0.1186339E+00
        -11   -1    0    0    0    0  0.00000000000E+00  0.00000000000E+00  0.45593999997E+02  0.45594000000E+02  0.51100000000E-03 0.  1.
         11   -1    0    0    0    0 -0.00000000000E+00 -0.00000000000E+00 -0.45593999997E+02  0.45594000000E+02  0.51100000000E-03 0. -1.
    9900012    2    1    2    0    0 -0.14502859849E+00  0.10846751880E+01 -0.44233512459E+00  0.90007655169E+02  0.89999915417E+02 0.  0.
        -12    1    1    2    0    0  0.14502859849E+00 -0.10846751880E+01  0.44233512459E+00  0.11803448311E+01  0.00000000000E+00 0.  1.
         11    1    3    3    0    0 -0.66204679861E+01 -0.16026640675E+01  0.66556339550E+01  0.95234758398E+01  0.51100000000E-03 0. -1.
        -11    1    3    3    0    0 -0.30899474978E+02  0.19865794584E+02 -0.12920180460E+02  0.38940446990E+02  0.51100000000E-03 0.  1.
         12    1    3    3    0    0  0.37374914366E+02 -0.17178455329E+02  0.58222113805E+01  0.41543732339E+02  0.00000000000E+00 0. -1.
</event>
<event>
 7    1  0.2576831E-015  0.9000769E+02  0.7816164E-02  0.1186339E+00
        -11   -1    0    0    0    0  0.00000000000E+00  0.00000000000E+00  0.45593999997E+02  0.45594000000E+02  0.51100000000E-03 0.  1.
         11   -1    0    0    0    0 -0.00000000000E+00 -0.00000000000E+00 -0.45593999997E+02  0.45594000000E+02  0.51100000000E-03 0. -1.
    9900012    2    1    2    0    0 -0.70278438993E+00 -0.94377612440E+00  0.92270161369E-01  0.90007689425E+02  0.89999950125E+02 0.  0.
        -12    1    1    2    0    0  0.70278438993E+00  0.94377612440E+00 -0.92270161369E-01  0.11803105754E+01  0.00000000000E+00 0.  1.
         11    1    3    3    0    0 -0.92568558737E+01 -0.25950220903E+01  0.30563528951E+01  0.10087854757E+02  0.51100000000E-03 0. -1.
        -11    1    3    3    0    0 -0.23537528930E+02  0.21266912102E+02 -0.21165970456E+02  0.38135221569E+02  0.51100000000E-03 0.  1.
         12    1    3    3    0    0  0.32091600414E+02 -0.19615666137E+02  0.18201887723E+02  0.41784613098E+02  0.00000000000E+00 0. -1.
</event>
<event>
 7    1  0.2542335E-015  0.9000728E+02  0.7816164E-02  0.1186340E+00
        -11   -1    0    0    0    0  0.00000000000E+00  0.00000000000E+00  0.45593999997E+02  0.45594000000E+02  0.51100000000E-03 0. -1.
         11   -1    0    0    0    0 -0.00000000000E+00 -0.00000000000E+00 -0.45593999997E+02  0.45594000000E+02  0.51100000000E-03 0.  1.
    9900012    2    1    2    0    0  0.46954278924E+00  0.10792552446E+01 -0.93973571151E-01  0.90007282699E+02  0.89999538029E+02 0.  0.
        -12    1    1    2    0    0 -0.46954278924E+00 -0.10792552446E+01  0.93973571151E-01  0.11807173015E+01  0.00000000000E+00 0.  1.
         11    1    3    3    0    0 -0.13102676581E+02  0.18916326265E+02  0.22692382232E+02  0.32317978659E+02  0.51100000000E-03 0. -1.
        -11    1    3    3    0    0 -0.33228412885E+01  0.11234836032E+02  0.62356568195E+01  0.13272009310E+02  0.51100000000E-03 0.  1.
         12    1    3    3    0    0  0.16895060659E+02 -0.29071907053E+02 -0.29022012623E+02  0.44417294729E+02  0.00000000000E+00 0. -1.
</event>
<event>
 7    1  0.2542335E-015  0.9000770E+02  0.7816164E-02  0.1186339E+00
        -11   -1    0    0    0    0  0.00000000000E+00  0.00000000000E+00  0.45593999997E+02  0.45594000000E+02  0.51100000000E-03 0. -1.
         11   -1    0    0    0    0 -0.00000000000E+00 -0.00000000000E+00 -0.45593999997E+02  0.45594000000E+02  0.51100000000E-03 0.  1.
    9900012    2    1    2    0    0  0.60317776195E+00 -0.38693096855E+00  0.93784742881E+00  0.90007704788E+02  0.89999965692E+02 0.  0.
        -12    1    1    2    0    0 -0.60317776195E+00  0.38693096855E+00 -0.93784742881E+00  0.11802952117E+01  0.00000000000E+00 0.  1.
         11    1    3    3    0    0  0.12335193042E+02  0.37820107742E+02  0.13631278103E+02  0.42051507464E+02  0.51100000000E-03 0. -1.
        -11    1    3    3    0    0 -0.11060335880E+02 -0.67494200511E+01  0.22035043960E+01  0.13143102096E+02  0.51100000000E-03 0.  1.
        -12    1    3    3    0    0 -0.67167939980E+00 -0.31457618659E+02 -0.14896935071E+02  0.34813095229E+02  0.00000000000E+00 0.  1.
</event>
<event>
 7    1  0.2542335E-015  0.9000780E+02  0.7816164E-02  0.1186339E+00
        -11   -1    0    0    0    0  0.00000000000E+00  0.00000000000E+00  0.45593999997E+02  0.45594000000E+02  0.51100000000E-03 0.  1.
         11   -1    0    0    0    0 -0.00000000000E+00 -0.00000000000E+00 -0.45593999997E+02  0.45594000000E+02  0.51100000000E-03 0. -1.
    9900012    2    1    2    0    0 -0.16536300508E+00 -0.99459825165E+00 -0.61344187993E+00  0.90007795973E+02  0.90000058080E+02 0.  0.
        -12    1    1    2    0    0  0.16536300508E+00  0.99459825165E+00  0.61344187993E+00  0.11802040271E+01  0.00000000000E+00 0.  1.
         11    1    3    3    0    0  0.37831361101E+01 -0.40893534427E+01  0.56852194851E+01  0.79596891435E+01  0.51100000000E-03 0. -1.
        -11    1    3    3    0    0  0.24061728629E+02 -0.23538597815E+02  0.16167555723E+02  0.37341963393E+02  0.51100000000E-03 0.  1.
         12    1    3    3    0    0 -0.28010227745E+02  0.26633353006E+02 -0.22466217088E+02  0.44706143436E+02  0.00000000000E+00 0. -1.
</event>
<event>
 7    1  0.2542335E-015  0.9000772E+02  0.7816164E-02  0.1186339E+00
        -11   -1    0    0    0    0  0.00000000000E+00  0.00000000000E+00  0.45593999997E+02  0.45594000000E+02  0.51100000000E-03 0.  1.
         11   -1    0    0    0    0 -0.00000000000E+00 -0.00000000000E+00 -0.45593999997E+02  0.45594000000E+02  0.51100000000E-03 0. -1.
    9900012    2    1    2    0    0 -0.19512437159E+00  0.11074415556E+01 -0.35854450302E+00  0.90007722710E+02  0.89999983850E+02 0.  0.
        -12    1    1    2    0    0  0.19512437159E+00 -0.11074415556E+01  0.35854450302E+00  0.11802772895E+01  0.00000000000E+00 0.  1.
         11    1    3    3    0    0 -0.73511530203E+01 -0.74847412560E+01 -0.66452078170E+01  0.12418518011E+02  0.51100000000E-03 0. -1.
        -11    1    3    3    0    0 -0.19041104776E+02 -0.25811064215E+02  0.11412608545E+02  0.34044417179E+02  0.51100000000E-03 0.  1.
         12    1    3    3    0    0  0.26197133425E+02  0.34403247027E+02 -0.51259452312E+01  0.43544787520E+02  0.00000000000E+00 0. -1.
</event>
<event>
 7    1  0.2715383E-015  0.9000773E+02  0.7816164E-02  0.1186339E+00
        -11   -1    0    0    0    0  0.00000000000E+00  0.00000000000E+00  0.45593999997E+02  0.45594000000E+02  0.51100000000E-03 0. -1.
         11   -1    0    0    0    0 -0.00000000000E+00 -0.00000000000E+00 -0.45593999997E+02  0.45594000000E+02  0.51100000000E-03 0.  1.
    9900012    2    1    2    0    0 -0.10724765487E+01 -0.43917639434E+00 -0.22350928668E+00  0.90007729584E+02  0.89999990815E+02 0.  0.
        -12    1    1    2    0    0  0.10724765487E+01  0.43917639434E+00  0.22350928668E+00  0.11802704157E+01  0.00000000000E+00 0.  1.
         11    1    3    3    0    0 -0.71483385954E+01  0.21676498591E+01  0.69889164634E+01  0.10229486995E+02  0.51100000000E-03 0. -1.
        -11    1    3    3    0    0 -0.28006217063E+02 -0.10909035389E+02  0.19377366557E+02  0.35760838668E+02  0.51100000000E-03 0.  1.
         12    1    3    3    0    0  0.34082079110E+02  0.83022091355E+01 -0.26589792307E+02  0.44017403921E+02  0.00000000000E+00 0. -1.
</event>
<event>
 7    1  0.2542335E-015  0.9000773E+02  0.7816164E-02  0.1186339E+00
        -11   -1    0    0    0    0  0.00000000000E+00  0.00000000000E+00  0.45593999997E+02  0.45594000000E+02  0.51100000000E-03 0.  1.
         11   -1    0    0    0    0 -0.00000000000E+00 -0.00000000000E+00 -0.45593999997E+02  0.45594000000E+02  0.51100000000E-03 0. -1.
    9900012    2    1    2    0    0 -0.16941635391E+00 -0.10900502461E+01 -0.41968726633E+00  0.90007725099E+02  0.89999986270E+02 0.  0.
        -12    1    1    2    0    0  0.16941635391E+00  0.10900502461E+01  0.41968726633E+00  0.11802749008E+01  0.00000000000E+00 0.  1.
         11    1    3    3    0    0 -0.31448365725E+01 -0.12683572343E+02 -0.21519739227E+01  0.13243639850E+02  0.51100000000E-03 0. -1.
        -11    1    3    3    0    0  0.25353381209E+02 -0.82156542538E+00 -0.27835151526E+02  0.37659853548E+02  0.51100000000E-03 0.  1.
         12    1    3    3    0    0 -0.22377960990E+02  0.12415087523E+02  0.29567438183E+02  0.39104231702E+02  0.00000000000E+00 0. -1.
</event>
<event>
 7    1  0.2542335E-015  0.9000753E+02  0.7816164E-02  0.1186339E+00
        -11   -1    0    0    0    0  0.00000000000E+00  0.00000000000E+00  0.45593999997E+02  0.45594000000E+02  0.51100000000E-03 0. -1.
         11   -1    0    0    0    0 -0.00000000000E+00 -0.00000000000E+00 -0.45593999997E+02  0.45594000000E+02  0.51100000000E-03 0.  1.
    9900012    2    1    2    0    0 -0.88090328402E+00 -0.30676812987E+00  0.72346418381E+00  0.90007534962E+02  0.89999793623E+02 0.  0.
        -12    1    1    2    0    0  0.88090328402E+00  0.30676812987E+00 -0.72346418381E+00  0.11804650383E+01  0.00000000000E+00 0.  1.
         11    1    3    3    0    0 -0.23240466165E+01 -0.33011302967E+02 -0.20536726835E+02  0.38947457755E+02  0.51100000000E-03 0. -1.
        -11    1    3    3    0    0 -0.71745760085E+01 -0.42435340958E+01  0.54424553427E+01  0.99550209916E+01  0.51100000000E-03 0.  1.
        -12    1    3    3    0    0  0.86177193410E+01  0.36948068933E+02  0.15817735676E+02  0.41105056215E+02  0.00000000000E+00 0.  1.
</event>
<event>
 7    1  0.2542335E-015  0.9000774E+02  0.7816164E-02  0.1186339E+00
        -11   -1    0    0    0    0  0.00000000000E+00  0.00000000000E+00  0.45593999997E+02  0.45594000000E+02  0.51100000000E-03 0. -1.
         11   -1    0    0    0    0 -0.00000000000E+00 -0.00000000000E+00 -0.45593999997E+02  0.45594000000E+02  0.51100000000E-03 0.  1.
    9900012    2    1    2    0    0  0.34434865383E+00 -0.77597839150E+00  0.81993980747E+00  0.90007737424E+02  0.89999998758E+02 0.  0.
        -12    1    1    2    0    0 -0.34434865383E+00  0.77597839150E+00 -0.81993980747E+00  0.11802625756E+01  0.00000000000E+00 0.  1.
         11    1    3    3    0    0 -0.53464577896E+01 -0.63316673126E+01 -0.11757435062E+01  0.83700056695E+01  0.51100000000E-03 0. -1.
        -11    1    3    3    0    0 -0.25731750771E+02 -0.25612793391E+02 -0.55883256194E+01  0.36733738803E+02  0.51100000000E-03 0.  1.
         12    1    3    3    0    0  0.31422557214E+02  0.31168482312E+02  0.75840089331E+01  0.44903992951E+02  0.00000000000E+00 0. -1.
</event>
<event>
 7    1  0.2542335E-015  0.9000768E+02  0.7816164E-02  0.1186339E+00
        -11   -1    0    0    0    0  0.00000000000E+00  0.00000000000E+00  0.45593999997E+02  0.45594000000E+02  0.51100000000E-03 0.  1.
         11   -1    0    0    0    0 -0.00000000000E+00 -0.00000000000E+00 -0.45593999997E+02  0.45594000000E+02  0.51100000000E-03 0. -1.
    9900012    2    1    2    0    0 -0.59270176007E+00 -0.61630352868E+00 -0.81364766759E+00  0.90007683118E+02  0.89999943735E+02 0.  0.
        -12    1    1    2    0    0  0.59270176007E+00  0.61630352868E+00  0.81364766759E+00  0.11803168824E+01  0.00000000000E+00 0.  1.
         11    1    3    3    0    0  0.29630486457E+02  0.18054097535E+02 -0.11490728168E+02  0.36550690822E+02  0.51100000000E-03 0. -1.
        -11    1    3    3    0    0  0.42379562708E+01  0.75716402375E+01 -0.60022158970E+00  0.86977166807E+01  0.51100000000E-03 0.  1.
        -12    1    3    3    0    0 -0.34461144488E+02 -0.26242041302E+02  0.11277302090E+02  0.44759275614E+02  0.00000000000E+00 0.  1.
</event>
<event>
 7    1  0.2542335E-015  0.9000776E+02  0.7816164E-02  0.1186339E+00
        -11   -1    0    0    0    0  0.00000000000E+00  0.00000000000E+00  0.45593999997E+02  0.45594000000E+02  0.51100000000E-03 0.  1.
         11   -1    0    0    0    0 -0.00000000000E+00 -0.00000000000E+00 -0.45593999997E+02  0.45594000000E+02  0.51100000000E-03 0. -1.
    9900012    2    1    2    0    0 -0.41611695044E+00  0.51625654323E+00 -0.97636426275E+00  0.90007762181E+02  0.90000023842E+02 0.  0.
        -12    1    1    2    0    0  0.41611695044E+00 -0.51625654323E+00  0.97636426275E+00  0.11802378186E+01  0.00000000000E+00 0.  1.
         11    1    3    3    0    0 -0.32788784583E+02  0.14250272196E+02 -0.37806316243E+01  0.35950908581E+02  0.51100000000E-03 0. -1.
        -11    1    3    3    0    0  0.25757491226E-02  0.12370997873E+02  0.13793734179E+01  0.12447661077E+02  0.51100000000E-03 0.  1.
        -12    1    3    3    0    0  0.32370091883E+02 -0.26105013526E+02  0.14248939437E+01  0.41609192523E+02  0.00000000000E+00 0.  1.
</event>
<event>
 7    1  0.2542335E-015  0.9000774E+02  0.7816164E-02  0.1186339E+00
        -11   -1    0    0    0    0  0.00000000000E+00  0.00000000000E+00  0.45593999997E+02  0.45594000000E+02  0.51100000000E-03 0. -1.
         11   -1    0    0    0    0 -0.00000000000E+00 -0.00000000000E+00 -0.45593999997E+02  0.45594000000E+02  0.51100000000E-03 0.  1.
    9900012    2    1    2    0    0 -0.88079766321E+00  0.61729126053E+00  0.48595887547E+00  0.90007741955E+02  0.90000003349E+02 0.  0.
        -12    1    1    2    0    0  0.88079766321E+00 -0.61729126053E+00 -0.48595887547E+00  0.11802580449E+01  0.00000000000E+00 0.  1.
         11    1    3    3    0    0 -0.74363286209E+01 -0.50058014829E+01 -0.21716343688E+01  0.92235041030E+01  0.51100000000E-03 0. -1.
        -11    1    3    3    0    0  0.14172892362E+02 -0.32820597944E+02 -0.13742087202E+02  0.38300228305E+02  0.51100000000E-03 0.  1.
         12    1    3    3    0    0 -0.76173614043E+01  0.38443690688E+02  0.16399680446E+02  0.42484009547E+02  0.00000000000E+00 0. -1.
</event>
<event>
 7    1  0.2542335E-015  0.9000724E+02  0.7816164E-02  0.1186340E+00
        -11   -1    0    0    0    0  0.00000000000E+00  0.00000000000E+00  0.45593999997E+02  0.45594000000E+02  0.51100000000E-03 0.  1.
         11   -1    0    0    0    0 -0.00000000000E+00 -0.00000000000E+00 -0.45593999997E+02  0.45594000000E+02  0.51100000000E-03 0. -1.
    9900012    2    1    2    0    0  0.85845083268E+00 -0.66311053706E+00 -0.46640922659E+00  0.90007241353E+02  0.89999496137E+02 0.  0.
        -12    1    1    2    0    0 -0.85845083268E+00  0.66311053706E+00  0.46640922659E+00  0.11807586473E+01  0.00000000000E+00 0.  1.
         11    1    3    3    0    0 -0.20241219309E+01 -0.69336554260E+01 -0.15139024023E+01  0.73800100205E+01  0.51100000000E-03 0. -1.
        -11    1    3    3    0    0 -0.11208665962E+02 -0.13413213870E+02  0.36052805057E+02  0.40066859769E+02  0.51100000000E-03 0.  1.
         12    1    3    3    0    0  0.14091238725E+02  0.19683758759E+02 -0.35005311882E+02  0.42560371564E+02  0.00000000000E+00 0. -1.
</event>
<event>
 7    1  0.2542335E-015  0.9000771E+02  0.7816164E-02  0.1186339E+00
        -11   -1    0    0    0    0  0.00000000000E+00  0.00000000000E+00  0.45593999997E+02  0.45594000000E+02  0.51100000000E-03 0.  1.
         11   -1    0    0    0    0 -0.00000000000E+00 -0.00000000000E+00 -0.45593999997E+02  0.45594000000E+02  0.51100000000E-03 0. -1.
    9900012    2    1    2    0    0 -0.35485229930E+00 -0.15826216071E+00 -0.11145038247E+01  0.90007709425E+02  0.89999970390E+02 0.  0.
        -12    1    1    2    0    0  0.35485229930E+00  0.15826216071E+00  0.11145038247E+01  0.11802905749E+01  0.00000000000E+00 0.  1.
         11    1    3    3    0    0 -0.19664026180E+02  0.52136834284E+00 -0.26685067680E+02  0.33151750903E+02  0.51100000000E-03 0. -1.
        -11    1    3    3    0    0 -0.37784564406E+01 -0.81288360355E+01 -0.10235244785E+02  0.13605695294E+02  0.51100000000E-03 0.  1.
        -12    1    3    3    0    0  0.23087630322E+02  0.74492055320E+01  0.35805808640E+02  0.43250263228E+02  0.00000000000E+00 0.  1.
</event>
<event>
 7    1  0.2542335E-015  0.9000777E+02  0.7816164E-02  0.1186339E+00
        -11   -1    0    0    0    0  0.00000000000E+00  0.00000000000E+00  0.45593999997E+02  0.45594000000E+02  0.51100000000E-03 0.  1.
         11   -1    0    0    0    0 -0.00000000000E+00 -0.00000000000E+00 -0.45593999997E+02  0.45594000000E+02  0.51100000000E-03 0. -1.
    9900012    2    1    2    0    0  0.35483722697E+00  0.16118708043E+00 -0.11140272468E+01  0.90007768057E+02  0.90000029795E+02 0.  0.
        -12    1    1    2    0    0 -0.35483722697E+00 -0.16118708043E+00  0.11140272468E+01  0.11802319429E+01  0.00000000000E+00 0.  1.
         11    1    3    3    0    0  0.24964009860E+01  0.43309557411E+01 -0.92557111916E+01  0.10519381419E+02  0.51100000000E-03 0. -1.
        -11    1    3    3    0    0  0.35511131869E+02  0.11327996023E+02  0.10432497111E+02  0.38706601204E+02  0.51100000000E-03 0.  1.
         12    1    3    3    0    0 -0.37652695628E+02 -0.15497764684E+02 -0.22908131659E+01  0.40781785434E+02  0.00000000000E+00 0. -1.
</event>
<event>
 7    1  0.2542335E-015  0.9000776E+02  0.7816164E-02  0.1186339E+00
        -11   -1    0    0    0    0  0.00000000000E+00  0.00000000000E+00  0.45593999997E+02  0.45594000000E+02  0.51100000000E-03 0.  1.
         11   -1    0    0    0    0 -0.00000000000E+00 -0.00000000000E+00 -0.45593999997E+02  0.45594000000E+02  0.51100000000E-03 0. -1.
    9900012    2    1    2    0    0 -0.46097802708E+00 -0.87430083115E+00  0.64503154752E+00  0.90007759185E+02  0.90000020806E+02 0.  0.
        -12    1    1    2    0    0  0.46097802708E+00  0.87430083115E+00 -0.64503154752E+00  0.11802408153E+01  0.00000000000E+00 0.  1.
         11    1    3    3    0    0 -0.14214832062E+01  0.11332876948E+01 -0.35696684862E+02  0.35742947079E+02  0.51100000000E-03 0. -1.
        -11    1    3    3    0    0 -0.11380835051E+01  0.10376043881E+01 -0.88192298328E+01  0.89526907707E+01  0.51100000000E-03 0.  1.
        -12    1    3    3    0    0  0.20985886842E+01 -0.30451929140E+01  0.45160946242E+02  0.45312121335E+02  0.00000000000E+00 0.  1.
</event>
<event>
 7    1  0.2542335E-015  0.9000780E+02  0.7816164E-02  0.1186339E+00
        -11   -1    0    0    0    0  0.00000000000E+00  0.00000000000E+00  0.45593999997E+02  0.45594000000E+02  0.51100000000E-03 0.  1.
         11   -1    0    0    0    0 -0.00000000000E+00 -0.00000000000E+00 -0.45593999997E+02  0.45594000000E+02  0.51100000000E-03 0. -1.
    9900012    2    1    2    0    0  0.14186955749E+00 -0.89822517157E-01 -0.11681888595E+01  0.90007804988E+02  0.90000067213E+02 0.  0.
        -12    1    1    2    0    0 -0.14186955749E+00  0.89822517157E-01  0.11681888595E+01  0.11801950124E+01  0.00000000000E+00 0.  1.
         11    1    3    3    0    0 -0.94546777898E+01 -0.13462408569E+02 -0.37541125458E+01  0.16873669958E+02  0.51100000000E-03 0. -1.
        -11    1    3    3    0    0 -0.14090899501E+02 -0.24292099613E+02  0.52119099822E+01  0.28562625200E+02  0.51100000000E-03 0.  1.
         12    1    3    3    0    0  0.23687446849E+02  0.37664685665E+02 -0.26259862959E+01  0.44571509830E+02  0.00000000000E+00 0. -1.
</event>
<event>
 7    1  0.2542335E-015  0.9000783E+02  0.7816164E-02  0.1186339E+00
        -11   -1    0    0    0    0  0.00000000000E+00  0.00000000000E+00  0.45593999997E+02  0.45594000000E+02  0.51100000000E-03 0. -1.
         11   -1    0    0    0    0 -0.00000000000E+00 -0.00000000000E+00 -0.45593999997E+02  0.45594000000E+02  0.51100000000E-03 0.  1.
    9900012    2    1    2    0    0  0.36956608416E+00 -0.27989582322E+00  0.10852991273E+01  0.90007832657E+02  0.90000095248E+02 0.  0.
        -12    1    1    2    0    0 -0.36956608416E+00  0.27989582322E+00 -0.10852991273E+01  0.11801673432E+01  0.00000000000E+00 0.  1.
         11    1    3    3    0    0  0.20560750712E+02 -0.12141579005E+02  0.24703680465E+02  0.34357448091E+02  0.51100000000E-03 0. -1.
        -11    1    3    3    0    0  0.12548692349E+02 -0.21303084971E+01  0.34481821103E+00  0.12732902018E+02  0.51100000000E-03 0.  1.
        -12    1    3    3    0    0 -0.32739876976E+02  0.13991991679E+02 -0.23963199549E+02  0.42917482547E+02  0.00000000000E+00 0.  1.
</event>
<event>
 7    1  0.2542335E-015  0.9000774E+02  0.7816164E-02  0.1186339E+00
        -11   -1    0    0    0    0  0.00000000000E+00  0.00000000000E+00  0.45593999997E+02  0.45594000000E+02  0.51100000000E-03 0. -1.
         11   -1    0    0    0    0 -0.00000000000E+00 -0.00000000000E+00 -0.45593999997E+02  0.45594000000E+02  0.51100000000E-03 0.  1.
    9900012    2    1    2    0    0  0.84144264979E-01 -0.11764036018E+01 -0.44823405159E-01  0.90007739508E+02  0.90000000869E+02 0.  0.
        -12    1    1    2    0    0 -0.84144264979E-01  0.11764036018E+01  0.44823405159E-01  0.11802604922E+01  0.00000000000E+00 0.  1.
         11    1    3    3    0    0  0.20634715651E+02 -0.15253186614E+02  0.36369805051E+02  0.44510829150E+02  0.51100000000E-03 0. -1.
        -11    1    3    3    0    0 -0.37494100808E+01 -0.17462984946E+01 -0.66749986150E+01  0.78525945495E+01  0.51100000000E-03 0.  1.
        -12    1    3    3    0    0 -0.16801161306E+02  0.15823081507E+02 -0.29739629841E+02  0.37644315808E+02  0.00000000000E+00 0.  1.
</event>
<event>
 7    1  0.2542335E-015  0.9000767E+02  0.7816164E-02  0.1186339E+00
        -11   -1    0    0    0    0  0.00000000000E+00  0.00000000000E+00  0.45593999997E+02  0.45594000000E+02  0.51100000000E-03 0.  1.
         11   -1    0    0    0    0 -0.00000000000E+00 -0.00000000000E+00 -0.45593999997E+02  0.45594000000E+02  0.51100000000E-03 0. -1.
    9900012    2    1    2    0    0 -0.99259616147E+00 -0.62134635810E+00 -0.14783276328E+00  0.90007672519E+02  0.89999932996E+02 0.  0.
        -12    1    1    2    0    0  0.99259616147E+00  0.62134635810E+00  0.14783276328E+00  0.11803274810E+01  0.00000000000E+00 0.  1.
         11    1    3    3    0    0 -0.10189846719E+02  0.74998812040E+01 -0.52395921612E+00  0.12663164208E+02  0.51100000000E-03 0. -1.
        -11    1    3    3    0    0  0.14581284390E+02  0.31800158545E+02  0.90565898263E+01  0.36137041349E+02  0.51100000000E-03 0.  1.
         12    1    3    3    0    0 -0.53840338321E+01 -0.39921386107E+02 -0.86804633734E+01  0.41207466962E+02  0.00000000000E+00 0. -1.
</event>
<event>
 7    1  0.2542335E-015  0.9000762E+02  0.7816164E-02  0.1186339E+00
        -11   -1    0    0    0    0  0.00000000000E+00  0.00000000000E+00  0.45593999997E+02  0.45594000000E+02  0.51100000000E-03 0. -1.
         11   -1    0    0    0    0 -0.00000000000E+00 -0.00000000000E+00 -0.45593999997E+02  0.45594000000E+02  0.51100000000E-03 0.  1.
    9900012    2    1    2    0    0 -0.50507280554E+00  0.78201861724E+00  0.72571105709E+00  0.90007615234E+02  0.89999874955E+02 0.  0.
        -12    1    1    2    0    0  0.50507280554E+00 -0.78201861724E+00 -0.72571105709E+00  0.11803847657E+01  0.00000000000E+00 0.  1.
         11    1    3    3    0    0  0.24083159740E+02  0.87472531475E+01  0.27002537570E+02  0.37224320762E+02  0.51100000000E-03 0. -1.
        -11    1    3    3    0    0  0.16254095209E+01 -0.22905127645E+01  0.84502275868E+01  0.89047600397E+01  0.51100000000E-03 0.  1.
        -12    1    3    3    0    0 -0.26213642066E+02 -0.56747217657E+01 -0.34727054100E+02  0.43878534433E+02  0.00000000000E+00 0.  1.
</event>
<event>
 7    1  0.2542335E-015  0.9000774E+02  0.7816164E-02  0.1186339E+00
        -11   -1    0    0    0    0  0.00000000000E+00  0.00000000000E+00  0.45593999997E+02  0.45594000000E+02  0.51100000000E-03 0.  1.
         11   -1    0    0    0    0 -0.00000000000E+00 -0.00000000000E+00 -0.45593999997E+02  0.45594000000E+02  0.51100000000E-03 0. -1.
    9900012    2    1    2    0    0 -0.81391353629E+00 -0.81370145091E+00 -0.26164150200E+00  0.90007736652E+02  0.89999997976E+02 0.  0.
        -12    1    1    2    0    0  0.81391353629E+00  0.81370145091E+00  0.26164150200E+00  0.11802633483E+01  0.00000000000E+00 0.  1.
         11    1    3    3    0    0 -0.83542956744E+01 -0.36819117381E+01 -0.10290696025E+01  0.91874759739E+01  0.51100000000E-03 0. -1.
        -11    1    3    3    0    0 -0.21454409660E+02  0.37195331880E+01  0.31672021248E+02  0.38434926189E+02  0.51100000000E-03 0.  1.
         12    1    3    3    0    0  0.28994791798E+02 -0.85132290076E+00 -0.30904593147E+02  0.42385334489E+02  0.00000000000E+00 0. -1.
</event>
<event>
 7    1  0.2542335E-015  0.9000756E+02  0.7816164E-02  0.1186339E+00
        -11   -1    0    0    0    0  0.00000000000E+00  0.00000000000E+00  0.45593999997E+02  0.45594000000E+02  0.51100000000E-03 0. -1.
         11   -1    0    0    0    0 -0.00000000000E+00 -0.00000000000E+00 -0.45593999997E+02  0.45594000000E+02  0.51100000000E-03 0.  1.
    9900012    2    1    2    0    0 -0.54516044739E+00  0.75087650599E+00  0.72967743476E+00  0.90007557456E+02  0.89999816414E+02 0.  0.
        -12    1    1    2    0    0  0.54516044739E+00 -0.75087650599E+00 -0.72967743476E+00  0.11804425439E+01  0.00000000000E+00 0.  1.
         11    1    3    3    0    0 -0.24237899453E+02 -0.31703983073E+01 -0.82999800728E+01  0.25815051129E+02  0.51100000000E-03 0. -1.
        -11    1    3    3    0    0  0.69246854012E+01  0.30309141957E+02  0.10708614402E+02  0.32882666813E+02  0.51100000000E-03 0.  1.
        -12    1    3    3    0    0  0.16768053605E+02 -0.26387867144E+02 -0.16789568941E+01  0.31309839513E+02  0.00000000000E+00 0.  1.
</event>
<event>
 7    1  0.2542335E-015  0.9000772E+02  0.7816164E-02  0.1186339E+00
        -11   -1    0    0    0    0  0.00000000000E+00  0.00000000000E+00  0.45593999997E+02  0.45594000000E+02  0.51100000000E-03 0.  1.
         11   -1    0    0    0    0 -0.00000000000E+00 -0.00000000000E+00 -0.45593999997E+02  0.45594000000E+02  0.51100000000E-03 0. -1.
    9900012    2    1    2    0    0 -0.10632355998E+01 -0.15439059474E+00 -0.48861356065E+00  0.90007724774E+02  0.89999985941E+02 0.  0.
        -12    1    1    2    0    0  0.10632355998E+01  0.15439059474E+00  0.48861356065E+00  0.11802752255E+01  0.00000000000E+00 0.  1.
         11    1    3    3    0    0  0.91022199207E+01 -0.11547443746E+01 -0.19791015569E+01  0.93861965295E+01  0.51100000000E-03 0. -1.
        -11    1    3    3    0    0 -0.78305255995E+01  0.39377222421E+02  0.97080611089E+01  0.41305317182E+02  0.51100000000E-03 0.  1.
         12    1    3    3    0    0 -0.23349299210E+01 -0.38376868641E+02 -0.82175731127E+01  0.39316211063E+02  0.00000000000E+00 0. -1.
</event>
<event>
 7    1  0.2542335E-015  0.9000770E+02  0.7816164E-02  0.1186339E+00
        -11   -1    0    0    0    0  0.00000000000E+00  0.00000000000E+00  0.45593999997E+02  0.45594000000E+02  0.51100000000E-03 0.  1.
         11   -1    0    0    0    0 -0.00000000000E+00 -0.00000000000E+00 -0.45593999997E+02  0.45594000000E+02  0.51100000000E-03 0. -1.
    9900012    2    1    2    0    0 -0.33280808526E-01  0.74405879282E+00  0.91562870491E+00  0.90007700451E+02  0.89999961297E+02 0.  0.
        -12    1    1    2    0    0  0.33280808526E-01 -0.74405879282E+00 -0.91562870491E+00  0.11802995487E+01  0.00000000000E+00 0.  1.
         11    1    3    3    0    0  0.17621148607E+02  0.39872815967E+02 -0.66339594521E+01  0.44094849468E+02  0.51100000000E-03 0. -1.
        -11    1    3    3    0    0  0.18317250255E+01 -0.74976858992E+01  0.37096755951E+01  0.85634224288E+01  0.51100000000E-03 0.  1.
        -12    1    3    3    0    0 -0.19486154441E+02 -0.31631071275E+02  0.38399125619E+01  0.37349428555E+02  0.00000000000E+00 0.  1.
</event>
<event>
 7    1  0.2542335E-015  0.9000753E+02  0.7816164E-02  0.1186339E+00
        -11   -1    0    0    0    0  0.00000000000E+00  0.00000000000E+00  0.45593999997E+02  0.45594000000E+02  0.51100000000E-03 0.  1.
         11   -1    0    0    0    0 -0.00000000000E+00 -0.00000000000E+00 -0.45593999997E+02  0.45594000000E+02  0.51100000000E-03 0. -1.
    9900012    2    1    2    0    0  0.10318817069E+01 -0.16104770485E+00  0.55026872750E+00  0.90007528953E+02  0.89999787535E+02 0.  0.
        -12    1    1    2    0    0 -0.10318817069E+01  0.16104770485E+00 -0.55026872750E+00  0.11804710469E+01  0.00000000000E+00 0.  1.
         11    1    3    3    0    0  0.56908216526E+01 -0.26374642339E+02 -0.19507023413E+02  0.33294611760E+02  0.51100000000E-03 0. -1.
        -11    1    3    3    0    0  0.51459494920E+01 -0.11607979134E+02 -0.20608081392E+00  0.12699151362E+02  0.51100000000E-03 0.  1.
        -12    1    3    3    0    0 -0.98048894377E+01  0.37821573767E+02  0.20263372955E+02  0.44013765831E+02  0.00000000000E+00 0.  1.
</event>
<event>
 7    1  0.2542335E-015  0.9000774E+02  0.7816164E-02  0.1186339E+00
        -11   -1    0    0    0    0  0.00000000000E+00  0.00000000000E+00  0.45593999997E+02  0.45594000000E+02  0.51100000000E-03 0.  1.
         11   -1    0    0    0    0 -0.00000000000E+00 -0.00000000000E+00 -0.45593999997E+02  0.45594000000E+02  0.51100000000E-03 0. -1.
    9900012    2    1    2    0    0 -0.31250129674E+00  0.10390568711E+01  0.46446379780E+00  0.90007736105E+02  0.89999997422E+02 0.  0.
        -12    1    1    2    0    0  0.31250129674E+00 -0.10390568711E+01 -0.46446379780E+00  0.11802638948E+01  0.00000000000E+00 0.  1.
         11    1    3    3    0    0 -0.27375658422E+02 -0.16953830574E+02 -0.39557384800E+01  0.32442362928E+02  0.51100000000E-03 0. -1.
        -11    1    3    3    0    0  0.14989545841E+01 -0.15090751210E+02 -0.18891826106E+01  0.15282233087E+02  0.51100000000E-03 0.  1.
        -12    1    3    3    0    0  0.25564202541E+02  0.33083638655E+02  0.63093848884E+01  0.42283140090E+02  0.00000000000E+00 0.  1.
</event>
<event>
 7    1  0.2542335E-015  0.9000776E+02  0.7816164E-02  0.1186339E+00
        -11   -1    0    0    0    0  0.00000000000E+00  0.00000000000E+00  0.45593999997E+02  0.45594000000E+02  0.51100000000E-03 0. -1.
         11   -1    0    0    0    0 -0.00000000000E+00 -0.00000000000E+00 -0.45593999997E+02  0.45594000000E+02  0.51100000000E-03 0.  1.
    9900012    2    1    2    0    0  0.96224955039E+00  0.47315013790E+00  0.49313200696E+00  0.90007756624E+02  0.90000018211E+02 0.  0.
        -12    1    1    2    0    0 -0.96224955039E+00 -0.47315013790E+00 -0.49313200696E+00  0.11802433760E+01  0.00000000000E+00 0.  1.
         11    1    3    3    0    0 -0.22185645031E+02 -0.21949837598E+02  0.19193613857E+02  0.36638682143E+02  0.51100000000E-03 0. -1.
        -11    1    3    3    0    0 -0.87391778200E+01  0.12821992323E+01  0.30688147387E+01  0.93506624366E+01  0.51100000000E-03 0.  1.
        -12    1    3    3    0    0  0.31887072402E+02  0.21140788503E+02 -0.21769296589E+02  0.44018412044E+02  0.00000000000E+00 0.  1.
</event>
<event>
 7    1  0.2542335E-015  0.9000779E+02  0.7816164E-02  0.1186339E+00
        -11   -1    0    0    0    0  0.00000000000E+00  0.00000000000E+00  0.45593999997E+02  0.45594000000E+02  0.51100000000E-03 0.  1.
         11   -1    0    0    0    0 -0.00000000000E+00 -0.00000000000E+00 -0.45593999997E+02  0.45594000000E+02  0.51100000000E-03 0. -1.
    9900012    2    1    2    0    0 -0.11053905509E+01  0.39860264419E+00  0.11010216598E+00  0.90007790347E+02  0.90000052380E+02 0.  0.
        -12    1    1    2    0    0  0.11053905509E+01 -0.39860264419E+00 -0.11010216598E+00  0.11802096529E+01  0.00000000000E+00 0.  1.
         11    1    3    3    0    0  0.11415425946E+01  0.30543922100E+02 -0.24333492601E+02  0.39068569966E+02  0.51100000000E-03 0. -1.
        -11    1    3    3    0    0 -0.62092887129E+01 -0.12499569612E+01 -0.60388364886E+01  0.87512973394E+01  0.51100000000E-03 0.  1.
        -12    1    3    3    0    0  0.39623555674E+01 -0.28895362495E+02  0.30482431256E+02  0.42187923042E+02  0.00000000000E+00 0.  1.
</event>
<event>
 7    1  0.2542335E-015  0.9000708E+02  0.7816164E-02  0.1186340E+00
        -11   -1    0    0    0    0  0.00000000000E+00  0.00000000000E+00  0.45593999997E+02  0.45594000000E+02  0.51100000000E-03 0.  1.
         11   -1    0    0    0    0 -0.00000000000E+00 -0.00000000000E+00 -0.45593999997E+02  0.45594000000E+02  0.51100000000E-03 0. -1.
    9900012    2    1    2    0    0  0.11053187685E+01  0.50129292767E-01 -0.41269951049E+00  0.90007083656E+02  0.89999336358E+02 0.  0.
        -12    1    1    2    0    0 -0.11053187685E+01 -0.50129292767E-01  0.41269951049E+00  0.11809163442E+01  0.00000000000E+00 0.  1.
         11    1    3    3    0    0  0.54800185422E+01 -0.45785750315E+01  0.54500185237E+01  0.89831316762E+01  0.51100000000E-03 0. -1.
        -11    1    3    3    0    0  0.32250757080E+02 -0.87540452021E+01  0.15192035810E+02  0.36708889822E+02  0.51100000000E-03 0.  1.
         12    1    3    3    0    0 -0.36625456854E+02  0.13382749526E+02 -0.21054753844E+02  0.44315062158E+02  0.00000000000E+00 0. -1.
</event>
<event>
 7    1  0.2542335E-015  0.9000768E+02  0.7816164E-02  0.1186339E+00
        -11   -1    0    0    0    0  0.00000000000E+00  0.00000000000E+00  0.45593999997E+02  0.45594000000E+02  0.51100000000E-03 0.  1.
         11   -1    0    0    0    0 -0.00000000000E+00 -0.00000000000E+00 -0.45593999997E+02  0.45594000000E+02  0.51100000000E-03 0. -1.
    9900012    2    1    2    0    0 -0.37239124272E+00  0.74327822234E+00 -0.83785956950E+00  0.90007683766E+02  0.89999944392E+02 0.  0.
        -12    1    1    2    0    0  0.37239124272E+00 -0.74327822234E+00  0.83785956950E+00  0.11803162338E+01  0.00000000000E+00 0.  1.
         11    1    3    3    0    0  0.28895200919E+02 -0.16827724827E+02  0.13750392097E+02  0.36154920026E+02  0.51100000000E-03 0. -1.
        -11    1    3    3    0    0  0.88230284763E+01 -0.57311675348E+00  0.94710766788E+00  0.88922048729E+01  0.51100000000E-03 0.  1.
        -12    1    3    3    0    0 -0.38090620638E+02  0.18144119803E+02 -0.15535359334E+02  0.44960558867E+02  0.00000000000E+00 0.  1.
</event>
<event>
 7    1  0.2542335E-015  0.9000762E+02  0.7816164E-02  0.1186339E+00
        -11   -1    0    0    0    0  0.00000000000E+00  0.00000000000E+00  0.45593999997E+02  0.45594000000E+02  0.51100000000E-03 0.  1.
         11   -1    0    0    0    0 -0.00000000000E+00 -0.00000000000E+00 -0.45593999997E+02  0.45594000000E+02  0.51100000000E-03 0. -1.
    9900012    2    1    2    0    0 -0.43824033290E+00 -0.98293337218E+00 -0.48486605257E+00  0.90007615447E+02  0.89999875171E+02 0.  0.
        -12    1    1    2    0    0  0.43824033290E+00  0.98293337218E+00  0.48486605257E+00  0.11803845528E+01  0.00000000000E+00 0.  1.
         11    1    3    3    0    0  0.24200416606E+01  0.57271330478E+01  0.11755926217E+02  0.13298814085E+02  0.51100000000E-03 0. -1.
        -11    1    3    3    0    0  0.27466385201E+02 -0.26500289290E+02  0.92794111338E+00  0.38177594521E+02  0.51100000000E-03 0.  1.
         12    1    3    3    0    0 -0.30324667194E+02  0.19790222870E+02 -0.13168733383E+02  0.38531206841E+02  0.00000000000E+00 0. -1.
</event>
<event>
 7    1  0.2542335E-015  0.9000789E+02  0.7816164E-02  0.1186339E+00
        -11   -1    0    0    0    0  0.00000000000E+00  0.00000000000E+00  0.45593999997E+02  0.45594000000E+02  0.51100000000E-03 0.  1.
         11   -1    0    0    0    0 -0.00000000000E+00 -0.00000000000E+00 -0.45593999997E+02  0.45594000000E+02  0.51100000000E-03 0. -1.
    9900012    2    1    2    0    0 -0.56559010045E+00  0.34378452605E+00 -0.97702638722E+00  0.90007889614E+02  0.90000152957E+02 0.  0.
        -12    1    1    2    0    0  0.56559010045E+00 -0.34378452605E+00  0.97702638722E+00  0.11801103861E+01  0.00000000000E+00 0.  1.
         11    1    3    3    0    0 -0.10460408766E+01 -0.84340198782E+01  0.14190763955E+01  0.86163026234E+01  0.51100000000E-03 0. -1.
        -11    1    3    3    0    0  0.35234958988E+02  0.23468662556E+02  0.59393824580E+01  0.42749932413E+02  0.51100000000E-03 0.  1.
         12    1    3    3    0    0 -0.34754508212E+02 -0.14690858152E+02 -0.83354852407E+01  0.38641654578E+02  0.00000000000E+00 0. -1.
</event>
<event>
 7    1  0.2542335E-015  0.9000781E+02  0.7816164E-02  0.1186339E+00
        -11   -1    0    0    0    0  0.00000000000E+00  0.00000000000E+00  0.45593999997E+02  0.45594000000E+02  0.51100000000E-03 0.  1.
         11   -1    0    0    0    0 -0.00000000000E+00 -0.00000000000E+00 -0.45593999997E+02  0.45594000000E+02  0.51100000000E-03 0. -1.
    9900012    2    1    2    0    0 -0.49518518035E+00 -0.91644312801E+00 -0.55477538696E+00  0.90007808448E+02  0.90000070719E+02 0.  0.
        -12    1    1    2    0    0  0.49518518035E+00  0.91644312801E+00  0.55477538696E+00  0.11801915521E+01  0.00000000000E+00 0.  1.
         11    1    3    3    0    0 -0.10101929664E+01 -0.42070515370E+01  0.75316368899E+01  0.86859269492E+01  0.51100000000E-03 0. -1.
        -11    1    3    3    0    0  0.24311878162E+02 -0.13534876421E+02  0.24875287335E+02  0.37323454018E+02  0.51100000000E-03 0.  1.
         12    1    3    3    0    0 -0.23796870376E+02  0.16825484830E+02 -0.32961699612E+02  0.43998427481E+02  0.00000000000E+00 0. -1.
</event>
<event>
 7    1  0.2542335E-015  0.9000773E+02  0.7816164E-02  0.1186339E+00
        -11   -1    0    0    0    0  0.00000000000E+00  0.00000000000E+00  0.45593999997E+02  0.45594000000E+02  0.51100000000E-03 0. -1.
         11   -1    0    0    0    0 -0.00000000000E+00 -0.00000000000E+00 -0.45593999997E+02  0.45594000000E+02  0.51100000000E-03 0.  1.
    9900012    2    1    2    0    0 -0.95340039732E-01 -0.76552050890E-01  0.11739167489E+01  0.90007732881E+02  0.89999994155E+02 0.  0.
        -12    1    1    2    0    0  0.95340039732E-01  0.76552050890E-01 -0.11739167489E+01  0.11802671194E+01  0.00000000000E+00 0.  1.
         11    1    3    3    0    0  0.73632630864E+01 -0.33402489181E+02  0.20687421863E+02  0.39973908370E+02  0.51100000000E-03 0. -1.
        -11    1    3    3    0    0 -0.13921641977E+02  0.21508901070E+01 -0.41668789995E+01  0.14690177822E+02  0.51100000000E-03 0.  1.
        -12    1    3    3    0    0  0.64630388509E+01  0.31175047023E+02 -0.15346626115E+02  0.35343646688E+02  0.00000000000E+00 0.  1.
</event>
<event>
 7    1  0.2542335E-015  0.9000775E+02  0.7816164E-02  0.1186339E+00
        -11   -1    0    0    0    0  0.00000000000E+00  0.00000000000E+00  0.45593999997E+02  0.45594000000E+02  0.51100000000E-03 0. -1.
         11   -1    0    0    0    0 -0.00000000000E+00 -0.00000000000E+00 -0.45593999997E+02  0.45594000000E+02  0.51100000000E-03 0.  1.
    9900012    2    1    2    0    0 -0.62753644294E+00  0.41910744834E+00  0.90748634354E+00  0.90007752355E+02  0.90000013886E+02 0.  0.
        -12    1    1    2    0    0  0.62753644294E+00 -0.41910744834E+00 -0.90748634354E+00  0.11802476453E+01  0.00000000000E+00 0.  1.
         11    1    3    3    0    0 -0.81119006297E+01 -0.79046489887E+01 -0.13167362972E+01  0.11402640142E+02  0.51100000000E-03 0. -1.
        -11    1    3    3    0    0  0.19896565637E+02 -0.38538513230E+01 -0.33340674976E+02  0.39016997607E+02  0.51100000000E-03 0.  1.
         12    1    3    3    0    0 -0.12412201450E+02  0.12177607760E+02  0.35564897617E+02  0.39588114606E+02  0.00000000000E+00 0. -1.
</event>
<event>
 7    1  0.2542335E-015  0.9000776E+02  0.7816164E-02  0.1186339E+00
        -11   -1    0    0    0    0  0.00000000000E+00  0.00000000000E+00  0.45593999997E+02  0.45594000000E+02  0.51100000000E-03 0. -1.
         11   -1    0    0    0    0 -0.00000000000E+00 -0.00000000000E+00 -0.45593999997E+02  0.45594000000E+02  0.51100000000E-03 0.  1.
    9900012    2    1    2    0    0  0.42363528945E-01  0.10293540658E+01 -0.57585806438E+00  0.90007755546E+02  0.90000017119E+02 0.  0.
        -12    1    1    2    0    0 -0.42363528945E-01 -0.10293540658E+01  0.57585806438E+00  0.11802444542E+01  0.00000000000E+00 0.  1.
         11    1    3    3    0    0  0.24457107072E+02  0.28128350665E+02  0.96194073842E+01  0.38495287973E+02  0.51100000000E-03 0. -1.
        -11    1    3    3    0    0  0.64464069763E+01  0.32159170225E+01 -0.84143962410E+00  0.72530204812E+01  0.51100000000E-03 0.  1.
        -12    1    3    3    0    0 -0.30861150520E+02 -0.30314913621E+02 -0.93538258245E+01  0.44259447091E+02  0.00000000000E+00 0.  1.
</event>
<event>
 7    1  0.2542335E-015  0.9000776E+02  0.7816164E-02  0.1186339E+00
        -11   -1    0    0    0    0  0.00000000000E+00  0.00000000000E+00  0.45593999997E+02  0.45594000000E+02  0.51100000000E-03 0.  1.
         11   -1    0    0    0    0 -0.00000000000E+00 -0.00000000000E+00 -0.45593999997E+02  0.45594000000E+02  0.51100000000E-03 0. -1.
    9900012    2    1    2    0    0 -0.96824125128E+00  0.48803243765E+00 -0.46615822184E+00  0.90007758385E+02  0.90000019996E+02 0.  0.
        -12    1    1    2    0    0  0.96824125128E+00 -0.48803243765E+00  0.46615822184E+00  0.11802416145E+01  0.00000000000E+00 0.  1.
         11    1    3    3    0    0 -0.39193904292E+00  0.79553580713E+01  0.11786965188E+01  0.80517491268E+01  0.51100000000E-03 0. -1.
        -11    1    3    3    0    0  0.91826562717E+01 -0.13086754884E+02  0.37743371183E+02  0.40989588899E+02  0.51100000000E-03 0.  1.
         12    1    3    3    0    0 -0.97589584800E+01  0.56194292504E+01 -0.39388225923E+02  0.40966420360E+02  0.00000000000E+00 0. -1.
</event>
<event>
 7    1  0.2542335E-015  0.9000774E+02  0.7816164E-02  0.1186339E+00
        -11   -1    0    0    0    0  0.00000000000E+00  0.00000000000E+00  0.45593999997E+02  0.45594000000E+02  0.51100000000E-03 0.  1.
         11   -1    0    0    0    0 -0.00000000000E+00 -0.00000000000E+00 -0.45593999997E+02  0.45594000000E+02  0.51100000000E-03 0. -1.
    9900012    2    1    2    0    0 -0.96245932870E+00 -0.60041785105E+00  0.32584785608E+00  0.90007743087E+02  0.90000004496E+02 0.  0.
        -12    1    1    2    0    0  0.96245932870E+00  0.60041785105E+00 -0.32584785608E+00  0.11802569130E+01  0.00000000000E+00 0.  1.
         11    1    3    3    0    0 -0.78876759740E+01  0.57083496445E+01  0.13521874843E+01  0.98300101317E+01  0.51100000000E-03 0. -1.
        -11    1    3    3    0    0  0.11030104945E+02 -0.28564736196E+02  0.29271423616E+02  0.42360637505E+02  0.51100000000E-03 0.  1.
         12    1    3    3    0    0 -0.41048882992E+01  0.22255968700E+02 -0.30297763244E+02  0.37817095451E+02  0.00000000000E+00 0. -1.
</event>
<event>
 7    1  0.2542335E-015  0.9000770E+02  0.7816164E-02  0.1186339E+00
        -11   -1    0    0    0    0  0.00000000000E+00  0.00000000000E+00  0.45593999997E+02  0.45594000000E+02  0.51100000000E-03 0.  1.
         11   -1    0    0    0    0 -0.00000000000E+00 -0.00000000000E+00 -0.45593999997E+02  0.45594000000E+02  0.51100000000E-03 0. -1.
    9900012    2    1    2    0    0 -0.64119060581E-01  0.11006706184E+01 -0.42132070206E+00  0.90007704190E+02  0.89999965086E+02 0.  0.
        -12    1    1    2    0    0  0.64119060581E-01 -0.11006706184E+01  0.42132070206E+00  0.11802958096E+01  0.00000000000E+00 0.  1.
         11    1    3    3    0    0 -0.77614602332E+01 -0.44232465332E+01 -0.50640865837E+01  0.10268901988E+02  0.51100000000E-03 0. -1.
        -11    1    3    3    0    0 -0.14798872342E+02  0.26474767722E+02  0.27884699219E+02  0.41200441737E+02  0.51100000000E-03 0.  1.
         12    1    3    3    0    0  0.22496213515E+02 -0.20950850570E+02 -0.23241933337E+02  0.38538360466E+02  0.00000000000E+00 0. -1.
</event>
<event>
 7    1  0.2542335E-015  0.9000765E+02  0.7816164E-02  0.1186339E+00
        -11   -1    0    0    0    0  0.00000000000E+00  0.00000000000E+00  0.45593999997E+02  0.45594000000E+02  0.51100000000E-03 0. -1.
         11   -1    0    0    0    0 -0.00000000000E+00 -0.00000000000E+00 -0.45593999997E+02  0.45594000000E+02  0.51100000000E-03 0.  1.
    9900012    2    1    2    0    0 -0.52206291746E+00 -0.80863965162E+00  0.68321524619E+00  0.90007647998E+02  0.89999908152E+02 0.  0.
        -12    1    1    2    0    0  0.52206291746E+00  0.80863965162E+00 -0.68321524619E+00  0.11803520020E+01  0.00000000000E+00 0.  1.
         11    1    3    3    0    0 -0.11550824888E+02 -0.22754089234E+02  0.23625085493E+02  0.34775203770E+02  0.51100000000E-03 0. -1.
        -11    1    3    3    0    0 -0.16369748858E+01 -0.54922054552E+01  0.93746504992E+01  0.10987633038E+02  0.51100000000E-03 0.  1.
        -12    1    3    3    0    0  0.12665736856E+02  0.27437655038E+02 -0.32316520746E+02  0.44244811189E+02  0.00000000000E+00 0.  1.
</event>
<event>
 7    1  0.2542335E-015  0.9000765E+02  0.7816164E-02  0.1186339E+00
        -11   -1    0    0    0    0  0.00000000000E+00  0.00000000000E+00  0.45593999997E+02  0.45594000000E+02  0.51100000000E-03 0.  1.
         11   -1    0    0    0    0 -0.00000000000E+00 -0.00000000000E+00 -0.45593999997E+02  0.45594000000E+02  0.51100000000E-03 0. -1.
    9900012    2    1    2    0    0 -0.10565632912E+01 -0.16206245218E-01  0.52596708468E+00  0.90007648355E+02  0.89999908514E+02 0.  0.
        -12    1    1    2    0    0  0.10565632912E+01  0.16206245218E-01 -0.52596708468E+00  0.11803516446E+01  0.00000000000E+00 0.  1.
         11    1    3    3    0    0  0.63242497499E+00 -0.70833779129E+01  0.71264314034E+01  0.10067781723E+02  0.51100000000E-03 0. -1.
        -11    1    3    3    0    0 -0.21166004023E+02  0.31554345584E+02  0.16118220094E+02  0.41273156783E+02  0.51100000000E-03 0.  1.
         12    1    3    3    0    0  0.19477015757E+02 -0.24487173916E+02 -0.22718684413E+02  0.38666709850E+02  0.00000000000E+00 0. -1.
</event>
<event>
 7    1  0.2542335E-015  0.9000767E+02  0.7816164E-02  0.1186339E+00
        -11   -1    0    0    0    0  0.00000000000E+00  0.00000000000E+00  0.45593999997E+02  0.45594000000E+02  0.51100000000E-03 0.  1.
         11   -1    0    0    0    0 -0.00000000000E+00 -0.00000000000E+00 -0.45593999997E+02  0.45594000000E+02  0.51100000000E-03 0. -1.
    9900012    2    1    2    0    0  0.10323203167E+01 -0.42454172886E+00 -0.38372811098E+00  0.90007674545E+02  0.89999935049E+02 0.  0.
        -12    1    1    2    0    0 -0.10323203167E+01  0.42454172886E+00  0.38372811098E+00  0.11803254546E+01  0.00000000000E+00 0.  1.
         11    1    3    3    0    0 -0.41803026345E+01  0.89257652732E+01 -0.37307085395E+01  0.10538614819E+02  0.51100000000E-03 0. -1.
        -11    1    3    3    0    0  0.39063070032E+02 -0.45134544337E+00 -0.12543579065E+02  0.41030092969E+02  0.51100000000E-03 0.  1.
         12    1    3    3    0    0 -0.33850447081E+02 -0.88989615587E+01  0.15890559493E+02  0.38438966758E+02  0.00000000000E+00 0. -1.
</event>
<event>
 7    1  0.2542335E-015  0.9000772E+02  0.7816164E-02  0.1186339E+00
        -11   -1    0    0    0    0  0.00000000000E+00  0.00000000000E+00  0.45593999997E+02  0.45594000000E+02  0.51100000000E-03 0.  1.
         11   -1    0    0    0    0 -0.00000000000E+00 -0.00000000000E+00 -0.45593999997E+02  0.45594000000E+02  0.51100000000E-03 0. -1.
    9900012    2    1    2    0    0  0.91111383948E+00  0.73746850359E+00  0.13811847415E+00  0.90007718281E+02  0.89999979363E+02 0.  0.
        -12    1    1    2    0    0 -0.91111383948E+00 -0.73746850359E+00 -0.13811847415E+00  0.11802817186E+01  0.00000000000E+00 0.  1.
         11    1    3    3    0    0 -0.83760227942E+01 -0.53372361264E+01  0.27850247309E+00  0.99358648947E+01  0.51100000000E-03 0. -1.
        -11    1    3    3    0    0  0.29137752084E+02 -0.27495702773E+02  0.62633217722E+01  0.40549370740E+02  0.51100000000E-03 0.  1.
         12    1    3    3    0    0 -0.19850615451E+02  0.33570407403E+02 -0.64037057712E+01  0.39522482647E+02  0.00000000000E+00 0. -1.
</event>
<event>
 7    1  0.2542335E-015  0.9000772E+02  0.7816164E-02  0.1186339E+00
        -11   -1    0    0    0    0  0.00000000000E+00  0.00000000000E+00  0.45593999997E+02  0.45594000000E+02  0.51100000000E-03 0. -1.
         11   -1    0    0    0    0 -0.00000000000E+00 -0.00000000000E+00 -0.45593999997E+02  0.45594000000E+02  0.51100000000E-03 0.  1.
    9900012    2    1    2    0    0  0.60286103366E+00  0.59619732203E+00 -0.82107124137E+00  0.90007724330E+02  0.89999985492E+02 0.  0.
        -12    1    1    2    0    0 -0.60286103366E+00 -0.59619732203E+00  0.82107124137E+00  0.11802756695E+01  0.00000000000E+00 0.  1.
         11    1    3    3    0    0 -0.14015263803E+01 -0.63123291562E+01  0.26863289649E+01  0.70018668324E+01  0.51100000000E-03 0. -1.
        -11    1    3    3    0    0  0.31520592303E+02  0.16497648516E+02 -0.26516763736E+02  0.44371825576E+02  0.51100000000E-03 0.  1.
         12    1    3    3    0    0 -0.29516204889E+02 -0.95891220380E+01  0.23009363530E+02  0.38634031922E+02  0.00000000000E+00 0. -1.
</event>
<event>
 7    1  0.2542335E-015  0.9000777E+02  0.7816164E-02  0.1186339E+00
        -11   -1    0    0    0    0  0.00000000000E+00  0.00000000000E+00  0.45593999997E+02  0.45594000000E+02  0.51100000000E-03 0. -1.
         11   -1    0    0    0    0 -0.00000000000E+00 -0.00000000000E+00 -0.45593999997E+02  0.45594000000E+02  0.51100000000E-03 0.  1.
    9900012    2    1    2    0    0  0.12677867283E+00 -0.82302795034E+00  0.83636134563E+00  0.90007767760E+02  0.90000029495E+02 0.  0.
        -12    1    1    2    0    0 -0.12677867283E+00  0.82302795034E+00 -0.83636134563E+00  0.11802322396E+01  0.00000000000E+00 0.  1.
         11    1    3    3    0    0  0.50808311925E+01 -0.64611408432E+01 -0.35190393927E+01  0.89411870079E+01  0.51100000000E-03 0. -1.
        -11    1    3    3    0    0 -0.13610279197E+02 -0.32098603866E+02 -0.14793017781E+02  0.37873387032E+02  0.51100000000E-03 0.  1.
         12    1    3    3    0    0  0.86562266769E+01  0.37736716759E+02  0.19148418519E+02  0.43193193721E+02  0.00000000000E+00 0. -1.
</event>
<event>
 7    1  0.2542335E-015  0.9000786E+02  0.7816164E-02  0.1186339E+00
        -11   -1    0    0    0    0  0.00000000000E+00  0.00000000000E+00  0.45593999997E+02  0.45594000000E+02  0.51100000000E-03 0.  1.
         11   -1    0    0    0    0 -0.00000000000E+00 -0.00000000000E+00 -0.45593999997E+02  0.45594000000E+02  0.51100000000E-03 0. -1.
    9900012    2    1    2    0    0 -0.50162675643E+00  0.91374792216E+00 -0.55332075977E+00  0.90007860800E+02  0.90000123763E+02 0.  0.
        -12    1    1    2    0    0  0.50162675643E+00 -0.91374792216E+00  0.55332075977E+00  0.11801391999E+01  0.00000000000E+00 0.  1.
         11    1    3    3    0    0 -0.54401597786E+01  0.14272139755E+01  0.81067710249E+01  0.98667124646E+01  0.51100000000E-03 0. -1.
        -11    1    3    3    0    0 -0.47870833819E+01 -0.39226019174E+02 -0.12051547055E+01  0.39535416346E+02  0.51100000000E-03 0.  1.
         12    1    3    3    0    0  0.97256164041E+01  0.38712553120E+02 -0.74549370792E+01  0.40605731989E+02  0.00000000000E+00 0. -1.
</event>
<event>
 7    1  0.2542335E-015  0.9000771E+02  0.7816164E-02  0.1186339E+00
        -11   -1    0    0    0    0  0.00000000000E+00  0.00000000000E+00  0.45593999997E+02  0.45594000000E+02  0.51100000000E-03 0.  1.
         11   -1    0    0    0    0 -0.00000000000E+00 -0.00000000000E+00 -0.45593999997E+02  0.45594000000E+02  0.51100000000E-03 0. -1.
    9900012    2    1    2    0    0 -0.82739622169E+00 -0.62516455328E+00 -0.56361876732E+00  0.90007711331E+02  0.89999972321E+02 0.  0.
        -12    1    1    2    0    0  0.82739622169E+00  0.62516455328E+00  0.56361876732E+00  0.11802886686E+01  0.00000000000E+00 0.  1.
         11    1    3    3    0    0  0.36265933848E+02 -0.11048650730E+02 -0.86510429677E+01  0.38886131018E+02  0.51100000000E-03 0. -1.
        -11    1    3    3    0    0  0.41223478503E+01 -0.45729713309E+01 -0.12428804628E+01  0.62809689299E+01  0.51100000000E-03 0.  1.
        -12    1    3    3    0    0 -0.41215677920E+02  0.14996457508E+02  0.93303046632E+01  0.44840611384E+02  0.00000000000E+00 0.  1.
</event>
<event>
 7    1  0.2542335E-015  0.9000777E+02  0.7816164E-02  0.1186339E+00
        -11   -1    0    0    0    0  0.00000000000E+00  0.00000000000E+00  0.45593999997E+02  0.45594000000E+02  0.51100000000E-03 0.  1.
         11   -1    0    0    0    0 -0.00000000000E+00 -0.00000000000E+00 -0.45593999997E+02  0.45594000000E+02  0.51100000000E-03 0. -1.
    9900012    2    1    2    0    0  0.57005887272E+00  0.10088764512E+01  0.22393480024E+00  0.90007768833E+02  0.90000030582E+02 0.  0.
        -12    1    1    2    0    0 -0.57005887272E+00 -0.10088764512E+01 -0.22393480024E+00  0.11802311668E+01  0.00000000000E+00 0.  1.
         11    1    3    3    0    0 -0.89005328942E+01  0.33881712563E+01  0.60605666552E+01  0.11288474596E+02  0.51100000000E-03 0. -1.
        -11    1    3    3    0    0  0.69989200600E+01  0.17389856869E+02  0.31352887812E+02  0.36529379660E+02  0.51100000000E-03 0.  1.
         12    1    3    3    0    0  0.24716717069E+01 -0.19769151674E+02 -0.37189519667E+02  0.42189914577E+02  0.00000000000E+00 0. -1.
</event>
<event>
 7    1  0.2542335E-015  0.9000775E+02  0.7816164E-02  0.1186339E+00
        -11   -1    0    0    0    0  0.00000000000E+00  0.00000000000E+00  0.45593999997E+02  0.45594000000E+02  0.51100000000E-03 0.  1.
         11   -1    0    0    0    0 -0.00000000000E+00 -0.00000000000E+00 -0.45593999997E+02  0.45594000000E+02  0.51100000000E-03 0. -1.
    9900012    2    1    2    0    0 -0.48252192872E+00  0.78015301754E+00 -0.74264796599E+00  0.90007749118E+02  0.90000010607E+02 0.  0.
        -12    1    1    2    0    0  0.48252192872E+00 -0.78015301754E+00  0.74264796599E+00  0.11802508817E+01  0.00000000000E+00 0.  1.
         11    1    3    3    0    0 -0.20905740442E+01 -0.11239802270E+02 -0.36294714406E+02  0.38052725908E+02  0.51100000000E-03 0. -1.
        -11    1    3    3    0    0  0.13260270738E+02  0.81336190257E+00  0.43153063795E+00  0.13292199088E+02  0.51100000000E-03 0.  1.
        -12    1    3    3    0    0 -0.11652218623E+02  0.11206593385E+02  0.35120535803E+02  0.38662824123E+02  0.00000000000E+00 0.  1.
</event>
<event>
 7    1  0.2542335E-015  0.9000772E+02  0.7816164E-02  0.1186339E+00
        -11   -1    0    0    0    0  0.00000000000E+00  0.00000000000E+00  0.45593999997E+02  0.45594000000E+02  0.51100000000E-03 0.  1.
         11   -1    0    0    0    0 -0.00000000000E+00 -0.00000000000E+00 -0.45593999997E+02  0.45594000000E+02  0.51100000000E-03 0. -1.
    9900012    2    1    2    0    0 -0.20181022735E+00 -0.10267562419E+01 -0.54598523050E+00  0.90007722228E+02  0.89999983361E+02 0.  0.
        -12    1    1    2    0    0  0.20181022735E+00  0.10267562419E+01  0.54598523050E+00  0.11802777724E+01  0.00000000000E+00 0.  1.
         11    1    3    3    0    0  0.36830666752E+01  0.58729116702E+01  0.74429542173E+01  0.10171216218E+02  0.51100000000E-03 0. -1.
        -11    1    3    3    0    0 -0.34695833173E+02  0.17067195517E+02 -0.12272425783E+02  0.40567258192E+02  0.51100000000E-03 0.  1.
         12    1    3    3    0    0  0.30810956270E+02 -0.23966863429E+02  0.42834863357E+01  0.39269247817E+02  0.00000000000E+00 0. -1.
</event>
<event>
 7    1  0.2542335E-015  0.9000748E+02  0.7816164E-02  0.1186340E+00
        -11   -1    0    0    0    0  0.00000000000E+00  0.00000000000E+00  0.45593999997E+02  0.45594000000E+02  0.51100000000E-03 0. -1.
         11   -1    0    0    0    0 -0.00000000000E+00 -0.00000000000E+00 -0.45593999997E+02  0.45594000000E+02  0.51100000000E-03 0.  1.
    9900012    2    1    2    0    0  0.15118374449E+00 -0.92662962157E+00 -0.71562481840E+00  0.90007484070E+02  0.89999742059E+02 0.  0.
        -12    1    1    2    0    0 -0.15118374449E+00  0.92662962157E+00  0.71562481840E+00  0.11805159300E+01  0.00000000000E+00 0.  1.
         11    1    3    3    0    0 -0.80018174361E+01 -0.15679135756E+01 -0.23775733672E+01  0.84935440565E+01  0.51100000000E-03 0. -1.
        -11    1    3    3    0    0  0.16747579868E+02  0.38621549928E+02  0.51842148682E+01  0.42414403619E+02  0.51100000000E-03 0.  1.
         12    1    3    3    0    0 -0.85945786877E+01 -0.37980265974E+02 -0.35222663194E+01  0.39099536395E+02  0.00000000000E+00 0. -1.
</event>
<event>
 7    1  0.2542335E-015  0.9000758E+02  0.7816164E-02  0.1186339E+00
        -11   -1    0    0    0    0  0.00000000000E+00  0.00000000000E+00  0.45593999997E+02  0.45594000000E+02  0.51100000000E-03 0. -1.
         11   -1    0    0    0    0 -0.00000000000E+00 -0.00000000000E+00 -0.45593999997E+02  0.45594000000E+02  0.51100000000E-03 0.  1.
    9900012    2    1    2    0    0 -0.90224794090E+00 -0.76076481786E+00  0.24133288668E-01  0.90007577673E+02  0.89999836898E+02 0.  0.
        -12    1    1    2    0    0  0.90224794090E+00  0.76076481786E+00 -0.24133288668E-01  0.11804223272E+01  0.00000000000E+00 0.  1.
         11    1    3    3    0    0  0.14762596456E+02 -0.35769962425E+02  0.21648138331E+01  0.38757075292E+02  0.51100000000E-03 0. -1.
        -11    1    3    3    0    0 -0.12088537412E+02 -0.30006493170E+01  0.27658475830E+01  0.12758783100E+02  0.51100000000E-03 0.  1.
        -12    1    3    3    0    0 -0.35763069846E+01  0.38009846925E+02 -0.49065281274E+01  0.38491719280E+02  0.00000000000E+00 0.  1.
</event>
<event>
 7    1  0.2542335E-015  0.9000748E+02  0.7816164E-02  0.1186340E+00
        -11   -1    0    0    0    0  0.00000000000E+00  0.00000000000E+00  0.45593999997E+02  0.45594000000E+02  0.51100000000E-03 0. -1.
         11   -1    0    0    0    0 -0.00000000000E+00 -0.00000000000E+00 -0.45593999997E+02  0.45594000000E+02  0.51100000000E-03 0.  1.
    9900012    2    1    2    0    0  0.61507202292E+00 -0.26006348206E+00  0.97349454014E+00  0.90007475444E+02  0.89999733319E+02 0.  0.
        -12    1    1    2    0    0 -0.61507202292E+00  0.26006348206E+00 -0.97349454014E+00  0.11805245562E+01  0.00000000000E+00 0.  1.
         11    1    3    3    0    0 -0.11362546958E+02  0.34331475221E+02  0.56711968715E+01  0.36604919593E+02  0.51100000000E-03 0. -1.
        -11    1    3    3    0    0  0.30230015596E+01  0.84921011396E+01 -0.24484612247E+01  0.93407324565E+01  0.51100000000E-03 0.  1.
        -12    1    3    3    0    0  0.89546174211E+01 -0.43083639843E+02 -0.22492411067E+01  0.44061823394E+02  0.00000000000E+00 0.  1.
</event>
<event>
 7    1  0.2542335E-015  0.9000713E+02  0.7816164E-02  0.1186340E+00
        -11   -1    0    0    0    0  0.00000000000E+00  0.00000000000E+00  0.45593999997E+02  0.45594000000E+02  0.51100000000E-03 0.  1.
         11   -1    0    0    0    0 -0.00000000000E+00 -0.00000000000E+00 -0.45593999997E+02  0.45594000000E+02  0.51100000000E-03 0. -1.
    9900012    2    1    2    0    0  0.19814969673E+00 -0.10204476116E+00 -0.11596428514E+01  0.90007132531E+02  0.89999385879E+02 0.  0.
        -12    1    1    2    0    0 -0.19814969673E+00  0.10204476116E+00  0.11596428514E+01  0.11808674686E+01  0.00000000000E+00 0.  1.
         11    1    3    3    0    0 -0.38187903912E+01 -0.89750265559E+01  0.72581975573E+01  0.12157947762E+02  0.51100000000E-03 0. -1.
        -11    1    3    3    0    0  0.27168767354E+01  0.27137008601E+02  0.26749128138E+02  0.38200975268E+02  0.51100000000E-03 0.  1.
         12    1    3    3    0    0  0.13000633525E+01 -0.18264026807E+02 -0.35166968547E+02  0.39648209502E+02  0.00000000000E+00 0. -1.
</event>
<event>
 7    1  0.2542335E-015  0.9000769E+02  0.7816164E-02  0.1186339E+00
        -11   -1    0    0    0    0  0.00000000000E+00  0.00000000000E+00  0.45593999997E+02  0.45594000000E+02  0.51100000000E-03 0. -1.
         11   -1    0    0    0    0 -0.00000000000E+00 -0.00000000000E+00 -0.45593999997E+02  0.45594000000E+02  0.51100000000E-03 0.  1.
    9900012    2    1    2    0    0  0.25300196244E+00 -0.95677562973E+00  0.64319528596E+00  0.90007690814E+02  0.89999951533E+02 0.  0.
        -12    1    1    2    0    0 -0.25300196244E+00  0.95677562973E+00 -0.64319528596E+00  0.11803091860E+01  0.00000000000E+00 0.  1.
         11    1    3    3    0    0 -0.14385318702E+02  0.33533541422E+02 -0.88494630672E+01  0.37546621570E+02  0.51100000000E-03 0. -1.
        -11    1    3    3    0    0  0.63253472992E+01  0.60208576526E+01 -0.30427899737E+01  0.92476654575E+01  0.51100000000E-03 0.  1.
        -12    1    3    3    0    0  0.83129733648E+01 -0.40511174704E+02  0.12535448327E+02  0.43213403787E+02  0.00000000000E+00 0.  1.
</event>
<event>
 7    1  0.2542335E-015  0.9000736E+02  0.7816164E-02  0.1186340E+00
        -11   -1    0    0    0    0  0.00000000000E+00  0.00000000000E+00  0.45593999997E+02  0.45594000000E+02  0.51100000000E-03 0. -1.
         11   -1    0    0    0    0 -0.00000000000E+00 -0.00000000000E+00 -0.45593999997E+02  0.45594000000E+02  0.51100000000E-03 0.  1.
    9900012    2    1    2    0    0  0.21059891376E+00 -0.11617017662E+01 -0.40259026850E-02  0.90007356487E+02  0.89999612792E+02 0.  0.
        -12    1    1    2    0    0 -0.21059891376E+00  0.11617017662E+01  0.40259026850E-02  0.11806435126E+01  0.00000000000E+00 0.  1.
         11    1    3    3    0    0  0.56409870952E+01  0.14415214729E+02  0.31228394234E+02  0.34854436701E+02  0.51100000000E-03 0. -1.
        -11    1    3    3    0    0  0.11136993194E+00  0.51675211554E+01  0.85240082061E+01  0.99686706392E+01  0.51100000000E-03 0.  1.
        -12    1    3    3    0    0 -0.55417581134E+01 -0.20744437651E+02 -0.39756428342E+02  0.45184249147E+02  0.00000000000E+00 0.  1.
</event>
<event>
 7    1  0.2542335E-015  0.9000788E+02  0.7816164E-02  0.1186339E+00
        -11   -1    0    0    0    0  0.00000000000E+00  0.00000000000E+00  0.45593999997E+02  0.45594000000E+02  0.51100000000E-03 0. -1.
         11   -1    0    0    0    0 -0.00000000000E+00 -0.00000000000E+00 -0.45593999997E+02  0.45594000000E+02  0.51100000000E-03 0.  1.
    9900012    2    1    2    0    0 -0.42657218112E+00 -0.10552068862E+01 -0.31187411025E+00  0.90007876761E+02  0.90000139934E+02 0.  0.
        -12    1    1    2    0    0  0.42657218112E+00  0.10552068862E+01  0.31187411025E+00  0.11801232389E+01  0.00000000000E+00 0.  1.
         11    1    3    3    0    0 -0.61471591494E+01  0.79021973089E+01 -0.35520021943E+01  0.10623041361E+02  0.51100000000E-03 0. -1.
        -11    1    3    3    0    0 -0.14846544238E+02  0.25965334167E+02 -0.16656475879E+02  0.34235312810E+02  0.51100000000E-03 0.  1.
         12    1    3    3    0    0  0.20567131207E+02 -0.34922738362E+02  0.19896603963E+02  0.45149522590E+02  0.00000000000E+00 0. -1.
</event>
<event>
 7    1  0.2542335E-015  0.9000791E+02  0.7816164E-02  0.1186339E+00
        -11   -1    0    0    0    0  0.00000000000E+00  0.00000000000E+00  0.45593999997E+02  0.45594000000E+02  0.51100000000E-03 0.  1.
         11   -1    0    0    0    0 -0.00000000000E+00 -0.00000000000E+00 -0.45593999997E+02  0.45594000000E+02  0.51100000000E-03 0. -1.
    9900012    2    1    2    0    0  0.44588872294E+00 -0.43084824046E+00 -0.10040790713E+01  0.90007906046E+02  0.90000169605E+02 0.  0.
        -12    1    1    2    0    0 -0.44588872294E+00  0.43084824046E+00  0.10040790713E+01  0.11800939543E+01  0.00000000000E+00 0.  1.
         11    1    3    3    0    0  0.30005605224E+01 -0.38554717038E+02 -0.17249468904E+02  0.42343993045E+02  0.51100000000E-03 0. -1.
        -11    1    3    3    0    0  0.23979693952E+01  0.74514447127E+01 -0.56503474419E+01  0.96540515848E+01  0.51100000000E-03 0.  1.
        -12    1    3    3    0    0 -0.49526411947E+01  0.30672424085E+02  0.21895737274E+02  0.38009861415E+02  0.00000000000E+00 0.  1.
</event>
<event>
 7    1  0.2542335E-015  0.9000779E+02  0.7816164E-02  0.1186339E+00
        -11   -1    0    0    0    0  0.00000000000E+00  0.00000000000E+00  0.45593999997E+02  0.45594000000E+02  0.51100000000E-03 0. -1.
         11   -1    0    0    0    0 -0.00000000000E+00 -0.00000000000E+00 -0.45593999997E+02  0.45594000000E+02  0.51100000000E-03 0.  1.
    9900012    2    1    2    0    0  0.11031046087E+01 -0.38958270615E+00  0.15585015755E+00  0.90007786573E+02  0.90000048555E+02 0.  0.
        -12    1    1    2    0    0 -0.11031046087E+01  0.38958270615E+00 -0.15585015755E+00  0.11802134274E+01  0.00000000000E+00 0.  1.
         11    1    3    3    0    0  0.23045852530E+02  0.17318883327E+02  0.33634642645E+02  0.44298354650E+02  0.51100000000E-03 0. -1.
        -11    1    3    3    0    0 -0.35638603235E+01 -0.79440006283E+01 -0.38942805957E+01  0.95380117428E+01  0.51100000000E-03 0.  1.
        -12    1    3    3    0    0 -0.18378887598E+02 -0.97644654048E+01 -0.29584511892E+02  0.36171420180E+02  0.00000000000E+00 0.  1.
</event>
<event>
 7    1  0.2542335E-015  0.9000773E+02  0.7816164E-02  0.1186339E+00
        -11   -1    0    0    0    0  0.00000000000E+00  0.00000000000E+00  0.45593999997E+02  0.45594000000E+02  0.51100000000E-03 0. -1.
         11   -1    0    0    0    0 -0.00000000000E+00 -0.00000000000E+00 -0.45593999997E+02  0.45594000000E+02  0.51100000000E-03 0.  1.
    9900012    2    1    2    0    0  0.10347134638E+01  0.49897101924E+00  0.27097523078E+00  0.90007732401E+02  0.89999993668E+02 0.  0.
        -12    1    1    2    0    0 -0.10347134638E+01 -0.49897101924E+00 -0.27097523078E+00  0.11802675993E+01  0.00000000000E+00 0.  1.
         11    1    3    3    0    0 -0.15179798243E+02 -0.11631964504E+01  0.32246044981E+02  0.35659314602E+02  0.51100000000E-03 0. -1.
        -11    1    3    3    0    0  0.97086984062E+00 -0.50168756126E+01  0.88734914805E+01  0.10239652361E+02  0.51100000000E-03 0.  1.
        -12    1    3    3    0    0  0.15243641866E+02  0.66790430822E+01 -0.40848561231E+02  0.44108765438E+02  0.00000000000E+00 0.  1.
</event>
<event>
 7    1  0.2542335E-015  0.9000773E+02  0.7816164E-02  0.1186339E+00
        -11   -1    0    0    0    0  0.00000000000E+00  0.00000000000E+00  0.45593999997E+02  0.45594000000E+02  0.51100000000E-03 0.  1.
         11   -1    0    0    0    0 -0.00000000000E+00 -0.00000000000E+00 -0.45593999997E+02  0.45594000000E+02  0.51100000000E-03 0. -1.
    9900012    2    1    2    0    0  0.76027515799E+00  0.25127672909E+00 -0.86711492145E+00  0.90007726050E+02  0.89999987234E+02 0.  0.
        -12    1    1    2    0    0 -0.76027515799E+00 -0.25127672909E+00  0.86711492145E+00  0.11802739502E+01  0.00000000000E+00 0.  1.
         11    1    3    3    0    0  0.99703702432E+01  0.21187702228E+02  0.15664555287E+02  0.28172775886E+02  0.51100000000E-03 0. -1.
        -11    1    3    3    0    0 -0.88667761103E+00  0.18515756859E+02 -0.97607872430E+01  0.20949759357E+02  0.51100000000E-03 0.  1.
        -12    1    3    3    0    0 -0.83234174741E+01 -0.39452182358E+02 -0.67708829655E+01  0.40885190808E+02  0.00000000000E+00 0.  1.
</event>
<event>
 7    1  0.2542335E-015  0.9000799E+02  0.7816164E-02  0.1186339E+00
        -11   -1    0    0    0    0  0.00000000000E+00  0.00000000000E+00  0.45593999997E+02  0.45594000000E+02  0.51100000000E-03 0. -1.
         11   -1    0    0    0    0 -0.00000000000E+00 -0.00000000000E+00 -0.45593999997E+02  0.45594000000E+02  0.51100000000E-03 0.  1.
    9900012    2    1    2    0    0 -0.29061041592E+00 -0.11343031062E+01 -0.14601150360E+00  0.90007992665E+02  0.90000257368E+02 0.  0.
        -12    1    1    2    0    0  0.29061041592E+00  0.11343031062E+01  0.14601150360E+00  0.11800073346E+01  0.00000000000E+00 0.  1.
         11    1    3    3    0    0 -0.14984783009E+02  0.80593735542E+01  0.40327998749E+02  0.43770363344E+02  0.51100000000E-03 0. -1.
        -11    1    3    3    0    0  0.12983673097E+01 -0.73919013700E+01 -0.75428973546E+01  0.10640548120E+02  0.51100000000E-03 0.  1.
        -12    1    3    3    0    0  0.13395805283E+02 -0.18017752905E+01 -0.32931112898E+02  0.35597081201E+02  0.00000000000E+00 0.  1.
</event>
<event>
 7    1  0.2542335E-015  0.9000781E+02  0.7816164E-02  0.1186339E+00
        -11   -1    0    0    0    0  0.00000000000E+00  0.00000000000E+00  0.45593999997E+02  0.45594000000E+02  0.51100000000E-03 0.  1.
         11   -1    0    0    0    0 -0.00000000000E+00 -0.00000000000E+00 -0.45593999997E+02  0.45594000000E+02  0.51100000000E-03 0. -1.
    9900012    2    1    2    0    0 -0.50154077341E+00 -0.50609148546E+00 -0.94084234573E+00  0.90007806771E+02  0.90000069020E+02 0.  0.
        -12    1    1    2    0    0  0.50154077341E+00  0.50609148546E+00  0.94084234573E+00  0.11801932293E+01  0.00000000000E+00 0.  1.
         11    1    3    3    0    0 -0.11745974785E+02 -0.26919068774E+02 -0.19390307160E+02  0.35193581791E+02  0.51100000000E-03 0. -1.
        -11    1    3    3    0    0  0.70991538941E+01 -0.22624829575E+01 -0.11139702358E+02  0.13401857485E+02  0.51100000000E-03 0.  1.
        -12    1    3    3    0    0  0.41452801173E+01  0.28675460246E+02  0.29589167172E+02  0.41412367495E+02  0.00000000000E+00 0.  1.
</event>
<event>
 7    1  0.2542335E-015  0.9000766E+02  0.7816164E-02  0.1186339E+00
        -11   -1    0    0    0    0  0.00000000000E+00  0.00000000000E+00  0.45593999997E+02  0.45594000000E+02  0.51100000000E-03 0.  1.
         11   -1    0    0    0    0 -0.00000000000E+00 -0.00000000000E+00 -0.45593999997E+02  0.45594000000E+02  0.51100000000E-03 0. -1.
    9900012    2    1    2    0    0  0.18748769591E+00 -0.10595577303E+01  0.48516021114E+00  0.90007663332E+02  0.89999923688E+02 0.  0.
        -12    1    1    2    0    0 -0.18748769591E+00  0.10595577303E+01 -0.48516021114E+00  0.11803366683E+01  0.00000000000E+00 0.  1.
         11    1    3    3    0    0 -0.25634091387E+01 -0.41187897493E+01  0.84569716599E+01  0.97496597545E+01  0.51100000000E-03 0. -1.
        -11    1    3    3    0    0  0.31881829161E+02  0.16400561434E+02  0.16958123285E+02  0.39661157215E+02  0.51100000000E-03 0.  1.
         12    1    3    3    0    0 -0.29130932327E+02 -0.13341329415E+02 -0.24929934734E+02  0.40596846363E+02  0.00000000000E+00 0. -1.
</event>
<event>
 7    1  0.2542335E-015  0.9000767E+02  0.7816164E-02  0.1186339E+00
        -11   -1    0    0    0    0  0.00000000000E+00  0.00000000000E+00  0.45593999997E+02  0.45594000000E+02  0.51100000000E-03 0. -1.
         11   -1    0    0    0    0 -0.00000000000E+00 -0.00000000000E+00 -0.45593999997E+02  0.45594000000E+02  0.51100000000E-03 0.  1.
    9900012    2    1    2    0    0 -0.83496269819E+00  0.38807646663E+00  0.73852462305E+00  0.90007667559E+02  0.89999927971E+02 0.  0.
        -12    1    1    2    0    0  0.83496269819E+00 -0.38807646663E+00 -0.73852462305E+00  0.11803324405E+01  0.00000000000E+00 0.  1.
         11    1    3    3    0    0  0.24342001204E+02  0.20522055369E+02  0.24475117784E+02  0.40158674903E+02  0.51100000000E-03 0. -1.
        -11    1    3    3    0    0 -0.91778223944E+01  0.34190359400E+01  0.35446675067E+01  0.10415704424E+02  0.51100000000E-03 0.  1.
        -12    1    3    3    0    0 -0.15999141508E+02 -0.23553014843E+02 -0.27281260668E+02  0.39433288232E+02  0.00000000000E+00 0.  1.
</event>
<event>
 7    1  0.2542335E-015  0.9000769E+02  0.7816164E-02  0.1186339E+00
        -11   -1    0    0    0    0  0.00000000000E+00  0.00000000000E+00  0.45593999997E+02  0.45594000000E+02  0.51100000000E-03 0. -1.
         11   -1    0    0    0    0 -0.00000000000E+00 -0.00000000000E+00 -0.45593999997E+02  0.45594000000E+02  0.51100000000E-03 0.  1.
    9900012    2    1    2    0    0  0.34402020573E+00  0.11111191849E+01  0.20048510094E+00  0.90007690710E+02  0.89999951427E+02 0.  0.
        -12    1    1    2    0    0 -0.34402020573E+00 -0.11111191849E+01 -0.20048510094E+00  0.11803092903E+01  0.00000000000E+00 0.  1.
         11    1    3    3    0    0 -0.44199814958E+01 -0.21106722848E+01  0.75995533639E+01  0.90412601727E+01  0.51100000000E-03 0. -1.
        -11    1    3    3    0    0 -0.52111157677E+01 -0.35370598171E+02  0.10513099168E+02  0.37266073001E+02  0.51100000000E-03 0.  1.
         12    1    3    3    0    0  0.99751174692E+01  0.38592389641E+02 -0.17912167430E+02  0.43700357536E+02  0.00000000000E+00 0. -1.
</event>
<event>
 7    1  0.2542335E-015  0.9000776E+02  0.7816164E-02  0.1186339E+00
        -11   -1    0    0    0    0  0.00000000000E+00  0.00000000000E+00  0.45593999997E+02  0.45594000000E+02  0.51100000000E-03 0. -1.
         11   -1    0    0    0    0 -0.00000000000E+00 -0.00000000000E+00 -0.45593999997E+02  0.45594000000E+02  0.51100000000E-03 0.  1.
    9900012    2    1    2    0    0  0.72738221674E+00  0.81545069771E+00  0.44599759762E+00  0.90007763334E+02  0.90000025010E+02 0.  0.
        -12    1    1    2    0    0 -0.72738221674E+00 -0.81545069771E+00 -0.44599759762E+00  0.11802366655E+01  0.00000000000E+00 0.  1.
         11    1    3    3    0    0 -0.13530206949E+02 -0.27106698694E+01  0.34512341799E+02  0.37168749884E+02  0.51100000000E-03 0. -1.
        -11    1    3    3    0    0 -0.44521290431E+01  0.73664053642E+01  0.45657705803E+01  0.97432870357E+01  0.51100000000E-03 0.  1.
        -12    1    3    3    0    0  0.18709718209E+02 -0.38402847970E+01 -0.38632114781E+02  0.43095726415E+02  0.00000000000E+00 0.  1.
</event>
<event>
 7    1  0.2542335E-015  0.9000820E+02  0.7816164E-02  0.1186338E+00
        -11   -1    0    0    0    0  0.00000000000E+00  0.00000000000E+00  0.45593999997E+02  0.45594000000E+02  0.51100000000E-03 0.  1.
         11   -1    0    0    0    0 -0.00000000000E+00 -0.00000000000E+00 -0.45593999997E+02  0.45594000000E+02  0.51100000000E-03 0. -1.
    9900012    2    1    2    0    0  0.38502498005E+00 -0.15752799538E+00 -0.11040249050E+01  0.90008199044E+02  0.90000466470E+02 0.  0.
        -12    1    1    2    0    0 -0.38502498005E+00  0.15752799538E+00  0.11040249050E+01  0.11798009558E+01  0.00000000000E+00 0.  1.
         11    1    3    3    0    0  0.16339494974E+02  0.85021354906E+01 -0.29336711785E+02  0.34639689122E+02  0.51100000000E-03 0. -1.
        -11    1    3    3    0    0 -0.28693765908E+01  0.37755252307E+01 -0.11111373100E+02  0.12080998519E+02  0.51100000000E-03 0.  1.
        -12    1    3    3    0    0 -0.13085093403E+02 -0.12435188717E+02  0.39344059980E+02  0.43287511403E+02  0.00000000000E+00 0.  1.
</event>
<event>
 7    1  0.2542335E-015  0.9000777E+02  0.7816164E-02  0.1186339E+00
        -11   -1    0    0    0    0  0.00000000000E+00  0.00000000000E+00  0.45593999997E+02  0.45594000000E+02  0.51100000000E-03 0.  1.
         11   -1    0    0    0    0 -0.00000000000E+00 -0.00000000000E+00 -0.45593999997E+02  0.45594000000E+02  0.51100000000E-03 0. -1.
    9900012    2    1    2    0    0  0.35687900748E+00  0.11161856949E+01 -0.14037555220E+00  0.90007771875E+02  0.90000033664E+02 0.  0.
        -12    1    1    2    0    0 -0.35687900748E+00 -0.11161856949E+01  0.14037555220E+00  0.11802281250E+01  0.00000000000E+00 0.  1.
         11    1    3    3    0    0  0.78879177269E+01  0.64891562756E+01 -0.36588414357E+02  0.37987372385E+02  0.51100000000E-03 0. -1.
        -11    1    3    3    0    0  0.78416055539E+01 -0.38709055624E+01 -0.33231990970E+01  0.93551237318E+01  0.51100000000E-03 0.  1.
        -12    1    3    3    0    0 -0.15372644273E+02 -0.15020650183E+01  0.39771237902E+02  0.42665275759E+02  0.00000000000E+00 0.  1.
</event>
<event>
 7    1  0.2542335E-015  0.9000766E+02  0.7816164E-02  0.1186339E+00
        -11   -1    0    0    0    0  0.00000000000E+00  0.00000000000E+00  0.45593999997E+02  0.45594000000E+02  0.51100000000E-03 0. -1.
         11   -1    0    0    0    0 -0.00000000000E+00 -0.00000000000E+00 -0.45593999997E+02  0.45594000000E+02  0.51100000000E-03 0.  1.
    9900012    2    1    2    0    0 -0.69404681070E+00 -0.84445515507E+00  0.44540534549E+00  0.90007664706E+02  0.89999925080E+02 0.  0.
        -12    1    1    2    0    0  0.69404681070E+00  0.84445515507E+00 -0.44540534549E+00  0.11803352940E+01  0.00000000000E+00 0.  1.
         11    1    3    3    0    0 -0.40857800716E+02  0.87500456429E+01  0.16429220818E+01  0.41816532273E+02  0.51100000000E-03 0. -1.
        -11    1    3    3    0    0  0.47036057014E+01  0.32501890072E+01  0.75545572548E+01  0.94741211072E+01  0.51100000000E-03 0.  1.
        -12    1    3    3    0    0  0.35460148204E+02 -0.12844689805E+02 -0.87520739911E+01  0.38717011326E+02  0.00000000000E+00 0.  1.
</event>
<event>
 7    1  0.2542335E-015  0.9000804E+02  0.7816164E-02  0.1186338E+00
        -11   -1    0    0    0    0  0.00000000000E+00  0.00000000000E+00  0.45593999997E+02  0.45594000000E+02  0.51100000000E-03 0. -1.
         11   -1    0    0    0    0 -0.00000000000E+00 -0.00000000000E+00 -0.45593999997E+02  0.45594000000E+02  0.51100000000E-03 0.  1.
    9900012    2    1    2    0    0  0.45235239220E+00 -0.67470998337E+00  0.85583771889E+00  0.90008036251E+02  0.90000301529E+02 0.  0.
        -12    1    1    2    0    0 -0.45235239220E+00  0.67470998337E+00 -0.85583771889E+00  0.11799637492E+01  0.00000000000E+00 0.  1.
         11    1    3    3    0    0  0.43844876294E+01 -0.10594754185E+02  0.10963869990E+01  0.11518446628E+02  0.51100000000E-03 0. -1.
        -11    1    3    3    0    0 -0.18373597424E+02  0.11775734949E+00 -0.35036146829E+02  0.39561781228E+02  0.51100000000E-03 0.  1.
         12    1    3    3    0    0  0.14441462187E+02  0.98022868520E+01  0.34795597549E+02  0.38927808394E+02  0.00000000000E+00 0. -1.
</event>
<event>
 7    1  0.2542335E-015  0.9000775E+02  0.7816164E-02  0.1186339E+00
        -11   -1    0    0    0    0  0.00000000000E+00  0.00000000000E+00  0.45593999997E+02  0.45594000000E+02  0.51100000000E-03 0. -1.
         11   -1    0    0    0    0 -0.00000000000E+00 -0.00000000000E+00 -0.45593999997E+02  0.45594000000E+02  0.51100000000E-03 0.  1.
    9900012    2    1    2    0    0 -0.76686698774E+00 -0.80070923714E+00  0.40468413045E+00  0.90007750236E+02  0.90000011739E+02 0.  0.
        -12    1    1    2    0    0  0.76686698774E+00  0.80070923714E+00 -0.40468413045E+00  0.11802497637E+01  0.00000000000E+00 0.  1.
         11    1    3    3    0    0 -0.79152794306E+01  0.11830488110E+01  0.18207250040E+02  0.19888569764E+02  0.51100000000E-03 0. -1.
        -11    1    3    3    0    0 -0.18089219196E+02  0.22493925414E+02 -0.19639891559E+02  0.34913061630E+02  0.51100000000E-03 0.  1.
         12    1    3    3    0    0  0.25237631639E+02 -0.24477683462E+02  0.18373256488E+01  0.35206118843E+02  0.00000000000E+00 0. -1.
</event>
<event>
 7    1  0.2542335E-015  0.9000772E+02  0.7816164E-02  0.1186339E+00
        -11   -1    0    0    0    0  0.00000000000E+00  0.00000000000E+00  0.45593999997E+02  0.45594000000E+02  0.51100000000E-03 0.  1.
         11   -1    0    0    0    0 -0.00000000000E+00 -0.00000000000E+00 -0.45593999997E+02  0.45594000000E+02  0.51100000000E-03 0. -1.
    9900012    2    1    2    0    0  0.83955508354E+00  0.25546203696E+00 -0.78926651504E+00  0.90007722396E+02  0.89999983532E+02 0.  0.
        -12    1    1    2    0    0 -0.83955508354E+00 -0.25546203696E+00  0.78926651504E+00  0.11802776040E+01  0.00000000000E+00 0.  1.
         11    1    3    3    0    0  0.27411701625E+02 -0.91079574953E+01 -0.26499169822E+02  0.39199008626E+02  0.51100000000E-03 0. -1.
        -11    1    3    3    0    0  0.42151033787E+01  0.13613179357E+00  0.16991348428E+02  0.17506900069E+02  0.51100000000E-03 0.  1.
        -12    1    3    3    0    0 -0.30787249920E+02  0.92272877387E+01  0.87185548796E+01  0.33301813702E+02  0.00000000000E+00 0.  1.
</event>
<event>
 7    1  0.2542335E-015  0.9000775E+02  0.7816164E-02  0.1186339E+00
        -11   -1    0    0    0    0  0.00000000000E+00  0.00000000000E+00  0.45593999997E+02  0.45594000000E+02  0.51100000000E-03 0.  1.
         11   -1    0    0    0    0 -0.00000000000E+00 -0.00000000000E+00 -0.45593999997E+02  0.45594000000E+02  0.51100000000E-03 0. -1.
    9900012    2    1    2    0    0 -0.65536394556E+00 -0.43482025362E+00 -0.88001301819E+00  0.90007748558E+02  0.90000010039E+02 0.  0.
        -12    1    1    2    0    0  0.65536394556E+00  0.43482025362E+00  0.88001301819E+00  0.11802514420E+01  0.00000000000E+00 0.  1.
         11    1    3    3    0    0  0.53602353801E+01 -0.71448270623E+01 -0.36158157588E+02  0.37245040441E+02  0.51100000000E-03 0. -1.
        -11    1    3    3    0    0  0.73663656963E+00 -0.85674373380E+01 -0.44382924921E+01  0.96768825808E+01  0.51100000000E-03 0.  1.
        -12    1    3    3    0    0 -0.67522358953E+01  0.15277444147E+02  0.39716437062E+02  0.43085825536E+02  0.00000000000E+00 0.  1.
</event>
<event>
 7    1  0.2542335E-015  0.9000786E+02  0.7816164E-02  0.1186339E+00
        -11   -1    0    0    0    0  0.00000000000E+00  0.00000000000E+00  0.45593999997E+02  0.45594000000E+02  0.51100000000E-03 0.  1.
         11   -1    0    0    0    0 -0.00000000000E+00 -0.00000000000E+00 -0.45593999997E+02  0.45594000000E+02  0.51100000000E-03 0. -1.
    9900012    2    1    2    0    0  0.20407239017E+00  0.10213131102E+01  0.55497174975E+00  0.90007864562E+02  0.90000127574E+02 0.  0.
        -12    1    1    2    0    0 -0.20407239017E+00 -0.10213131102E+01 -0.55497174975E+00  0.11801354382E+01  0.00000000000E+00 0.  1.
         11    1    3    3    0    0  0.29994326277E+01  0.37606528730E+02  0.92714574887E+01  0.38848520222E+02  0.51100000000E-03 0. -1.
        -11    1    3    3    0    0 -0.92249655080E+01  0.34304563448E+01 -0.89665061014E+00  0.98829146478E+01  0.51100000000E-03 0.  1.
        -12    1    3    3    0    0  0.64296052705E+01 -0.40015671964E+02 -0.78198351288E+01  0.41276429692E+02  0.00000000000E+00 0.  1.
</event>
<event>
 7    1  0.2542335E-015  0.9000765E+02  0.7816164E-02  0.1186339E+00
        -11   -1    0    0    0    0  0.00000000000E+00  0.00000000000E+00  0.45593999997E+02  0.45594000000E+02  0.51100000000E-03 0.  1.
         11   -1    0    0    0    0 -0.00000000000E+00 -0.00000000000E+00 -0.45593999997E+02  0.45594000000E+02  0.51100000000E-03 0. -1.
    9900012    2    1    2    0    0 -0.45545655385E+00  0.96659943232E+00  0.50147659398E+00  0.90007646701E+02  0.89999906838E+02 0.  0.
        -12    1    1    2    0    0  0.45545655385E+00 -0.96659943232E+00 -0.50147659398E+00  0.11803532985E+01  0.00000000000E+00 0.  1.
         11    1    3    3    0    0 -0.65284548434E+01 -0.36697053491E+02 -0.51468045694E+01  0.37626905999E+02  0.51100000000E-03 0. -1.
        -11    1    3    3    0    0  0.67657053484E+01 -0.22808110395E+01 -0.74683356580E+01  0.10332129772E+02  0.51100000000E-03 0.  1.
        -12    1    3    3    0    0 -0.69270705887E+00  0.39944463963E+02  0.13116616821E+02  0.42048610930E+02  0.00000000000E+00 0.  1.
</event>
<event>
 7    1  0.2542335E-015  0.9000770E+02  0.7816164E-02  0.1186339E+00
        -11   -1    0    0    0    0  0.00000000000E+00  0.00000000000E+00  0.45593999997E+02  0.45594000000E+02  0.51100000000E-03 0. -1.
         11   -1    0    0    0    0 -0.00000000000E+00 -0.00000000000E+00 -0.45593999997E+02  0.45594000000E+02  0.51100000000E-03 0.  1.
    9900012    2    1    2    0    0  0.50859005447E+00 -0.33088922782E+00  0.10124050565E+01  0.90007696851E+02  0.89999957650E+02 0.  0.
        -12    1    1    2    0    0 -0.50859005447E+00  0.33088922782E+00 -0.10124050565E+01  0.11803031488E+01  0.00000000000E+00 0.  1.
         11    1    3    3    0    0  0.59475486151E+01 -0.40889601498E+02 -0.10697991611E+02  0.42682313315E+02  0.51100000000E-03 0. -1.
        -11    1    3    3    0    0 -0.15037766784E+01  0.82167111291E+01 -0.59600230688E+01  0.10261459999E+02  0.51100000000E-03 0.  1.
        -12    1    3    3    0    0 -0.39351818823E+01  0.32342001141E+02  0.17670419737E+02  0.37063923536E+02  0.00000000000E+00 0.  1.
</event>
<event>
 7    1  0.3195129E-015  0.9000775E+02  0.7816164E-02  0.1186339E+00
        -11   -1    0    0    0    0  0.00000000000E+00  0.00000000000E+00  0.45593999997E+02  0.45594000000E+02  0.51100000000E-03 0.  1.
         11   -1    0    0    0    0 -0.00000000000E+00 -0.00000000000E+00 -0.45593999997E+02  0.45594000000E+02  0.51100000000E-03 0. -1.
    9900012    2    1    2    0    0  0.52255368449E+00 -0.90239895709E+00 -0.55282302481E+00  0.90007745990E+02  0.90000007437E+02 0.  0.
        -12    1    1    2    0    0 -0.52255368449E+00  0.90239895709E+00  0.55282302481E+00  0.11802540098E+01  0.00000000000E+00 0.  1.
         11    1    3    3    0    0  0.25782781011E+01 -0.88399921624E+01  0.33635577577E+01  0.98033922929E+01  0.51100000000E-03 0. -1.
        -11    1    3    3    0    0 -0.85750956080E+01 -0.18285050723E+02  0.30418269429E+02  0.36512278209E+02  0.51100000000E-03 0.  1.
         12    1    3    3    0    0  0.65193711913E+01  0.26222643928E+02 -0.34334650212E+02  0.43692075489E+02  0.00000000000E+00 0. -1.
</event>
<event>
 7    1  0.2542335E-015  0.9000776E+02  0.7816164E-02  0.1186339E+00
        -11   -1    0    0    0    0  0.00000000000E+00  0.00000000000E+00  0.45593999997E+02  0.45594000000E+02  0.51100000000E-03 0. -1.
         11   -1    0    0    0    0 -0.00000000000E+00 -0.00000000000E+00 -0.45593999997E+02  0.45594000000E+02  0.51100000000E-03 0.  1.
    9900012    2    1    2    0    0 -0.29387142286E+00 -0.28596842536E+00  0.11067232699E+01  0.90007756487E+02  0.90000018073E+02 0.  0.
        -12    1    1    2    0    0  0.29387142286E+00  0.28596842536E+00 -0.11067232699E+01  0.11802435128E+01  0.00000000000E+00 0.  1.
         11    1    3    3    0    0 -0.31049365443E+02 -0.71786064192E+01 -0.13496913105E+02  0.34608700469E+02  0.51100000000E-03 0. -1.
        -11    1    3    3    0    0 -0.96517762704E+01 -0.39513435234E+01 -0.15656157060E+01  0.10546139275E+02  0.51100000000E-03 0.  1.
        -12    1    3    3    0    0  0.40407270291E+02  0.10843981517E+02  0.16169252081E+02  0.44852916743E+02  0.00000000000E+00 0.  1.
</event>
<event>
 7    1  0.2542335E-015  0.9000765E+02  0.7816164E-02  0.1186339E+00
        -11   -1    0    0    0    0  0.00000000000E+00  0.00000000000E+00  0.45593999997E+02  0.45594000000E+02  0.51100000000E-03 0.  1.
         11   -1    0    0    0    0 -0.00000000000E+00 -0.00000000000E+00 -0.45593999997E+02  0.45594000000E+02  0.51100000000E-03 0. -1.
    9900012    2    1    2    0    0 -0.84846971825E+00  0.70816873390E+00  0.41451216840E+00  0.90007650833E+02  0.89999911024E+02 0.  0.
        -12    1    1    2    0    0  0.84846971825E+00 -0.70816873390E+00 -0.41451216840E+00  0.11803491671E+01  0.00000000000E+00 0.  1.
         11    1    3    3    0    0  0.67210066238E+01 -0.47589947574E+01  0.24604042495E+01  0.85949723949E+01  0.51100000000E-03 0. -1.
        -11    1    3    3    0    0  0.31020108586E+02  0.84749147706E+01  0.19003794435E+02  0.37352583850E+02  0.51100000000E-03 0.  1.
         12    1    3    3    0    0 -0.38589584928E+02 -0.30077512793E+01 -0.21049686516E+02  0.44060094588E+02  0.00000000000E+00 0. -1.
</event>
<event>
 7    1  0.2542335E-015  0.9000771E+02  0.7816164E-02  0.1186339E+00
        -11   -1    0    0    0    0  0.00000000000E+00  0.00000000000E+00  0.45593999997E+02  0.45594000000E+02  0.51100000000E-03 0. -1.
         11   -1    0    0    0    0 -0.00000000000E+00 -0.00000000000E+00 -0.45593999997E+02  0.45594000000E+02  0.51100000000E-03 0.  1.
    9900012    2    1    2    0    0  0.63718703127E+00  0.51282000117E+00  0.85093270771E+00  0.90007712688E+02  0.89999973695E+02 0.  0.
        -12    1    1    2    0    0 -0.63718703127E+00 -0.51282000117E+00 -0.85093270771E+00  0.11802873122E+01  0.00000000000E+00 0.  1.
         11    1    3    3    0    0 -0.47394714734E+01 -0.51153578164E+01  0.80229485247E+01  0.10630013110E+02  0.51100000000E-03 0. -1.
        -11    1    3    3    0    0 -0.31925147004E+02 -0.13842234013E+02 -0.12478861621E+02  0.36966801881E+02  0.51100000000E-03 0.  1.
         12    1    3    3    0    0  0.37301805508E+02  0.19470411831E+02  0.53068458038E+01  0.42410897697E+02  0.00000000000E+00 0. -1.
</event>
<event>
 7    1  0.2542335E-015  0.9000767E+02  0.7816164E-02  0.1186339E+00
        -11   -1    0    0    0    0  0.00000000000E+00  0.00000000000E+00  0.45593999997E+02  0.45594000000E+02  0.51100000000E-03 0.  1.
         11   -1    0    0    0    0 -0.00000000000E+00 -0.00000000000E+00 -0.45593999997E+02  0.45594000000E+02  0.51100000000E-03 0. -1.
    9900012    2    1    2    0    0 -0.93903067401E+00  0.23566283948E+00 -0.67518332520E+00  0.90007666105E+02  0.89999926498E+02 0.  0.
        -12    1    1    2    0    0  0.93903067401E+00 -0.23566283948E+00  0.67518332520E+00  0.11803338948E+01  0.00000000000E+00 0.  1.
         11    1    3    3    0    0  0.73543984828E+01  0.16102333712E+02 -0.78271516955E+01  0.19355532334E+02  0.51100000000E-03 0. -1.
        -11    1    3    3    0    0  0.27431494357E+02  0.57130809107E+01  0.71395693016E+01  0.28915387361E+02  0.51100000000E-03 0.  1.
         12    1    3    3    0    0 -0.35724923514E+02 -0.21579751783E+02  0.12399068691E-01  0.41736746410E+02  0.00000000000E+00 0. -1.
</event>
<event>
 7    1  0.2542335E-015  0.9000774E+02  0.7816164E-02  0.1186339E+00
        -11   -1    0    0    0    0  0.00000000000E+00  0.00000000000E+00  0.45593999997E+02  0.45594000000E+02  0.51100000000E-03 0.  1.
         11   -1    0    0    0    0 -0.00000000000E+00 -0.00000000000E+00 -0.45593999997E+02  0.45594000000E+02  0.51100000000E-03 0. -1.
    9900012    2    1    2    0    0 -0.73431544916E+00 -0.92377696188E+00 -0.20500225468E-01  0.90007744386E+02  0.90000005812E+02 0.  0.
        -12    1    1    2    0    0  0.73431544916E+00  0.92377696188E+00  0.20500225468E-01  0.11802556136E+01  0.00000000000E+00 0.  1.
         11    1    3    3    0    0  0.14944755165E+02 -0.32098305047E+02 -0.10346308604E+02  0.36887572377E+02  0.51100000000E-03 0. -1.
        -11    1    3    3    0    0  0.52177965082E+01 -0.47887652136E+01 -0.51328758049E+01  0.87466614752E+01  0.51100000000E-03 0.  1.
        -12    1    3    3    0    0 -0.20896867123E+02  0.35963293299E+02  0.15458684184E+02  0.44373510534E+02  0.00000000000E+00 0.  1.
</event>
<event>
 7    1  0.2542335E-015  0.9000793E+02  0.7816164E-02  0.1186339E+00
        -11   -1    0    0    0    0  0.00000000000E+00  0.00000000000E+00  0.45593999997E+02  0.45594000000E+02  0.51100000000E-03 0.  1.
         11   -1    0    0    0    0 -0.00000000000E+00 -0.00000000000E+00 -0.45593999997E+02  0.45594000000E+02  0.51100000000E-03 0. -1.
    9900012    2    1    2    0    0  0.20984288710E+00 -0.30855678078E+00 -0.11195145211E+01  0.90007934711E+02  0.90000198649E+02 0.  0.
        -12    1    1    2    0    0 -0.20984288710E+00  0.30855678078E+00  0.11195145211E+01  0.11800652894E+01  0.00000000000E+00 0.  1.
         11    1    3    3    0    0  0.61981126710E+01 -0.76907695211E+01  0.25312627430E+01  0.10196657680E+02  0.51100000000E-03 0. -1.
        -11    1    3    3    0    0 -0.30676810897E+01  0.22355389869E+02  0.33077279789E+02  0.40040986026E+02  0.51100000000E-03 0.  1.
         12    1    3    3    0    0 -0.29205886943E+01 -0.14973177128E+02 -0.36728057053E+02  0.39770291004E+02  0.00000000000E+00 0. -1.
</event>
<event>
 7    1  0.2542335E-015  0.9000774E+02  0.7816164E-02  0.1186339E+00
        -11   -1    0    0    0    0  0.00000000000E+00  0.00000000000E+00  0.45593999997E+02  0.45594000000E+02  0.51100000000E-03 0. -1.
         11   -1    0    0    0    0 -0.00000000000E+00 -0.00000000000E+00 -0.45593999997E+02  0.45594000000E+02  0.51100000000E-03 0.  1.
    9900012    2    1    2    0    0 -0.10223633970E+01 -0.12320216974E+00  0.57672973070E+00  0.90007736100E+02  0.89999997417E+02 0.  0.
        -12    1    1    2    0    0  0.10223633970E+01  0.12320216974E+00 -0.57672973070E+00  0.11802638995E+01  0.00000000000E+00 0.  1.
         11    1    3    3    0    0 -0.18049766333E+02  0.53201080651E+01  0.37147486087E+02  0.41641725917E+02  0.51100000000E-03 0. -1.
        -11    1    3    3    0    0  0.47265089766E+01  0.55189288285E+01  0.10060256984E+01  0.73355674959E+01  0.51100000000E-03 0.  1.
        -12    1    3    3    0    0  0.12300893960E+02 -0.10962239063E+02 -0.37576782055E+02  0.41030442687E+02  0.00000000000E+00 0.  1.
</event>
<event>
 7    1  0.2542335E-015  0.9000778E+02  0.7816164E-02  0.1186339E+00
        -11   -1    0    0    0    0  0.00000000000E+00  0.00000000000E+00  0.45593999997E+02  0.45594000000E+02  0.51100000000E-03 0. -1.
         11   -1    0    0    0    0 -0.00000000000E+00 -0.00000000000E+00 -0.45593999997E+02  0.45594000000E+02  0.51100000000E-03 0.  1.
    9900012    2    1    2    0    0 -0.71192280213E+00 -0.91963994487E+00  0.20084817230E+00  0.90007783201E+02  0.90000045139E+02 0.  0.
        -12    1    1    2    0    0  0.71192280213E+00  0.91963994487E+00 -0.20084817230E+00  0.11802167990E+01  0.00000000000E+00 0.  1.
         11    1    3    3    0    0  0.12124759463E+02  0.97612266297E+01  0.34845165151E+02  0.38163816266E+02  0.51100000000E-03 0. -1.
        -11    1    3    3    0    0 -0.38055419546E+01 -0.32601265688E+01  0.69896208123E+01  0.86003124463E+01  0.51100000000E-03 0.  1.
        -12    1    3    3    0    0 -0.90311403102E+01 -0.74207400058E+01 -0.41633937791E+02  0.43243654488E+02  0.00000000000E+00 0.  1.
</event>
<event>
 7    1  0.2542335E-015  0.9000782E+02  0.7816164E-02  0.1186339E+00
        -11   -1    0    0    0    0  0.00000000000E+00  0.00000000000E+00  0.45593999997E+02  0.45594000000E+02  0.51100000000E-03 0. -1.
         11   -1    0    0    0    0 -0.00000000000E+00 -0.00000000000E+00 -0.45593999997E+02  0.45594000000E+02  0.51100000000E-03 0.  1.
    9900012    2    1    2    0    0  0.88381971544E+00 -0.65463309887E+00  0.42794951939E+00  0.90007820957E+02  0.90000083393E+02 0.  0.
        -12    1    1    2    0    0 -0.88381971544E+00  0.65463309887E+00 -0.42794951939E+00  0.11801790435E+01  0.00000000000E+00 0.  1.
         11    1    3    3    0    0 -0.73880466438E+01 -0.38127312231E+01  0.30199716556E+01  0.88453593287E+01  0.51100000000E-03 0. -1.
        -11    1    3    3    0    0 -0.17648155624E+02  0.86750003231E+01 -0.34483960969E+02  0.39697060243E+02  0.51100000000E-03 0.  1.
         12    1    3    3    0    0  0.25920021983E+02 -0.55169021988E+01  0.31891938833E+02  0.41465401385E+02  0.00000000000E+00 0. -1.
</event>
<event>
 7    1  0.2542335E-015  0.9000773E+02  0.7816164E-02  0.1186339E+00
        -11   -1    0    0    0    0  0.00000000000E+00  0.00000000000E+00  0.45593999997E+02  0.45594000000E+02  0.51100000000E-03 0. -1.
         11   -1    0    0    0    0 -0.00000000000E+00 -0.00000000000E+00 -0.45593999997E+02  0.45594000000E+02  0.51100000000E-03 0.  1.
    9900012    2    1    2    0    0 -0.10029320782E+01  0.22048066368E+00 -0.58185918539E+00  0.90007726901E+02  0.89999988096E+02 0.  0.
        -12    1    1    2    0    0  0.10029320782E+01 -0.22048066368E+00  0.58185918539E+00  0.11802730990E+01  0.00000000000E+00 0.  1.
         11    1    3    3    0    0 -0.72690583660E+01  0.67329938647E+00 -0.43956484036E+01  0.85214005153E+01  0.51100000000E-03 0. -1.
        -11    1    3    3    0    0 -0.24596980522E+02  0.96829671859E+01 -0.26229038448E+02  0.37238874345E+02  0.51100000000E-03 0.  1.
         12    1    3    3    0    0  0.30863106809E+02 -0.10135785909E+02  0.30042827666E+02  0.44247452041E+02  0.00000000000E+00 0. -1.
</event>
<event>
 7    1  0.2542335E-015  0.9000774E+02  0.7816164E-02  0.1186339E+00
        -11   -1    0    0    0    0  0.00000000000E+00  0.00000000000E+00  0.45593999997E+02  0.45594000000E+02  0.51100000000E-03 0.  1.
         11   -1    0    0    0    0 -0.00000000000E+00 -0.00000000000E+00 -0.45593999997E+02  0.45594000000E+02  0.51100000000E-03 0. -1.
    9900012    2    1    2    0    0 -0.30750071841E-01 -0.18521580581E+00 -0.11652268539E+01  0.90007744060E+02  0.90000005482E+02 0.  0.
        -12    1    1    2    0    0  0.30750071841E-01  0.18521580581E+00  0.11652268539E+01  0.11802559395E+01  0.00000000000E+00 0.  1.
         11    1    3    3    0    0 -0.22756812647E+02  0.18717514961E+02 -0.23361591371E+02  0.37602949882E+02  0.51100000000E-03 0. -1.
        -11    1    3    3    0    0 -0.72107929488E+01 -0.60040261616E+01 -0.43718937170E+01  0.10351681991E+02  0.51100000000E-03 0.  1.
        -12    1    3    3    0    0  0.29936855524E+02 -0.12898704605E+02  0.26568258234E+02  0.42053112188E+02  0.00000000000E+00 0.  1.
</event>
<event>
 7    1  0.2542335E-015  0.9000792E+02  0.7816164E-02  0.1186339E+00
        -11   -1    0    0    0    0  0.00000000000E+00  0.00000000000E+00  0.45593999997E+02  0.45594000000E+02  0.51100000000E-03 0. -1.
         11   -1    0    0    0    0 -0.00000000000E+00 -0.00000000000E+00 -0.45593999997E+02  0.45594000000E+02  0.51100000000E-03 0.  1.
    9900012    2    1    2    0    0 -0.72803457051E-01  0.10648896123E+01  0.50329346954E+00  0.90007917568E+02  0.90000181280E+02 0.  0.
        -12    1    1    2    0    0  0.72803457051E-01 -0.10648896123E+01 -0.50329346954E+00  0.11800824320E+01  0.00000000000E+00 0.  1.
         11    1    3    3    0    0  0.21183414276E+02  0.31015552299E+02  0.11399988248E+02  0.39251258033E+02  0.51100000000E-03 0. -1.
        -11    1    3    3    0    0  0.36290000676E+01 -0.91891075842E+00  0.74558112993E+01  0.83428508835E+01  0.51100000000E-03 0.  1.
        -12    1    3    3    0    0 -0.24885217801E+02 -0.29031751929E+02 -0.18352506077E+02  0.42413808652E+02  0.00000000000E+00 0.  1.
</event>
<event>
 7    1  0.2542335E-015  0.9000774E+02  0.7816164E-02  0.1186339E+00
        -11   -1    0    0    0    0  0.00000000000E+00  0.00000000000E+00  0.45593999997E+02  0.45594000000E+02  0.51100000000E-03 0.  1.
         11   -1    0    0    0    0 -0.00000000000E+00 -0.00000000000E+00 -0.45593999997E+02  0.45594000000E+02  0.51100000000E-03 0. -1.
    9900012    2    1    2    0    0  0.15245360277E+00 -0.11565727565E+01 -0.17918788916E+00  0.90007741155E+02  0.90000002538E+02 0.  0.
        -12    1    1    2    0    0 -0.15245360277E+00  0.11565727565E+01  0.17918788916E+00  0.11802588452E+01  0.00000000000E+00 0.  1.
         11    1    3    3    0    0  0.30190730585E+02 -0.19515298040E+02  0.36768364522E+01  0.36136493983E+02  0.51100000000E-03 0. -1.
        -11    1    3    3    0    0  0.45212515559E+01 -0.78069022842E+01 -0.53672485547E+01  0.10497466181E+02  0.51100000000E-03 0.  1.
        -12    1    3    3    0    0 -0.34559528538E+02  0.26165627568E+02  0.15112242133E+01  0.43373780991E+02  0.00000000000E+00 0.  1.
</event>
<event>
 7    1  0.2542335E-015  0.9000771E+02  0.7816164E-02  0.1186339E+00
        -11   -1    0    0    0    0  0.00000000000E+00  0.00000000000E+00  0.45593999997E+02  0.45594000000E+02  0.51100000000E-03 0. -1.
         11   -1    0    0    0    0 -0.00000000000E+00 -0.00000000000E+00 -0.45593999997E+02  0.45594000000E+02  0.51100000000E-03 0.  1.
    9900012    2    1    2    0    0 -0.37333049379E+00 -0.80936011459E+00  0.77372640818E+00  0.90007706813E+02  0.89999967743E+02 0.  0.
        -12    1    1    2    0    0  0.37333049379E+00  0.80936011459E+00 -0.77372640818E+00  0.11802931871E+01  0.00000000000E+00 0.  1.
         11    1    3    3    0    0  0.28102924000E+02 -0.15422609695E+02  0.18773498397E+02  0.37149367013E+02  0.51100000000E-03 0. -1.
        -11    1    3    3    0    0  0.84701620766E+01  0.15072422000E+01  0.20244150964E+01  0.88381944648E+01  0.51100000000E-03 0.  1.
        -12    1    3    3    0    0 -0.36946416570E+02  0.13106007381E+02 -0.20024187086E+02  0.44020145335E+02  0.00000000000E+00 0.  1.
</event>
<event>
 7    1  0.2542335E-015  0.9000790E+02  0.7816164E-02  0.1186339E+00
        -11   -1    0    0    0    0  0.00000000000E+00  0.00000000000E+00  0.45593999997E+02  0.45594000000E+02  0.51100000000E-03 0. -1.
         11   -1    0    0    0    0 -0.00000000000E+00 -0.00000000000E+00 -0.45593999997E+02  0.45594000000E+02  0.51100000000E-03 0.  1.
    9900012    2    1    2    0    0 -0.13188967665E+00  0.94910834056E+00  0.68878584805E+00  0.90007903617E+02  0.90000167144E+02 0.  0.
        -12    1    1    2    0    0  0.13188967665E+00 -0.94910834056E+00 -0.68878584805E+00  0.11800963831E+01  0.00000000000E+00 0.  1.
         11    1    3    3    0    0  0.60827689763E+01  0.53927243239E+01 -0.12913392261E+01  0.82309848323E+01  0.51100000000E-03 0. -1.
        -11    1    3    3    0    0  0.61527513511E+01  0.40823594430E+01 -0.38186230087E+02  0.38893575001E+02  0.51100000000E-03 0.  1.
         12    1    3    3    0    0 -0.12367410004E+02 -0.85259754263E+01  0.40166355161E+02  0.42883343784E+02  0.00000000000E+00 0. -1.
</event>
<event>
 7    1  0.2542335E-015  0.9000790E+02  0.7816164E-02  0.1186339E+00
        -11   -1    0    0    0    0  0.00000000000E+00  0.00000000000E+00  0.45593999997E+02  0.45594000000E+02  0.51100000000E-03 0.  1.
         11   -1    0    0    0    0 -0.00000000000E+00 -0.00000000000E+00 -0.45593999997E+02  0.45594000000E+02  0.51100000000E-03 0. -1.
    9900012    2    1    2    0    0 -0.14669937447E+00  0.84929876914E+00 -0.80611166920E+00  0.90007896136E+02  0.90000159565E+02 0.  0.
        -12    1    1    2    0    0  0.14669937447E+00 -0.84929876914E+00  0.80611166920E+00  0.11801038636E+01  0.00000000000E+00 0.  1.
         11    1    3    3    0    0  0.34422010811E+02  0.34001515442E+01 -0.15430846236E+02  0.37875412533E+02  0.51100000000E-03 0. -1.
        -11    1    3    3    0    0  0.52964049823E+00 -0.32862325083E+01 -0.91479072853E+01  0.97346828977E+01  0.51100000000E-03 0.  1.
        -12    1    3    3    0    0 -0.35098350683E+02  0.73537973325E+00  0.23772641852E+02  0.42397800705E+02  0.00000000000E+00 0.  1.
</event>
<event>
 7    1  0.2542335E-015  0.9000770E+02  0.7816164E-02  0.1186339E+00
        -11   -1    0    0    0    0  0.00000000000E+00  0.00000000000E+00  0.45593999997E+02  0.45594000000E+02  0.51100000000E-03 0.  1.
         11   -1    0    0    0    0 -0.00000000000E+00 -0.00000000000E+00 -0.45593999997E+02  0.45594000000E+02  0.51100000000E-03 0. -1.
    9900012    2    1    2    0    0 -0.70261110256E+00  0.85603886451E+00  0.40822708856E+00  0.90007697388E+02  0.89999958194E+02 0.  0.
        -12    1    1    2    0    0  0.70261110256E+00 -0.85603886451E+00 -0.40822708856E+00  0.11803026115E+01  0.00000000000E+00 0.  1.
         11    1    3    3    0    0 -0.14393200711E+01  0.10068479101E+02 -0.33405215640E+01  0.10705372401E+02  0.51100000000E-03 0. -1.
        -11    1    3    3    0    0 -0.36715913296E+02 -0.18673610012E+00 -0.10562025777E+02  0.38205360204E+02  0.51100000000E-03 0.  1.
         12    1    3    3    0    0  0.37452622265E+02 -0.90257041359E+01  0.14310774430E+02  0.41096964784E+02  0.00000000000E+00 0. -1.
</event>
<event>
 7    1  0.2542335E-015  0.9000728E+02  0.7816164E-02  0.1186340E+00
        -11   -1    0    0    0    0  0.00000000000E+00  0.00000000000E+00  0.45593999997E+02  0.45594000000E+02  0.51100000000E-03 0. -1.
         11   -1    0    0    0    0 -0.00000000000E+00 -0.00000000000E+00 -0.45593999997E+02  0.45594000000E+02  0.51100000000E-03 0.  1.
    9900012    2    1    2    0    0 -0.35526156929E+00  0.17058584406E+00  0.11130073930E+01  0.90007281672E+02  0.89999536989E+02 0.  0.
        -12    1    1    2    0    0  0.35526156929E+00 -0.17058584406E+00 -0.11130073930E+01  0.11807183279E+01  0.00000000000E+00 0.  1.
         11    1    3    3    0    0  0.33894018089E+02  0.23857601828E+02  0.39084679452E+01  0.41632508322E+02  0.51100000000E-03 0. -1.
        -11    1    3    3    0    0 -0.29607720738E+01 -0.12883593548E+01  0.78178774599E+01  0.84584424890E+01  0.51100000000E-03 0.  1.
        -12    1    3    3    0    0 -0.31288507584E+02 -0.22398656630E+02 -0.10613338012E+02  0.39916330861E+02  0.00000000000E+00 0.  1.
</event>
<event>
 7    1  0.2542335E-015  0.9000758E+02  0.7816164E-02  0.1186339E+00
        -11   -1    0    0    0    0  0.00000000000E+00  0.00000000000E+00  0.45593999997E+02  0.45594000000E+02  0.51100000000E-03 0.  1.
         11   -1    0    0    0    0 -0.00000000000E+00 -0.00000000000E+00 -0.45593999997E+02  0.45594000000E+02  0.51100000000E-03 0. -1.
    9900012    2    1    2    0    0  0.28920325373E+00  0.65759804885E+00 -0.93665010574E+00  0.90007581796E+02  0.89999841076E+02 0.  0.
        -12    1    1    2    0    0 -0.28920325373E+00 -0.65759804885E+00  0.93665010574E+00  0.11804182040E+01  0.00000000000E+00 0.  1.
         11    1    3    3    0    0  0.68944460797E+01  0.27226373375E+02 -0.23856228297E+02  0.36850080362E+02  0.51100000000E-03 0. -1.
        -11    1    3    3    0    0  0.35229323190E+01  0.81623854763E+01 -0.21450966718E+01  0.91453282489E+01  0.51100000000E-03 0.  1.
        -12    1    3    3    0    0 -0.10128175145E+02 -0.34731160802E+02  0.25064674863E+02  0.44012173185E+02  0.00000000000E+00 0.  1.
</event>
<event>
 7    1  0.2542335E-015  0.9000775E+02  0.7816164E-02  0.1186339E+00
        -11   -1    0    0    0    0  0.00000000000E+00  0.00000000000E+00  0.45593999997E+02  0.45594000000E+02  0.51100000000E-03 0.  1.
         11   -1    0    0    0    0 -0.00000000000E+00 -0.00000000000E+00 -0.45593999997E+02  0.45594000000E+02  0.51100000000E-03 0. -1.
    9900012    2    1    2    0    0 -0.10644377639E+01 -0.18199997723E+00  0.47627258925E+00  0.90007751160E+02  0.90000012675E+02 0.  0.
        -12    1    1    2    0    0  0.10644377639E+01  0.18199997723E+00 -0.47627258925E+00  0.11802488400E+01  0.00000000000E+00 0.  1.
         11    1    3    3    0    0 -0.24163286387E+01 -0.52934266243E+01 -0.85822780914E+01  0.10368920243E+02  0.51100000000E-03 0. -1.
        -11    1    3    3    0    0  0.45848222999E+01 -0.25123738788E+02 -0.23771776632E+02  0.34890116232E+02  0.51100000000E-03 0.  1.
         12    1    3    3    0    0 -0.32329314251E+01  0.30235165435E+02  0.32830327312E+02  0.44748714684E+02  0.00000000000E+00 0. -1.
</event>
<event>
 7    1  0.2542335E-015  0.9000785E+02  0.7816164E-02  0.1186339E+00
        -11   -1    0    0    0    0  0.00000000000E+00  0.00000000000E+00  0.45593999997E+02  0.45594000000E+02  0.51100000000E-03 0.  1.
         11   -1    0    0    0    0 -0.00000000000E+00 -0.00000000000E+00 -0.45593999997E+02  0.45594000000E+02  0.51100000000E-03 0. -1.
    9900012    2    1    2    0    0 -0.51420199913E+00 -0.68531028627E-01 -0.10600232721E+01  0.90007851901E+02  0.90000114746E+02 0.  0.
        -12    1    1    2    0    0  0.51420199913E+00  0.68531028627E-01  0.10600232721E+01  0.11801480988E+01  0.00000000000E+00 0.  1.
         11    1    3    3    0    0 -0.10005684751E+01 -0.13396955936E+02 -0.34028576187E+02  0.36584471613E+02  0.51100000000E-03 0. -1.
        -11    1    3    3    0    0 -0.29867639187E+01  0.51658189352E+00 -0.89520627680E+01  0.94512985151E+01  0.51100000000E-03 0.  1.
        -12    1    3    3    0    0  0.34731303947E+01  0.12811843014E+02  0.41920615683E+02  0.43972081773E+02  0.00000000000E+00 0.  1.
</event>
<event>
 7    1  0.2542335E-015  0.9000774E+02  0.7816164E-02  0.1186339E+00
        -11   -1    0    0    0    0  0.00000000000E+00  0.00000000000E+00  0.45593999997E+02  0.45594000000E+02  0.51100000000E-03 0.  1.
         11   -1    0    0    0    0 -0.00000000000E+00 -0.00000000000E+00 -0.45593999997E+02  0.45594000000E+02  0.51100000000E-03 0. -1.
    9900012    2    1    2    0    0  0.50854962046E+00 -0.71960741802E+00 -0.78520917408E+00  0.90007741130E+02  0.90000002513E+02 0.  0.
        -12    1    1    2    0    0 -0.50854962046E+00  0.71960741802E+00  0.78520917408E+00  0.11802588697E+01  0.00000000000E+00 0.  1.
         11    1    3    3    0    0 -0.20143047558E+02  0.68711292539E+01 -0.32496178295E+02  0.38845287824E+02  0.51100000000E-03 0. -1.
        -11    1    3    3    0    0  0.81997887529E+01 -0.57648161742E+00 -0.64272231281E+01  0.10434465202E+02  0.51100000000E-03 0.  1.
        -12    1    3    3    0    0  0.12451808425E+02 -0.70142550545E+01  0.38138192249E+02  0.40727988104E+02  0.00000000000E+00 0.  1.
</event>
<event>
 7    1  0.2542335E-015  0.9000772E+02  0.7816164E-02  0.1186339E+00
        -11   -1    0    0    0    0  0.00000000000E+00  0.00000000000E+00  0.45593999997E+02  0.45594000000E+02  0.51100000000E-03 0.  1.
         11   -1    0    0    0    0 -0.00000000000E+00 -0.00000000000E+00 -0.45593999997E+02  0.45594000000E+02  0.51100000000E-03 0. -1.
    9900012    2    1    2    0    0 -0.15495834476E+00 -0.94178502040E+00 -0.69432483614E+00  0.90007721181E+02  0.89999982300E+02 0.  0.
        -12    1    1    2    0    0  0.15495834476E+00  0.94178502040E+00  0.69432483614E+00  0.11802788193E+01  0.00000000000E+00 0.  1.
         11    1    3    3    0    0 -0.20982200066E+01 -0.16408817119E+02 -0.33201567128E+02  0.37094418266E+02  0.51100000000E-03 0. -1.
        -11    1    3    3    0    0  0.41015733004E+00  0.37106819932E+01 -0.90012991946E+01  0.97447820572E+01  0.51100000000E-03 0.  1.
        -12    1    3    3    0    0  0.15331043318E+01  0.11756350105E+02  0.41508541487E+02  0.43168520858E+02  0.00000000000E+00 0.  1.
</event>
<event>
 7    1  0.2542335E-015  0.9000770E+02  0.7816164E-02  0.1186339E+00
        -11   -1    0    0    0    0  0.00000000000E+00  0.00000000000E+00  0.45593999997E+02  0.45594000000E+02  0.51100000000E-03 0. -1.
         11   -1    0    0    0    0 -0.00000000000E+00 -0.00000000000E+00 -0.45593999997E+02  0.45594000000E+02  0.51100000000E-03 0.  1.
    9900012    2    1    2    0    0  0.18436095713E+00  0.10966212774E+01  0.39565577676E+00  0.90007698902E+02  0.89999959727E+02 0.  0.
        -12    1    1    2    0    0 -0.18436095713E+00 -0.10966212774E+01 -0.39565577676E+00  0.11803010981E+01  0.00000000000E+00 0.  1.
         11    1    3    3    0    0 -0.29555015533E+02  0.23421317287E+02 -0.13373656340E+02  0.40011395011E+02  0.51100000000E-03 0. -1.
        -11    1    3    3    0    0 -0.48352944244E+01 -0.82107742242E+01 -0.15087616326E+01  0.96474477172E+01  0.51100000000E-03 0.  1.
        -12    1    3    3    0    0  0.34574670914E+02 -0.14113921785E+02  0.15278073750E+02  0.40348856173E+02  0.00000000000E+00 0.  1.
</event>
<event>
 7    1  0.2542335E-015  0.9000765E+02  0.7816164E-02  0.1186339E+00
        -11   -1    0    0    0    0  0.00000000000E+00  0.00000000000E+00  0.45593999997E+02  0.45594000000E+02  0.51100000000E-03 0. -1.
         11   -1    0    0    0    0 -0.00000000000E+00 -0.00000000000E+00 -0.45593999997E+02  0.45594000000E+02  0.51100000000E-03 0.  1.
    9900012    2    1    2    0    0  0.58395375101E-01  0.85305168694E+00  0.81371056975E+00  0.90007647471E+02  0.89999907618E+02 0.  0.
        -12    1    1    2    0    0 -0.58395375101E-01 -0.85305168694E+00 -0.81371056975E+00  0.11803525286E+01  0.00000000000E+00 0.  1.
         11    1    3    3    0    0 -0.32059422916E+02 -0.20113321428E+02  0.70450195094E+01  0.38496553050E+02  0.51100000000E-03 0. -1.
        -11    1    3    3    0    0 -0.36490755591E+01  0.50140839995E+00  0.72683389816E+01  0.81483688326E+01  0.51100000000E-03 0.  1.
        -12    1    3    3    0    0  0.35766893850E+02  0.20464964715E+02 -0.13499647921E+02  0.43362725589E+02  0.00000000000E+00 0.  1.
</event>
<event>
 7    1  0.2542335E-015  0.9000779E+02  0.7816164E-02  0.1186339E+00
        -11   -1    0    0    0    0  0.00000000000E+00  0.00000000000E+00  0.45593999997E+02  0.45594000000E+02  0.51100000000E-03 0. -1.
         11   -1    0    0    0    0 -0.00000000000E+00 -0.00000000000E+00 -0.45593999997E+02  0.45594000000E+02  0.51100000000E-03 0.  1.
    9900012    2    1    2    0    0 -0.64339845320E+00  0.87265116460E+00 -0.46627467904E+00  0.90007790823E+02  0.90000052862E+02 0.  0.
        -12    1    1    2    0    0  0.64339845320E+00 -0.87265116460E+00  0.46627467904E+00  0.11802091768E+01  0.00000000000E+00 0.  1.
         11    1    3    3    0    0  0.18833715750E+02 -0.34468758386E+02  0.99486987875E+01  0.40518893882E+02  0.51100000000E-03 0. -1.
        -11    1    3    3    0    0  0.35712791723E+01  0.42913233084E+01  0.53469054744E+01  0.77303873821E+01  0.51100000000E-03 0.  1.
        -12    1    3    3    0    0 -0.23048393375E+02  0.31050086242E+02 -0.15761878941E+02  0.41758509559E+02  0.00000000000E+00 0.  1.
</event>
<event>
 7    1  0.2542335E-015  0.9000777E+02  0.7816164E-02  0.1186339E+00
        -11   -1    0    0    0    0  0.00000000000E+00  0.00000000000E+00  0.45593999997E+02  0.45594000000E+02  0.51100000000E-03 0. -1.
         11   -1    0    0    0    0 -0.00000000000E+00 -0.00000000000E+00 -0.45593999997E+02  0.45594000000E+02  0.51100000000E-03 0.  1.
    9900012    2    1    2    0    0  0.66088608995E+00  0.61943476476E+00  0.75662022580E+00  0.90007769507E+02  0.90000031264E+02 0.  0.
        -12    1    1    2    0    0 -0.66088608995E+00 -0.61943476476E+00 -0.75662022580E+00  0.11802304935E+01  0.00000000000E+00 0.  1.
         11    1    3    3    0    0  0.98538227503E+01 -0.46016979676E+01 -0.38695940858E-01  0.10875428480E+02  0.51100000000E-03 0. -1.
        -11    1    3    3    0    0 -0.20367240434E+02 -0.26756126015E+02  0.21044005753E+02  0.39668185496E+02  0.51100000000E-03 0.  1.
         12    1    3    3    0    0  0.11174303773E+02  0.31977258747E+02 -0.20248689586E+02  0.39464155531E+02  0.00000000000E+00 0. -1.
</event>
<event>
 7    1  0.2542335E-015  0.9000774E+02  0.7816164E-02  0.1186339E+00
        -11   -1    0    0    0    0  0.00000000000E+00  0.00000000000E+00  0.45593999997E+02  0.45594000000E+02  0.51100000000E-03 0.  1.
         11   -1    0    0    0    0 -0.00000000000E+00 -0.00000000000E+00 -0.45593999997E+02  0.45594000000E+02  0.51100000000E-03 0. -1.
    9900012    2    1    2    0    0  0.36994672148E+00  0.76369414673E+00 -0.82032306197E+00  0.90007737634E+02  0.89999998971E+02 0.  0.
        -12    1    1    2    0    0 -0.36994672148E+00 -0.76369414673E+00  0.82032306197E+00  0.11802623660E+01  0.00000000000E+00 0.  1.
         11    1    3    3    0    0  0.45941305560E+01 -0.10743464155E+01 -0.78295148784E+01  0.91412011945E+01  0.51100000000E-03 0. -1.
        -11    1    3    3    0    0  0.29844818953E+02 -0.16238297331E+02  0.20881296614E+02  0.39880121202E+02  0.51100000000E-03 0.  1.
         12    1    3    3    0    0 -0.34069002787E+02  0.18076337893E+02 -0.13872104797E+02  0.40986415238E+02  0.00000000000E+00 0. -1.
</event>
<event>
 7    1  0.2542335E-015  0.9000780E+02  0.7816164E-02  0.1186339E+00
        -11   -1    0    0    0    0  0.00000000000E+00  0.00000000000E+00  0.45593999997E+02  0.45594000000E+02  0.51100000000E-03 0. -1.
         11   -1    0    0    0    0 -0.00000000000E+00 -0.00000000000E+00 -0.45593999997E+02  0.45594000000E+02  0.51100000000E-03 0.  1.
    9900012    2    1    2    0    0 -0.10093439160E+01  0.48292611319E+00  0.37532519163E+00  0.90007804351E+02  0.90000066568E+02 0.  0.
        -12    1    1    2    0    0  0.10093439160E+01 -0.48292611319E+00 -0.37532519163E+00  0.11801956495E+01  0.00000000000E+00 0.  1.
         11    1    3    3    0    0  0.70892116904E+01 -0.37874229813E+01  0.51580346351E+01  0.95502260072E+01  0.51100000000E-03 0. -1.
        -11    1    3    3    0    0 -0.27183478372E+02 -0.30206461289E+02 -0.57328861492E+01  0.41039466174E+02  0.51100000000E-03 0.  1.
         12    1    3    3    0    0  0.19084922766E+02  0.34476810384E+02  0.95017670571E+00  0.39418112169E+02  0.00000000000E+00 0. -1.
</event>
<event>
 7    1  0.2542335E-015  0.9000773E+02  0.7816164E-02  0.1186339E+00
        -11   -1    0    0    0    0  0.00000000000E+00  0.00000000000E+00  0.45593999997E+02  0.45594000000E+02  0.51100000000E-03 0. -1.
         11   -1    0    0    0    0 -0.00000000000E+00 -0.00000000000E+00 -0.45593999997E+02  0.45594000000E+02  0.51100000000E-03 0.  1.
    9900012    2    1    2    0    0 -0.59800936516E+00 -0.75634290414E+00 -0.68070749244E+00  0.90007732031E+02  0.89999993293E+02 0.  0.
        -12    1    1    2    0    0  0.59800936516E+00  0.75634290414E+00  0.68070749244E+00  0.11802679695E+01  0.00000000000E+00 0.  1.
         11    1    3    3    0    0 -0.93369505440E+01  0.25395815327E+02  0.28627489017E+02  0.39391105713E+02  0.51100000000E-03 0. -1.
        -11    1    3    3    0    0  0.77057667377E+01 -0.31543474186E+01  0.46909028038E+01  0.95568466571E+01  0.51100000000E-03 0.  1.
        -12    1    3    3    0    0  0.10331744412E+01 -0.22997810813E+02 -0.33999099314E+02  0.41059779660E+02  0.00000000000E+00 0.  1.
</event>
<event>
 7    1  0.2542335E-015  0.9000775E+02  0.7816164E-02  0.1186339E+00
        -11   -1    0    0    0    0  0.00000000000E+00  0.00000000000E+00  0.45593999997E+02  0.45594000000E+02  0.51100000000E-03 0. -1.
         11   -1    0    0    0    0 -0.00000000000E+00 -0.00000000000E+00 -0.45593999997E+02  0.45594000000E+02  0.51100000000E-03 0.  1.
    9900012    2    1    2    0    0  0.10281018163E+01  0.57186993479E+00  0.94626662968E-01  0.90007753088E+02  0.90000014629E+02 0.  0.
        -12    1    1    2    0    0 -0.10281018163E+01 -0.57186993479E+00 -0.94626662968E-01  0.11802469116E+01  0.00000000000E+00 0.  1.
         11    1    3    3    0    0 -0.63297357786E+01 -0.77026955603E+01  0.32017686913E+01  0.10471313047E+02  0.51100000000E-03 0. -1.
        -11    1    3    3    0    0 -0.28270337112E+02  0.45817399618E+01 -0.24608474415E+02  0.37759519525E+02  0.51100000000E-03 0.  1.
         12    1    3    3    0    0  0.35628174707E+02  0.36928255332E+01  0.21501332386E+02  0.41776920516E+02  0.00000000000E+00 0. -1.
</event>
<event>
 7    1  0.2542335E-015  0.9000770E+02  0.7816164E-02  0.1186339E+00
        -11   -1    0    0    0    0  0.00000000000E+00  0.00000000000E+00  0.45593999997E+02  0.45594000000E+02  0.51100000000E-03 0.  1.
         11   -1    0    0    0    0 -0.00000000000E+00 -0.00000000000E+00 -0.45593999997E+02  0.45594000000E+02  0.51100000000E-03 0. -1.
    9900012    2    1    2    0    0 -0.13838700724E+00 -0.11494093519E+01 -0.22980067353E+00  0.90007702931E+02  0.89999963809E+02 0.  0.
        -12    1    1    2    0    0  0.13838700724E+00  0.11494093519E+01  0.22980067353E+00  0.11802970692E+01  0.00000000000E+00 0.  1.
         11    1    3    3    0    0 -0.64985230768E+01 -0.31643616842E+01 -0.36466234193E+02  0.37175667089E+02  0.51100000000E-03 0. -1.
        -11    1    3    3    0    0  0.52651085474E+01  0.68834193138E+01 -0.58467322832E+01  0.10454047451E+02  0.51100000000E-03 0.  1.
        -12    1    3    3    0    0  0.10950275222E+01 -0.48684669815E+01  0.42083165803E+02  0.42377988390E+02  0.00000000000E+00 0.  1.
</event>
<event>
 7    1  0.2542335E-015  0.9000775E+02  0.7816164E-02  0.1186339E+00
        -11   -1    0    0    0    0  0.00000000000E+00  0.00000000000E+00  0.45593999997E+02  0.45594000000E+02  0.51100000000E-03 0. -1.
         11   -1    0    0    0    0 -0.00000000000E+00 -0.00000000000E+00 -0.45593999997E+02  0.45594000000E+02  0.51100000000E-03 0.  1.
    9900012    2    1    2    0    0 -0.98892954013E+00  0.27255015747E+00  0.58371601291E+00  0.90007750193E+02  0.90000011695E+02 0.  0.
        -12    1    1    2    0    0  0.98892954013E+00 -0.27255015747E+00 -0.58371601291E+00  0.11802498072E+01  0.00000000000E+00 0.  1.
         11    1    3    3    0    0 -0.15285935591E+02  0.36567231995E+02 -0.18484641121E+02  0.43732187692E+02  0.51100000000E-03 0. -1.
        -11    1    3    3    0    0 -0.25943519711E+01 -0.48637391058E+01  0.63155069390E+01  0.83828544302E+01  0.51100000000E-03 0.  1.
        -12    1    3    3    0    0  0.16891358022E+02 -0.31430942732E+02  0.12752850195E+02  0.37892708071E+02  0.00000000000E+00 0.  1.
</event>
<event>
 7    1  0.3317097E-015  0.9000776E+02  0.7816164E-02  0.1186339E+00
        -11   -1    0    0    0    0  0.00000000000E+00  0.00000000000E+00  0.45593999997E+02  0.45594000000E+02  0.51100000000E-03 0.  1.
         11   -1    0    0    0    0 -0.00000000000E+00 -0.00000000000E+00 -0.45593999997E+02  0.45594000000E+02  0.51100000000E-03 0. -1.
    9900012    2    1    2    0    0 -0.45731597982E+00  0.95371450101E+00 -0.52370107633E+00  0.90007757621E+02  0.90000019222E+02 0.  0.
        -12    1    1    2    0    0  0.45731597982E+00 -0.95371450101E+00  0.52370107633E+00  0.11802423786E+01  0.00000000000E+00 0.  1.
         11    1    3    3    0    0  0.12613743828E+01 -0.88098332564E+01  0.23550239150E+01  0.92059961569E+01  0.51100000000E-03 0. -1.
        -11    1    3    3    0    0  0.24851983075E+02  0.22971600959E+02  0.23417076901E+02  0.41154282939E+02  0.51100000000E-03 0.  1.
         12    1    3    3    0    0 -0.26570673438E+02 -0.13208053201E+02 -0.26295801892E+02  0.39647478526E+02  0.00000000000E+00 0. -1.
</event>
<event>
 7    1  0.2542335E-015  0.9000778E+02  0.7816164E-02  0.1186339E+00
        -11   -1    0    0    0    0  0.00000000000E+00  0.00000000000E+00  0.45593999997E+02  0.45594000000E+02  0.51100000000E-03 0.  1.
         11   -1    0    0    0    0 -0.00000000000E+00 -0.00000000000E+00 -0.45593999997E+02  0.45594000000E+02  0.51100000000E-03 0. -1.
    9900012    2    1    2    0    0  0.10682434389E+01 -0.37304174751E+00  0.33559588309E+00  0.90007775959E+02  0.90000037802E+02 0.  0.
        -12    1    1    2    0    0 -0.10682434389E+01  0.37304174751E+00 -0.33559588309E+00  0.11802240410E+01  0.00000000000E+00 0.  1.
         11    1    3    3    0    0  0.29586402154E+02  0.12412511953E+02  0.24848669640E+02  0.40581794299E+02  0.51100000000E-03 0. -1.
        -11    1    3    3    0    0  0.46770003786E+01 -0.29551577850E+01 -0.10903666075E+02  0.12226905749E+02  0.51100000000E-03 0.  1.
        -12    1    3    3    0    0 -0.33195159094E+02 -0.98303959155E+01 -0.13609407682E+02  0.37199075910E+02  0.00000000000E+00 0.  1.
</event>
<event>
 7    1  0.2542335E-015  0.9000781E+02  0.7816164E-02  0.1186339E+00
        -11   -1    0    0    0    0  0.00000000000E+00  0.00000000000E+00  0.45593999997E+02  0.45594000000E+02  0.51100000000E-03 0. -1.
         11   -1    0    0    0    0 -0.00000000000E+00 -0.00000000000E+00 -0.45593999997E+02  0.45594000000E+02  0.51100000000E-03 0.  1.
    9900012    2    1    2    0    0  0.47801167317E-01  0.72588613260E+00  0.92933147983E+00  0.90007808224E+02  0.90000070492E+02 0.  0.
        -12    1    1    2    0    0 -0.47801167317E-01 -0.72588613260E+00 -0.92933147983E+00  0.11801917762E+01  0.00000000000E+00 0.  1.
         11    1    3    3    0    0  0.23334728590E+00  0.70226953738E+01  0.13902065196E+02  0.15576909778E+02  0.51100000000E-03 0. -1.
        -11    1    3    3    0    0 -0.32517617180E+02  0.12790337169E+02 -0.11749851989E+02  0.36865257004E+02  0.51100000000E-03 0.  1.
         12    1    3    3    0    0  0.32332071061E+02 -0.19087146410E+02 -0.12228817269E+01  0.37565641441E+02  0.00000000000E+00 0. -1.
</event>
<event>
 7    1  0.2542335E-015  0.9000776E+02  0.7816164E-02  0.1186339E+00
        -11   -1    0    0    0    0  0.00000000000E+00  0.00000000000E+00  0.45593999997E+02  0.45594000000E+02  0.51100000000E-03 0. -1.
         11   -1    0    0    0    0 -0.00000000000E+00 -0.00000000000E+00 -0.45593999997E+02  0.45594000000E+02  0.51100000000E-03 0.  1.
    9900012    2    1    2    0    0  0.28301727491E+00 -0.38078612991E+00  0.10806846666E+01  0.90007755871E+02  0.90000017449E+02 0.  0.
        -12    1    1    2    0    0 -0.28301727491E+00  0.38078612991E+00 -0.10806846666E+01  0.11802441286E+01  0.00000000000E+00 0.  1.
         11    1    3    3    0    0 -0.24412691689E+01 -0.25827183707E+02  0.25524579061E+02  0.36393781747E+02  0.51100000000E-03 0. -1.
        -11    1    3    3    0    0  0.78041710539E+00 -0.34866005323E+01  0.88013232957E+01  0.94988802575E+01  0.51100000000E-03 0.  1.
        -12    1    3    3    0    0  0.19438693384E+01  0.28932998110E+02 -0.33245217690E+02  0.44115093866E+02  0.00000000000E+00 0.  1.
</event>
<event>
 8    1  0.2542335E-015  0.9000776E+02  0.7816164E-02  0.1186339E+00
        -11   -1    0    0    0    0  0.00000000000E+00  0.00000000000E+00  0.45593999997E+02  0.45594000000E+02  0.51100000000E-03 0. -1.
         11   -1    0    0    0    0 -0.00000000000E+00 -0.00000000000E+00 -0.45593999997E+02  0.45594000000E+02  0.51100000000E-03 0.  1.
    9900012    2    1    2    0    0  0.38986381612E+00 -0.10923191268E+01 -0.21863198845E+00  0.90007764932E+02  0.90000026629E+02 0.  0.
         23    2    3    3    0    0 -0.21864963013E+02 -0.16685938304E+02 -0.24115855533E+01  0.62745202294E+02  0.56344010519E+02 0.  0.
        -12    1    1    2    0    0 -0.38986381612E+00  0.10923191268E+01  0.21863198845E+00  0.11802350682E+01  0.00000000000E+00 0.  1.
         11    1    4    4    0    0 -0.66020659889E+00 -0.63270078847E+01  0.25449407965E+02  0.26232408726E+02  0.51100000000E-03 0. -1.
        -11    1    4    4    0    0 -0.21204756415E+02 -0.10358930419E+02 -0.27860993518E+02  0.36512793568E+02  0.51100000000E-03 0.  1.
         12    1    3    3    0    0  0.22254826830E+02  0.15593619177E+02  0.21929535649E+01  0.27262562638E+02  0.00000000000E+00 0. -1.
</event>
<event>
 7    1  0.2542335E-015  0.9000783E+02  0.7816164E-02  0.1186339E+00
        -11   -1    0    0    0    0  0.00000000000E+00  0.00000000000E+00  0.45593999997E+02  0.45594000000E+02  0.51100000000E-03 0. -1.
         11   -1    0    0    0    0 -0.00000000000E+00 -0.00000000000E+00 -0.45593999997E+02  0.45594000000E+02  0.51100000000E-03 0.  1.
    9900012    2    1    2    0    0 -0.52053560176E+00  0.10591087131E+01 -0.11911659730E-01  0.90007826086E+02  0.90000088591E+02 0.  0.
        -12    1    1    2    0    0  0.52053560176E+00 -0.10591087131E+01  0.11911659730E-01  0.11801739137E+01  0.00000000000E+00 0.  1.
         11    1    3    3    0    0 -0.25013635866E+02  0.13297602425E+02  0.24530273490E+02  0.37473224138E+02  0.51100000000E-03 0. -1.
        -11    1    3    3    0    0 -0.69050384509E-02 -0.31034195973E+01  0.92791488365E+01  0.97843683633E+01  0.51100000000E-03 0.  1.
        -12    1    3    3    0    0  0.24500005303E+02 -0.91350741150E+01 -0.33821333987E+02  0.42750233585E+02  0.00000000000E+00 0.  1.
</event>
<event>
 7    1  0.3589674E-015  0.9000773E+02  0.7816164E-02  0.1186339E+00
        -11   -1    0    0    0    0  0.00000000000E+00  0.00000000000E+00  0.45593999997E+02  0.45594000000E+02  0.51100000000E-03 0.  1.
         11   -1    0    0    0    0 -0.00000000000E+00 -0.00000000000E+00 -0.45593999997E+02  0.45594000000E+02  0.51100000000E-03 0. -1.
    9900012    2    1    2    0    0  0.70322640606E-01 -0.73309132616E+00 -0.92231340287E+00  0.90007733005E+02  0.89999994281E+02 0.  0.
        -12    1    1    2    0    0 -0.70322640606E-01  0.73309132616E+00  0.92231340287E+00  0.11802669950E+01  0.00000000000E+00 0.  1.
         11    1    3    3    0    0 -0.51321383141E+01 -0.79264621857E+01  0.11428284058E+01  0.95117665806E+01  0.51100000000E-03 0. -1.
        -11    1    3    3    0    0  0.31799221020E+02 -0.20549215066E+02  0.11771461731E+02  0.39648808417E+02  0.51100000000E-03 0.  1.
         12    1    3    3    0    0 -0.26596760065E+02  0.27742585925E+02 -0.13836603540E+02  0.40847158008E+02  0.00000000000E+00 0. -1.
</event>
<event>
 7    1  0.2542335E-015  0.9000772E+02  0.7816164E-02  0.1186339E+00
        -11   -1    0    0    0    0  0.00000000000E+00  0.00000000000E+00  0.45593999997E+02  0.45594000000E+02  0.51100000000E-03 0.  1.
         11   -1    0    0    0    0 -0.00000000000E+00 -0.00000000000E+00 -0.45593999997E+02  0.45594000000E+02  0.51100000000E-03 0. -1.
    9900012    2    1    2    0    0  0.11037933839E+01 -0.40703112500E+00 -0.95019116570E-01  0.90007719184E+02  0.89999980278E+02 0.  0.
        -12    1    1    2    0    0 -0.11037933839E+01  0.40703112500E+00  0.95019116570E-01  0.11802808156E+01  0.00000000000E+00 0.  1.
         11    1    3    3    0    0 -0.33017424114E+02 -0.12519307358E+02 -0.13233128615E+02  0.37709402608E+02  0.51100000000E-03 0. -1.
        -11    1    3    3    0    0 -0.43116247067E+01 -0.60487258232E+01  0.51701074503E+01  0.90502598308E+01  0.51100000000E-03 0.  1.
        -12    1    3    3    0    0  0.38432842205E+02  0.18161002057E+02  0.79680020479E+01  0.43248056746E+02  0.00000000000E+00 0.  1.
</event>
<event>
 7    1  0.2542335E-015  0.9000767E+02  0.7816164E-02  0.1186339E+00
        -11   -1    0    0    0    0  0.00000000000E+00  0.00000000000E+00  0.45593999997E+02  0.45594000000E+02  0.51100000000E-03 0.  1.
         11   -1    0    0    0    0 -0.00000000000E+00 -0.00000000000E+00 -0.45593999997E+02  0.45594000000E+02  0.51100000000E-03 0. -1.
    9900012    2    1    2    0    0 -0.11416533381E+01  0.25511747307E+00 -0.15721286076E+00  0.90007672438E+02  0.89999932914E+02 0.  0.
        -12    1    1    2    0    0  0.11416533381E+01 -0.25511747307E+00  0.15721286076E+00  0.11803275618E+01  0.00000000000E+00 0.  1.
         11    1    3    3    0    0  0.20219019045E+02 -0.11432040171E+02 -0.29008484213E+02  0.37161706503E+02  0.51100000000E-03 0. -1.
        -11    1    3    3    0    0  0.83883312819E+00 -0.68998412568E+00 -0.80034177254E+01  0.80767824447E+01  0.51100000000E-03 0.  1.
        -12    1    3    3    0    0 -0.22199505512E+02  0.12377141770E+02  0.36854689078E+02  0.44769183490E+02  0.00000000000E+00 0.  1.
</event>
<event>
 7    1  0.2542335E-015  0.9000777E+02  0.7816164E-02  0.1186339E+00
        -11   -1    0    0    0    0  0.00000000000E+00  0.00000000000E+00  0.45593999997E+02  0.45594000000E+02  0.51100000000E-03 0.  1.
         11   -1    0    0    0    0 -0.00000000000E+00 -0.00000000000E+00 -0.45593999997E+02  0.45594000000E+02  0.51100000000E-03 0. -1.
    9900012    2    1    2    0    0  0.29416021369E+00  0.10907035473E+01 -0.34171655570E+00  0.90007773469E+02  0.90000035279E+02 0.  0.
        -12    1    1    2    0    0 -0.29416021369E+00 -0.10907035473E+01  0.34171655570E+00  0.11802265307E+01  0.00000000000E+00 0.  1.
         11    1    3    3    0    0  0.83861351857E+01  0.10319990685E+02  0.66416558436E+01  0.14864086372E+02  0.51100000000E-03 0. -1.
        -11    1    3    3    0    0 -0.56804871024E+01  0.48539225096E+01  0.32399041044E+02  0.33249456511E+02  0.51100000000E-03 0.  1.
         12    1    3    3    0    0 -0.24114878696E+01 -0.14083209647E+02 -0.39382413444E+02  0.41894230585E+02  0.00000000000E+00 0. -1.
</event>
<event>
 7    1  0.2542335E-015  0.9000791E+02  0.7816164E-02  0.1186339E+00
        -11   -1    0    0    0    0  0.00000000000E+00  0.00000000000E+00  0.45593999997E+02  0.45594000000E+02  0.51100000000E-03 0.  1.
         11   -1    0    0    0    0 -0.00000000000E+00 -0.00000000000E+00 -0.45593999997E+02  0.45594000000E+02  0.51100000000E-03 0. -1.
    9900012    2    1    2    0    0 -0.57766153653E+00  0.10166119542E+01  0.15941240872E+00  0.90007913125E+02  0.90000176778E+02 0.  0.
        -12    1    1    2    0    0  0.57766153653E+00 -0.10166119542E+01 -0.15941240872E+00  0.11800868749E+01  0.00000000000E+00 0.  1.
         11    1    3    3    0    0  0.10852637741E+01 -0.11509949942E+02 -0.72384672659E+01  0.13640093612E+02  0.51100000000E-03 0. -1.
        -11    1    3    3    0    0 -0.32794178173E+01 -0.31021278930E+02 -0.36621624639E+01  0.31408370888E+02  0.51100000000E-03 0.  1.
         12    1    3    3    0    0  0.16164925067E+01  0.43547840826E+02  0.11060042139E+02  0.44959448625E+02  0.00000000000E+00 0. -1.
</event>
<event>
 7    1  0.2828723E-015  0.9000775E+02  0.7816164E-02  0.1186339E+00
        -11   -1    0    0    0    0  0.00000000000E+00  0.00000000000E+00  0.45593999997E+02  0.45594000000E+02  0.51100000000E-03 0. -1.
         11   -1    0    0    0    0 -0.00000000000E+00 -0.00000000000E+00 -0.45593999997E+02  0.45594000000E+02  0.51100000000E-03 0.  1.
    9900012    2    1    2    0    0 -0.22654673228E+00  0.34248553603E+00  0.11065075407E+01  0.90007754813E+02  0.90000016376E+02 0.  0.
        -12    1    1    2    0    0  0.22654673228E+00 -0.34248553603E+00 -0.11065075407E+01  0.11802451872E+01  0.00000000000E+00 0.  1.
         11    1    3    3    0    0  0.68635045454E+01  0.27596487260E+01 -0.63617566202E+01  0.97568080483E+01  0.51100000000E-03 0. -1.
        -11    1    3    3    0    0  0.24841710087E+02 -0.29095050692E+02  0.23779643202E+01  0.38331282908E+02  0.51100000000E-03 0.  1.
         12    1    3    3    0    0 -0.31931761364E+02  0.26677887502E+02  0.50902998407E+01  0.41919663857E+02  0.00000000000E+00 0. -1.
</event>
<event>
 7    1  0.2542335E-015  0.9000776E+02  0.7816164E-02  0.1186339E+00
        -11   -1    0    0    0    0  0.00000000000E+00  0.00000000000E+00  0.45593999997E+02  0.45594000000E+02  0.51100000000E-03 0.  1.
         11   -1    0    0    0    0 -0.00000000000E+00 -0.00000000000E+00 -0.45593999997E+02  0.45594000000E+02  0.51100000000E-03 0. -1.
    9900012    2    1    2    0    0  0.59609805120E-01  0.10319237423E+01  0.56969953607E+00  0.90007755322E+02  0.90000016892E+02 0.  0.
        -12    1    1    2    0    0 -0.59609805120E-01 -0.10319237423E+01 -0.56969953607E+00  0.11802446781E+01  0.00000000000E+00 0.  1.
         11    1    3    3    0    0 -0.82381710662E+01 -0.21157849712E+01  0.21281429342E+01  0.87677249711E+01  0.51100000000E-03 0. -1.
        -11    1    3    3    0    0  0.16185539713E+02 -0.34825753655E+02 -0.13423570125E+02  0.40681654939E+02  0.51100000000E-03 0.  1.
         12    1    3    3    0    0 -0.78877588416E+01  0.37973462368E+02  0.11865126727E+02  0.40558375412E+02  0.00000000000E+00 0. -1.
</event>
<event>
 7    1  0.2542335E-015  0.9000772E+02  0.7816164E-02  0.1186339E+00
        -11   -1    0    0    0    0  0.00000000000E+00  0.00000000000E+00  0.45593999997E+02  0.45594000000E+02  0.51100000000E-03 0.  1.
         11   -1    0    0    0    0 -0.00000000000E+00 -0.00000000000E+00 -0.45593999997E+02  0.45594000000E+02  0.51100000000E-03 0. -1.
    9900012    2    1    2    0    0 -0.67914504927E+00 -0.60209889260E+00 -0.75451916312E+00  0.90007720270E+02  0.89999981377E+02 0.  0.
        -12    1    1    2    0    0  0.67914504927E+00  0.60209889260E+00  0.75451916312E+00  0.11802797304E+01  0.00000000000E+00 0.  1.
         11    1    3    3    0    0 -0.57715386479E+01 -0.27798931902E+01  0.63654609614E+01  0.90309223242E+01  0.51100000000E-03 0. -1.
        -11    1    3    3    0    0  0.17276622290E+02 -0.13777220642E+02  0.30896455264E+02  0.37985318671E+02  0.51100000000E-03 0.  1.
         12    1    3    3    0    0 -0.12184228692E+02  0.15955014940E+02 -0.38016435389E+02  0.42991479274E+02  0.00000000000E+00 0. -1.
</event>
<event>
 7    1  0.2542335E-015  0.9000771E+02  0.7816164E-02  0.1186339E+00
        -11   -1    0    0    0    0  0.00000000000E+00  0.00000000000E+00  0.45593999997E+02  0.45594000000E+02  0.51100000000E-03 0. -1.
         11   -1    0    0    0    0 -0.00000000000E+00 -0.00000000000E+00 -0.45593999997E+02  0.45594000000E+02  0.51100000000E-03 0.  1.
    9900012    2    1    2    0    0 -0.94340532652E+00  0.28628747502E+00  0.64893187559E+00  0.90007709058E+02  0.89999970018E+02 0.  0.
        -12    1    1    2    0    0  0.94340532652E+00 -0.28628747502E+00 -0.64893187559E+00  0.11802909419E+01  0.00000000000E+00 0.  1.
         11    1    3    3    0    0 -0.13021656074E+02 -0.27303596029E+02  0.11070318355E+02  0.32211827514E+02  0.51100000000E-03 0. -1.
        -11    1    3    3    0    0 -0.13134145946E+02 -0.35744865661E+01 -0.11314029101E+02  0.17699999963E+02  0.51100000000E-03 0.  1.
        -12    1    3    3    0    0  0.25212396693E+02  0.31164370070E+02  0.89264262208E+00  0.40095881581E+02  0.00000000000E+00 0.  1.
</event>
<event>
 7    1  0.2542335E-015  0.9000780E+02  0.7816164E-02  0.1186339E+00
        -11   -1    0    0    0    0  0.00000000000E+00  0.00000000000E+00  0.45593999997E+02  0.45594000000E+02  0.51100000000E-03 0.  1.
         11   -1    0    0    0    0 -0.00000000000E+00 -0.00000000000E+00 -0.45593999997E+02  0.45594000000E+02  0.51100000000E-03 0. -1.
    9900012    2    1    2    0    0 -0.39978394751E+00 -0.38509512955E+00 -0.10415097471E+01  0.90007801704E+02  0.90000063887E+02 0.  0.
        -12    1    1    2    0    0  0.39978394751E+00  0.38509512955E+00  0.10415097471E+01  0.11801982955E+01  0.00000000000E+00 0.  1.
         11    1    3    3    0    0  0.69081632660E+01  0.31826576550E+01  0.54262350677E+01  0.93432358811E+01  0.51100000000E-03 0. -1.
        -11    1    3    3    0    0 -0.62772589564E+00  0.22894684675E+02 -0.34583987218E+02  0.41480269989E+02  0.51100000000E-03 0.  1.
         12    1    3    3    0    0 -0.66802213179E+01 -0.26462437460E+02  0.28116242403E+02  0.39184295835E+02  0.00000000000E+00 0. -1.
</event>
<event>
 7    1  0.2585994E-015  0.9000772E+02  0.7816164E-02  0.1186339E+00
        -11   -1    0    0    0    0  0.00000000000E+00  0.00000000000E+00  0.45593999997E+02  0.45594000000E+02  0.51100000000E-03 0. -1.
         11   -1    0    0    0    0 -0.00000000000E+00 -0.00000000000E+00 -0.45593999997E+02  0.45594000000E+02  0.51100000000E-03 0.  1.
    9900012    2    1    2    0    0 -0.84627783219E+00 -0.17227078748E+00 -0.80448629687E+00  0.90007719696E+02  0.89999980796E+02 0.  0.
        -12    1    1    2    0    0  0.84627783219E+00  0.17227078748E+00  0.80448629687E+00  0.11802803037E+01  0.00000000000E+00 0.  1.
         11    1    3    3    0    0  0.12226670659E+01  0.81058330006E+01 -0.45996680599E+01  0.93998079720E+01  0.51100000000E-03 0. -1.
        -11    1    3    3    0    0 -0.34855643660E+02 -0.82965454910E+01  0.23032737223E+02  0.42594078770E+02  0.51100000000E-03 0.  1.
         12    1    3    3    0    0  0.32786698762E+02  0.18441702953E-01 -0.19237555460E+02  0.38013832954E+02  0.00000000000E+00 0. -1.
</event>
<event>
 7    1  0.2542335E-015  0.9000765E+02  0.7816164E-02  0.1186339E+00
        -11   -1    0    0    0    0  0.00000000000E+00  0.00000000000E+00  0.45593999997E+02  0.45594000000E+02  0.51100000000E-03 0.  1.
         11   -1    0    0    0    0 -0.00000000000E+00 -0.00000000000E+00 -0.45593999997E+02  0.45594000000E+02  0.51100000000E-03 0. -1.
    9900012    2    1    2    0    0  0.11561828221E+01  0.82745027017E-01 -0.22273574616E+00  0.90007654004E+02  0.89999914237E+02 0.  0.
        -12    1    1    2    0    0 -0.11561828221E+01 -0.82745027017E-01  0.22273574616E+00  0.11803459960E+01  0.00000000000E+00 0.  1.
         11    1    3    3    0    0 -0.24474406715E+02  0.64538470358E+01 -0.29931322015E+02  0.39198632163E+02  0.51100000000E-03 0. -1.
        -11    1    3    3    0    0 -0.71386299448E+01  0.19332214967E+01  0.47717984016E+01  0.88015591283E+01  0.51100000000E-03 0.  1.
        -12    1    3    3    0    0  0.32769219482E+02 -0.83043235055E+01  0.24936787868E+02  0.42007462712E+02  0.00000000000E+00 0.  1.
</event>
<event>
 7    1  0.2542335E-015  0.9000775E+02  0.7816164E-02  0.1186339E+00
        -11   -1    0    0    0    0  0.00000000000E+00  0.00000000000E+00  0.45593999997E+02  0.45594000000E+02  0.51100000000E-03 0. -1.
         11   -1    0    0    0    0 -0.00000000000E+00 -0.00000000000E+00 -0.45593999997E+02  0.45594000000E+02  0.51100000000E-03 0.  1.
    9900012    2    1    2    0    0  0.35989362802E+00 -0.15947768676E+00  0.11126742880E+01  0.90007745524E+02  0.90000006965E+02 0.  0.
        -12    1    1    2    0    0 -0.35989362802E+00  0.15947768676E+00 -0.11126742880E+01  0.11802544757E+01  0.00000000000E+00 0.  1.
         11    1    3    3    0    0 -0.11931722092E+01  0.21897557778E+01  0.10284961086E+02  0.10582963436E+02  0.51100000000E-03 0. -1.
        -11    1    3    3    0    0 -0.37879035714E+02 -0.20142495647E+01 -0.12275436539E+02  0.39869347755E+02  0.51100000000E-03 0.  1.
         12    1    3    3    0    0  0.39432101551E+02 -0.33498389981E+00  0.31031497416E+01  0.39555434333E+02  0.00000000000E+00 0. -1.
</event>
<event>
 7    1  0.2542335E-015  0.9000774E+02  0.7816164E-02  0.1186339E+00
        -11   -1    0    0    0    0  0.00000000000E+00  0.00000000000E+00  0.45593999997E+02  0.45594000000E+02  0.51100000000E-03 0.  1.
         11   -1    0    0    0    0 -0.00000000000E+00 -0.00000000000E+00 -0.45593999997E+02  0.45594000000E+02  0.51100000000E-03 0. -1.
    9900012    2    1    2    0    0  0.88843347846E+00 -0.56090958676E+00 -0.53766861166E+00  0.90007736832E+02  0.89999998158E+02 0.  0.
        -12    1    1    2    0    0 -0.88843347846E+00  0.56090958676E+00  0.53766861166E+00  0.11802631682E+01  0.00000000000E+00 0.  1.
         11    1    3    3    0    0 -0.14637484687E+02  0.10959281284E+02 -0.34111077935E+02  0.38703067609E+02  0.51100000000E-03 0. -1.
        -11    1    3    3    0    0 -0.91634317569E+01  0.18694031280E+01  0.30770496472E+01  0.98453737568E+01  0.51100000000E-03 0.  1.
        -12    1    3    3    0    0  0.24689349922E+02 -0.13389593999E+02  0.30496359676E+02  0.41459295466E+02  0.00000000000E+00 0.  1.
</event>
<event>
 7    1  0.2542335E-015  0.9000778E+02  0.7816164E-02  0.1186339E+00
        -11   -1    0    0    0    0  0.00000000000E+00  0.00000000000E+00  0.45593999997E+02  0.45594000000E+02  0.51100000000E-03 0. -1.
         11   -1    0    0    0    0 -0.00000000000E+00 -0.00000000000E+00 -0.45593999997E+02  0.45594000000E+02  0.51100000000E-03 0.  1.
    9900012    2    1    2    0    0  0.93295902770E+00  0.67817140357E+00  0.25019172285E+00  0.90007777606E+02  0.90000039471E+02 0.  0.
        -12    1    1    2    0    0 -0.93295902770E+00 -0.67817140357E+00 -0.25019172285E+00  0.11802223935E+01  0.00000000000E+00 0.  1.
         11    1    3    3    0    0 -0.45944447093E+00  0.54515726824E+01  0.86405461634E+01  0.10226914109E+02  0.51100000000E-03 0. -1.
        -11    1    3    3    0    0  0.34099720783E+02 -0.16567676800E+02 -0.20330780278E+02  0.43018827262E+02  0.51100000000E-03 0.  1.
         12    1    3    3    0    0 -0.32707317284E+02  0.11794275521E+02  0.11940425838E+02  0.36762036235E+02  0.00000000000E+00 0. -1.
</event>
<event>
 7    1  0.2542335E-015  0.9000788E+02  0.7816164E-02  0.1186339E+00
        -11   -1    0    0    0    0  0.00000000000E+00  0.00000000000E+00  0.45593999997E+02  0.45594000000E+02  0.51100000000E-03 0.  1.
         11   -1    0    0    0    0 -0.00000000000E+00 -0.00000000000E+00 -0.45593999997E+02  0.45594000000E+02  0.51100000000E-03 0. -1.
    9900012    2    1    2    0    0 -0.28986414013E+00 -0.40672910322E+00 -0.10692255851E+01  0.90007875797E+02  0.90000138957E+02 0.  0.
        -12    1    1    2    0    0  0.28986414013E+00  0.40672910322E+00  0.10692255851E+01  0.11801242032E+01  0.00000000000E+00 0.  1.
         11    1    3    3    0    0 -0.33648493780E+01 -0.64679858608E+01  0.12129931637E+02  0.14152466012E+02  0.51100000000E-03 0. -1.
        -11    1    3    3    0    0  0.30176521997E+02  0.26966499512E+02 -0.73256684498E+01  0.41127606231E+02  0.51100000000E-03 0.  1.
         12    1    3    3    0    0 -0.27101536759E+02 -0.20905242754E+02 -0.58734887725E+01  0.34727803554E+02  0.00000000000E+00 0. -1.
</event>
<event>
 7    1  0.3661098E-015  0.9000771E+02  0.7816164E-02  0.1186339E+00
        -11   -1    0    0    0    0  0.00000000000E+00  0.00000000000E+00  0.45593999997E+02  0.45594000000E+02  0.51100000000E-03 0. -1.
         11   -1    0    0    0    0 -0.00000000000E+00 -0.00000000000E+00 -0.45593999997E+02  0.45594000000E+02  0.51100000000E-03 0.  1.
    9900012    2    1    2    0    0  0.82933348252E+00  0.11638340126E+00  0.83170939426E+00  0.90007712053E+02  0.89999973052E+02 0.  0.
        -12    1    1    2    0    0 -0.82933348252E+00 -0.11638340126E+00 -0.83170939426E+00  0.11802879470E+01  0.00000000000E+00 0.  1.
         11    1    3    3    0    0 -0.30920401799E+01  0.78448133487E+01 -0.35856847034E+01  0.91629113279E+01  0.51100000000E-03 0. -1.
        -11    1    3    3    0    0  0.70209152875E+01  0.17898558162E+02 -0.31325473417E+02  0.36755093808E+02  0.51100000000E-03 0.  1.
         12    1    3    3    0    0 -0.30995416251E+01 -0.25626988110E+02  0.35742867515E+02  0.44089706917E+02  0.00000000000E+00 0. -1.
</event>
<event>
 7    1  0.2542335E-015  0.9000787E+02  0.7816164E-02  0.1186339E+00
        -11   -1    0    0    0    0  0.00000000000E+00  0.00000000000E+00  0.45593999997E+02  0.45594000000E+02  0.51100000000E-03 0.  1.
         11   -1    0    0    0    0 -0.00000000000E+00 -0.00000000000E+00 -0.45593999997E+02  0.45594000000E+02  0.51100000000E-03 0. -1.
    9900012    2    1    2    0    0  0.57493933335E-01 -0.99954513801E+00  0.62474284825E+00  0.90007873032E+02  0.90000136155E+02 0.  0.
        -12    1    1    2    0    0 -0.57493933335E-01  0.99954513801E+00 -0.62474284825E+00  0.11801269685E+01  0.00000000000E+00 0.  1.
         11    1    3    3    0    0  0.17748993946E+02 -0.49481438016E+01 -0.30115503594E+02  0.35305162090E+02  0.51100000000E-03 0. -1.
        -11    1    3    3    0    0 -0.87365042680E+01  0.18179743645E+02  0.58731715199E+00  0.20178566042E+02  0.51100000000E-03 0.  1.
        -12    1    3    3    0    0 -0.89549957448E+01 -0.14231144981E+02  0.30152929291E+02  0.34524144900E+02  0.00000000000E+00 0.  1.
</event>
<event>
 7    1  0.2542335E-015  0.9000774E+02  0.7816164E-02  0.1186339E+00
        -11   -1    0    0    0    0  0.00000000000E+00  0.00000000000E+00  0.45593999997E+02  0.45594000000E+02  0.51100000000E-03 0.  1.
         11   -1    0    0    0    0 -0.00000000000E+00 -0.00000000000E+00 -0.45593999997E+02  0.45594000000E+02  0.51100000000E-03 0. -1.
    9900012    2    1    2    0    0  0.10132884754E+01  0.21105434567E+00  0.56720418571E+00  0.90007738139E+02  0.89999999483E+02 0.  0.
        -12    1    1    2    0    0 -0.10132884754E+01 -0.21105434567E+00 -0.56720418571E+00  0.11802618606E+01  0.00000000000E+00 0.  1.
         11    1    3    3    0    0  0.10768099695E+01 -0.45812698145E+01  0.91043112510E+01  0.10248709013E+02  0.51100000000E-03 0. -1.
        -11    1    3    3    0    0  0.35697255199E+01 -0.92831752239E+01  0.33675480868E+02  0.35113505870E+02  0.51100000000E-03 0.  1.
         12    1    3    3    0    0 -0.36332470140E+01  0.14075499384E+02 -0.42212587933E+02  0.44645523256E+02  0.00000000000E+00 0. -1.
</event>
<event>
 7    1  0.2542335E-015  0.9000776E+02  0.7816164E-02  0.1186339E+00
        -11   -1    0    0    0    0  0.00000000000E+00  0.00000000000E+00  0.45593999997E+02  0.45594000000E+02  0.51100000000E-03 0.  1.
         11   -1    0    0    0    0 -0.00000000000E+00 -0.00000000000E+00 -0.45593999997E+02  0.45594000000E+02  0.51100000000E-03 0. -1.
    9900012    2    1    2    0    0 -0.35348561250E+00 -0.11207863157E+01  0.10883486891E+00  0.90007763129E+02  0.90000024802E+02 0.  0.
        -12    1    1    2    0    0  0.35348561250E+00  0.11207863157E+01 -0.10883486891E+00  0.11802368713E+01  0.00000000000E+00 0.  1.
         11    1    3    3    0    0  0.11738583306E+02 -0.96367538832E+01 -0.30810336717E+02  0.34350228708E+02  0.51100000000E-03 0. -1.
        -11    1    3    3    0    0  0.55147439468E+01 -0.60642679786E+01 -0.73964452405E+01  0.11040613632E+02  0.51100000000E-03 0.  1.
        -12    1    3    3    0    0 -0.17606812865E+02  0.14580235546E+02  0.38315616826E+02  0.44616920788E+02  0.00000000000E+00 0.  1.
</event>
<event>
 7    1  0.2542335E-015  0.9000769E+02  0.7816164E-02  0.1186339E+00
        -11   -1    0    0    0    0  0.00000000000E+00  0.00000000000E+00  0.45593999997E+02  0.45594000000E+02  0.51100000000E-03 0.  1.
         11   -1    0    0    0    0 -0.00000000000E+00 -0.00000000000E+00 -0.45593999997E+02  0.45594000000E+02  0.51100000000E-03 0. -1.
    9900012    2    1    2    0    0  0.98404437298E+00 -0.65038428573E+00  0.42173499361E-01  0.90007694255E+02  0.89999955019E+02 0.  0.
        -12    1    1    2    0    0 -0.98404437298E+00  0.65038428573E+00 -0.42173499361E-01  0.11803057448E+01  0.00000000000E+00 0.  1.
         11    1    3    3    0    0  0.37694240906E+02 -0.20729322866E+01 -0.12608974602E+02  0.39801244786E+02  0.51100000000E-03 0. -1.
        -11    1    3    3    0    0 -0.11864646684E+01  0.40389390003E+01 -0.79950033375E+01  0.90355301607E+01  0.51100000000E-03 0.  1.
        -12    1    3    3    0    0 -0.35523731865E+02 -0.26163909994E+01  0.20646151439E+02  0.41170919308E+02  0.00000000000E+00 0.  1.
</event>
<event>
 7    1  0.2542335E-015  0.9000772E+02  0.7816164E-02  0.1186339E+00
        -11   -1    0    0    0    0  0.00000000000E+00  0.00000000000E+00  0.45593999997E+02  0.45594000000E+02  0.51100000000E-03 0.  1.
         11   -1    0    0    0    0 -0.00000000000E+00 -0.00000000000E+00 -0.45593999997E+02  0.45594000000E+02  0.51100000000E-03 0. -1.
    9900012    2    1    2    0    0 -0.95567976857E+00  0.45365769805E+00 -0.52338113337E+00  0.90007721669E+02  0.89999982795E+02 0.  0.
        -12    1    1    2    0    0  0.95567976857E+00 -0.45365769805E+00  0.52338113337E+00  0.11802783307E+01  0.00000000000E+00 0.  1.
         11    1    3    3    0    0  0.84892707119E+01 -0.25923659465E+01 -0.59530202207E+00  0.88962049875E+01  0.51100000000E-03 0. -1.
        -11    1    3    3    0    0  0.72866818686E+01  0.86267768461E+01  0.37807238749E+02  0.39457626811E+02  0.51100000000E-03 0.  1.
         12    1    3    3    0    0 -0.16731632349E+02 -0.55807532015E+01 -0.37735317861E+02  0.41653889871E+02  0.00000000000E+00 0. -1.
</event>
<event>
 7    1  0.2542335E-015  0.9000775E+02  0.7816164E-02  0.1186339E+00
        -11   -1    0    0    0    0  0.00000000000E+00  0.00000000000E+00  0.45593999997E+02  0.45594000000E+02  0.51100000000E-03 0.  1.
         11   -1    0    0    0    0 -0.00000000000E+00 -0.00000000000E+00 -0.45593999997E+02  0.45594000000E+02  0.51100000000E-03 0. -1.
    9900012    2    1    2    0    0 -0.11753583046E+01  0.51264247004E-01 -0.94341960881E-01  0.90007747666E+02  0.90000009135E+02 0.  0.
        -12    1    1    2    0    0  0.11753583046E+01 -0.51264247004E-01  0.94341960881E-01  0.11802523344E+01  0.00000000000E+00 0.  1.
         11    1    3    3    0    0  0.12904149287E+00 -0.40453413124E+01 -0.14565208991E+02  0.15117101285E+02  0.51100000000E-03 0. -1.
        -11    1    3    3    0    0 -0.29436539098E+02  0.24837174922E+02  0.68781773850E+01  0.39124217776E+02  0.51100000000E-03 0.  1.
         12    1    3    3    0    0  0.28132139300E+02 -0.20740569362E+02  0.75926896455E+01  0.35766428605E+02  0.00000000000E+00 0. -1.
</event>
<event>
 7    1  0.2542335E-015  0.9000773E+02  0.7816164E-02  0.1186339E+00
        -11   -1    0    0    0    0  0.00000000000E+00  0.00000000000E+00  0.45593999997E+02  0.45594000000E+02  0.51100000000E-03 0.  1.
         11   -1    0    0    0    0 -0.00000000000E+00 -0.00000000000E+00 -0.45593999997E+02  0.45594000000E+02  0.51100000000E-03 0. -1.
    9900012    2    1    2    0    0 -0.94921475590E-02  0.95024582257E+00 -0.69998421102E+00  0.90007730912E+02  0.89999992160E+02 0.  0.
        -12    1    1    2    0    0  0.94921475590E-02 -0.95024582257E+00  0.69998421102E+00  0.11802690879E+01  0.00000000000E+00 0.  1.
         11    1    3    3    0    0 -0.25195904669E+02 -0.26018645261E+02 -0.21564118790E+02  0.42152280279E+02  0.51100000000E-03 0. -1.
        -11    1    3    3    0    0  0.25864188115E+01 -0.25115997106E+01  0.76001890981E+01  0.84119302162E+01  0.51100000000E-03 0.  1.
        -12    1    3    3    0    0  0.22599993710E+02  0.29480490794E+02  0.13263945481E+02  0.39443520417E+02  0.00000000000E+00 0.  1.
</event>
<event>
 7    1  0.4100468E-015  0.9000779E+02  0.7816164E-02  0.1186339E+00
        -11   -1    0    0    0    0  0.00000000000E+00  0.00000000000E+00  0.45593999997E+02  0.45594000000E+02  0.51100000000E-03 0. -1.
         11   -1    0    0    0    0 -0.00000000000E+00 -0.00000000000E+00 -0.45593999997E+02  0.45594000000E+02  0.51100000000E-03 0.  1.
    9900012    2    1    2    0    0 -0.17460934076E+00 -0.59790319266E+00  0.10024539234E+01  0.90007792172E+02  0.90000054228E+02 0.  0.
        -12    1    1    2    0    0  0.17460934076E+00  0.59790319266E+00 -0.10024539234E+01  0.11802078284E+01  0.00000000000E+00 0.  1.
         11    1    3    3    0    0 -0.50177451974E+01  0.69476839960E+01 -0.53055306325E+01  0.10079520590E+02  0.51100000000E-03 0. -1.
        -11    1    3    3    0    0 -0.21255346240E+02 -0.18022462395E+02 -0.25286907546E+02  0.37630128728E+02  0.51100000000E-03 0.  1.
         12    1    3    3    0    0  0.26098482097E+02  0.10476875207E+02  0.31594892102E+02  0.42298142853E+02  0.00000000000E+00 0. -1.
</event>
<event>
 7    1  0.2542335E-015  0.9000766E+02  0.7816164E-02  0.1186339E+00
        -11   -1    0    0    0    0  0.00000000000E+00  0.00000000000E+00  0.45593999997E+02  0.45594000000E+02  0.51100000000E-03 0.  1.
         11   -1    0    0    0    0 -0.00000000000E+00 -0.00000000000E+00 -0.45593999997E+02  0.45594000000E+02  0.51100000000E-03 0. -1.
    9900012    2    1    2    0    0  0.95049291549E+00 -0.45124845734E+00  0.53491411751E+00  0.90007663156E+02  0.89999923509E+02 0.  0.
        -12    1    1    2    0    0 -0.95049291549E+00  0.45124845734E+00 -0.53491411751E+00  0.11803368442E+01  0.00000000000E+00 0.  1.
         11    1    3    3    0    0  0.33326640159E+01  0.23956010409E+02 -0.32420136326E+02  0.40448267253E+02  0.51100000000E-03 0. -1.
        -11    1    3    3    0    0 -0.88308932396E+01 -0.51658044666E+01 -0.70511661717E+00  0.10255115840E+02  0.51100000000E-03 0.  1.
        -12    1    3    3    0    0  0.64487221392E+01 -0.19241454400E+02  0.33660167060E+02  0.39304280062E+02  0.00000000000E+00 0.  1.
</event>
<event>
 7    1  0.3511743E-015  0.9000766E+02  0.7816164E-02  0.1186339E+00
        -11   -1    0    0    0    0  0.00000000000E+00  0.00000000000E+00  0.45593999997E+02  0.45594000000E+02  0.51100000000E-03 0.  1.
         11   -1    0    0    0    0 -0.00000000000E+00 -0.00000000000E+00 -0.45593999997E+02  0.45594000000E+02  0.51100000000E-03 0. -1.
    9900012    2    1    2    0    0  0.11357760696E+01  0.23308078471E+00 -0.22109910356E+00  0.90007661597E+02  0.89999921930E+02 0.  0.
        -12    1    1    2    0    0 -0.11357760696E+01 -0.23308078471E+00  0.22109910356E+00  0.11803384032E+01  0.00000000000E+00 0.  1.
         11    1    3    3    0    0 -0.11469475242E+01  0.36087589892E+01  0.87528295874E+01  0.95368053411E+01  0.51100000000E-03 0. -1.
        -11    1    3    3    0    0 -0.30731796701E+02  0.38262503341E+01  0.19232110659E+02  0.36454870741E+02  0.51100000000E-03 0.  1.
         12    1    3    3    0    0  0.33014520295E+02 -0.72019285386E+01 -0.28206039350E+02  0.44015985514E+02  0.00000000000E+00 0. -1.
</event>
<event>
 7    1  0.2542335E-015  0.9000726E+02  0.7816164E-02  0.1186340E+00
        -11   -1    0    0    0    0  0.00000000000E+00  0.00000000000E+00  0.45593999997E+02  0.45594000000E+02  0.51100000000E-03 0. -1.
         11   -1    0    0    0    0 -0.00000000000E+00 -0.00000000000E+00 -0.45593999997E+02  0.45594000000E+02  0.51100000000E-03 0.  1.
    9900012    2    1    2    0    0 -0.73796424435E+00  0.90785212070E+00 -0.15926871704E+00  0.90007257343E+02  0.89999512338E+02 0.  0.
        -12    1    1    2    0    0  0.73796424435E+00 -0.90785212070E+00  0.15926871704E+00  0.11807426575E+01  0.00000000000E+00 0.  1.
         11    1    3    3    0    0 -0.64353893118E+01 -0.52265479728E-01  0.61348798164E+01  0.88912157717E+01  0.51100000000E-03 0. -1.
        -11    1    3    3    0    0  0.34777987876E+01  0.30721806852E+02  0.23583805968E+02  0.38885992399E+02  0.51100000000E-03 0.  1.
         12    1    3    3    0    0  0.22196262799E+01 -0.29761689251E+02 -0.29877954501E+02  0.42230049172E+02  0.00000000000E+00 0. -1.
</event>
<event>
 7    1  0.2542335E-015  0.9000773E+02  0.7816164E-02  0.1186339E+00
        -11   -1    0    0    0    0  0.00000000000E+00  0.00000000000E+00  0.45593999997E+02  0.45594000000E+02  0.51100000000E-03 0. -1.
         11   -1    0    0    0    0 -0.00000000000E+00 -0.00000000000E+00 -0.45593999997E+02  0.45594000000E+02  0.51100000000E-03 0.  1.
    9900012    2    1    2    0    0 -0.95249649169E+00  0.67515808740E+00 -0.17302607751E+00  0.90007734762E+02  0.89999996060E+02 0.  0.
        -12    1    1    2    0    0  0.95249649169E+00 -0.67515808740E+00  0.17302607751E+00  0.11802652385E+01  0.00000000000E+00 0.  1.
         11    1    3    3    0    0 -0.21952860533E+01  0.10272292063E+02 -0.32490476070E+01  0.10995252416E+02  0.51100000000E-03 0. -1.
        -11    1    3    3    0    0 -0.34451958960E+02 -0.95795221130E+00 -0.15576665828E+02  0.37821788260E+02  0.51100000000E-03 0.  1.
         12    1    3    3    0    0  0.35694748522E+02 -0.86391817643E+01  0.18652687357E+02  0.41190694085E+02  0.00000000000E+00 0. -1.
</event>
<event>
 7    1  0.2542335E-015  0.9000770E+02  0.7816164E-02  0.1186339E+00
        -11   -1    0    0    0    0  0.00000000000E+00  0.00000000000E+00  0.45593999997E+02  0.45594000000E+02  0.51100000000E-03 0. -1.
         11   -1    0    0    0    0 -0.00000000000E+00 -0.00000000000E+00 -0.45593999997E+02  0.45594000000E+02  0.51100000000E-03 0.  1.
    9900012    2    1    2    0    0  0.30996508273E+00  0.11251291765E+01  0.17641773189E+00  0.90007696127E+02  0.89999956916E+02 0.  0.
        -12    1    1    2    0    0 -0.30996508273E+00 -0.11251291765E+01 -0.17641773189E+00  0.11803038729E+01  0.00000000000E+00 0.  1.
         11    1    3    3    0    0 -0.15650846637E+02  0.28779499832E+02  0.16885657185E+02  0.36855583429E+02  0.51100000000E-03 0. -1.
        -11    1    3    3    0    0 -0.93657451816E+00  0.94771887646E+01 -0.16465059953E+01  0.96646397223E+01  0.51100000000E-03 0.  1.
        -12    1    3    3    0    0  0.16897386238E+02 -0.37131559420E+02 -0.15062733458E+02  0.43487472976E+02  0.00000000000E+00 0.  1.
</event>
<event>
 7    1  0.2542335E-015  0.9000772E+02  0.7816164E-02  0.1186339E+00
        -11   -1    0    0    0    0  0.00000000000E+00  0.00000000000E+00  0.45593999997E+02  0.45594000000E+02  0.51100000000E-03 0.  1.
         11   -1    0    0    0    0 -0.00000000000E+00 -0.00000000000E+00 -0.45593999997E+02  0.45594000000E+02  0.51100000000E-03 0. -1.
    9900012    2    1    2    0    0 -0.96931399331E+00 -0.66774581815E+00 -0.87224834248E-01  0.90007719412E+02  0.89999980508E+02 0.  0.
        -12    1    1    2    0    0  0.96931399331E+00  0.66774581815E+00  0.87224834248E-01  0.11802805882E+01  0.00000000000E+00 0.  1.
         11    1    3    3    0    0 -0.22482180729E+02 -0.98344412518E+01 -0.32231559828E+02  0.40509728884E+02  0.51100000000E-03 0. -1.
        -11    1    3    3    0    0 -0.60323861538E+00 -0.86698795870E+01  0.42231122376E+01  0.96625765773E+01  0.51100000000E-03 0.  1.
        -12    1    3    3    0    0  0.22116105351E+02  0.17836575021E+02  0.27921222756E+02  0.39835413950E+02  0.00000000000E+00 0.  1.
</event>
<event>
 7    1  0.2542335E-015  0.9000771E+02  0.7816164E-02  0.1186339E+00
        -11   -1    0    0    0    0  0.00000000000E+00  0.00000000000E+00  0.45593999997E+02  0.45594000000E+02  0.51100000000E-03 0.  1.
         11   -1    0    0    0    0 -0.00000000000E+00 -0.00000000000E+00 -0.45593999997E+02  0.45594000000E+02  0.51100000000E-03 0. -1.
    9900012    2    1    2    0    0 -0.60405934175E+00  0.86386396218E+00 -0.53098293077E+00  0.90007707025E+02  0.89999967958E+02 0.  0.
        -12    1    1    2    0    0  0.60405934175E+00 -0.86386396218E+00  0.53098293077E+00  0.11802929748E+01  0.00000000000E+00 0.  1.
         11    1    3    3    0    0 -0.14323350383E+02  0.16978975705E+02 -0.28443030447E+02  0.36089471643E+02  0.51100000000E-03 0. -1.
        -11    1    3    3    0    0 -0.28893302523E+01  0.11606832088E+02  0.12561429400E+01  0.12026831494E+02  0.51100000000E-03 0.  1.
        -12    1    3    3    0    0  0.16608621294E+02 -0.27721943831E+02  0.26655904576E+02  0.41891403889E+02  0.00000000000E+00 0.  1.
</event>
<event>
 7    1  0.2542335E-015  0.9000788E+02  0.7816164E-02  0.1186339E+00
        -11   -1    0    0    0    0  0.00000000000E+00  0.00000000000E+00  0.45593999997E+02  0.45594000000E+02  0.51100000000E-03 0. -1.
         11   -1    0    0    0    0 -0.00000000000E+00 -0.00000000000E+00 -0.45593999997E+02  0.45594000000E+02  0.51100000000E-03 0.  1.
    9900012    2    1    2    0    0  0.76731354998E+00  0.79491433163E+00  0.41475447841E+00  0.90007881296E+02  0.90000144529E+02 0.  0.
        -12    1    1    2    0    0 -0.76731354998E+00 -0.79491433163E+00 -0.41475447841E+00  0.11801187042E+01  0.00000000000E+00 0.  1.
         11    1    3    3    0    0 -0.86609108688E+01  0.25843647498E+01  0.32267779411E+01  0.95970002803E+01  0.51100000000E-03 0. -1.
        -11    1    3    3    0    0  0.16928935299E+02 -0.37103301360E+02 -0.13163231048E+02  0.42854573549E+02  0.51100000000E-03 0.  1.
         12    1    3    3    0    0 -0.75007108804E+01  0.35313850942E+02  0.10351207585E+02  0.37556307467E+02  0.00000000000E+00 0. -1.
</event>
<event>
 7    1  0.2542335E-015  0.9000776E+02  0.7816164E-02  0.1186339E+00
        -11   -1    0    0    0    0  0.00000000000E+00  0.00000000000E+00  0.45593999997E+02  0.45594000000E+02  0.51100000000E-03 0.  1.
         11   -1    0    0    0    0 -0.00000000000E+00 -0.00000000000E+00 -0.45593999997E+02  0.45594000000E+02  0.51100000000E-03 0. -1.
    9900012    2    1    2    0    0  0.39051399578E+00  0.10655051049E+01  0.32430788532E+00  0.90007755147E+02  0.90000016715E+02 0.  0.
        -12    1    1    2    0    0 -0.39051399578E+00 -0.10655051049E+01 -0.32430788532E+00  0.11802448534E+01  0.00000000000E+00 0.  1.
         11    1    3    3    0    0  0.20612892113E+01  0.49877506011E+01  0.10404923915E+02  0.11721305867E+02  0.51100000000E-03 0. -1.
        -11    1    3    3    0    0 -0.79397507608E+01 -0.65439557139E+01  0.33054793833E+02  0.34619104468E+02  0.51100000000E-03 0.  1.
         12    1    3    3    0    0  0.62689755453E+01  0.26217102178E+01 -0.43135409863E+02  0.43667344812E+02  0.00000000000E+00 0. -1.
</event>
<event>
 7    1  0.2542335E-015  0.9000771E+02  0.7816164E-02  0.1186339E+00
        -11   -1    0    0    0    0  0.00000000000E+00  0.00000000000E+00  0.45593999997E+02  0.45594000000E+02  0.51100000000E-03 0.  1.
         11   -1    0    0    0    0 -0.00000000000E+00 -0.00000000000E+00 -0.45593999997E+02  0.45594000000E+02  0.51100000000E-03 0. -1.
    9900012    2    1    2    0    0  0.11877051136E-01 -0.63583114008E-01 -0.11785170382E+01  0.90007709237E+02  0.89999970199E+02 0.  0.
        -12    1    1    2    0    0 -0.11877051136E-01  0.63583114008E-01  0.11785170382E+01  0.11802907634E+01  0.00000000000E+00 0.  1.
         11    1    3    3    0    0  0.49117165183E+01  0.31211898388E+01  0.78388538090E+01  0.97629101433E+01  0.51100000000E-03 0. -1.
        -11    1    3    3    0    0 -0.97679610515E+01  0.23177644000E+02  0.25979550485E+02  0.36160106307E+02  0.51100000000E-03 0.  1.
         12    1    3    3    0    0  0.48681215844E+01 -0.26362416953E+02 -0.34996921332E+02  0.44084692786E+02  0.00000000000E+00 0. -1.
</event>
<event>
 7    1  0.2542335E-015  0.9000776E+02  0.7816164E-02  0.1186339E+00
        -11   -1    0    0    0    0  0.00000000000E+00  0.00000000000E+00  0.45593999997E+02  0.45594000000E+02  0.51100000000E-03 0.  1.
         11   -1    0    0    0    0 -0.00000000000E+00 -0.00000000000E+00 -0.45593999997E+02  0.45594000000E+02  0.51100000000E-03 0. -1.
    9900012    2    1    2    0    0  0.10005712890E+01 -0.16675659916E+00  0.60333135692E+00  0.90007762992E+02  0.90000024664E+02 0.  0.
        -12    1    1    2    0    0 -0.10005712890E+01  0.16675659916E+00 -0.60333135692E+00  0.11802370076E+01  0.00000000000E+00 0.  1.
         11    1    3    3    0    0  0.17349659953E+01  0.50215947911E+01  0.48582728533E+01  0.71992594501E+01  0.51100000000E-03 0. -1.
        -11    1    3    3    0    0 -0.14759481758E+02 -0.29747285709E+01  0.36589665205E+02  0.39566335588E+02  0.51100000000E-03 0.  1.
         12    1    3    3    0    0  0.14025087052E+02 -0.22136228194E+01 -0.40844606701E+02  0.43242167954E+02  0.00000000000E+00 0. -1.
</event>
<event>
 7    1  0.2542335E-015  0.9000764E+02  0.7816164E-02  0.1186339E+00
        -11   -1    0    0    0    0  0.00000000000E+00  0.00000000000E+00  0.45593999997E+02  0.45594000000E+02  0.51100000000E-03 0.  1.
         11   -1    0    0    0    0 -0.00000000000E+00 -0.00000000000E+00 -0.45593999997E+02  0.45594000000E+02  0.51100000000E-03 0. -1.
    9900012    2    1    2    0    0 -0.15929558876E+00  0.64135243253E+00 -0.97802361183E+00  0.90007644879E+02  0.89999904991E+02 0.  0.
        -12    1    1    2    0    0  0.15929558876E+00 -0.64135243253E+00  0.97802361183E+00  0.11803551214E+01  0.00000000000E+00 0.  1.
         11    1    3    3    0    0  0.33395520929E+02 -0.98730078591E+01 -0.16294535053E+02  0.38448003526E+02  0.51100000000E-03 0. -1.
        -11    1    3    3    0    0  0.14799693542E+01  0.11670831012E+01  0.15182573422E+02  0.15299115276E+02  0.51100000000E-03 0.  1.
        -12    1    3    3    0    0 -0.35034785872E+02  0.93472771904E+01  0.13393801986E+00  0.36260526077E+02  0.00000000000E+00 0.  1.
</event>
<event>
 7    1  0.2542335E-015  0.9000779E+02  0.7816164E-02  0.1186339E+00
        -11   -1    0    0    0    0  0.00000000000E+00  0.00000000000E+00  0.45593999997E+02  0.45594000000E+02  0.51100000000E-03 0.  1.
         11   -1    0    0    0    0 -0.00000000000E+00 -0.00000000000E+00 -0.45593999997E+02  0.45594000000E+02  0.51100000000E-03 0. -1.
    9900012    2    1    2    0    0 -0.97066196125E-02  0.84164301363E+00 -0.82730471121E+00  0.90007792278E+02  0.90000054336E+02 0.  0.
        -12    1    1    2    0    0  0.97066196125E-02 -0.84164301363E+00  0.82730471121E+00  0.11802077216E+01  0.00000000000E+00 0.  1.
         11    1    3    3    0    0  0.17252657810E+02  0.31808378853E+02 -0.13889128568E+02  0.38759967227E+02  0.51100000000E-03 0. -1.
        -11    1    3    3    0    0 -0.10351902548E+01  0.70576706758E+01  0.59699874228E+01  0.93017785568E+01  0.51100000000E-03 0.  1.
        -12    1    3    3    0    0 -0.16227174175E+02 -0.38024406515E+02  0.70918364337E+01  0.41946046495E+02  0.00000000000E+00 0.  1.
</event>
<event>
 7    1  0.2542335E-015  0.9000771E+02  0.7816164E-02  0.1186339E+00
        -11   -1    0    0    0    0  0.00000000000E+00  0.00000000000E+00  0.45593999997E+02  0.45594000000E+02  0.51100000000E-03 0. -1.
         11   -1    0    0    0    0 -0.00000000000E+00 -0.00000000000E+00 -0.45593999997E+02  0.45594000000E+02  0.51100000000E-03 0.  1.
    9900012    2    1    2    0    0 -0.11634916962E+01 -0.13442337409E+00  0.14598617409E+00  0.90007705743E+02  0.89999966659E+02 0.  0.
        -12    1    1    2    0    0  0.11634916962E+01  0.13442337409E+00 -0.14598617409E+00  0.11802942572E+01  0.00000000000E+00 0.  1.
         11    1    3    3    0    0  0.12220313618E+02 -0.15598345924E+02  0.20252324113E+02  0.28333744771E+02  0.51100000000E-03 0. -1.
        -11    1    3    3    0    0  0.17161521691E+01 -0.17700736991E+02  0.36758320481E+01  0.18159653351E+02  0.51100000000E-03 0.  1.
        -12    1    3    3    0    0 -0.15099957483E+02  0.33164659542E+02 -0.23782169987E+02  0.43514307622E+02  0.00000000000E+00 0.  1.
</event>
<event>
 7    1  0.2542335E-015  0.9000771E+02  0.7816164E-02  0.1186339E+00
        -11   -1    0    0    0    0  0.00000000000E+00  0.00000000000E+00  0.45593999997E+02  0.45594000000E+02  0.51100000000E-03 0.  1.
         11   -1    0    0    0    0 -0.00000000000E+00 -0.00000000000E+00 -0.45593999997E+02  0.45594000000E+02  0.51100000000E-03 0. -1.
    9900012    2    1    2    0    0 -0.19343083069E+00  0.10651724102E+01  0.47017895749E+00  0.90007713593E+02  0.89999974613E+02 0.  0.
        -12    1    1    2    0    0  0.19343083069E+00 -0.10651724102E+01 -0.47017895749E+00  0.11802864066E+01  0.00000000000E+00 0.  1.
         11    1    3    3    0    0  0.32901839108E+01 -0.42224080279E+01 -0.82988065331E+01  0.98754356794E+01  0.51100000000E-03 0. -1.
        -11    1    3    3    0    0  0.37264060494E+02 -0.24065869548E+01  0.99609558941E+01  0.38647412693E+02  0.51100000000E-03 0.  1.
         12    1    3    3    0    0 -0.40747675236E+02  0.76941673929E+01 -0.11919704034E+01  0.41484865221E+02  0.00000000000E+00 0. -1.
</event>
<event>
 7    1  0.2542335E-015  0.9000766E+02  0.7816164E-02  0.1186339E+00
        -11   -1    0    0    0    0  0.00000000000E+00  0.00000000000E+00  0.45593999997E+02  0.45594000000E+02  0.51100000000E-03 0.  1.
         11   -1    0    0    0    0 -0.00000000000E+00 -0.00000000000E+00 -0.45593999997E+02  0.45594000000E+02  0.51100000000E-03 0. -1.
    9900012    2    1    2    0    0 -0.24640020917E+00 -0.51534885683E+00 -0.10329145887E+01  0.90007656806E+02  0.89999917076E+02 0.  0.
        -12    1    1    2    0    0  0.24640020917E+00  0.51534885683E+00  0.10329145887E+01  0.11803431937E+01  0.00000000000E+00 0.  1.
         11    1    3    3    0    0 -0.11220297995E+01  0.32041968507E+02 -0.21529536476E+02  0.38619524050E+02  0.51100000000E-03 0. -1.
        -11    1    3    3    0    0 -0.89903187509E+01  0.13479725271E+01 -0.22746103290E+01  0.93710572289E+01  0.51100000000E-03 0.  1.
        -12    1    3    3    0    0  0.98659483412E+01 -0.33905289891E+02  0.22771232217E+02  0.42017075528E+02  0.00000000000E+00 0.  1.
</event>
<event>
 8    1  0.2542335E-015  0.9000772E+02  0.7816164E-02  0.1186339E+00
        -11   -1    0    0    0    0  0.00000000000E+00  0.00000000000E+00  0.45593999997E+02  0.45594000000E+02  0.51100000000E-03 0. -1.
         11   -1    0    0    0    0 -0.00000000000E+00 -0.00000000000E+00 -0.45593999997E+02  0.45594000000E+02  0.51100000000E-03 0.  1.
    9900012    2    1    2    0    0 -0.97671638493E+00  0.34199495604E+00 -0.56755865883E+00  0.90007721102E+02  0.89999982220E+02 0.  0.
         23    2    3    3    0    0  0.27109655027E+02 -0.76059663502E+01 -0.50560666787E+00  0.60818370542E+02  0.53905792245E+02 0.  0.
        -12    1    1    2    0    0  0.97671638493E+00 -0.34199495604E+00  0.56755865883E+00  0.11802788983E+01  0.00000000000E+00 0.  1.
         11    1    4    4    0    0 -0.11014486184E+02  0.92732922997E+01 -0.10649137419E+02  0.17908572919E+02  0.51100000000E-03 0. -1.
        -11    1    4    4    0    0  0.38124141211E+02 -0.16879258650E+02  0.10143530752E+02  0.42909797623E+02  0.51100000000E-03 0.  1.
         12    1    3    3    0    0 -0.28086371412E+02  0.79479613062E+01 -0.61951990958E-01  0.29189350559E+02  0.00000000000E+00 0. -1.
</event>
<event>
 7    1  0.2542335E-015  0.9000767E+02  0.7816164E-02  0.1186339E+00
        -11   -1    0    0    0    0  0.00000000000E+00  0.00000000000E+00  0.45593999997E+02  0.45594000000E+02  0.51100000000E-03 0.  1.
         11   -1    0    0    0    0 -0.00000000000E+00 -0.00000000000E+00 -0.45593999997E+02  0.45594000000E+02  0.51100000000E-03 0. -1.
    9900012    2    1    2    0    0  0.63196897964E+00  0.51277427920E+00  0.85490703533E+00  0.90007666025E+02  0.89999926417E+02 0.  0.
        -12    1    1    2    0    0 -0.63196897964E+00 -0.51277427920E+00 -0.85490703533E+00  0.11803339746E+01  0.00000000000E+00 0.  1.
         11    1    3    3    0    0  0.16620132558E+00  0.16568534200E+02 -0.33674858242E+02  0.37530521264E+02  0.51100000000E-03 0. -1.
        -11    1    3    3    0    0  0.86603043466E+01  0.30932645094E+01 -0.28997803165E+01  0.96425039718E+01  0.51100000000E-03 0.  1.
        -12    1    3    3    0    0 -0.81945366926E+01 -0.19149024430E+02  0.37429545594E+02  0.42834640790E+02  0.00000000000E+00 0.  1.
</event>
<event>
 7    1  0.2542335E-015  0.9000746E+02  0.7816164E-02  0.1186340E+00
        -11   -1    0    0    0    0  0.00000000000E+00  0.00000000000E+00  0.45593999997E+02  0.45594000000E+02  0.51100000000E-03 0.  1.
         11   -1    0    0    0    0 -0.00000000000E+00 -0.00000000000E+00 -0.45593999997E+02  0.45594000000E+02  0.51100000000E-03 0. -1.
    9900012    2    1    2    0    0  0.76195133175E+00 -0.61018253870E+00 -0.66391508136E+00  0.90007459532E+02  0.89999717197E+02 0.  0.
        -12    1    1    2    0    0 -0.76195133175E+00  0.61018253870E+00  0.66391508136E+00  0.11805404685E+01  0.00000000000E+00 0.  1.
         11    1    3    3    0    0  0.30933982463E+02  0.24876656183E+02  0.40502750887E+01  0.39901930059E+02  0.51100000000E-03 0. -1.
        -11    1    3    3    0    0 -0.32230141945E+00 -0.13455888200E+01  0.91760173203E+01  0.92797511605E+01  0.51100000000E-03 0.  1.
        -12    1    3    3    0    0 -0.29849729712E+02 -0.24141249902E+02 -0.13890207490E+02  0.40825778312E+02  0.00000000000E+00 0.  1.
</event>
<event>
 7    1  0.2542335E-015  0.9000778E+02  0.7816164E-02  0.1186339E+00
        -11   -1    0    0    0    0  0.00000000000E+00  0.00000000000E+00  0.45593999997E+02  0.45594000000E+02  0.51100000000E-03 0. -1.
         11   -1    0    0    0    0 -0.00000000000E+00 -0.00000000000E+00 -0.45593999997E+02  0.45594000000E+02  0.51100000000E-03 0.  1.
    9900012    2    1    2    0    0  0.51223926802E-01  0.70765183210E+00  0.94314762207E+00  0.90007778647E+02  0.90000040525E+02 0.  0.
        -12    1    1    2    0    0 -0.51223926802E-01 -0.70765183210E+00 -0.94314762207E+00  0.11802213535E+01  0.00000000000E+00 0.  1.
         11    1    3    3    0    0  0.19265200692E+02  0.27365196088E+02 -0.13641170248E+02  0.36139776433E+02  0.51100000000E-03 0. -1.
        -11    1    3    3    0    0  0.66698233885E+01  0.59038137170E+01  0.75602609295E+01  0.11683283187E+02  0.51100000000E-03 0.  1.
        -12    1    3    3    0    0 -0.25883800154E+02 -0.32561357973E+02  0.70240569409E+01  0.42184719027E+02  0.00000000000E+00 0.  1.
</event>
<event>
 7    1  0.2542335E-015  0.9000773E+02  0.7816164E-02  0.1186339E+00
        -11   -1    0    0    0    0  0.00000000000E+00  0.00000000000E+00  0.45593999997E+02  0.45594000000E+02  0.51100000000E-03 0.  1.
         11   -1    0    0    0    0 -0.00000000000E+00 -0.00000000000E+00 -0.45593999997E+02  0.45594000000E+02  0.51100000000E-03 0. -1.
    9900012    2    1    2    0    0 -0.78199405935E-01  0.10888644475E+01 -0.44865416965E+00  0.90007732447E+02  0.89999993716E+02 0.  0.
        -12    1    1    2    0    0  0.78199405935E-01 -0.10888644475E+01  0.44865416965E+00  0.11802675527E+01  0.00000000000E+00 0.  1.
         11    1    3    3    0    0  0.12514574098E+02 -0.40430066480E+02  0.11585353360E+01  0.42338481843E+02  0.51100000000E-03 0. -1.
        -11    1    3    3    0    0 -0.56006188706E+01  0.44450942887E+01 -0.64533991903E+01  0.96318303733E+01  0.51100000000E-03 0.  1.
        -12    1    3    3    0    0 -0.69921546332E+01  0.37073836638E+02  0.48462096847E+01  0.38037420231E+02  0.00000000000E+00 0.  1.
</event>
<event>
 7    1  0.2542335E-015  0.9000777E+02  0.7816164E-02  0.1186339E+00
        -11   -1    0    0    0    0  0.00000000000E+00  0.00000000000E+00  0.45593999997E+02  0.45594000000E+02  0.51100000000E-03 0. -1.
         11   -1    0    0    0    0 -0.00000000000E+00 -0.00000000000E+00 -0.45593999997E+02  0.45594000000E+02  0.51100000000E-03 0.  1.
    9900012    2    1    2    0    0 -0.86204445827E-01  0.10280487100E+01  0.57325698652E+00  0.90007771662E+02  0.90000033448E+02 0.  0.
        -12    1    1    2    0    0  0.86204445827E-01 -0.10280487100E+01 -0.57325698652E+00  0.11802283378E+01  0.00000000000E+00 0.  1.
         11    1    3    3    0    0  0.26484838833E+02 -0.19294689419E+02 -0.14181057828E+02  0.35704819411E+02  0.51100000000E-03 0. -1.
        -11    1    3    3    0    0  0.47542754896E+01 -0.73146092668E+01 -0.25461216577E+01  0.90878699327E+01  0.51100000000E-03 0.  1.
        -12    1    3    3    0    0 -0.31325318768E+02  0.27637347396E+02  0.17300436472E+02  0.45215082319E+02  0.00000000000E+00 0.  1.
</event>
<event>
 7    1  0.2542335E-015  0.9000751E+02  0.7816164E-02  0.1186339E+00
        -11   -1    0    0    0    0  0.00000000000E+00  0.00000000000E+00  0.45593999997E+02  0.45594000000E+02  0.51100000000E-03 0.  1.
         11   -1    0    0    0    0 -0.00000000000E+00 -0.00000000000E+00 -0.45593999997E+02  0.45594000000E+02  0.51100000000E-03 0. -1.
    9900012    2    1    2    0    0  0.80913837530E+00 -0.77815533556E+00 -0.36513128719E+00  0.90007512180E+02  0.89999770540E+02 0.  0.
        -12    1    1    2    0    0 -0.80913837530E+00  0.77815533556E+00  0.36513128719E+00  0.11804878201E+01  0.00000000000E+00 0.  1.
         11    1    3    3    0    0  0.39957347226E+01  0.76330299015E+01 -0.15417808542E+01  0.87524927828E+01  0.51100000000E-03 0. -1.
        -11    1    3    3    0    0 -0.20545114042E+02  0.12494594168E+02  0.32088093962E+02  0.40098159170E+02  0.51100000000E-03 0.  1.
         12    1    3    3    0    0  0.17358517695E+02 -0.20905779405E+02 -0.30911444395E+02  0.41156860227E+02  0.00000000000E+00 0. -1.
</event>
<event>
 7    1  0.2542335E-015  0.9000760E+02  0.7816164E-02  0.1186339E+00
        -11   -1    0    0    0    0  0.00000000000E+00  0.00000000000E+00  0.45593999997E+02  0.45594000000E+02  0.51100000000E-03 0.  1.
         11   -1    0    0    0    0 -0.00000000000E+00 -0.00000000000E+00 -0.45593999997E+02  0.45594000000E+02  0.51100000000E-03 0. -1.
    9900012    2    1    2    0    0 -0.20915330829E+00 -0.98589596135E+00  0.61449362477E+00  0.90007602453E+02  0.89999862006E+02 0.  0.
        -12    1    1    2    0    0  0.20915330829E+00  0.98589596135E+00 -0.61449362477E+00  0.11803975465E+01  0.00000000000E+00 0.  1.
         11    1    3    3    0    0 -0.25366114102E+02  0.26474409734E+02 -0.14746413852E+02  0.39519499455E+02  0.51100000000E-03 0. -1.
        -11    1    3    3    0    0 -0.22245976460E+01 -0.70241961401E+01 -0.65836015691E+01  0.98808894329E+01  0.51100000000E-03 0.  1.
        -12    1    3    3    0    0  0.27381558440E+02 -0.20436109555E+02  0.21944509046E+02  0.40607213566E+02  0.00000000000E+00 0.  1.
</event>
<event>
 7    1  0.2542335E-015  0.9000763E+02  0.7816164E-02  0.1186339E+00
        -11   -1    0    0    0    0  0.00000000000E+00  0.00000000000E+00  0.45593999997E+02  0.45594000000E+02  0.51100000000E-03 0.  1.
         11   -1    0    0    0    0 -0.00000000000E+00 -0.00000000000E+00 -0.45593999997E+02  0.45594000000E+02  0.51100000000E-03 0. -1.
    9900012    2    1    2    0    0  0.12412129822E+00 -0.98201751537E+00 -0.64305061955E+00  0.90007627772E+02  0.89999887659E+02 0.  0.
        -12    1    1    2    0    0 -0.12412129822E+00  0.98201751537E+00  0.64305061955E+00  0.11803722279E+01  0.00000000000E+00 0.  1.
         11    1    3    3    0    0  0.76368107971E+01 -0.20468369828E+01  0.27710036587E+01  0.83778805388E+01  0.51100000000E-03 0. -1.
        -11    1    3    3    0    0  0.16120779747E+02  0.14411237082E+02  0.31002648654E+02  0.37798512110E+02  0.51100000000E-03 0.  1.
         12    1    3    3    0    0 -0.23633469246E+02 -0.13346417615E+02 -0.34416702932E+02  0.43831235124E+02  0.00000000000E+00 0. -1.
</event>
<event>
 7    1  0.2542335E-015  0.9000781E+02  0.7816164E-02  0.1186339E+00
        -11   -1    0    0    0    0  0.00000000000E+00  0.00000000000E+00  0.45593999997E+02  0.45594000000E+02  0.51100000000E-03 0.  1.
         11   -1    0    0    0    0 -0.00000000000E+00 -0.00000000000E+00 -0.45593999997E+02  0.45594000000E+02  0.51100000000E-03 0. -1.
    9900012    2    1    2    0    0  0.54877435812E+00  0.84627450507E+00 -0.61279417451E+00  0.90007809111E+02  0.90000071391E+02 0.  0.
        -12    1    1    2    0    0 -0.54877435812E+00 -0.84627450507E+00  0.61279417451E+00  0.11801908890E+01  0.00000000000E+00 0.  1.
         11    1    3    3    0    0 -0.62782916133E+01 -0.37772263953E+01  0.16626208490E+01  0.75132345346E+01  0.51100000000E-03 0. -1.
        -11    1    3    3    0    0 -0.35536830970E+02  0.14391359034E+02  0.40813252651E+01  0.38556903226E+02  0.51100000000E-03 0.  1.
         12    1    3    3    0    0  0.42363896941E+02 -0.97678581336E+01 -0.63567402886E+01  0.43937671350E+02  0.00000000000E+00 0. -1.
</event>
<event>
 7    1  0.2542335E-015  0.9000776E+02  0.7816164E-02  0.1186339E+00
        -11   -1    0    0    0    0  0.00000000000E+00  0.00000000000E+00  0.45593999997E+02  0.45594000000E+02  0.51100000000E-03 0. -1.
         11   -1    0    0    0    0 -0.00000000000E+00 -0.00000000000E+00 -0.45593999997E+02  0.45594000000E+02  0.51100000000E-03 0.  1.
    9900012    2    1    2    0    0 -0.43647506535E+00 -0.10936078106E+01  0.80420329444E-01  0.90007764449E+02  0.90000026140E+02 0.  0.
        -12    1    1    2    0    0  0.43647506535E+00  0.10936078106E+01 -0.80420329444E-01  0.11802355508E+01  0.00000000000E+00 0.  1.
         11    1    3    3    0    0 -0.23301807349E+02 -0.31651868062E+02  0.44226732892E+01  0.39552180936E+02  0.51100000000E-03 0. -1.
        -11    1    3    3    0    0 -0.47817676476E+01 -0.83032816446E+00 -0.70282568920E+01  0.85411440626E+01  0.51100000000E-03 0.  1.
        -12    1    3    3    0    0  0.27647099931E+02  0.31388588416E+02  0.26860039323E+01  0.41914439450E+02  0.00000000000E+00 0.  1.
</event>
<event>
 7    1  0.2542335E-015  0.9000778E+02  0.7816164E-02  0.1186339E+00
        -11   -1    0    0    0    0  0.00000000000E+00  0.00000000000E+00  0.45593999997E+02  0.45594000000E+02  0.51100000000E-03 0.  1.
         11   -1    0    0    0    0 -0.00000000000E+00 -0.00000000000E+00 -0.45593999997E+02  0.45594000000E+02  0.51100000000E-03 0. -1.
    9900012    2    1    2    0    0 -0.33590310038E+00  0.73314324168E-01 -0.11290360517E+01  0.90007776170E+02  0.90000038015E+02 0.  0.
        -12    1    1    2    0    0  0.33590310038E+00 -0.73314324168E-01  0.11290360517E+01  0.11802238301E+01  0.00000000000E+00 0.  1.
         11    1    3    3    0    0 -0.29291352281E+02  0.23984361180E+02 -0.43178919644E+01  0.38103504969E+02  0.51100000000E-03 0. -1.
        -11    1    3    3    0    0 -0.61406754870E+01  0.22180878821E+01  0.48260088825E+01  0.81190006334E+01  0.51100000000E-03 0.  1.
        -12    1    3    3    0    0  0.35096124668E+02 -0.26129134737E+02 -0.16371529699E+01  0.43785270568E+02  0.00000000000E+00 0.  1.
</event>
<event>
 7    1  0.2542335E-015  0.9000774E+02  0.7816164E-02  0.1186339E+00
        -11   -1    0    0    0    0  0.00000000000E+00  0.00000000000E+00  0.45593999997E+02  0.45594000000E+02  0.51100000000E-03 0. -1.
         11   -1    0    0    0    0 -0.00000000000E+00 -0.00000000000E+00 -0.45593999997E+02  0.45594000000E+02  0.51100000000E-03 0.  1.
    9900012    2    1    2    0    0  0.51932987827E+00  0.47283566075E+00  0.94854175240E+00  0.90007742172E+02  0.90000003569E+02 0.  0.
        -12    1    1    2    0    0 -0.51932987827E+00 -0.47283566075E+00 -0.94854175240E+00  0.11802578280E+01  0.00000000000E+00 0.  1.
         11    1    3    3    0    0 -0.13235965382E+01 -0.12325699956E+01 -0.91656726457E+01  0.93424136014E+01  0.51100000000E-03 0. -1.
        -11    1    3    3    0    0  0.12547011836E+02  0.37097580739E+02 -0.72305943266E+01  0.39823855881E+02  0.51100000000E-03 0.  1.
         12    1    3    3    0    0 -0.10704085420E+02 -0.35392175082E+02  0.17344808725E+02  0.40841472689E+02  0.00000000000E+00 0. -1.
</event>
<event>
 7    1  0.2542335E-015  0.9000780E+02  0.7816164E-02  0.1186339E+00
        -11   -1    0    0    0    0  0.00000000000E+00  0.00000000000E+00  0.45593999997E+02  0.45594000000E+02  0.51100000000E-03 0.  1.
         11   -1    0    0    0    0 -0.00000000000E+00 -0.00000000000E+00 -0.45593999997E+02  0.45594000000E+02  0.51100000000E-03 0. -1.
    9900012    2    1    2    0    0  0.45916356090E+00  0.97075512309E+00 -0.48955830394E+00  0.90007803399E+02  0.90000065604E+02 0.  0.
        -12    1    1    2    0    0 -0.45916356090E+00 -0.97075512309E+00  0.48955830394E+00  0.11801966013E+01  0.00000000000E+00 0.  1.
         11    1    3    3    0    0 -0.72437588671E+01 -0.66569651738E+01  0.19600188881E+00  0.98400022790E+01  0.51100000000E-03 0. -1.
        -11    1    3    3    0    0 -0.35695636874E+02  0.72504747736E+01  0.33614159008E+01  0.36579324671E+02  0.51100000000E-03 0.  1.
         12    1    3    3    0    0  0.43398559302E+02  0.37724552328E+00 -0.40469760935E+01  0.43588476449E+02  0.00000000000E+00 0. -1.
</event>
<event>
 7    1  0.2542335E-015  0.9000774E+02  0.7816164E-02  0.1186339E+00
        -11   -1    0    0    0    0  0.00000000000E+00  0.00000000000E+00  0.45593999997E+02  0.45594000000E+02  0.51100000000E-03 0. -1.
         11   -1    0    0    0    0 -0.00000000000E+00 -0.00000000000E+00 -0.45593999997E+02  0.45594000000E+02  0.51100000000E-03 0.  1.
    9900012    2    1    2    0    0  0.58488444634E+00 -0.10250898207E+01 -0.11194438364E-01  0.90007735508E+02  0.89999996817E+02 0.  0.
        -12    1    1    2    0    0 -0.58488444634E+00  0.10250898207E+01  0.11194438364E-01  0.11802644922E+01  0.00000000000E+00 0.  1.
         11    1    3    3    0    0 -0.34553631565E+00  0.27893529425E+02 -0.22017831339E+02  0.35538053918E+02  0.51100000000E-03 0. -1.
        -11    1    3    3    0    0  0.46677159479E+01  0.52009499057E+01 -0.67319358029E+01  0.97034226955E+01  0.51100000000E-03 0.  1.
        -12    1    3    3    0    0 -0.37372951859E+01 -0.34119569152E+02  0.28738572703E+02  0.44766258895E+02  0.00000000000E+00 0.  1.
</event>
<event>
 7    1  0.2542335E-015  0.9000786E+02  0.7816164E-02  0.1186339E+00
        -11   -1    0    0    0    0  0.00000000000E+00  0.00000000000E+00  0.45593999997E+02  0.45594000000E+02  0.51100000000E-03 0. -1.
         11   -1    0    0    0    0 -0.00000000000E+00 -0.00000000000E+00 -0.45593999997E+02  0.45594000000E+02  0.51100000000E-03 0.  1.
    9900012    2    1    2    0    0  0.11134169134E+01  0.33488791013E+00  0.20219994921E+00  0.90007859350E+02  0.90000122293E+02 0.  0.
        -12    1    1    2    0    0 -0.11134169134E+01 -0.33488791013E+00 -0.20219994921E+00  0.11801406505E+01  0.00000000000E+00 0.  1.
         11    1    3    3    0    0 -0.29592367403E+01 -0.18702771040E+02  0.14334673349E+02  0.23749391296E+02  0.51100000000E-03 0. -1.
        -11    1    3    3    0    0 -0.18019495220E+02  0.45076795011E+01  0.17161442360E+02  0.25289058634E+02  0.51100000000E-03 0.  1.
         12    1    3    3    0    0  0.22092148874E+02  0.14529979449E+02 -0.31293915759E+02  0.40969409420E+02  0.00000000000E+00 0. -1.
</event>
<event>
 7    1  0.2542335E-015  0.9000768E+02  0.7816164E-02  0.1186339E+00
        -11   -1    0    0    0    0  0.00000000000E+00  0.00000000000E+00  0.45593999997E+02  0.45594000000E+02  0.51100000000E-03 0. -1.
         11   -1    0    0    0    0 -0.00000000000E+00 -0.00000000000E+00 -0.45593999997E+02  0.45594000000E+02  0.51100000000E-03 0.  1.
    9900012    2    1    2    0    0  0.95483824837E+00  0.45206306109E+00 -0.52637245262E+00  0.90007684343E+02  0.89999944976E+02 0.  0.
        -12    1    1    2    0    0 -0.95483824837E+00 -0.45206306109E+00  0.52637245262E+00  0.11803156572E+01  0.00000000000E+00 0.  1.
         11    1    3    3    0    0  0.19817077563E+02  0.26209269191E+02  0.14651160961E+02  0.35976365470E+02  0.51100000000E-03 0. -1.
        -11    1    3    3    0    0 -0.43959234971E+01  0.65116333557E+01  0.84213071618E+01  0.11517114523E+02  0.51100000000E-03 0.  1.
        -12    1    3    3    0    0 -0.14466315818E+02 -0.32268839485E+02 -0.23598840575E+02  0.42514204351E+02  0.00000000000E+00 0.  1.
</event>
<event>
 7    1  0.2542335E-015  0.9000685E+02  0.7816164E-02  0.1186341E+00
        -11   -1    0    0    0    0  0.00000000000E+00  0.00000000000E+00  0.45593999997E+02  0.45594000000E+02  0.51100000000E-03 0. -1.
         11   -1    0    0    0    0 -0.00000000000E+00 -0.00000000000E+00 -0.45593999997E+02  0.45594000000E+02  0.51100000000E-03 0.  1.
    9900012    2    1    2    0    0 -0.76959017487E+00  0.37418817001E+00  0.81414072461E+00  0.90006851854E+02  0.89999101494E+02 0.  0.
        -12    1    1    2    0    0  0.76959017487E+00 -0.37418817001E+00 -0.81414072461E+00  0.11811481462E+01  0.00000000000E+00 0.  1.
         11    1    3    3    0    0  0.54109750536E+01 -0.45248441245E+01  0.14147777966E+02  0.15808620655E+02  0.51100000000E-03 0. -1.
        -11    1    3    3    0    0  0.21560002845E+02  0.28877729138E+02 -0.33377256015E+01  0.36192504408E+02  0.51100000000E-03 0.  1.
         12    1    3    3    0    0 -0.27740568074E+02 -0.23978696843E+02 -0.99959116401E+01  0.38005726791E+02  0.00000000000E+00 0. -1.
</event>
<event>
 7    1  0.2542335E-015  0.9000789E+02  0.7816164E-02  0.1186339E+00
        -11   -1    0    0    0    0  0.00000000000E+00  0.00000000000E+00  0.45593999997E+02  0.45594000000E+02  0.51100000000E-03 0. -1.
         11   -1    0    0    0    0 -0.00000000000E+00 -0.00000000000E+00 -0.45593999997E+02  0.45594000000E+02  0.51100000000E-03 0.  1.
    9900012    2    1    2    0    0  0.40749959441E+00 -0.60156187061E+00  0.92990387218E+00  0.90007892456E+02  0.90000155836E+02 0.  0.
        -12    1    1    2    0    0 -0.40749959441E+00  0.60156187061E+00 -0.92990387218E+00  0.11801075439E+01  0.00000000000E+00 0.  1.
         11    1    3    3    0    0  0.10997461093E+01  0.78306290956E+00 -0.11135770858E+02  0.11217309030E+02  0.51100000000E-03 0. -1.
        -11    1    3    3    0    0  0.28994110889E+02  0.12828852033E+02 -0.16019813723E+02  0.35522842548E+02  0.51100000000E-03 0.  1.
         12    1    3    3    0    0 -0.29686357404E+02 -0.14213476813E+02  0.28085488453E+02  0.43267740878E+02  0.00000000000E+00 0. -1.
</event>
<event>
 7    1  0.2542335E-015  0.9000767E+02  0.7816164E-02  0.1186339E+00
        -11   -1    0    0    0    0  0.00000000000E+00  0.00000000000E+00  0.45593999997E+02  0.45594000000E+02  0.51100000000E-03 0.  1.
         11   -1    0    0    0    0 -0.00000000000E+00 -0.00000000000E+00 -0.45593999997E+02  0.45594000000E+02  0.51100000000E-03 0. -1.
    9900012    2    1    2    0    0  0.11793088926E+01  0.14999394414E-01 -0.46780651877E-01  0.90007668320E+02  0.89999928742E+02 0.  0.
        -12    1    1    2    0    0 -0.11793088926E+01 -0.14999394414E-01  0.46780651877E-01  0.11803316803E+01  0.00000000000E+00 0.  1.
         11    1    3    3    0    0  0.77065775181E+00 -0.15032913151E+01 -0.39647188152E+02  0.39683161754E+02  0.51100000000E-03 0. -1.
        -11    1    3    3    0    0  0.51939581963E+01  0.70077749471E+01 -0.12661558189E+01  0.88141512509E+01  0.51100000000E-03 0.  1.
        -12    1    3    3    0    0 -0.47853070555E+01 -0.54894842376E+01  0.40866563319E+02  0.41510355315E+02  0.00000000000E+00 0.  1.
</event>
<event>
 7    1  0.2679221E-015  0.9000781E+02  0.7816164E-02  0.1186339E+00
        -11   -1    0    0    0    0  0.00000000000E+00  0.00000000000E+00  0.45593999997E+02  0.45594000000E+02  0.51100000000E-03 0. -1.
         11   -1    0    0    0    0 -0.00000000000E+00 -0.00000000000E+00 -0.45593999997E+02  0.45594000000E+02  0.51100000000E-03 0.  1.
    9900012    2    1    2    0    0 -0.78000952560E+00 -0.68741502374E+00  0.55848474699E+00  0.90007805318E+02  0.90000067548E+02 0.  0.
        -12    1    1    2    0    0  0.78000952560E+00  0.68741502374E+00 -0.55848474699E+00  0.11801946820E+01  0.00000000000E+00 0.  1.
         11    1    3    3    0    0 -0.76697093061E+01  0.40006999938E+01  0.34310103759E+01  0.93060127735E+01  0.51100000000E-03 0. -1.
        -11    1    3    3    0    0 -0.68290705124E+01 -0.24894312741E+02 -0.33013576091E+02  0.41907746509E+02  0.51100000000E-03 0.  1.
         12    1    3    3    0    0  0.13718770293E+02  0.20206197724E+02  0.30141050462E+02  0.38794046035E+02  0.00000000000E+00 0. -1.
</event>
<event>
 7    1  0.2542335E-015  0.9000771E+02  0.7816164E-02  0.1186339E+00
        -11   -1    0    0    0    0  0.00000000000E+00  0.00000000000E+00  0.45593999997E+02  0.45594000000E+02  0.51100000000E-03 0. -1.
         11   -1    0    0    0    0 -0.00000000000E+00 -0.00000000000E+00 -0.45593999997E+02  0.45594000000E+02  0.51100000000E-03 0.  1.
    9900012    2    1    2    0    0 -0.59822669527E+00  0.38650562465E+00  0.94118205135E+00  0.90007709599E+02  0.89999970566E+02 0.  0.
        -12    1    1    2    0    0  0.59822669527E+00 -0.38650562465E+00 -0.94118205135E+00  0.11802904010E+01  0.00000000000E+00 0.  1.
         11    1    3    3    0    0  0.79105946929E+00 -0.15974871044E+02  0.30913864607E+02  0.34806454936E+02  0.51100000000E-03 0. -1.
        -11    1    3    3    0    0 -0.39325534619E+01 -0.72406088619E+01  0.73018591281E+01  0.11009475029E+02  0.51100000000E-03 0.  1.
        -12    1    3    3    0    0  0.25432672974E+01  0.23601985530E+02 -0.37274541684E+02  0.44191779635E+02  0.00000000000E+00 0.  1.
</event>
<event>
 7    1  0.2542335E-015  0.9000728E+02  0.7816164E-02  0.1186340E+00
        -11   -1    0    0    0    0  0.00000000000E+00  0.00000000000E+00  0.45593999997E+02  0.45594000000E+02  0.51100000000E-03 0. -1.
         11   -1    0    0    0    0 -0.00000000000E+00 -0.00000000000E+00 -0.45593999997E+02  0.45594000000E+02  0.51100000000E-03 0.  1.
    9900012    2    1    2    0    0 -0.74411525616E+00  0.21499383891E+00  0.89116616521E+00  0.90007276917E+02  0.89999532171E+02 0.  0.
        -12    1    1    2    0    0  0.74411525616E+00 -0.21499383891E+00 -0.89116616521E+00  0.11807230832E+01  0.00000000000E+00 0.  1.
         11    1    3    3    0    0  0.21034191754E+02 -0.14050338562E+02  0.20522459482E+02  0.32573310852E+02  0.51100000000E-03 0. -1.
        -11    1    3    3    0    0  0.11900358521E+02 -0.23288007762E+01 -0.15474538147E+02  0.19659684054E+02  0.51100000000E-03 0.  1.
        -12    1    3    3    0    0 -0.33678665531E+02  0.16594133177E+02 -0.41567551694E+01  0.37774282010E+02  0.00000000000E+00 0.  1.
</event>
<event>
 7    1  0.2542335E-015  0.9000775E+02  0.7816164E-02  0.1186339E+00
        -11   -1    0    0    0    0  0.00000000000E+00  0.00000000000E+00  0.45593999997E+02  0.45594000000E+02  0.51100000000E-03 0.  1.
         11   -1    0    0    0    0 -0.00000000000E+00 -0.00000000000E+00 -0.45593999997E+02  0.45594000000E+02  0.51100000000E-03 0. -1.
    9900012    2    1    2    0    0  0.89343803582E+00  0.10725492651E+00 -0.76371209684E+00  0.90007749472E+02  0.90000010965E+02 0.  0.
        -12    1    1    2    0    0 -0.89343803582E+00 -0.10725492651E+00  0.76371209684E+00  0.11802505285E+01  0.00000000000E+00 0.  1.
         11    1    3    3    0    0 -0.13816949007E+02 -0.39475087892E+02 -0.17014262351E+01  0.41857920343E+02  0.51100000000E-03 0. -1.
        -11    1    3    3    0    0  0.94179446439E+01  0.19590763976E+01  0.30666777440E+01  0.10096542690E+02  0.51100000000E-03 0.  1.
        -12    1    3    3    0    0  0.52924423988E+01  0.37623266421E+02 -0.21289636058E+01  0.38053286438E+02  0.00000000000E+00 0.  1.
</event>
<event>
 7    1  0.2542335E-015  0.9000782E+02  0.7816164E-02  0.1186339E+00
        -11   -1    0    0    0    0  0.00000000000E+00  0.00000000000E+00  0.45593999997E+02  0.45594000000E+02  0.51100000000E-03 0.  1.
         11   -1    0    0    0    0 -0.00000000000E+00 -0.00000000000E+00 -0.45593999997E+02  0.45594000000E+02  0.51100000000E-03 0. -1.
    9900012    2    1    2    0    0 -0.34825273292E+00 -0.60874380268E+00 -0.94919283564E+00  0.90007823732E+02  0.90000086206E+02 0.  0.
        -12    1    1    2    0    0  0.34825273292E+00  0.60874380268E+00  0.94919283564E+00  0.11801762676E+01  0.00000000000E+00 0.  1.
         11    1    3    3    0    0  0.50686061474E+01 -0.65784990361E+01 -0.14813668469E+02  0.16982702718E+02  0.51100000000E-03 0. -1.
        -11    1    3    3    0    0  0.30554202690E+02  0.13087472090E+02  0.14705807081E+02  0.36346966722E+02  0.51100000000E-03 0.  1.
         12    1    3    3    0    0 -0.35971061570E+02 -0.71177168570E+01 -0.84133144770E+00  0.36678154293E+02  0.00000000000E+00 0. -1.
</event>
<event>
 7    1  0.2542335E-015  0.9000705E+02  0.7816164E-02  0.1186340E+00
        -11   -1    0    0    0    0  0.00000000000E+00  0.00000000000E+00  0.45593999997E+02  0.45594000000E+02  0.51100000000E-03 0. -1.
         11   -1    0    0    0    0 -0.00000000000E+00 -0.00000000000E+00 -0.45593999997E+02  0.45594000000E+02  0.51100000000E-03 0.  1.
    9900012    2    1    2    0    0  0.47027754333E+00  0.43211195994E+00  0.99336337915E+00  0.90007045929E+02  0.89999298133E+02 0.  0.
        -12    1    1    2    0    0 -0.47027754333E+00 -0.43211195994E+00 -0.99336337915E+00  0.11809540705E+01  0.00000000000E+00 0.  1.
         11    1    3    3    0    0 -0.27935089248E+02  0.17554502420E+02  0.29991628456E+02  0.44587302500E+02  0.51100000000E-03 0. -1.
        -11    1    3    3    0    0  0.27365233019E+01 -0.22554319998E+01 -0.89226014055E+01  0.96014764172E+01  0.51100000000E-03 0.  1.
        -12    1    3    3    0    0  0.25668843489E+02 -0.14866958460E+02 -0.20075663671E+02  0.35818267013E+02  0.00000000000E+00 0.  1.
</event>
<event>
 7    1  0.2542335E-015  0.9000758E+02  0.7816164E-02  0.1186339E+00
        -11   -1    0    0    0    0  0.00000000000E+00  0.00000000000E+00  0.45593999997E+02  0.45594000000E+02  0.51100000000E-03 0. -1.
         11   -1    0    0    0    0 -0.00000000000E+00 -0.00000000000E+00 -0.45593999997E+02  0.45594000000E+02  0.51100000000E-03 0.  1.
    9900012    2    1    2    0    0  0.24975808085E+00  0.11359272680E+01 -0.20171318112E+00  0.90007577167E+02  0.89999836386E+02 0.  0.
        -12    1    1    2    0    0 -0.24975808085E+00 -0.11359272680E+01  0.20171318112E+00  0.11804228329E+01  0.00000000000E+00 0.  1.
         11    1    3    3    0    0 -0.17341395315E+01 -0.34683768059E+02  0.82718041414E+01  0.35698651945E+02  0.51100000000E-03 0. -1.
        -11    1    3    3    0    0  0.12810011933E+01 -0.75547605991E+01  0.46796354544E+01  0.89785499951E+01  0.51100000000E-03 0.  1.
        -12    1    3    3    0    0  0.70289641906E+00  0.43374455926E+02 -0.13153152777E+02  0.45330375227E+02  0.00000000000E+00 0.  1.
</event>
<event>
 7    1  0.2542335E-015  0.9000766E+02  0.7816164E-02  0.1186339E+00
        -11   -1    0    0    0    0  0.00000000000E+00  0.00000000000E+00  0.45593999997E+02  0.45594000000E+02  0.51100000000E-03 0. -1.
         11   -1    0    0    0    0 -0.00000000000E+00 -0.00000000000E+00 -0.45593999997E+02  0.45594000000E+02  0.51100000000E-03 0.  1.
    9900012    2    1    2    0    0  0.19690083246E+00 -0.47110961088E+00  0.10641891601E+01  0.90007655655E+02  0.89999915910E+02 0.  0.
        -12    1    1    2    0    0 -0.19690083246E+00  0.47110961088E+00 -0.10641891601E+01  0.11803443446E+01  0.00000000000E+00 0.  1.
         11    1    3    3    0    0  0.10648013128E+02  0.19724754566E+01  0.14180287219E+01  0.10921613833E+02  0.51100000000E-03 0. -1.
        -11    1    3    3    0    0 -0.68067914429E+01  0.16327939057E+02 -0.35167744866E+02  0.39366283579E+02  0.51100000000E-03 0.  1.
         12    1    3    3    0    0 -0.36443208527E+01 -0.18771524124E+02  0.34813905304E+02  0.39719758244E+02  0.00000000000E+00 0. -1.
</event>
<event>
 7    1  0.2542335E-015  0.9000794E+02  0.7816164E-02  0.1186339E+00
        -11   -1    0    0    0    0  0.00000000000E+00  0.00000000000E+00  0.45593999997E+02  0.45594000000E+02  0.51100000000E-03 0. -1.
         11   -1    0    0    0    0 -0.00000000000E+00 -0.00000000000E+00 -0.45593999997E+02  0.45594000000E+02  0.51100000000E-03 0.  1.
    9900012    2    1    2    0    0 -0.70439510911E+00 -0.50868636111E+00  0.79849791072E+00  0.90007943562E+02  0.90000207617E+02 0.  0.
        -12    1    1    2    0    0  0.70439510911E+00  0.50868636111E+00 -0.79849791072E+00  0.11800564381E+01  0.00000000000E+00 0.  1.
         11    1    3    3    0    0 -0.16307823062E+02  0.50894374392E+01 -0.12294354358E+01  0.17127725424E+02  0.51100000000E-03 0. -1.
        -11    1    3    3    0    0 -0.14425833047E+02 -0.19166636004E+02  0.23474279786E+02  0.33563468333E+02  0.51100000000E-03 0.  1.
         12    1    3    3    0    0  0.30029260999E+02  0.13568512204E+02 -0.21446346440E+02  0.39316749804E+02  0.00000000000E+00 0. -1.
</event>
<event>
 7    1  0.2542335E-015  0.9000771E+02  0.7816164E-02  0.1186339E+00
        -11   -1    0    0    0    0  0.00000000000E+00  0.00000000000E+00  0.45593999997E+02  0.45594000000E+02  0.51100000000E-03 0.  1.
         11   -1    0    0    0    0 -0.00000000000E+00 -0.00000000000E+00 -0.45593999997E+02  0.45594000000E+02  0.51100000000E-03 0. -1.
    9900012    2    1    2    0    0 -0.11426577157E+01 -0.22708388580E+00 -0.18932651923E+00  0.90007712629E+02  0.89999973636E+02 0.  0.
        -12    1    1    2    0    0  0.11426577157E+01  0.22708388580E+00  0.18932651923E+00  0.11802873706E+01  0.00000000000E+00 0.  1.
         11    1    3    3    0    0  0.27496874308E+02 -0.25989148040E+02 -0.14940433549E+02  0.40678378378E+02  0.51100000000E-03 0. -1.
        -11    1    3    3    0    0 -0.60422346882E+01  0.15001713289E+00 -0.66786419520E+01  0.90075170692E+01  0.51100000000E-03 0.  1.
        -12    1    3    3    0    0 -0.22597297335E+02  0.25612047022E+02  0.21429748981E+02  0.40321817182E+02  0.00000000000E+00 0.  1.
</event>
<event>
 7    1  0.2542335E-015  0.9000770E+02  0.7816164E-02  0.1186339E+00
        -11   -1    0    0    0    0  0.00000000000E+00  0.00000000000E+00  0.45593999997E+02  0.45594000000E+02  0.51100000000E-03 0.  1.
         11   -1    0    0    0    0 -0.00000000000E+00 -0.00000000000E+00 -0.45593999997E+02  0.45594000000E+02  0.51100000000E-03 0. -1.
    9900012    2    1    2    0    0  0.11348068214E+01  0.31209053104E+00  0.89043184918E-01  0.90007696772E+02  0.89999957569E+02 0.  0.
        -12    1    1    2    0    0 -0.11348068214E+01 -0.31209053104E+00 -0.89043184918E-01  0.11803032281E+01  0.00000000000E+00 0.  1.
         11    1    3    3    0    0  0.24840632862E+02 -0.26381920517E+02  0.20708563715E+02  0.41736163966E+02  0.51100000000E-03 0. -1.
        -11    1    3    3    0    0 -0.52762705701E+01 -0.41697545327E+01 -0.73263796312E+01  0.99449345274E+01  0.51100000000E-03 0.  1.
        -12    1    3    3    0    0 -0.18429555471E+02  0.30863765581E+02 -0.13293140899E+02  0.38326598279E+02  0.00000000000E+00 0.  1.
</event>
<event>
 7    1  0.2542335E-015  0.9000729E+02  0.7816164E-02  0.1186340E+00
        -11   -1    0    0    0    0  0.00000000000E+00  0.00000000000E+00  0.45593999997E+02  0.45594000000E+02  0.51100000000E-03 0. -1.
         11   -1    0    0    0    0 -0.00000000000E+00 -0.00000000000E+00 -0.45593999997E+02  0.45594000000E+02  0.51100000000E-03 0.  1.
    9900012    2    1    2    0    0  0.18248276088E+00  0.42341032898E+00  0.10869643559E+01  0.90007293527E+02  0.89999549000E+02 0.  0.
        -12    1    1    2    0    0 -0.18248276088E+00 -0.42341032898E+00 -0.10869643559E+01  0.11807064731E+01  0.00000000000E+00 0.  1.
         11    1    3    3    0    0 -0.20910639542E+02  0.29681033749E+02  0.19631758400E+01  0.36360317244E+02  0.51100000000E-03 0. -1.
        -11    1    3    3    0    0 -0.93768208049E+01 -0.24487978070E+00 -0.61916963503E+01  0.11239298842E+02  0.51100000000E-03 0.  1.
        -12    1    3    3    0    0  0.30469943108E+02 -0.29012743639E+02  0.53154848662E+01  0.42407677440E+02  0.00000000000E+00 0.  1.
</event>
<event>
 7    1  0.3550178E-015  0.9000798E+02  0.7816164E-02  0.1186339E+00
        -11   -1    0    0    0    0  0.00000000000E+00  0.00000000000E+00  0.45593999997E+02  0.45594000000E+02  0.51100000000E-03 0.  1.
         11   -1    0    0    0    0 -0.00000000000E+00 -0.00000000000E+00 -0.45593999997E+02  0.45594000000E+02  0.51100000000E-03 0. -1.
    9900012    2    1    2    0    0  0.58972891109E+00  0.61048445931E+00 -0.81974342827E+00  0.90007978495E+02  0.90000243011E+02 0.  0.
        -12    1    1    2    0    0 -0.58972891109E+00 -0.61048445931E+00  0.81974342827E+00  0.11800215048E+01  0.00000000000E+00 0.  1.
         11    1    3    3    0    0 -0.55812080741E+01  0.45584617656E+00  0.72254800997E+01  0.91414026405E+01  0.51100000000E-03 0. -1.
        -11    1    3    3    0    0  0.82971893925E+01 -0.29162807980E+02  0.23042545329E+02  0.38082431863E+02  0.51100000000E-03 0.  1.
         12    1    3    3    0    0 -0.21262524073E+01  0.29317446262E+02 -0.31087768857E+02  0.42784143992E+02  0.00000000000E+00 0. -1.
</event>
<event>
 7    1  0.2542335E-015  0.9000779E+02  0.7816164E-02  0.1186339E+00
        -11   -1    0    0    0    0  0.00000000000E+00  0.00000000000E+00  0.45593999997E+02  0.45594000000E+02  0.51100000000E-03 0.  1.
         11   -1    0    0    0    0 -0.00000000000E+00 -0.00000000000E+00 -0.45593999997E+02  0.45594000000E+02  0.51100000000E-03 0. -1.
    9900012    2    1    2    0    0 -0.23755008840E+00  0.90146800184E+00 -0.72375283276E+00  0.90007791219E+02  0.90000053263E+02 0.  0.
        -12    1    1    2    0    0  0.23755008840E+00 -0.90146800184E+00  0.72375283276E+00  0.11802087806E+01  0.00000000000E+00 0.  1.
         11    1    3    3    0    0  0.41073611898E+01 -0.66962007173E-01  0.92583523468E+01  0.10128770325E+02  0.51100000000E-03 0. -1.
        -11    1    3    3    0    0 -0.16385142697E+02 -0.70867810445E+01  0.31352893360E+02  0.36079069959E+02  0.51100000000E-03 0.  1.
         12    1    3    3    0    0  0.12040231419E+02  0.80552110535E+01 -0.41334998539E+02  0.43799950936E+02  0.00000000000E+00 0. -1.
</event>
<event>
 7    1  0.2542335E-015  0.9000775E+02  0.7816164E-02  0.1186339E+00
        -11   -1    0    0    0    0  0.00000000000E+00  0.00000000000E+00  0.45593999997E+02  0.45594000000E+02  0.51100000000E-03 0.  1.
         11   -1    0    0    0    0 -0.00000000000E+00 -0.00000000000E+00 -0.45593999997E+02  0.45594000000E+02  0.51100000000E-03 0. -1.
    9900012    2    1    2    0    0  0.83012616072E+00  0.45384239879E+00 -0.70562405180E+00  0.90007751014E+02  0.90000012528E+02 0.  0.
        -12    1    1    2    0    0 -0.83012616072E+00 -0.45384239879E+00  0.70562405180E+00  0.11802489857E+01  0.00000000000E+00 0.  1.
         11    1    3    3    0    0  0.32411417951E+02  0.23346226211E+02  0.46515125434E+01  0.40214212178E+02  0.51100000000E-03 0. -1.
        -11    1    3    3    0    0 -0.13297727931E+01 -0.44439589309E+00  0.92755306776E+01  0.93808983047E+01  0.51100000000E-03 0.  1.
        -12    1    3    3    0    0 -0.30251518997E+02 -0.22447987919E+02 -0.14632667273E+02  0.40412640532E+02  0.00000000000E+00 0.  1.
</event>
<event>
 7    1  0.2542335E-015  0.9000781E+02  0.7816164E-02  0.1186339E+00
        -11   -1    0    0    0    0  0.00000000000E+00  0.00000000000E+00  0.45593999997E+02  0.45594000000E+02  0.51100000000E-03 0. -1.
         11   -1    0    0    0    0 -0.00000000000E+00 -0.00000000000E+00 -0.45593999997E+02  0.45594000000E+02  0.51100000000E-03 0.  1.
    9900012    2    1    2    0    0  0.26530955328E+00  0.10383985803E+01 -0.49416527045E+00  0.90007805065E+02  0.90000067292E+02 0.  0.
        -12    1    1    2    0    0 -0.26530955328E+00 -0.10383985803E+01  0.49416527045E+00  0.11801949352E+01  0.00000000000E+00 0.  1.
         11    1    3    3    0    0  0.26616062261E+02 -0.11817487576E+02  0.21175902772E+02  0.36006758273E+02  0.51100000000E-03 0. -1.
        -11    1    3    3    0    0  0.61129796960E+01 -0.11513898474E+01  0.63488602829E+01  0.88883207917E+01  0.51100000000E-03 0.  1.
        -12    1    3    3    0    0 -0.32463732404E+02  0.14007276004E+02 -0.28018928325E+02  0.45112726000E+02  0.00000000000E+00 0.  1.
</event>
<event>
 7    1  0.2542335E-015  0.9000787E+02  0.7816164E-02  0.1186339E+00
        -11   -1    0    0    0    0  0.00000000000E+00  0.00000000000E+00  0.45593999997E+02  0.45594000000E+02  0.51100000000E-03 0. -1.
         11   -1    0    0    0    0 -0.00000000000E+00 -0.00000000000E+00 -0.45593999997E+02  0.45594000000E+02  0.51100000000E-03 0.  1.
    9900012    2    1    2    0    0 -0.75609501767E-01  0.37973741179E-01  0.11770950218E+01  0.90007868019E+02  0.90000131077E+02 0.  0.
        -12    1    1    2    0    0  0.75609501767E-01 -0.37973741179E-01 -0.11770950218E+01  0.11801319808E+01  0.00000000000E+00 0.  1.
         11    1    3    3    0    0 -0.36613683936E+02  0.14664560003E+01  0.11883927395E+02  0.38521942775E+02  0.51100000000E-03 0. -1.
        -11    1    3    3    0    0 -0.17157104251E+01  0.10207391475E+02 -0.15432742383E+01  0.10464998740E+02  0.51100000000E-03 0.  1.
        -12    1    3    3    0    0  0.38253784859E+02 -0.11635873735E+02 -0.91635581346E+01  0.41020926505E+02  0.00000000000E+00 0.  1.
</event>
<event>
 7    1  0.2542335E-015  0.9000770E+02  0.7816164E-02  0.1186339E+00
        -11   -1    0    0    0    0  0.00000000000E+00  0.00000000000E+00  0.45593999997E+02  0.45594000000E+02  0.51100000000E-03 0.  1.
         11   -1    0    0    0    0 -0.00000000000E+00 -0.00000000000E+00 -0.45593999997E+02  0.45594000000E+02  0.51100000000E-03 0. -1.
    9900012    2    1    2    0    0  0.34721939173E+00 -0.84456570696E+00 -0.74783167392E+00  0.90007701414E+02  0.89999962273E+02 0.  0.
        -12    1    1    2    0    0 -0.34721939173E+00  0.84456570696E+00  0.74783167392E+00  0.11802985859E+01  0.00000000000E+00 0.  1.
         11    1    3    3    0    0 -0.33383155735E+02 -0.17275365182E+02  0.79337771296E+00  0.37596579332E+02  0.51100000000E-03 0. -1.
        -11    1    3    3    0    0 -0.32691610192E+01 -0.14592851925E+01 -0.98513210564E+01  0.10481672284E+02  0.51100000000E-03 0.  1.
        -12    1    3    3    0    0  0.36999536146E+02  0.17890084668E+02  0.83101116695E+01  0.41929449798E+02  0.00000000000E+00 0.  1.
</event>
<event>
 7    1  0.2542335E-015  0.9000772E+02  0.7816164E-02  0.1186339E+00
        -11   -1    0    0    0    0  0.00000000000E+00  0.00000000000E+00  0.45593999997E+02  0.45594000000E+02  0.51100000000E-03 0. -1.
         11   -1    0    0    0    0 -0.00000000000E+00 -0.00000000000E+00 -0.45593999997E+02  0.45594000000E+02  0.51100000000E-03 0.  1.
    9900012    2    1    2    0    0  0.70564008251E-02 -0.11799290557E+01 -0.27792056798E-01  0.90007722589E+02  0.89999983727E+02 0.  0.
        -12    1    1    2    0    0 -0.70564008251E-02  0.11799290557E+01  0.27792056798E-01  0.11802774114E+01  0.00000000000E+00 0.  1.
         11    1    3    3    0    0  0.57785435697E+00 -0.86338169120E+01  0.41688146767E+01  0.96049844454E+01  0.51100000000E-03 0. -1.
        -11    1    3    3    0    0  0.36366109723E+02 -0.85964760577E+01  0.82139708553E+01  0.38260458106E+02  0.51100000000E-03 0.  1.
         12    1    3    3    0    0 -0.36936907679E+02  0.16050363914E+02 -0.12410577589E+02  0.42142280037E+02  0.00000000000E+00 0. -1.
</event>
<event>
 7    1  0.2542335E-015  0.9000775E+02  0.7816164E-02  0.1186339E+00
        -11   -1    0    0    0    0  0.00000000000E+00  0.00000000000E+00  0.45593999997E+02  0.45594000000E+02  0.51100000000E-03 0. -1.
         11   -1    0    0    0    0 -0.00000000000E+00 -0.00000000000E+00 -0.45593999997E+02  0.45594000000E+02  0.51100000000E-03 0.  1.
    9900012    2    1    2    0    0 -0.93335868620E+00  0.16779447740E+00  0.70262845415E+00  0.90007745719E+02  0.90000007162E+02 0.  0.
        -12    1    1    2    0    0  0.93335868620E+00 -0.16779447740E+00 -0.70262845415E+00  0.11802542812E+01  0.00000000000E+00 0.  1.
         11    1    3    3    0    0  0.36769220347E+01  0.79150814052E+01 -0.22835159840E+01  0.90212368781E+01  0.51100000000E-03 0. -1.
        -11    1    3    3    0    0  0.15680748036E+02  0.32052926752E+02 -0.34570936533E+01  0.35850069304E+02  0.51100000000E-03 0.  1.
         12    1    3    3    0    0 -0.20291028757E+02 -0.39800213679E+02  0.64432380915E+01  0.45136439537E+02  0.00000000000E+00 0. -1.
</event>
<event>
 7    1  0.2542335E-015  0.9000773E+02  0.7816164E-02  0.1186339E+00
        -11   -1    0    0    0    0  0.00000000000E+00  0.00000000000E+00  0.45593999997E+02  0.45594000000E+02  0.51100000000E-03 0.  1.
         11   -1    0    0    0    0 -0.00000000000E+00 -0.00000000000E+00 -0.45593999997E+02  0.45594000000E+02  0.51100000000E-03 0. -1.
    9900012    2    1    2    0    0  0.10567778748E+00  0.61589340568E+00 -0.10012670080E+01  0.90007733885E+02  0.89999995172E+02 0.  0.
        -12    1    1    2    0    0 -0.10567778748E+00 -0.61589340568E+00  0.10012670080E+01  0.11802661154E+01  0.00000000000E+00 0.  1.
         11    1    3    3    0    0 -0.14460264418E+02  0.41947675320E+01 -0.33851124334E+02  0.37048534932E+02  0.51100000000E-03 0. -1.
        -11    1    3    3    0    0 -0.58472740350E+01  0.30588515440E+01 -0.57759075319E+01  0.87697374240E+01  0.51100000000E-03 0.  1.
        -12    1    3    3    0    0  0.20413216241E+02 -0.66377256703E+01  0.38625764857E+02  0.44189461529E+02  0.00000000000E+00 0.  1.
</event>
<event>
 7    1  0.2542335E-015  0.9000784E+02  0.7816164E-02  0.1186339E+00
        -11   -1    0    0    0    0  0.00000000000E+00  0.00000000000E+00  0.45593999997E+02  0.45594000000E+02  0.51100000000E-03 0.  1.
         11   -1    0    0    0    0 -0.00000000000E+00 -0.00000000000E+00 -0.45593999997E+02  0.45594000000E+02  0.51100000000E-03 0. -1.
    9900012    2    1    2    0    0  0.76068518108E+00  0.87830692758E+00 -0.20668957363E+00  0.90007836628E+02  0.90000099272E+02 0.  0.
        -12    1    1    2    0    0 -0.76068518108E+00 -0.87830692758E+00  0.20668957363E+00  0.11801633716E+01  0.00000000000E+00 0.  1.
         11    1    3    3    0    0  0.17282902700E+02 -0.31529753626E+01 -0.37337806727E+02  0.41264413128E+02  0.51100000000E-03 0. -1.
        -11    1    3    3    0    0 -0.55689141783E+01 -0.85630371610E+01  0.28339811018E+01  0.10600465070E+02  0.51100000000E-03 0.  1.
        -12    1    3    3    0    0 -0.10953303340E+02  0.12594319451E+02  0.34297136052E+02  0.38142958431E+02  0.00000000000E+00 0.  1.
</event>
<event>
 7    1  0.2542335E-015  0.9000777E+02  0.7816164E-02  0.1186339E+00
        -11   -1    0    0    0    0  0.00000000000E+00  0.00000000000E+00  0.45593999997E+02  0.45594000000E+02  0.51100000000E-03 0.  1.
         11   -1    0    0    0    0 -0.00000000000E+00 -0.00000000000E+00 -0.45593999997E+02  0.45594000000E+02  0.51100000000E-03 0. -1.
    9900012    2    1    2    0    0 -0.95144195889E+00 -0.57244310667E+00 -0.40001352027E+00  0.90007769629E+02  0.90000031388E+02 0.  0.
        -12    1    1    2    0    0  0.95144195889E+00  0.57244310667E+00  0.40001352027E+00  0.11802303707E+01  0.00000000000E+00 0.  1.
         11    1    3    3    0    0  0.20819186284E+02  0.16208226207E+02 -0.26149787730E+02  0.37147765920E+02  0.51100000000E-03 0. -1.
        -11    1    3    3    0    0  0.98426584717E+01 -0.12788237030E+00  0.22611641712E+01  0.10099858581E+02  0.51100000000E-03 0.  1.
        -12    1    3    3    0    0 -0.31613286714E+02 -0.16652786943E+02  0.23488610038E+02  0.42760145128E+02  0.00000000000E+00 0.  1.
</event>
<event>
 7    1  0.2542335E-015  0.9000779E+02  0.7816164E-02  0.1186339E+00
        -11   -1    0    0    0    0  0.00000000000E+00  0.00000000000E+00  0.45593999997E+02  0.45594000000E+02  0.51100000000E-03 0. -1.
         11   -1    0    0    0    0 -0.00000000000E+00 -0.00000000000E+00 -0.45593999997E+02  0.45594000000E+02  0.51100000000E-03 0.  1.
    9900012    2    1    2    0    0 -0.44158869821E+00 -0.82729248566E+00  0.71656933901E+00  0.90007794487E+02  0.90000056574E+02 0.  0.
        -12    1    1    2    0    0  0.44158869821E+00  0.82729248566E+00 -0.71656933901E+00  0.11802055130E+01  0.00000000000E+00 0.  1.
         11    1    3    3    0    0  0.31973819465E+02  0.62704651512E+01  0.23824290862E+02  0.40363853877E+02  0.51100000000E-03 0. -1.
        -11    1    3    3    0    0  0.38365673777E+01 -0.21009956172E+01 -0.97522444349E+01  0.10688297507E+02  0.51100000000E-03 0.  1.
        -12    1    3    3    0    0 -0.36251975541E+02 -0.49967620197E+01 -0.13355477088E+02  0.38955643103E+02  0.00000000000E+00 0.  1.
</event>
<event>
 7    1  0.2542335E-015  0.9000774E+02  0.7816164E-02  0.1186339E+00
        -11   -1    0    0    0    0  0.00000000000E+00  0.00000000000E+00  0.45593999997E+02  0.45594000000E+02  0.51100000000E-03 0.  1.
         11   -1    0    0    0    0 -0.00000000000E+00 -0.00000000000E+00 -0.45593999997E+02  0.45594000000E+02  0.51100000000E-03 0. -1.
    9900012    2    1    2    0    0 -0.52703022452E+00  0.56992152742E+00 -0.88907405562E+00  0.90007735588E+02  0.89999996898E+02 0.  0.
        -12    1    1    2    0    0  0.52703022452E+00 -0.56992152742E+00  0.88907405562E+00  0.11802644116E+01  0.00000000000E+00 0.  1.
         11    1    3    3    0    0 -0.12227281624E+01 -0.64573962572E+01 -0.45922209562E+01  0.80175759524E+01  0.51100000000E-03 0. -1.
        -11    1    3    3    0    0  0.18061938313E+02  0.38857048017E+02 -0.85930254849E+01  0.43702904749E+02  0.51100000000E-03 0.  1.
         12    1    3    3    0    0 -0.17366240376E+02 -0.31829730233E+02  0.12296172385E+02  0.38287254887E+02  0.00000000000E+00 0. -1.
</event>
<event>
 7    1  0.2542335E-015  0.9000773E+02  0.7816164E-02  0.1186339E+00
        -11   -1    0    0    0    0  0.00000000000E+00  0.00000000000E+00  0.45593999997E+02  0.45594000000E+02  0.51100000000E-03 0.  1.
         11   -1    0    0    0    0 -0.00000000000E+00 -0.00000000000E+00 -0.45593999997E+02  0.45594000000E+02  0.51100000000E-03 0. -1.
    9900012    2    1    2    0    0 -0.50946201006E+00  0.10799348054E-01  0.10645955576E+01  0.90007732290E+02  0.89999993556E+02 0.  0.
        -12    1    1    2    0    0  0.50946201006E+00 -0.10799348054E-01 -0.10645955576E+01  0.11802677099E+01  0.00000000000E+00 0.  1.
         11    1    3    3    0    0  0.23739772894E+02  0.34546715414E+02 -0.14977585330E+01  0.41943958371E+02  0.51100000000E-03 0. -1.
        -11    1    3    3    0    0  0.18949216120E+01 -0.14405389718E+02  0.38885754627E+01  0.15040844399E+02  0.51100000000E-03 0.  1.
        -12    1    3    3    0    0 -0.26144156516E+02 -0.20130526347E+02 -0.13262213720E+01  0.33022929520E+02  0.00000000000E+00 0.  1.
</event>
<event>
 7    1  0.2542335E-015  0.9000782E+02  0.7816164E-02  0.1186339E+00
        -11   -1    0    0    0    0  0.00000000000E+00  0.00000000000E+00  0.45593999997E+02  0.45594000000E+02  0.51100000000E-03 0.  1.
         11   -1    0    0    0    0 -0.00000000000E+00 -0.00000000000E+00 -0.45593999997E+02  0.45594000000E+02  0.51100000000E-03 0. -1.
    9900012    2    1    2    0    0  0.26591138514E+00 -0.35110961136E+00 -0.10949114448E+01  0.90007822939E+02  0.90000085402E+02 0.  0.
        -12    1    1    2    0    0 -0.26591138514E+00  0.35110961136E+00  0.10949114448E+01  0.11801770612E+01  0.00000000000E+00 0.  1.
         11    1    3    3    0    0 -0.18066225856E+02  0.18846654259E+02 -0.28437653067E+02  0.38604209689E+02  0.51100000000E-03 0. -1.
        -11    1    3    3    0    0  0.40721568937E+01 -0.11638182895E+02 -0.64786936128E+01  0.13928504372E+02  0.51100000000E-03 0.  1.
        -12    1    3    3    0    0  0.14259980347E+02 -0.75595809756E+01  0.33821435236E+02  0.37475108878E+02  0.00000000000E+00 0.  1.
</event>
<event>
 7    1  0.2542335E-015  0.9000765E+02  0.7816164E-02  0.1186339E+00
        -11   -1    0    0    0    0  0.00000000000E+00  0.00000000000E+00  0.45593999997E+02  0.45594000000E+02  0.51100000000E-03 0.  1.
         11   -1    0    0    0    0 -0.00000000000E+00 -0.00000000000E+00 -0.45593999997E+02  0.45594000000E+02  0.51100000000E-03 0. -1.
    9900012    2    1    2    0    0  0.35118926283E+00 -0.11070377662E+01  0.21062503904E+00  0.90007648603E+02  0.89999908764E+02 0.  0.
        -12    1    1    2    0    0 -0.35118926283E+00  0.11070377662E+01 -0.21062503904E+00  0.11803513974E+01  0.00000000000E+00 0.  1.
         11    1    3    3    0    0  0.32581213929E+01  0.87257167394E+01 -0.25902884774E+00  0.93177563733E+01  0.51100000000E-03 0. -1.
        -11    1    3    3    0    0  0.23559983329E+02 -0.27670403774E+02  0.21727727953E+02  0.42341684210E+02  0.51100000000E-03 0.  1.
         12    1    3    3    0    0 -0.26466915459E+02  0.17837649268E+02 -0.21258074066E+02  0.38348208020E+02  0.00000000000E+00 0. -1.
</event>
<event>
 7    1  0.2542335E-015  0.9000773E+02  0.7816164E-02  0.1186339E+00
        -11   -1    0    0    0    0  0.00000000000E+00  0.00000000000E+00  0.45593999997E+02  0.45594000000E+02  0.51100000000E-03 0.  1.
         11   -1    0    0    0    0 -0.00000000000E+00 -0.00000000000E+00 -0.45593999997E+02  0.45594000000E+02  0.51100000000E-03 0. -1.
    9900012    2    1    2    0    0 -0.33309291589E+00 -0.50505015448E+00 -0.10134113376E+01  0.90007733467E+02  0.89999994749E+02 0.  0.
        -12    1    1    2    0    0  0.33309291589E+00  0.50505015448E+00  0.10134113376E+01  0.11802665328E+01  0.00000000000E+00 0.  1.
         11    1    3    3    0    0  0.68559758728E+01  0.38319727791E+02 -0.21267102104E+02  0.44358714762E+02  0.51100000000E-03 0. -1.
        -11    1    3    3    0    0  0.15747691498E+01 -0.70848158967E+01  0.72149977524E+01  0.10233802177E+02  0.51100000000E-03 0.  1.
        -12    1    3    3    0    0 -0.87638379384E+01 -0.31739962049E+02  0.13038693014E+02  0.35415216529E+02  0.00000000000E+00 0.  1.
</event>
<event>
 7    1  0.2542335E-015  0.9000775E+02  0.7816164E-02  0.1186339E+00
        -11   -1    0    0    0    0  0.00000000000E+00  0.00000000000E+00  0.45593999997E+02  0.45594000000E+02  0.51100000000E-03 0.  1.
         11   -1    0    0    0    0 -0.00000000000E+00 -0.00000000000E+00 -0.45593999997E+02  0.45594000000E+02  0.51100000000E-03 0. -1.
    9900012    2    1    2    0    0 -0.63930745342E+00 -0.90983360984E+00 -0.39556381545E+00  0.90007753437E+02  0.90000014982E+02 0.  0.
        -12    1    1    2    0    0  0.63930745342E+00  0.90983360984E+00  0.39556381545E+00  0.11802465631E+01  0.00000000000E+00 0.  1.
         11    1    3    3    0    0 -0.18112979255E+02 -0.16518154764E+02 -0.35674762307E+02  0.43285310675E+02  0.51100000000E-03 0. -1.
        -11    1    3    3    0    0  0.43603508621E+01  0.94175246176E+01  0.22060406032E+01  0.10609856030E+02  0.51100000000E-03 0.  1.
        -12    1    3    3    0    0  0.13113320939E+02  0.61907965368E+01  0.33073157888E+02  0.36112586733E+02  0.00000000000E+00 0.  1.
</event>
<event>
 7    1  0.2542335E-015  0.9000766E+02  0.7816164E-02  0.1186339E+00
        -11   -1    0    0    0    0  0.00000000000E+00  0.00000000000E+00  0.45593999997E+02  0.45594000000E+02  0.51100000000E-03 0.  1.
         11   -1    0    0    0    0 -0.00000000000E+00 -0.00000000000E+00 -0.45593999997E+02  0.45594000000E+02  0.51100000000E-03 0. -1.
    9900012    2    1    2    0    0 -0.55886565736E+00 -0.58008120027E+00  0.86277398826E+00  0.90007659381E+02  0.89999919685E+02 0.  0.
        -12    1    1    2    0    0  0.55886565736E+00  0.58008120027E+00 -0.86277398826E+00  0.11803406189E+01  0.00000000000E+00 0.  1.
         11    1    3    3    0    0  0.97126721154E+01 -0.15325604667E+02  0.46536352971E+01  0.18731430265E+02  0.51100000000E-03 0. -1.
        -11    1    3    3    0    0 -0.23972748238E+02 -0.75549999263E+01  0.22821549695E+02  0.33949872057E+02  0.51100000000E-03 0.  1.
         12    1    3    3    0    0  0.13701210465E+02  0.22300523393E+02 -0.26612411004E+02  0.37326357059E+02  0.00000000000E+00 0. -1.
</event>
<event>
 7    1  0.2542335E-015  0.9000773E+02  0.7816164E-02  0.1186339E+00
        -11   -1    0    0    0    0  0.00000000000E+00  0.00000000000E+00  0.45593999997E+02  0.45594000000E+02  0.51100000000E-03 0.  1.
         11   -1    0    0    0    0 -0.00000000000E+00 -0.00000000000E+00 -0.45593999997E+02  0.45594000000E+02  0.51100000000E-03 0. -1.
    9900012    2    1    2    0    0  0.67418353534E+00 -0.80182696511E-01 -0.96544666245E+00  0.90007728861E+02  0.89999990082E+02 0.  0.
        -12    1    1    2    0    0 -0.67418353534E+00  0.80182696511E-01  0.96544666245E+00  0.11802711393E+01  0.00000000000E+00 0.  1.
         11    1    3    3    0    0  0.40388316824E+01 -0.13962954129E+02 -0.88494867954E+01  0.17017334285E+02  0.51100000000E-03 0. -1.
        -11    1    3    3    0    0 -0.22716187018E+02 -0.16997193354E+02  0.19858784818E+02  0.34630926485E+02  0.51100000000E-03 0.  1.
         12    1    3    3    0    0  0.19351538871E+02  0.30879964787E+02 -0.11974744685E+02  0.38359468090E+02  0.00000000000E+00 0. -1.
</event>
<event>
 8    1  0.2542335E-015  0.9000764E+02  0.7816164E-02  0.1186339E+00
        -11   -1    0    0    0    0  0.00000000000E+00  0.00000000000E+00  0.45593999997E+02  0.45594000000E+02  0.51100000000E-03 0.  1.
         11   -1    0    0    0    0 -0.00000000000E+00 -0.00000000000E+00 -0.45593999997E+02  0.45594000000E+02  0.51100000000E-03 0. -1.
    9900012    2    1    2    0    0 -0.45170590097E+00  0.87479208376E+00 -0.65110821136E+00  0.90007643565E+02  0.89999903660E+02 0.  0.
         23    2    3    3    0    0 -0.16615718062E+02 -0.12164555807E+02  0.15283273937E+02  0.63831234013E+02  0.58453310160E+02 0.  0.
        -12    1    1    2    0    0  0.45170590097E+00 -0.87479208376E+00  0.65110821136E+00  0.11803564350E+01  0.00000000000E+00 0.  1.
         11    1    4    4    0    0 -0.94196681626E+01 -0.17219204288E+02 -0.19670772531E+02  0.27787954887E+02  0.51100000000E-03 0. -1.
        -11    1    4    4    0    0 -0.71960498993E+01  0.50546484806E+01  0.34954046468E+02  0.36043279126E+02  0.51100000000E-03 0.  1.
         12    1    3    3    0    0  0.16164012161E+02  0.13039347891E+02 -0.15934382148E+02  0.26176409552E+02  0.00000000000E+00 0. -1.
</event>
<event>
 7    1  0.2542335E-015  0.9000772E+02  0.7816164E-02  0.1186339E+00
        -11   -1    0    0    0    0  0.00000000000E+00  0.00000000000E+00  0.45593999997E+02  0.45594000000E+02  0.51100000000E-03 0.  1.
         11   -1    0    0    0    0 -0.00000000000E+00 -0.00000000000E+00 -0.45593999997E+02  0.45594000000E+02  0.51100000000E-03 0. -1.
    9900012    2    1    2    0    0 -0.38462143152E+00 -0.44297941796E+00 -0.10241509278E+01  0.90007724806E+02  0.89999985974E+02 0.  0.
        -12    1    1    2    0    0  0.38462143152E+00  0.44297941796E+00  0.10241509278E+01  0.11802751939E+01  0.00000000000E+00 0.  1.
         11    1    3    3    0    0  0.27312154266E+01 -0.78163651378E+01 -0.42161258847E+01  0.92914379625E+01  0.51100000000E-03 0. -1.
        -11    1    3    3    0    0 -0.38946926610E+02 -0.96715712770E+00  0.15491133470E+02  0.41925811879E+02  0.51100000000E-03 0.  1.
         12    1    3    3    0    0  0.35831089752E+02  0.83405428475E+01 -0.12299158513E+02  0.38790474964E+02  0.00000000000E+00 0. -1.
</event>
<event>
 7    1  0.2542335E-015  0.9000778E+02  0.7816164E-02  0.1186339E+00
        -11   -1    0    0    0    0  0.00000000000E+00  0.00000000000E+00  0.45593999997E+02  0.45594000000E+02  0.51100000000E-03 0. -1.
         11   -1    0    0    0    0 -0.00000000000E+00 -0.00000000000E+00 -0.45593999997E+02  0.45594000000E+02  0.51100000000E-03 0.  1.
    9900012    2    1    2    0    0  0.30632600687E+00 -0.10808230273E+01  0.36179878286E+00  0.90007782902E+02  0.90000044836E+02 0.  0.
        -12    1    1    2    0    0 -0.30632600687E+00  0.10808230273E+01 -0.36179878286E+00  0.11802170978E+01  0.00000000000E+00 0.  1.
         11    1    3    3    0    0  0.15633696818E+02  0.24863903859E+02  0.23934684512E+02  0.37887930984E+02  0.51100000000E-03 0. -1.
        -11    1    3    3    0    0  0.72201279296E+01  0.39257883538E+01 -0.67608527063E+00  0.82461598986E+01  0.51100000000E-03 0.  1.
        -12    1    3    3    0    0 -0.22547498741E+02 -0.29870515240E+02 -0.22896800458E+02  0.43873692019E+02  0.00000000000E+00 0.  1.
</event>
<event>
 7    1  0.2542335E-015  0.9000782E+02  0.7816164E-02  0.1186339E+00
        -11   -1    0    0    0    0  0.00000000000E+00  0.00000000000E+00  0.45593999997E+02  0.45594000000E+02  0.51100000000E-03 0.  1.
         11   -1    0    0    0    0 -0.00000000000E+00 -0.00000000000E+00 -0.45593999997E+02  0.45594000000E+02  0.51100000000E-03 0. -1.
    9900012    2    1    2    0    0  0.57339220230E+00  0.45947034456E+00 -0.92354105634E+00  0.90007822175E+02  0.90000084628E+02 0.  0.
        -12    1    1    2    0    0 -0.57339220230E+00 -0.45947034456E+00  0.92354105634E+00  0.11801778247E+01  0.00000000000E+00 0.  1.
         11    1    3    3    0    0 -0.49046267641E+01  0.92271260357E+01  0.19387714210E+01  0.10627984449E+02  0.51100000000E-03 0. -1.
        -11    1    3    3    0    0  0.28442604306E+01 -0.10328003289E+02  0.37449712233E+02  0.38951744710E+02  0.51100000000E-03 0.  1.
         12    1    3    3    0    0  0.26337585358E+01  0.15603475981E+01 -0.40312024710E+02  0.40428093016E+02  0.00000000000E+00 0. -1.
</event>
<event>
 7    1  0.2542335E-015  0.9000875E+02  0.7816164E-02  0.1186337E+00
        -11   -1    0    0    0    0  0.00000000000E+00  0.00000000000E+00  0.45593999997E+02  0.45594000000E+02  0.51100000000E-03 0.  1.
         11   -1    0    0    0    0 -0.00000000000E+00 -0.00000000000E+00 -0.45593999997E+02  0.45594000000E+02  0.51100000000E-03 0. -1.
    9900012    2    1    2    0    0  0.13399422324E+00  0.11308696776E+01 -0.30627382509E+00  0.90008752640E+02  0.90001027369E+02 0.  0.
        -12    1    1    2    0    0 -0.13399422324E+00 -0.11308696776E+01  0.30627382509E+00  0.11792473598E+01  0.00000000000E+00 0.  1.
         11    1    3    3    0    0 -0.80102817966E+01  0.26282660540E+01 -0.24025945951E+01  0.87661198920E+01  0.51100000000E-03 0. -1.
        -11    1    3    3    0    0  0.52115522676E-01  0.38158027924E+02 -0.91434438901E+01  0.39238251458E+02  0.51100000000E-03 0.  1.
         12    1    3    3    0    0  0.80921604972E+01 -0.39655424300E+02  0.11239764660E+02  0.42004381290E+02  0.00000000000E+00 0. -1.
</event>
<event>
 7    1  0.2542335E-015  0.9000776E+02  0.7816164E-02  0.1186339E+00
        -11   -1    0    0    0    0  0.00000000000E+00  0.00000000000E+00  0.45593999997E+02  0.45594000000E+02  0.51100000000E-03 0.  1.
         11   -1    0    0    0    0 -0.00000000000E+00 -0.00000000000E+00 -0.45593999997E+02  0.45594000000E+02  0.51100000000E-03 0. -1.
    9900012    2    1    2    0    0  0.82685851835E+00  0.82398412412E+00 -0.17410602647E+00  0.90007763687E+02  0.90000025368E+02 0.  0.
        -12    1    1    2    0    0 -0.82685851835E+00 -0.82398412412E+00  0.17410602647E+00  0.11802363130E+01  0.00000000000E+00 0.  1.
         11    1    3    3    0    0 -0.22497830306E+02 -0.26623579340E+02 -0.22855763854E+02  0.41681570111E+02  0.51100000000E-03 0. -1.
        -11    1    3    3    0    0  0.10072503920E+02  0.20150642689E+01 -0.20289975191E+01  0.10470561132E+02  0.51100000000E-03 0.  1.
        -12    1    3    3    0    0  0.13252184904E+02  0.25432499195E+02  0.24710655347E+02  0.37855632443E+02  0.00000000000E+00 0.  1.
</event>
<event>
 7    1  0.2542335E-015  0.9000768E+02  0.7816164E-02  0.1186339E+00
        -11   -1    0    0    0    0  0.00000000000E+00  0.00000000000E+00  0.45593999997E+02  0.45594000000E+02  0.51100000000E-03 0. -1.
         11   -1    0    0    0    0 -0.00000000000E+00 -0.00000000000E+00 -0.45593999997E+02  0.45594000000E+02  0.51100000000E-03 0.  1.
    9900012    2    1    2    0    0 -0.86231703127E+00  0.59172147981E+00  0.54719585202E+00  0.90007682978E+02  0.89999943593E+02 0.  0.
        -12    1    1    2    0    0  0.86231703127E+00 -0.59172147981E+00 -0.54719585202E+00  0.11803170221E+01  0.00000000000E+00 0.  1.
         11    1    3    3    0    0  0.41100426970E+01 -0.18777981588E+01  0.76252173307E+01  0.88635498813E+01  0.51100000000E-03 0. -1.
        -11    1    3    3    0    0 -0.25118436800E+02  0.34548976841E+02 -0.63753656051E+00  0.42719715837E+02  0.51100000000E-03 0.  1.
         12    1    3    3    0    0  0.20146077072E+02 -0.32079457202E+02 -0.64404849182E+01  0.38424417260E+02  0.00000000000E+00 0. -1.
</event>
<event>
 7    1  0.2542335E-015  0.9000778E+02  0.7816164E-02  0.1186339E+00
        -11   -1    0    0    0    0  0.00000000000E+00  0.00000000000E+00  0.45593999997E+02  0.45594000000E+02  0.51100000000E-03 0.  1.
         11   -1    0    0    0    0 -0.00000000000E+00 -0.00000000000E+00 -0.45593999997E+02  0.45594000000E+02  0.51100000000E-03 0. -1.
    9900012    2    1    2    0    0 -0.12945548630E+00  0.53678589223E-01 -0.11718703143E+01  0.90007779619E+02  0.90000041510E+02 0.  0.
        -12    1    1    2    0    0  0.12945548630E+00 -0.53678589223E-01  0.11718703143E+01  0.11802203809E+01  0.00000000000E+00 0.  1.
         11    1    3    3    0    0 -0.38461962781E+00 -0.27251905799E+01  0.79330425103E+01  0.83968898818E+01  0.51100000000E-03 0. -1.
        -11    1    3    3    0    0 -0.20369588174E+02 -0.34813429505E+01  0.30311925699E+02  0.36685865274E+02  0.51100000000E-03 0.  1.
         12    1    3    3    0    0  0.20624752315E+02  0.62602121196E+01 -0.39416838523E+02  0.44925024463E+02  0.00000000000E+00 0. -1.
</event>
<event>
 7    1  0.2542335E-015  0.9000771E+02  0.7816164E-02  0.1186339E+00
        -11   -1    0    0    0    0  0.00000000000E+00  0.00000000000E+00  0.45593999997E+02  0.45594000000E+02  0.51100000000E-03 0.  1.
         11   -1    0    0    0    0 -0.00000000000E+00 -0.00000000000E+00 -0.45593999997E+02  0.45594000000E+02  0.51100000000E-03 0. -1.
    9900012    2    1    2    0    0 -0.79247591256E+00  0.54697873032E+00 -0.68254790382E+00  0.90007713829E+02  0.89999974852E+02 0.  0.
        -12    1    1    2    0    0  0.79247591256E+00 -0.54697873032E+00  0.68254790382E+00  0.11802861706E+01  0.00000000000E+00 0.  1.
         11    1    3    3    0    0  0.21342096816E+02  0.27399699561E+02 -0.26098486511E+01  0.34828722957E+02  0.51100000000E-03 0. -1.
        -11    1    3    3    0    0 -0.12062272385E+01  0.10596604089E+02  0.57362173934E+01  0.12109797382E+02  0.51100000000E-03 0.  1.
        -12    1    3    3    0    0 -0.20928345490E+02 -0.37449324920E+02 -0.38089166461E+01  0.43069193491E+02  0.00000000000E+00 0.  1.
</event>
<event>
 7    1  0.2542335E-015  0.9000771E+02  0.7816164E-02  0.1186339E+00
        -11   -1    0    0    0    0  0.00000000000E+00  0.00000000000E+00  0.45593999997E+02  0.45594000000E+02  0.51100000000E-03 0. -1.
         11   -1    0    0    0    0 -0.00000000000E+00 -0.00000000000E+00 -0.45593999997E+02  0.45594000000E+02  0.51100000000E-03 0.  1.
    9900012    2    1    2    0    0  0.39493927279E+00 -0.85391123300E+00 -0.71269881401E+00  0.90007711466E+02  0.89999972458E+02 0.  0.
        -12    1    1    2    0    0 -0.39493927279E+00  0.85391123300E+00  0.71269881401E+00  0.11802885336E+01  0.00000000000E+00 0.  1.
         11    1    3    3    0    0 -0.32034061091E+02 -0.13105335103E+02 -0.36880617934E+01  0.34807077990E+02  0.51100000000E-03 0. -1.
        -11    1    3    3    0    0 -0.94870592327E+01 -0.30810030906E+01  0.34831627338E+01  0.10565476602E+02  0.51100000000E-03 0.  1.
        -12    1    3    3    0    0  0.41916059597E+02  0.15332426961E+02 -0.50779975437E+00  0.44635156875E+02  0.00000000000E+00 0.  1.
</event>
<event>
 7    1  0.2542335E-015  0.9000771E+02  0.7816164E-02  0.1186339E+00
        -11   -1    0    0    0    0  0.00000000000E+00  0.00000000000E+00  0.45593999997E+02  0.45594000000E+02  0.51100000000E-03 0.  1.
         11   -1    0    0    0    0 -0.00000000000E+00 -0.00000000000E+00 -0.45593999997E+02  0.45594000000E+02  0.51100000000E-03 0. -1.
    9900012    2    1    2    0    0 -0.94832954705E+00  0.60335987928E+00  0.36014649109E+00  0.90007712930E+02  0.89999973940E+02 0.  0.
        -12    1    1    2    0    0  0.94832954705E+00 -0.60335987928E+00 -0.36014649109E+00  0.11802870705E+01  0.00000000000E+00 0.  1.
         11    1    3    3    0    0 -0.13976309218E+01 -0.32580580452E+02 -0.18999071527E+02  0.37741387282E+02  0.51100000000E-03 0. -1.
        -11    1    3    3    0    0 -0.12449394505E+01  0.12737927925E+02 -0.10143897663E+02  0.16331054532E+02  0.51100000000E-03 0.  1.
        -12    1    3    3    0    0  0.16942408253E+01  0.20446012406E+02  0.29503115681E+02  0.35935271116E+02  0.00000000000E+00 0.  1.
</event>
<event>
 7    1  0.2542335E-015  0.9000760E+02  0.7816164E-02  0.1186339E+00
        -11   -1    0    0    0    0  0.00000000000E+00  0.00000000000E+00  0.45593999997E+02  0.45594000000E+02  0.51100000000E-03 0. -1.
         11   -1    0    0    0    0 -0.00000000000E+00 -0.00000000000E+00 -0.45593999997E+02  0.45594000000E+02  0.51100000000E-03 0.  1.
    9900012    2    1    2    0    0 -0.71397363568E-01  0.37295062314E+00  0.11176566058E+01  0.90007599204E+02  0.89999858713E+02 0.  0.
        -12    1    1    2    0    0  0.71397363568E-01 -0.37295062314E+00 -0.11176566058E+01  0.11804007961E+01  0.00000000000E+00 0.  1.
         11    1    3    3    0    0 -0.20148262120E+02  0.10964782998E+02  0.32414144903E+02  0.39709642691E+02  0.51100000000E-03 0. -1.
        -11    1    3    3    0    0 -0.83207221388E+01 -0.22033195894E+01 -0.24274191462E+01  0.89432319716E+01  0.51100000000E-03 0.  1.
        -12    1    3    3    0    0  0.28397586895E+02 -0.83885127853E+01 -0.28869069151E+02  0.41354724541E+02  0.00000000000E+00 0.  1.
</event>
<event>
 8    1  0.2542335E-015  0.9000752E+02  0.7816164E-02  0.1186339E+00
        -11   -1    0    0    0    0  0.00000000000E+00  0.00000000000E+00  0.45593999997E+02  0.45594000000E+02  0.51100000000E-03 0.  1.
         11   -1    0    0    0    0 -0.00000000000E+00 -0.00000000000E+00 -0.45593999997E+02  0.45594000000E+02  0.51100000000E-03 0. -1.
    9900012    2    1    2    0    0 -0.57984359341E+00  0.95478071364E+00 -0.38171761531E+00  0.90007519953E+02  0.89999778416E+02 0.  0.
         23    2    3    3    0    0  0.97266995193E+01 -0.24022976740E+02 -0.11417221765E+02  0.60820270165E+02  0.53824160144E+02 0.  0.
        -12    1    1    2    0    0  0.57984359341E+00 -0.95478071364E+00  0.38171761531E+00  0.11804800472E+01  0.00000000000E+00 0.  1.
         11    1    4    4    0    0  0.15891576427E+02 -0.19733897810E+02 -0.30888516737E+02  0.39950837170E+02  0.51100000000E-03 0. -1.
        -11    1    4    4    0    0 -0.61648769081E+01 -0.42890789295E+01  0.19471294973E+02  0.20869432995E+02  0.51100000000E-03 0.  1.
        -12    1    3    3    0    0 -0.10306543113E+02  0.24977757453E+02  0.11035504149E+02  0.29187249787E+02  0.00000000000E+00 0.  1.
</event>
<event>
 7    1  0.2542335E-015  0.9000770E+02  0.7816164E-02  0.1186339E+00
        -11   -1    0    0    0    0  0.00000000000E+00  0.00000000000E+00  0.45593999997E+02  0.45594000000E+02  0.51100000000E-03 0.  1.
         11   -1    0    0    0    0 -0.00000000000E+00 -0.00000000000E+00 -0.45593999997E+02  0.45594000000E+02  0.51100000000E-03 0. -1.
    9900012    2    1    2    0    0  0.43601296485E+00  0.89436845051E+00  0.63489862898E+00  0.90007704063E+02  0.89999964956E+02 0.  0.
        -12    1    1    2    0    0 -0.43601296485E+00 -0.89436845051E+00 -0.63489862898E+00  0.11802959374E+01  0.00000000000E+00 0.  1.
         11    1    3    3    0    0  0.69131120262E+01 -0.32629790238E+02  0.16181160705E+02  0.37071880056E+02  0.51100000000E-03 0. -1.
        -11    1    3    3    0    0 -0.99729612019E+00 -0.80358112108E+01  0.34580304274E+00  0.81048406137E+01  0.51100000000E-03 0.  1.
        -12    1    3    3    0    0 -0.54798029412E+01  0.41559969899E+02 -0.15892065118E+02  0.44830983393E+02  0.00000000000E+00 0.  1.
</event>
<event>
 7    1  0.2542335E-015  0.9000771E+02  0.7816164E-02  0.1186339E+00
        -11   -1    0    0    0    0  0.00000000000E+00  0.00000000000E+00  0.45593999997E+02  0.45594000000E+02  0.51100000000E-03 0.  1.
         11   -1    0    0    0    0 -0.00000000000E+00 -0.00000000000E+00 -0.45593999997E+02  0.45594000000E+02  0.51100000000E-03 0. -1.
    9900012    2    1    2    0    0  0.54007229655E-01 -0.11010982131E+01 -0.42159295713E+00  0.90007714154E+02  0.89999975181E+02 0.  0.
        -12    1    1    2    0    0 -0.54007229655E-01  0.11010982131E+01  0.42159295713E+00  0.11802858456E+01  0.00000000000E+00 0.  1.
         11    1    3    3    0    0  0.77482768367E+01  0.13102689176E+01 -0.11129889982E+02  0.13624501820E+02  0.51100000000E-03 0. -1.
        -11    1    3    3    0    0  0.22256507970E+02 -0.20184889003E+02 -0.14527405075E+02  0.33374052639E+02  0.51100000000E-03 0.  1.
         12    1    3    3    0    0 -0.29950777577E+02  0.17773521872E+02  0.25235702100E+02  0.43009159695E+02  0.00000000000E+00 0. -1.
</event>
<event>
 7    1  0.2542335E-015  0.9000769E+02  0.7816164E-02  0.1186339E+00
        -11   -1    0    0    0    0  0.00000000000E+00  0.00000000000E+00  0.45593999997E+02  0.45594000000E+02  0.51100000000E-03 0.  1.
         11   -1    0    0    0    0 -0.00000000000E+00 -0.00000000000E+00 -0.45593999997E+02  0.45594000000E+02  0.51100000000E-03 0. -1.
    9900012    2    1    2    0    0  0.30641413015E+00 -0.77305379040E+00 -0.83762774070E+00  0.90007694102E+02  0.89999954864E+02 0.  0.
        -12    1    1    2    0    0 -0.30641413015E+00  0.77305379040E+00  0.83762774070E+00  0.11803058985E+01  0.00000000000E+00 0.  1.
         11    1    3    3    0    0  0.13572342417E+02 -0.74286702717E+01 -0.35321761839E+02  0.38561904522E+02  0.51100000000E-03 0. -1.
        -11    1    3    3    0    0 -0.17177466786E+01 -0.10072805121E+02 -0.12905136154E+01  0.10299392327E+02  0.51100000000E-03 0.  1.
        -12    1    3    3    0    0 -0.11548181608E+02  0.16728421603E+02  0.35774647714E+02  0.41146397252E+02  0.00000000000E+00 0.  1.
</event>
<event>
 7    1  0.2542335E-015  0.9000776E+02  0.7816164E-02  0.1186339E+00
        -11   -1    0    0    0    0  0.00000000000E+00  0.00000000000E+00  0.45593999997E+02  0.45594000000E+02  0.51100000000E-03 0.  1.
         11   -1    0    0    0    0 -0.00000000000E+00 -0.00000000000E+00 -0.45593999997E+02  0.45594000000E+02  0.51100000000E-03 0. -1.
    9900012    2    1    2    0    0 -0.10084214190E+01 -0.27808197377E+00  0.54654732306E+00  0.90007763872E+02  0.90000025555E+02 0.  0.
        -12    1    1    2    0    0  0.10084214190E+01  0.27808197377E+00 -0.54654732306E+00  0.11802361284E+01  0.00000000000E+00 0.  1.
         11    1    3    3    0    0  0.21809114782E+02 -0.20913653058E+02 -0.18020681153E+02  0.35181860686E+02  0.51100000000E-03 0. -1.
        -11    1    3    3    0    0  0.75785739646E+01 -0.13881777296E+01 -0.61706698103E+01  0.98711188279E+01  0.51100000000E-03 0.  1.
        -12    1    3    3    0    0 -0.30396110166E+02  0.22023748814E+02  0.24737898286E+02  0.44954784358E+02  0.00000000000E+00 0.  1.
</event>
<event>
 7    1  0.2542335E-015  0.9000772E+02  0.7816164E-02  0.1186339E+00
        -11   -1    0    0    0    0  0.00000000000E+00  0.00000000000E+00  0.45593999997E+02  0.45594000000E+02  0.51100000000E-03 0.  1.
         11   -1    0    0    0    0 -0.00000000000E+00 -0.00000000000E+00 -0.45593999997E+02  0.45594000000E+02  0.51100000000E-03 0. -1.
    9900012    2    1    2    0    0 -0.26972758136E+00  0.82796028897E+00 -0.79674211512E+00  0.90007716472E+02  0.89999977530E+02 0.  0.
        -12    1    1    2    0    0  0.26972758136E+00 -0.82796028897E+00  0.79674211512E+00  0.11802835279E+01  0.00000000000E+00 0.  1.
         11    1    3    3    0    0  0.80022871492E+01  0.28196319782E+02 -0.25636859634E+02  0.38939923228E+02  0.51100000000E-03 0. -1.
        -11    1    3    3    0    0 -0.16678574243E+00 -0.33882444212E+01 -0.85320590443E+01  0.91817236693E+01  0.51100000000E-03 0.  1.
        -12    1    3    3    0    0 -0.81052289882E+01 -0.23980115072E+02  0.33372176563E+02  0.41886069574E+02  0.00000000000E+00 0.  1.
</event>
<event>
 7    1  0.2542335E-015  0.9000863E+02  0.7816164E-02  0.1186337E+00
        -11   -1    0    0    0    0  0.00000000000E+00  0.00000000000E+00  0.45593999997E+02  0.45594000000E+02  0.51100000000E-03 0.  1.
         11   -1    0    0    0    0 -0.00000000000E+00 -0.00000000000E+00 -0.45593999997E+02  0.45594000000E+02  0.51100000000E-03 0. -1.
    9900012    2    1    2    0    0 -0.54741265195E+00 -0.86379721332E+00  0.58745074850E+00  0.90008633806E+02  0.90000906968E+02 0.  0.
        -12    1    1    2    0    0  0.54741265195E+00  0.86379721332E+00 -0.58745074850E+00  0.11793661938E+01  0.00000000000E+00 0.  1.
         11    1    3    3    0    0 -0.54079002371E+00 -0.60680680759E+01 -0.70450473934E+01  0.93137853239E+01  0.51100000000E-03 0. -1.
        -11    1    3    3    0    0  0.36256998550E+02  0.12703380485E+02 -0.99737715159E+01  0.39691585230E+02  0.51100000000E-03 0.  1.
         12    1    3    3    0    0 -0.36263621178E+02 -0.74991096227E+01  0.17606269658E+02  0.41003263252E+02  0.00000000000E+00 0. -1.
</event>
<event>
 7    1  0.2542335E-015  0.9000776E+02  0.7816164E-02  0.1186339E+00
        -11   -1    0    0    0    0  0.00000000000E+00  0.00000000000E+00  0.45593999997E+02  0.45594000000E+02  0.51100000000E-03 0. -1.
         11   -1    0    0    0    0 -0.00000000000E+00 -0.00000000000E+00 -0.45593999997E+02  0.45594000000E+02  0.51100000000E-03 0.  1.
    9900012    2    1    2    0    0  0.50289857964E+00  0.41817736241E+00  0.98244421919E+00  0.90007755986E+02  0.90000017565E+02 0.  0.
        -12    1    1    2    0    0 -0.50289857964E+00 -0.41817736241E+00 -0.98244421919E+00  0.11802440136E+01  0.00000000000E+00 0.  1.
         11    1    3    3    0    0  0.84867914017E+01  0.10289583333E+01 -0.30017802752E+01  0.90606329045E+01  0.51100000000E-03 0. -1.
        -11    1    3    3    0    0  0.10649580918E+02  0.13168197471E+02  0.36952525530E+02  0.40648544152E+02  0.51100000000E-03 0.  1.
         12    1    3    3    0    0 -0.18633473741E+02 -0.13778978442E+02 -0.32968301036E+02  0.40298578930E+02  0.00000000000E+00 0. -1.
</event>
<event>
 7    1  0.2542335E-015  0.9000709E+02  0.7816164E-02  0.1186340E+00
        -11   -1    0    0    0    0  0.00000000000E+00  0.00000000000E+00  0.45593999997E+02  0.45594000000E+02  0.51100000000E-03 0.  1.
         11   -1    0    0    0    0 -0.00000000000E+00 -0.00000000000E+00 -0.45593999997E+02  0.45594000000E+02  0.51100000000E-03 0. -1.
    9900012    2    1    2    0    0 -0.32789588672E+00 -0.11341390494E+01 -0.27489846934E-01  0.90007092388E+02  0.89999345205E+02 0.  0.
        -12    1    1    2    0    0  0.32789588672E+00  0.11341390494E+01  0.27489846934E-01  0.11809076118E+01  0.00000000000E+00 0.  1.
         11    1    3    3    0    0 -0.42840126175E+01  0.16468862584E+01 -0.59903278637E+01  0.75464578863E+01  0.51100000000E-03 0. -1.
        -11    1    3    3    0    0  0.19535989441E+02 -0.36795891692E+02  0.14452938914E+02  0.44096258031E+02  0.51100000000E-03 0.  1.
         12    1    3    3    0    0 -0.15579872710E+02  0.34014866384E+02 -0.84901008972E+01  0.38364376471E+02  0.00000000000E+00 0. -1.
</event>
<event>
 7    1  0.2542335E-015  0.9000744E+02  0.7816164E-02  0.1186340E+00
        -11   -1    0    0    0    0  0.00000000000E+00  0.00000000000E+00  0.45593999997E+02  0.45594000000E+02  0.51100000000E-03 0.  1.
         11   -1    0    0    0    0 -0.00000000000E+00 -0.00000000000E+00 -0.45593999997E+02  0.45594000000E+02  0.51100000000E-03 0. -1.
    9900012    2    1    2    0    0  0.52324938441E-01  0.53361692689E+00 -0.10517743031E+01  0.90007443306E+02  0.89999700757E+02 0.  0.
        -12    1    1    2    0    0 -0.52324938441E-01 -0.53361692689E+00  0.10517743031E+01  0.11805566943E+01  0.00000000000E+00 0.  1.
         11    1    3    3    0    0 -0.10014317653E+02  0.23236177259E+01  0.18671755853E+01  0.10448545464E+02  0.51100000000E-03 0. -1.
        -11    1    3    3    0    0  0.24158908258E+02 -0.16483429303E+02  0.29330863107E+02  0.41420475862E+02  0.51100000000E-03 0.  1.
         12    1    3    3    0    0 -0.14092265667E+02  0.14693428504E+02 -0.32249812996E+02  0.38138421979E+02  0.00000000000E+00 0. -1.
</event>
<event>
 7    1  0.2542335E-015  0.9000776E+02  0.7816164E-02  0.1186339E+00
        -11   -1    0    0    0    0  0.00000000000E+00  0.00000000000E+00  0.45593999997E+02  0.45594000000E+02  0.51100000000E-03 0. -1.
         11   -1    0    0    0    0 -0.00000000000E+00 -0.00000000000E+00 -0.45593999997E+02  0.45594000000E+02  0.51100000000E-03 0.  1.
    9900012    2    1    2    0    0 -0.85393749352E+00 -0.25485289820E+00  0.77382930741E+00  0.90007758059E+02  0.90000019665E+02 0.  0.
        -12    1    1    2    0    0  0.85393749352E+00  0.25485289820E+00 -0.77382930741E+00  0.11802419411E+01  0.00000000000E+00 0.  1.
         11    1    3    3    0    0  0.65453408671E+01 -0.62805636916E+01  0.10163967245E+01  0.91279806044E+01  0.51100000000E-03 0. -1.
        -11    1    3    3    0    0  0.31943659763E+02  0.10817404493E+02 -0.17096510009E+02  0.37811430729E+02  0.51100000000E-03 0.  1.
         12    1    3    3    0    0 -0.39342938124E+02 -0.47916936996E+01  0.16853942592E+02  0.43068346725E+02  0.00000000000E+00 0. -1.
</event>
<event>
 7    1  0.2542335E-015  0.9000774E+02  0.7816164E-02  0.1186339E+00
        -11   -1    0    0    0    0  0.00000000000E+00  0.00000000000E+00  0.45593999997E+02  0.45594000000E+02  0.51100000000E-03 0.  1.
         11   -1    0    0    0    0 -0.00000000000E+00 -0.00000000000E+00 -0.45593999997E+02  0.45594000000E+02  0.51100000000E-03 0. -1.
    9900012    2    1    2    0    0 -0.10163933339E+01 -0.57955815537E+00  0.15517374940E+00  0.90007736488E+02  0.89999997810E+02 0.  0.
        -12    1    1    2    0    0  0.10163933339E+01  0.57955815537E+00 -0.15517374940E+00  0.11802635118E+01  0.00000000000E+00 0.  1.
         11    1    3    3    0    0  0.40623089490E+01  0.42135897255E+01  0.11020967832E+01  0.59557795420E+01  0.51100000000E-03 0. -1.
        -11    1    3    3    0    0  0.13912751272E+02  0.63601674736E+01 -0.37990940309E+02  0.40955194104E+02  0.51100000000E-03 0.  1.
         12    1    3    3    0    0 -0.18991453555E+02 -0.11153315354E+02  0.37044017276E+02  0.43096762842E+02  0.00000000000E+00 0. -1.
</event>
<event>
 7    1  0.2542335E-015  0.9000733E+02  0.7816164E-02  0.1186340E+00
        -11   -1    0    0    0    0  0.00000000000E+00  0.00000000000E+00  0.45593999997E+02  0.45594000000E+02  0.51100000000E-03 0. -1.
         11   -1    0    0    0    0 -0.00000000000E+00 -0.00000000000E+00 -0.45593999997E+02  0.45594000000E+02  0.51100000000E-03 0.  1.
    9900012    2    1    2    0    0 -0.51159488272E-01 -0.51686868939E+00  0.10602877241E+01  0.90007330447E+02  0.89999586408E+02 0.  0.
        -12    1    1    2    0    0  0.51159488272E-01  0.51686868939E+00 -0.10602877241E+01  0.11806695529E+01  0.00000000000E+00 0.  1.
         11    1    3    3    0    0 -0.88578425182E+00  0.62050204496E+01  0.12225671262E+02  0.13738774712E+02  0.51100000000E-03 0. -1.
        -11    1    3    3    0    0  0.35083587835E+02 -0.12056888381E+02 -0.17523847771E+02  0.41028184627E+02  0.51100000000E-03 0.  1.
         12    1    3    3    0    0 -0.34248963072E+02  0.53349992419E+01  0.63584642335E+01  0.35240371108E+02  0.00000000000E+00 0. -1.
</event>
<event>
 7    1  0.2542335E-015  0.9000778E+02  0.7816164E-02  0.1186339E+00
        -11   -1    0    0    0    0  0.00000000000E+00  0.00000000000E+00  0.45593999997E+02  0.45594000000E+02  0.51100000000E-03 0. -1.
         11   -1    0    0    0    0 -0.00000000000E+00 -0.00000000000E+00 -0.45593999997E+02  0.45594000000E+02  0.51100000000E-03 0.  1.
    9900012    2    1    2    0    0  0.10177217509E+01 -0.48631127164E+00  0.34737911612E+00  0.90007776095E+02  0.90000037940E+02 0.  0.
        -12    1    1    2    0    0 -0.10177217509E+01  0.48631127164E+00 -0.34737911612E+00  0.11802239048E+01  0.00000000000E+00 0.  1.
         11    1    3    3    0    0  0.47171971778E+01 -0.11435324895E+02 -0.61131719780E+00  0.12385165063E+02  0.51100000000E-03 0. -1.
        -11    1    3    3    0    0  0.33609773952E+01 -0.32701802480E+02  0.48657099702E+01  0.33232201075E+02  0.51100000000E-03 0.  1.
         12    1    3    3    0    0 -0.70604528221E+01  0.43650816103E+02 -0.39070136563E+01  0.44390409958E+02  0.00000000000E+00 0. -1.
</event>
<event>
 7    1  0.2542335E-015  0.9000753E+02  0.7816164E-02  0.1186339E+00
        -11   -1    0    0    0    0  0.00000000000E+00  0.00000000000E+00  0.45593999997E+02  0.45594000000E+02  0.51100000000E-03 0.  1.
         11   -1    0    0    0    0 -0.00000000000E+00 -0.00000000000E+00 -0.45593999997E+02  0.45594000000E+02  0.51100000000E-03 0. -1.
    9900012    2    1    2    0    0  0.13422701034E-01  0.11585648811E+01  0.22594327660E+00  0.90007532670E+02  0.89999791301E+02 0.  0.
        -12    1    1    2    0    0 -0.13422701034E-01 -0.11585648811E+01 -0.22594327660E+00  0.11804673298E+01  0.00000000000E+00 0.  1.
         11    1    3    3    0    0  0.37020342698E+01  0.36052095056E+01  0.91670674006E+01  0.10523199053E+02  0.51100000000E-03 0. -1.
        -11    1    3    3    0    0  0.57190797768E+01 -0.19520428908E+02  0.29820163592E+02  0.36097052167E+02  0.51100000000E-03 0.  1.
         12    1    3    3    0    0 -0.94076913456E+01  0.17073784284E+02 -0.38761287716E+02  0.43387281450E+02  0.00000000000E+00 0. -1.
</event>
<event>
 7    1  0.2542335E-015  0.9000797E+02  0.7816164E-02  0.1186339E+00
        -11   -1    0    0    0    0  0.00000000000E+00  0.00000000000E+00  0.45593999997E+02  0.45594000000E+02  0.51100000000E-03 0.  1.
         11   -1    0    0    0    0 -0.00000000000E+00 -0.00000000000E+00 -0.45593999997E+02  0.45594000000E+02  0.51100000000E-03 0. -1.
    9900012    2    1    2    0    0 -0.11330720303E+01  0.25846373620E+00 -0.20446280394E+00  0.90007974252E+02  0.90000238711E+02 0.  0.
        -12    1    1    2    0    0  0.11330720303E+01 -0.25846373620E+00  0.20446280394E+00  0.11800257484E+01  0.00000000000E+00 0.  1.
         11    1    3    3    0    0  0.44857455103E+01  0.23177959144E+02 -0.34651641998E+02  0.41929416837E+02  0.51100000000E-03 0. -1.
        -11    1    3    3    0    0  0.59471187562E+01 -0.64668027940E+01  0.72600367372E+00  0.88156021616E+01  0.51100000000E-03 0.  1.
        -12    1    3    3    0    0 -0.11565936297E+02 -0.16452692614E+02  0.33721175521E+02  0.39262955253E+02  0.00000000000E+00 0.  1.
</event>
<event>
 7    1  0.2542335E-015  0.9000775E+02  0.7816164E-02  0.1186339E+00
        -11   -1    0    0    0    0  0.00000000000E+00  0.00000000000E+00  0.45593999997E+02  0.45594000000E+02  0.51100000000E-03 0.  1.
         11   -1    0    0    0    0 -0.00000000000E+00 -0.00000000000E+00 -0.45593999997E+02  0.45594000000E+02  0.51100000000E-03 0. -1.
    9900012    2    1    2    0    0  0.24518877908E-01  0.10029421382E+01 -0.62168948829E+00  0.90007749210E+02  0.90000010699E+02 0.  0.
        -12    1    1    2    0    0 -0.24518877908E-01 -0.10029421382E+01  0.62168948829E+00  0.11802507902E+01  0.00000000000E+00 0.  1.
         11    1    3    3    0    0 -0.25313496073E+01 -0.33395139202E+02 -0.11945141567E+02  0.35557410767E+02  0.51100000000E-03 0. -1.
        -11    1    3    3    0    0 -0.45371593055E+00 -0.93301475161E+01  0.31870044929E+01  0.98698788603E+01  0.51100000000E-03 0.  1.
        -12    1    3    3    0    0  0.30095844157E+01  0.43728228856E+02  0.81364475853E+01  0.44580459582E+02  0.00000000000E+00 0.  1.
</event>
<event>
 7    1  0.2542335E-015  0.9000715E+02  0.7816164E-02  0.1186340E+00
        -11   -1    0    0    0    0  0.00000000000E+00  0.00000000000E+00  0.45593999997E+02  0.45594000000E+02  0.51100000000E-03 0.  1.
         11   -1    0    0    0    0 -0.00000000000E+00 -0.00000000000E+00 -0.45593999997E+02  0.45594000000E+02  0.51100000000E-03 0. -1.
    9900012    2    1    2    0    0  0.11077509554E+01 -0.28539205036E+00  0.29299921991E+00  0.90007148890E+02  0.89999402453E+02 0.  0.
        -12    1    1    2    0    0 -0.11077509554E+01  0.28539205036E+00 -0.29299921991E+00  0.11808511102E+01  0.00000000000E+00 0.  1.
         11    1    3    3    0    0  0.78876628016E+01  0.43958667715E+00  0.47672741941E+01  0.92268827034E+01  0.51100000000E-03 0. -1.
        -11    1    3    3    0    0  0.18703943714E+02  0.32735786409E+02  0.38699896630E+01  0.37900475492E+02  0.51100000000E-03 0.  1.
         12    1    3    3    0    0 -0.25483855560E+02 -0.33460765136E+02 -0.83442646372E+01  0.42879790695E+02  0.00000000000E+00 0. -1.
</event>
<event>
 7    1  0.2542335E-015  0.9000786E+02  0.7816164E-02  0.1186339E+00
        -11   -1    0    0    0    0  0.00000000000E+00  0.00000000000E+00  0.45593999997E+02  0.45594000000E+02  0.51100000000E-03 0. -1.
         11   -1    0    0    0    0 -0.00000000000E+00 -0.00000000000E+00 -0.45593999997E+02  0.45594000000E+02  0.51100000000E-03 0.  1.
    9900012    2    1    2    0    0 -0.35124952009E+00 -0.53688496885E+00  0.99051518242E+00  0.90007855084E+02  0.90000117971E+02 0.  0.
        -12    1    1    2    0    0  0.35124952009E+00  0.53688496885E+00 -0.99051518242E+00  0.11801449156E+01  0.00000000000E+00 0.  1.
         11    1    3    3    0    0 -0.43555168131E+01 -0.20904450217E+01 -0.10816868297E+02  0.11846734871E+02  0.51100000000E-03 0. -1.
        -11    1    3    3    0    0 -0.15115667562E+02  0.33344213810E+02 -0.58517200642E+01  0.37075094449E+02  0.51100000000E-03 0.  1.
         12    1    3    3    0    0  0.19119934855E+02 -0.31790653757E+02  0.17659103543E+02  0.41086025764E+02  0.00000000000E+00 0. -1.
</event>
<event>
 7    1  0.2542335E-015  0.9000655E+02  0.7816164E-02  0.1186341E+00
        -11   -1    0    0    0    0  0.00000000000E+00  0.00000000000E+00  0.45593999997E+02  0.45594000000E+02  0.51100000000E-03 0.  1.
         11   -1    0    0    0    0 -0.00000000000E+00 -0.00000000000E+00 -0.45593999997E+02  0.45594000000E+02  0.51100000000E-03 0. -1.
    9900012    2    1    2    0    0 -0.73103862108E+00  0.29125136013E+00 -0.88123677398E+00  0.90006550436E+02  0.89998796094E+02 0.  0.
        -12    1    1    2    0    0  0.73103862108E+00 -0.29125136013E+00  0.88123677398E+00  0.11814495639E+01  0.00000000000E+00 0.  1.
         11    1    3    3    0    0 -0.11186541806E+02  0.11967278260E+01 -0.10053914950E+02  0.15088143728E+02  0.51100000000E-03 0. -1.
        -11    1    3    3    0    0  0.11844978521E+01  0.32842800443E+02  0.19767842417E+02  0.38351273384E+02  0.51100000000E-03 0.  1.
         12    1    3    3    0    0  0.92710053333E+01 -0.33748276909E+02 -0.10595164241E+02  0.36567133324E+02  0.00000000000E+00 0. -1.
</event>
<event>
 7    1  0.2542335E-015  0.9000771E+02  0.7816164E-02  0.1186339E+00
        -11   -1    0    0    0    0  0.00000000000E+00  0.00000000000E+00  0.45593999997E+02  0.45594000000E+02  0.51100000000E-03 0. -1.
         11   -1    0    0    0    0 -0.00000000000E+00 -0.00000000000E+00 -0.45593999997E+02  0.45594000000E+02  0.51100000000E-03 0.  1.
    9900012    2    1    2    0    0 -0.10235666746E+01 -0.54076541531E+00 -0.23016886204E+00  0.90007706106E+02  0.89999967026E+02 0.  0.
        -12    1    1    2    0    0  0.10235666746E+01  0.54076541531E+00  0.23016886204E+00  0.11802938943E+01  0.00000000000E+00 0.  1.
         11    1    3    3    0    0 -0.29834394991E+01  0.90317536838E+01 -0.19012753008E+01  0.96999141172E+01  0.51100000000E-03 0. -1.
        -11    1    3    3    0    0 -0.19140081274E+02  0.29917839204E+02  0.67816981982E+00  0.35522946505E+02  0.51100000000E-03 0.  1.
         12    1    3    3    0    0  0.21099954099E+02 -0.39490358303E+02  0.99293661891E+00  0.44784845484E+02  0.00000000000E+00 0. -1.
</event>
<event>
 7    1  0.2542335E-015  0.9000770E+02  0.7816164E-02  0.1186339E+00
        -11   -1    0    0    0    0  0.00000000000E+00  0.00000000000E+00  0.45593999997E+02  0.45594000000E+02  0.51100000000E-03 0. -1.
         11   -1    0    0    0    0 -0.00000000000E+00 -0.00000000000E+00 -0.45593999997E+02  0.45594000000E+02  0.51100000000E-03 0.  1.
    9900012    2    1    2    0    0  0.12336840297E+00  0.55262606130E+00  0.10356105570E+01  0.90007701499E+02  0.89999962358E+02 0.  0.
        -12    1    1    2    0    0 -0.12336840297E+00 -0.55262606130E+00 -0.10356105570E+01  0.11802985013E+01  0.00000000000E+00 0.  1.
         11    1    3    3    0    0  0.31531056932E+02  0.21846345067E+02  0.61228544475E+01  0.38845330362E+02  0.51100000000E-03 0. -1.
        -11    1    3    3    0    0  0.19165590993E+01 -0.95217528933E+00 -0.11412337022E+02  0.11611256312E+02  0.51100000000E-03 0.  1.
        -12    1    3    3    0    0 -0.33324247629E+02 -0.20341543717E+02  0.63250931320E+01  0.39551114825E+02  0.00000000000E+00 0.  1.
</event>
<event>
 7    1  0.2542335E-015  0.9000810E+02  0.7816164E-02  0.1186338E+00
        -11   -1    0    0    0    0  0.00000000000E+00  0.00000000000E+00  0.45593999997E+02  0.45594000000E+02  0.51100000000E-03 0.  1.
         11   -1    0    0    0    0 -0.00000000000E+00 -0.00000000000E+00 -0.45593999997E+02  0.45594000000E+02  0.51100000000E-03 0. -1.
    9900012    2    1    2    0    0  0.11312953604E+01  0.30936586197E+00  0.12898653239E+00  0.90008095786E+02  0.90000361849E+02 0.  0.
        -12    1    1    2    0    0 -0.11312953604E+01 -0.30936586197E+00 -0.12898653239E+00  0.11799042142E+01  0.00000000000E+00 0.  1.
         11    1    3    3    0    0 -0.73327068298E+01 -0.11338975364E+01  0.31796790055E+01  0.80724638069E+01  0.51100000000E-03 0. -1.
        -11    1    3    3    0    0 -0.27960578023E+02  0.15506730345E+02 -0.21724194016E+02  0.38654795502E+02  0.51100000000E-03 0.  1.
         12    1    3    3    0    0  0.36424580213E+02 -0.14063466946E+02  0.18673501543E+02  0.43280836477E+02  0.00000000000E+00 0. -1.
</event>
<event>
 7    1  0.2542335E-015  0.9000773E+02  0.7816164E-02  0.1186339E+00
        -11   -1    0    0    0    0  0.00000000000E+00  0.00000000000E+00  0.45593999997E+02  0.45594000000E+02  0.51100000000E-03 0. -1.
         11   -1    0    0    0    0 -0.00000000000E+00 -0.00000000000E+00 -0.45593999997E+02  0.45594000000E+02  0.51100000000E-03 0.  1.
    9900012    2    1    2    0    0 -0.11331533628E+01 -0.12442186888E+00  0.30580317360E+00  0.90007731841E+02  0.89999993102E+02 0.  0.
        -12    1    1    2    0    0  0.11331533628E+01  0.12442186888E+00 -0.30580317360E+00  0.11802681586E+01  0.00000000000E+00 0.  1.
         11    1    3    3    0    0  0.34167331699E+02 -0.84508831679E+01 -0.62686633011E+01  0.35750805887E+02  0.51100000000E-03 0. -1.
        -11    1    3    3    0    0  0.45123905901E+01 -0.68480497199E+01 -0.56170935188E+01  0.99402813675E+01  0.51100000000E-03 0.  1.
        -12    1    3    3    0    0 -0.39812875652E+02  0.15174511019E+02  0.12191559993E+02  0.44316644587E+02  0.00000000000E+00 0.  1.
</event>
<event>
 7    1  0.2542335E-015  0.9000809E+02  0.7816164E-02  0.1186338E+00
        -11   -1    0    0    0    0  0.00000000000E+00  0.00000000000E+00  0.45593999997E+02  0.45594000000E+02  0.51100000000E-03 0.  1.
         11   -1    0    0    0    0 -0.00000000000E+00 -0.00000000000E+00 -0.45593999997E+02  0.45594000000E+02  0.51100000000E-03 0. -1.
    9900012    2    1    2    0    0  0.36413622859E+00  0.57366240366E+00 -0.96462473374E+00  0.90008091265E+02  0.90000357269E+02 0.  0.
        -12    1    1    2    0    0 -0.36413622859E+00 -0.57366240366E+00  0.96462473374E+00  0.11799087352E+01  0.00000000000E+00 0.  1.
         11    1    3    3    0    0  0.20838963890E+02  0.13391584199E+02  0.47172327316E+01  0.25216051005E+02  0.51100000000E-03 0. -1.
        -11    1    3    3    0    0  0.17833387707E+02  0.45446952544E+01  0.86809319048E+01  0.20348035558E+02  0.51100000000E-03 0.  1.
         12    1    3    3    0    0 -0.38308215368E+02 -0.17362617050E+02 -0.14362789370E+02  0.44444004703E+02  0.00000000000E+00 0. -1.
</event>
<event>
 7    1  0.2542335E-015  0.9000749E+02  0.7816164E-02  0.1186340E+00
        -11   -1    0    0    0    0  0.00000000000E+00  0.00000000000E+00  0.45593999997E+02  0.45594000000E+02  0.51100000000E-03 0. -1.
         11   -1    0    0    0    0 -0.00000000000E+00 -0.00000000000E+00 -0.45593999997E+02  0.45594000000E+02  0.51100000000E-03 0.  1.
    9900012    2    1    2    0    0  0.96231094428E+00  0.47047630402E+00  0.49619793529E+00  0.90007490493E+02  0.89999748567E+02 0.  0.
        -12    1    1    2    0    0 -0.96231094428E+00 -0.47047630402E+00 -0.49619793529E+00  0.11805095074E+01  0.00000000000E+00 0.  1.
         11    1    3    3    0    0 -0.41828124539E+02  0.15175249900E+01 -0.88580276202E+01  0.42782701389E+02  0.51100000000E-03 0. -1.
        -11    1    3    3    0    0 -0.16119998327E+01  0.32106524864E+00  0.12573172812E+01  0.20694137723E+01  0.51100000000E-03 0.  1.
        -12    1    3    3    0    0  0.44402435316E+02 -0.13681139347E+01  0.80969082743E+01  0.45155375331E+02  0.00000000000E+00 0.  1.
</event>
<event>
 7    1  0.2542335E-015  0.9000774E+02  0.7816164E-02  0.1186339E+00
        -11   -1    0    0    0    0  0.00000000000E+00  0.00000000000E+00  0.45593999997E+02  0.45594000000E+02  0.51100000000E-03 0.  1.
         11   -1    0    0    0    0 -0.00000000000E+00 -0.00000000000E+00 -0.45593999997E+02  0.45594000000E+02  0.51100000000E-03 0. -1.
    9900012    2    1    2    0    0 -0.24713974808E+00 -0.31665464775E+00 -0.11098094379E+01  0.90007735110E+02  0.89999996414E+02 0.  0.
        -12    1    1    2    0    0  0.24713974808E+00  0.31665464775E+00  0.11098094379E+01  0.11802648895E+01  0.00000000000E+00 0.  1.
         11    1    3    3    0    0  0.12098057016E+02  0.11272667908E+02  0.25897712185E+01  0.16737471151E+02  0.51100000000E-03 0. -1.
        -11    1    3    3    0    0  0.17989742826E+02 -0.31078001108E+02 -0.84857017964E+01  0.36898240270E+02  0.51100000000E-03 0.  1.
         12    1    3    3    0    0 -0.30334939590E+02  0.19488678552E+02  0.47861211400E+01  0.36372023689E+02  0.00000000000E+00 0. -1.
</event>
<event>
 7    1  0.2542335E-015  0.9000771E+02  0.7816164E-02  0.1186339E+00
        -11   -1    0    0    0    0  0.00000000000E+00  0.00000000000E+00  0.45593999997E+02  0.45594000000E+02  0.51100000000E-03 0.  1.
         11   -1    0    0    0    0 -0.00000000000E+00 -0.00000000000E+00 -0.45593999997E+02  0.45594000000E+02  0.51100000000E-03 0. -1.
    9900012    2    1    2    0    0  0.64017248747E+00  0.93077582518E+00  0.34193587246E+00  0.90007709955E+02  0.89999970926E+02 0.  0.
        -12    1    1    2    0    0 -0.64017248747E+00 -0.93077582518E+00 -0.34193587246E+00  0.11802900454E+01  0.00000000000E+00 0.  1.
         11    1    3    3    0    0  0.21906914883E+02 -0.40976660896E+01 -0.31367199274E+02  0.38478630142E+02  0.51100000000E-03 0. -1.
        -11    1    3    3    0    0  0.82936124478E+01 -0.40029628958E+01  0.40844921734E+01  0.10074264040E+02  0.51100000000E-03 0.  1.
        -12    1    3    3    0    0 -0.29560354843E+02  0.90314048105E+01  0.27624642973E+02  0.41454815772E+02  0.00000000000E+00 0.  1.
</event>
<event>
 7    1  0.2542335E-015  0.9000774E+02  0.7816164E-02  0.1186339E+00
        -11   -1    0    0    0    0  0.00000000000E+00  0.00000000000E+00  0.45593999997E+02  0.45594000000E+02  0.51100000000E-03 0.  1.
         11   -1    0    0    0    0 -0.00000000000E+00 -0.00000000000E+00 -0.45593999997E+02  0.45594000000E+02  0.51100000000E-03 0. -1.
    9900012    2    1    2    0    0  0.26015025192E+00  0.11212435012E+01  0.26106264451E+00  0.90007737806E+02  0.89999999145E+02 0.  0.
        -12    1    1    2    0    0 -0.26015025192E+00 -0.11212435012E+01 -0.26106264451E+00  0.11802621941E+01  0.00000000000E+00 0.  1.
         11    1    3    3    0    0 -0.81488333025E+01 -0.55036814296E+01  0.57426473955E+00  0.98500646558E+01  0.51100000000E-03 0. -1.
        -11    1    3    3    0    0  0.20425980963E+01 -0.34409479398E+01  0.38936050544E+02  0.39141133887E+02  0.51100000000E-03 0.  1.
         12    1    3    3    0    0  0.63663854581E+01  0.10065872871E+02 -0.39249252639E+02  0.41016539264E+02  0.00000000000E+00 0. -1.
</event>
<event>
 7    1  0.2542335E-015  0.9000770E+02  0.7816164E-02  0.1186339E+00
        -11   -1    0    0    0    0  0.00000000000E+00  0.00000000000E+00  0.45593999997E+02  0.45594000000E+02  0.51100000000E-03 0.  1.
         11   -1    0    0    0    0 -0.00000000000E+00 -0.00000000000E+00 -0.45593999997E+02  0.45594000000E+02  0.51100000000E-03 0. -1.
    9900012    2    1    2    0    0  0.66861149998E+00 -0.88531016187E+00  0.40284265408E+00  0.90007704433E+02  0.89999965332E+02 0.  0.
        -12    1    1    2    0    0 -0.66861149998E+00  0.88531016187E+00 -0.40284265408E+00  0.11802955666E+01  0.00000000000E+00 0.  1.
         11    1    3    3    0    0 -0.60664111745E+01  0.78757196957E+01 -0.10508425254E+01  0.99966282084E+01  0.51100000000E-03 0. -1.
        -11    1    3    3    0    0  0.21870984371E+02  0.12204383791E+02 -0.30137691747E+02  0.39186316556E+02  0.51100000000E-03 0.  1.
         12    1    3    3    0    0 -0.15135961697E+02 -0.20965413648E+02  0.31591376927E+02  0.40824759669E+02  0.00000000000E+00 0. -1.
</event>
<event>
 7    1  0.2542335E-015  0.9000778E+02  0.7816164E-02  0.1186339E+00
        -11   -1    0    0    0    0  0.00000000000E+00  0.00000000000E+00  0.45593999997E+02  0.45594000000E+02  0.51100000000E-03 0.  1.
         11   -1    0    0    0    0 -0.00000000000E+00 -0.00000000000E+00 -0.45593999997E+02  0.45594000000E+02  0.51100000000E-03 0. -1.
    9900012    2    1    2    0    0 -0.39460130086E-01  0.11758444639E+01  0.93488912876E-01  0.90007784985E+02  0.90000046947E+02 0.  0.
        -12    1    1    2    0    0  0.39460130086E-01 -0.11758444639E+01 -0.93488912876E-01  0.11802150152E+01  0.00000000000E+00 0.  1.
         11    1    3    3    0    0  0.13800815821E+02 -0.14515891317E+02 -0.28208732125E+02  0.34596331979E+02  0.51100000000E-03 0. -1.
        -11    1    3    3    0    0  0.67521611206E+01 -0.11597709704E+02  0.88872738007E+01  0.16096030133E+02  0.51100000000E-03 0.  1.
        -12    1    3    3    0    0 -0.20592437072E+02  0.27289445485E+02  0.19414947237E+02  0.39315422872E+02  0.00000000000E+00 0.  1.
</event>
<event>
 7    1  0.2542335E-015  0.9000770E+02  0.7816164E-02  0.1186339E+00
        -11   -1    0    0    0    0  0.00000000000E+00  0.00000000000E+00  0.45593999997E+02  0.45594000000E+02  0.51100000000E-03 0. -1.
         11   -1    0    0    0    0 -0.00000000000E+00 -0.00000000000E+00 -0.45593999997E+02  0.45594000000E+02  0.51100000000E-03 0.  1.
    9900012    2    1    2    0    0  0.53985907975E+00  0.93443706174E+00  0.47801608396E+00  0.90007695029E+02  0.89999955803E+02 0.  0.
        -12    1    1    2    0    0 -0.53985907975E+00 -0.93443706174E+00 -0.47801608396E+00  0.11803049711E+01  0.00000000000E+00 0.  1.
         11    1    3    3    0    0  0.14596682740E+02  0.11757238813E+02  0.33526814889E+02  0.38410195631E+02  0.51100000000E-03 0. -1.
        -11    1    3    3    0    0 -0.70192216724E+01 -0.27490776633E+01  0.69112266543E+01  0.10227020828E+02  0.51100000000E-03 0.  1.
        -12    1    3    3    0    0 -0.70376019876E+01 -0.80737240882E+01 -0.39960025460E+02  0.41370478570E+02  0.00000000000E+00 0.  1.
</event>
<event>
 7    1  0.2542335E-015  0.9000769E+02  0.7816164E-02  0.1186339E+00
        -11   -1    0    0    0    0  0.00000000000E+00  0.00000000000E+00  0.45593999997E+02  0.45594000000E+02  0.51100000000E-03 0.  1.
         11   -1    0    0    0    0 -0.00000000000E+00 -0.00000000000E+00 -0.45593999997E+02  0.45594000000E+02  0.51100000000E-03 0. -1.
    9900012    2    1    2    0    0  0.22817073932E-01 -0.11800728673E+01  0.67860498166E-02  0.90007687058E+02  0.89999947727E+02 0.  0.
        -12    1    1    2    0    0 -0.22817073932E-01  0.11800728673E+01 -0.67860498166E-02  0.11803129422E+01  0.00000000000E+00 0.  1.
         11    1    3    3    0    0 -0.10067037839E+02  0.24193225332E+01  0.19011372128E+01  0.10526760913E+02  0.51100000000E-03 0. -1.
        -11    1    3    3    0    0  0.33368297164E+02 -0.26108448577E+02  0.12310898204E+02  0.44120885730E+02  0.51100000000E-03 0.  1.
         12    1    3    3    0    0 -0.23278442252E+02  0.22509053176E+02 -0.14205249367E+02  0.35360040415E+02  0.00000000000E+00 0. -1.
</event>
<event>
 7    1  0.2542335E-015  0.9000774E+02  0.7816164E-02  0.1186339E+00
        -11   -1    0    0    0    0  0.00000000000E+00  0.00000000000E+00  0.45593999997E+02  0.45594000000E+02  0.51100000000E-03 0.  1.
         11   -1    0    0    0    0 -0.00000000000E+00 -0.00000000000E+00 -0.45593999997E+02  0.45594000000E+02  0.51100000000E-03 0. -1.
    9900012    2    1    2    0    0 -0.89327083449E+00 -0.32425961801E+00 -0.69996051342E+00  0.90007736553E+02  0.89999997876E+02 0.  0.
        -12    1    1    2    0    0  0.89327083449E+00  0.32425961801E+00  0.69996051342E+00  0.11802634468E+01  0.00000000000E+00 0.  1.
         11    1    3    3    0    0  0.26422054879E+02 -0.16211218422E+02 -0.25792790047E+02  0.40326128074E+02  0.51100000000E-03 0. -1.
        -11    1    3    3    0    0  0.14689905967E+01 -0.57551665908E+01  0.75983980154E+01  0.96444558438E+01  0.51100000000E-03 0.  1.
        -12    1    3    3    0    0 -0.28784316310E+02  0.21642125394E+02  0.17494431518E+02  0.40037152636E+02  0.00000000000E+00 0.  1.
</event>
<event>
 7    1  0.2542335E-015  0.9000774E+02  0.7816164E-02  0.1186339E+00
        -11   -1    0    0    0    0  0.00000000000E+00  0.00000000000E+00  0.45593999997E+02  0.45594000000E+02  0.51100000000E-03 0.  1.
         11   -1    0    0    0    0 -0.00000000000E+00 -0.00000000000E+00 -0.45593999997E+02  0.45594000000E+02  0.51100000000E-03 0. -1.
    9900012    2    1    2    0    0 -0.79723308528E-01  0.11548398420E+01  0.23020571814E+00  0.90007743443E+02  0.90000004857E+02 0.  0.
        -12    1    1    2    0    0  0.79723308528E-01 -0.11548398420E+01 -0.23020571814E+00  0.11802565565E+01  0.00000000000E+00 0.  1.
         11    1    3    3    0    0 -0.57562744325E+01 -0.31432355564E+01  0.46294793455E+01  0.80278704758E+01  0.51100000000E-03 0. -1.
        -11    1    3    3    0    0 -0.21503998564E+02 -0.20419977721E+02  0.21843091981E+02  0.36830939602E+02  0.51100000000E-03 0.  1.
         12    1    3    3    0    0  0.27180549688E+02  0.24718053119E+02 -0.26242365609E+02  0.45148933366E+02  0.00000000000E+00 0. -1.
</event>
<event>
 7    1  0.2542335E-015  0.9000784E+02  0.7816164E-02  0.1186339E+00
        -11   -1    0    0    0    0  0.00000000000E+00  0.00000000000E+00  0.45593999997E+02  0.45594000000E+02  0.51100000000E-03 0. -1.
         11   -1    0    0    0    0 -0.00000000000E+00 -0.00000000000E+00 -0.45593999997E+02  0.45594000000E+02  0.51100000000E-03 0.  1.
    9900012    2    1    2    0    0 -0.84432193284E+00  0.57391623909E+00  0.59204220970E+00  0.90007841810E+02  0.90000104522E+02 0.  0.
        -12    1    1    2    0    0  0.84432193284E+00 -0.57391623909E+00 -0.59204220970E+00  0.11801581902E+01  0.00000000000E+00 0.  1.
         11    1    3    3    0    0  0.11095992262E+02  0.29583569045E-01 -0.84060159856E+00  0.11127826867E+02  0.51100000000E-03 0. -1.
        -11    1    3    3    0    0 -0.26944570052E+02 -0.13900586475E+02 -0.29031401036E+02  0.41976879423E+02  0.51100000000E-03 0.  1.
         12    1    3    3    0    0  0.15004255858E+02  0.14444919145E+02  0.30464044845E+02  0.36903135521E+02  0.00000000000E+00 0. -1.
</event>
<event>
 7    1  0.2542335E-015  0.9000771E+02  0.7816164E-02  0.1186339E+00
        -11   -1    0    0    0    0  0.00000000000E+00  0.00000000000E+00  0.45593999997E+02  0.45594000000E+02  0.51100000000E-03 0.  1.
         11   -1    0    0    0    0 -0.00000000000E+00 -0.00000000000E+00 -0.45593999997E+02  0.45594000000E+02  0.51100000000E-03 0. -1.
    9900012    2    1    2    0    0 -0.31138209991E+00  0.86621362605E+00 -0.73878246273E+00  0.90007710042E+02  0.89999971014E+02 0.  0.
        -12    1    1    2    0    0  0.31138209991E+00 -0.86621362605E+00  0.73878246273E+00  0.11802899582E+01  0.00000000000E+00 0.  1.
         11    1    3    3    0    0  0.77333979522E+01  0.43268275976E+01 -0.60769721308E+01  0.10745067309E+02  0.51100000000E-03 0. -1.
        -11    1    3    3    0    0  0.22956884567E+02 -0.25850292797E+02  0.18002547654E+02  0.38978813592E+02  0.51100000000E-03 0.  1.
         12    1    3    3    0    0 -0.31001664619E+02  0.22389678825E+02 -0.12664357986E+02  0.40283829141E+02  0.00000000000E+00 0. -1.
</event>
<event>
 7    1  0.2542335E-015  0.9000770E+02  0.7816164E-02  0.1186339E+00
        -11   -1    0    0    0    0  0.00000000000E+00  0.00000000000E+00  0.45593999997E+02  0.45594000000E+02  0.51100000000E-03 0.  1.
         11   -1    0    0    0    0 -0.00000000000E+00 -0.00000000000E+00 -0.45593999997E+02  0.45594000000E+02  0.51100000000E-03 0. -1.
    9900012    2    1    2    0    0  0.63638157175E+00 -0.99395739359E+00  0.12801416557E-01  0.90007704833E+02  0.89999965737E+02 0.  0.
        -12    1    1    2    0    0 -0.63638157175E+00  0.99395739359E+00 -0.12801416557E-01  0.11802951671E+01  0.00000000000E+00 0.  1.
         11    1    3    3    0    0 -0.15067530056E+02  0.19760133431E+01  0.53231550487E+01  0.16101896493E+02  0.51100000000E-03 0. -1.
        -11    1    3    3    0    0  0.13587480435E+02  0.28397472231E+02  0.16596202132E+02  0.35587497512E+02  0.51100000000E-03 0.  1.
         12    1    3    3    0    0  0.21164311932E+01 -0.31367442968E+02 -0.21906555764E+02  0.38318310829E+02  0.00000000000E+00 0. -1.
</event>
<event>
 7    1  0.2542335E-015  0.9000771E+02  0.7816164E-02  0.1186339E+00
        -11   -1    0    0    0    0  0.00000000000E+00  0.00000000000E+00  0.45593999997E+02  0.45594000000E+02  0.51100000000E-03 0.  1.
         11   -1    0    0    0    0 -0.00000000000E+00 -0.00000000000E+00 -0.45593999997E+02  0.45594000000E+02  0.51100000000E-03 0. -1.
    9900012    2    1    2    0    0  0.16115083970E+00  0.10517773203E+01 -0.51075537412E+00  0.90007713519E+02  0.89999974538E+02 0.  0.
        -12    1    1    2    0    0 -0.16115083970E+00 -0.10517773203E+01  0.51075537412E+00  0.11802864808E+01  0.00000000000E+00 0.  1.
         11    1    3    3    0    0 -0.31352146183E+02  0.15477067166E+02  0.10092523862E+02  0.36391698456E+02  0.51100000000E-03 0. -1.
        -11    1    3    3    0    0  0.15350919731E+01  0.65503148841E+01  0.96751688269E+01  0.11784397504E+02  0.51100000000E-03 0.  1.
        -12    1    3    3    0    0  0.29978205050E+02 -0.20975604730E+02 -0.20278448063E+02  0.41831617559E+02  0.00000000000E+00 0.  1.
</event>
<event>
 7    1  0.2542335E-015  0.9000764E+02  0.7816164E-02  0.1186339E+00
        -11   -1    0    0    0    0  0.00000000000E+00  0.00000000000E+00  0.45593999997E+02  0.45594000000E+02  0.51100000000E-03 0. -1.
         11   -1    0    0    0    0 -0.00000000000E+00 -0.00000000000E+00 -0.45593999997E+02  0.45594000000E+02  0.51100000000E-03 0.  1.
    9900012    2    1    2    0    0 -0.11072351208E+01  0.34212468238E+00 -0.22414007164E+00  0.90007636631E+02  0.89999896635E+02 0.  0.
        -12    1    1    2    0    0  0.11072351208E+01 -0.34212468238E+00  0.22414007164E+00  0.11803633690E+01  0.00000000000E+00 0.  1.
         11    1    3    3    0    0 -0.15757924291E+02 -0.22759826959E+02  0.22847079825E+02  0.35893048881E+02  0.51100000000E-03 0. -1.
        -11    1    3    3    0    0 -0.65991249183E+01 -0.34447677685E+01  0.58555253878E+01  0.94711167501E+01  0.51100000000E-03 0.  1.
        -12    1    3    3    0    0  0.21249814089E+02  0.26546719410E+02 -0.28926745284E+02  0.44643471000E+02  0.00000000000E+00 0.  1.
</event>
<event>
 7    1  0.2542335E-015  0.9000775E+02  0.7816164E-02  0.1186339E+00
        -11   -1    0    0    0    0  0.00000000000E+00  0.00000000000E+00  0.45593999997E+02  0.45594000000E+02  0.51100000000E-03 0.  1.
         11   -1    0    0    0    0 -0.00000000000E+00 -0.00000000000E+00 -0.45593999997E+02  0.45594000000E+02  0.51100000000E-03 0. -1.
    9900012    2    1    2    0    0 -0.62524924660E+00 -0.42733226516E+00 -0.90522434200E+00  0.90007754011E+02  0.90000015564E+02 0.  0.
        -12    1    1    2    0    0  0.62524924660E+00  0.42733226516E+00  0.90522434200E+00  0.11802459890E+01  0.00000000000E+00 0.  1.
         11    1    3    3    0    0  0.17007570808E+01 -0.10882365948E+02  0.22389742213E+01  0.11239727270E+02  0.51100000000E-03 0. -1.
        -11    1    3    3    0    0  0.36979661223E+01 -0.17449108043E+02  0.30075948239E+02  0.34967255936E+02  0.51100000000E-03 0.  1.
         12    1    3    3    0    0 -0.60239724497E+01  0.27904141726E+02 -0.33220146803E+02  0.43800770805E+02  0.00000000000E+00 0. -1.
</event>
<event>
 7    1  0.2542335E-015  0.9000770E+02  0.7816164E-02  0.1186339E+00
        -11   -1    0    0    0    0  0.00000000000E+00  0.00000000000E+00  0.45593999997E+02  0.45594000000E+02  0.51100000000E-03 0. -1.
         11   -1    0    0    0    0 -0.00000000000E+00 -0.00000000000E+00 -0.45593999997E+02  0.45594000000E+02  0.51100000000E-03 0.  1.
    9900012    2    1    2    0    0 -0.54582715939E-01 -0.34470209241E+00  0.11275259462E+01  0.90007697681E+02  0.89999958490E+02 0.  0.
        -12    1    1    2    0    0  0.54582715939E-01  0.34470209241E+00 -0.11275259462E+01  0.11803023192E+01  0.00000000000E+00 0.  1.
         11    1    3    3    0    0  0.15572331264E+02 -0.27293745996E+02  0.19353089942E+02  0.36905123791E+02  0.51100000000E-03 0. -1.
        -11    1    3    3    0    0  0.62491773732E+01 -0.70646535984E+01 -0.37034638706E+01  0.10132975536E+02  0.51100000000E-03 0.  1.
        -12    1    3    3    0    0 -0.21876091353E+02  0.34013697502E+02 -0.14522100125E+02  0.42969598354E+02  0.00000000000E+00 0.  1.
</event>
<event>
 7    1  0.2542335E-015  0.9000771E+02  0.7816164E-02  0.1186339E+00
        -11   -1    0    0    0    0  0.00000000000E+00  0.00000000000E+00  0.45593999997E+02  0.45594000000E+02  0.51100000000E-03 0.  1.
         11   -1    0    0    0    0 -0.00000000000E+00 -0.00000000000E+00 -0.45593999997E+02  0.45594000000E+02  0.51100000000E-03 0. -1.
    9900012    2    1    2    0    0 -0.96017352416E+00 -0.31829616705E+00  0.60814257257E+00  0.90007710614E+02  0.89999971594E+02 0.  0.
        -12    1    1    2    0    0  0.96017352416E+00  0.31829616705E+00 -0.60814257257E+00  0.11802893861E+01  0.00000000000E+00 0.  1.
         11    1    3    3    0    0 -0.25168077009E+02 -0.29195630888E+02  0.75046339907E+01  0.39270045771E+02  0.51100000000E-03 0. -1.
        -11    1    3    3    0    0  0.91199247438E+00 -0.66294639162E+01  0.26729682321E+01  0.72059892811E+01  0.51100000000E-03 0.  1.
        -12    1    3    3    0    0  0.23295911010E+02  0.35506798637E+02 -0.95694596502E+01  0.43531675562E+02  0.00000000000E+00 0.  1.
</event>
<event>
 7    1  0.2542335E-015  0.9000772E+02  0.7816164E-02  0.1186339E+00
        -11   -1    0    0    0    0  0.00000000000E+00  0.00000000000E+00  0.45593999997E+02  0.45594000000E+02  0.51100000000E-03 0. -1.
         11   -1    0    0    0    0 -0.00000000000E+00 -0.00000000000E+00 -0.45593999997E+02  0.45594000000E+02  0.51100000000E-03 0.  1.
    9900012    2    1    2    0    0  0.95870135946E+00 -0.54173720487E+00  0.42482803943E+00  0.90007717678E+02  0.89999978752E+02 0.  0.
        -12    1    1    2    0    0 -0.95870135946E+00  0.54173720487E+00 -0.42482803943E+00  0.11802823217E+01  0.00000000000E+00 0.  1.
         11    1    3    3    0    0  0.16665468486E+02 -0.86036972869E+01  0.36779499930E+02  0.41285506685E+02  0.51100000000E-03 0. -1.
        -11    1    3    3    0    0 -0.78069396186E+01  0.18912099536E+01  0.26433196555E+01  0.84564839242E+01  0.51100000000E-03 0.  1.
        -12    1    3    3    0    0 -0.78998275080E+01  0.61707501285E+01 -0.38997991546E+02  0.40265727069E+02  0.00000000000E+00 0.  1.
</event>
<event>
 7    1  0.2542335E-015  0.9000771E+02  0.7816164E-02  0.1186339E+00
        -11   -1    0    0    0    0  0.00000000000E+00  0.00000000000E+00  0.45593999997E+02  0.45594000000E+02  0.51100000000E-03 0. -1.
         11   -1    0    0    0    0 -0.00000000000E+00 -0.00000000000E+00 -0.45593999997E+02  0.45594000000E+02  0.51100000000E-03 0.  1.
    9900012    2    1    2    0    0 -0.11052119399E+01  0.37205590738E+00  0.18213369967E+00  0.90007706937E+02  0.89999967868E+02 0.  0.
        -12    1    1    2    0    0  0.11052119399E+01 -0.37205590738E+00 -0.18213369967E+00  0.11802930631E+01  0.00000000000E+00 0.  1.
         11    1    3    3    0    0  0.85126430547E+01 -0.34210654231E+01  0.72985854488E+00  0.92033403807E+01  0.51100000000E-03 0. -1.
        -11    1    3    3    0    0  0.10670954302E+02 -0.34187383716E+02 -0.89889344800E+01  0.36924888820E+02  0.51100000000E-03 0.  1.
         12    1    3    3    0    0 -0.20288809297E+02  0.37980505046E+02  0.84412096348E+01  0.43879477736E+02  0.00000000000E+00 0. -1.
</event>
<event>
 7    1  0.2542335E-015  0.9000769E+02  0.7816164E-02  0.1186339E+00
        -11   -1    0    0    0    0  0.00000000000E+00  0.00000000000E+00  0.45593999997E+02  0.45594000000E+02  0.51100000000E-03 0.  1.
         11   -1    0    0    0    0 -0.00000000000E+00 -0.00000000000E+00 -0.45593999997E+02  0.45594000000E+02  0.51100000000E-03 0. -1.
    9900012    2    1    2    0    0  0.11279278056E+01  0.30774332912E+00 -0.16190838578E+00  0.90007685882E+02  0.89999946536E+02 0.  0.
        -12    1    1    2    0    0 -0.11279278056E+01 -0.30774332912E+00  0.16190838578E+00  0.11803141178E+01  0.00000000000E+00 0.  1.
         11    1    3    3    0    0 -0.29522861685E+01 -0.11090179377E+02 -0.33422753618E+01  0.11953195267E+02  0.51100000000E-03 0. -1.
        -11    1    3    3    0    0 -0.28156503276E+02  0.29657491861E+02  0.32456887525E+00  0.40895731384E+02  0.51100000000E-03 0.  1.
         12    1    3    3    0    0  0.32236717250E+02 -0.18259569154E+02  0.28557981008E+01  0.37158759231E+02  0.00000000000E+00 0. -1.
</event>
<event>
 7    1  0.2542335E-015  0.9000766E+02  0.7816164E-02  0.1186339E+00
        -11   -1    0    0    0    0  0.00000000000E+00  0.00000000000E+00  0.45593999997E+02  0.45594000000E+02  0.51100000000E-03 0.  1.
         11   -1    0    0    0    0 -0.00000000000E+00 -0.00000000000E+00 -0.45593999997E+02  0.45594000000E+02  0.51100000000E-03 0. -1.
    9900012    2    1    2    0    0  0.96563309062E+00  0.63820043721E+00  0.23119801838E+00  0.90007661240E+02  0.89999921569E+02 0.  0.
        -12    1    1    2    0    0 -0.96563309062E+00 -0.63820043721E+00 -0.23119801838E+00  0.11803387596E+01  0.00000000000E+00 0.  1.
         11    1    3    3    0    0 -0.70971476502E+01  0.14117311359E+01 -0.69186075599E+01  0.10011474437E+02  0.51100000000E-03 0. -1.
        -11    1    3    3    0    0  0.31778008638E+02  0.41518182891E+00 -0.24713182579E+02  0.40258609047E+02  0.51100000000E-03 0.  1.
         12    1    3    3    0    0 -0.23715227897E+02 -0.11887125276E+01  0.31862988157E+02  0.39737577757E+02  0.00000000000E+00 0. -1.
</event>
<event>
 7    1  0.2542335E-015  0.9000786E+02  0.7816164E-02  0.1186339E+00
        -11   -1    0    0    0    0  0.00000000000E+00  0.00000000000E+00  0.45593999997E+02  0.45594000000E+02  0.51100000000E-03 0.  1.
         11   -1    0    0    0    0 -0.00000000000E+00 -0.00000000000E+00 -0.45593999997E+02  0.45594000000E+02  0.51100000000E-03 0. -1.
    9900012    2    1    2    0    0  0.95282814442E+00 -0.69027809407E+00  0.91413211788E-01  0.90007863696E+02  0.90000126697E+02 0.  0.
        -12    1    1    2    0    0 -0.95282814442E+00  0.69027809407E+00 -0.91413211788E-01  0.11801363037E+01  0.00000000000E+00 0.  1.
         11    1    3    3    0    0  0.61734915557E+01  0.33116075035E+01 -0.64271828659E+01  0.95072299908E+01  0.51100000000E-03 0. -1.
        -11    1    3    3    0    0 -0.24410958077E+01  0.24546105088E+02  0.33176939138E+02  0.41342224354E+02  0.51100000000E-03 0.  1.
         12    1    3    3    0    0 -0.27795676036E+01 -0.28547990685E+02 -0.26658343060E+02  0.39158409351E+02  0.00000000000E+00 0. -1.
</event>
<event>
 7    1  0.2542335E-015  0.9000783E+02  0.7816164E-02  0.1186339E+00
        -11   -1    0    0    0    0  0.00000000000E+00  0.00000000000E+00  0.45593999997E+02  0.45594000000E+02  0.51100000000E-03 0.  1.
         11   -1    0    0    0    0 -0.00000000000E+00 -0.00000000000E+00 -0.45593999997E+02  0.45594000000E+02  0.51100000000E-03 0. -1.
    9900012    2    1    2    0    0 -0.75578730457E+00 -0.48375467530E+00  0.76652354767E+00  0.90007834171E+02  0.90000096782E+02 0.  0.
        -12    1    1    2    0    0  0.75578730457E+00  0.48375467530E+00 -0.76652354767E+00  0.11801658293E+01  0.00000000000E+00 0.  1.
         11    1    3    3    0    0 -0.17246705372E+02  0.31931609284E+02 -0.13896077616E+02  0.38861002187E+02  0.51100000000E-03 0. -1.
        -11    1    3    3    0    0  0.10343298984E+02  0.32339357170E+01 -0.24768405490E+01  0.11116515347E+02  0.51100000000E-03 0.  1.
        -12    1    3    3    0    0  0.61476190835E+01 -0.35649299676E+02  0.17139441713E+02  0.40030316636E+02  0.00000000000E+00 0.  1.
</event>
<event>
 7    1  0.2542335E-015  0.9000776E+02  0.7816164E-02  0.1186339E+00
        -11   -1    0    0    0    0  0.00000000000E+00  0.00000000000E+00  0.45593999997E+02  0.45594000000E+02  0.51100000000E-03 0. -1.
         11   -1    0    0    0    0 -0.00000000000E+00 -0.00000000000E+00 -0.45593999997E+02  0.45594000000E+02  0.51100000000E-03 0.  1.
    9900012    2    1    2    0    0 -0.77628037087E+00  0.77798189115E+00 -0.43023761480E+00  0.90007757888E+02  0.90000019492E+02 0.  0.
        -12    1    1    2    0    0  0.77628037087E+00 -0.77798189115E+00  0.43023761480E+00  0.11802421118E+01  0.00000000000E+00 0.  1.
         11    1    3    3    0    0  0.74080088174E+01  0.17674129923E+01  0.36733620109E+01  0.84555267162E+01  0.51100000000E-03 0. -1.
        -11    1    3    3    0    0 -0.11569974383E+02  0.41636800234E+01 -0.41688907750E+02  0.43464532301E+02  0.51100000000E-03 0.  1.
         12    1    3    3    0    0  0.33856851947E+01 -0.51531111246E+01  0.37585308124E+02  0.38087698871E+02  0.00000000000E+00 0. -1.
</event>
<event>
 7    1  0.2542335E-015  0.9000771E+02  0.7816164E-02  0.1186339E+00
        -11   -1    0    0    0    0  0.00000000000E+00  0.00000000000E+00  0.45593999997E+02  0.45594000000E+02  0.51100000000E-03 0. -1.
         11   -1    0    0    0    0 -0.00000000000E+00 -0.00000000000E+00 -0.45593999997E+02  0.45594000000E+02  0.51100000000E-03 0.  1.
    9900012    2    1    2    0    0 -0.38476632138E+00  0.53620058067E+00  0.97853478998E+00  0.90007709138E+02  0.89999970098E+02 0.  0.
        -12    1    1    2    0    0  0.38476632138E+00 -0.53620058067E+00 -0.97853478998E+00  0.11802908624E+01  0.00000000000E+00 0.  1.
         11    1    3    3    0    0  0.10651731212E+02 -0.15199120220E+02 -0.45483210611E+01  0.19109156391E+02  0.51100000000E-03 0. -1.
        -11    1    3    3    0    0 -0.32583465735E+02  0.84393629577E+01 -0.18002309206E+02  0.38170515105E+02  0.51100000000E-03 0.  1.
         12    1    3    3    0    0  0.21546968201E+02  0.72959578426E+01  0.23529165057E+02  0.32728037641E+02  0.00000000000E+00 0. -1.
</event>
<event>
 7    1  0.2542335E-015  0.9000780E+02  0.7816164E-02  0.1186339E+00
        -11   -1    0    0    0    0  0.00000000000E+00  0.00000000000E+00  0.45593999997E+02  0.45594000000E+02  0.51100000000E-03 0. -1.
         11   -1    0    0    0    0 -0.00000000000E+00 -0.00000000000E+00 -0.45593999997E+02  0.45594000000E+02  0.51100000000E-03 0.  1.
    9900012    2    1    2    0    0  0.96240293169E+00 -0.20045993043E-01  0.68282827442E+00  0.90007798451E+02  0.90000060590E+02 0.  0.
        -12    1    1    2    0    0 -0.96240293169E+00  0.20045993043E-01 -0.68282827442E+00  0.11802015494E+01  0.00000000000E+00 0.  1.
         11    1    3    3    0    0  0.87463375593E+01  0.56496409063E+01  0.35409702055E+02  0.36908858868E+02  0.51100000000E-03 0. -1.
        -11    1    3    3    0    0  0.76647364487E+01  0.22990334733E+01  0.52061279691E+01  0.95465966936E+01  0.51100000000E-03 0.  1.
        -12    1    3    3    0    0 -0.15448671076E+02 -0.79687203726E+01 -0.39933001749E+02  0.43552342889E+02  0.00000000000E+00 0.  1.
</event>
<event>
 7    1  0.2542335E-015  0.9000784E+02  0.7816164E-02  0.1186339E+00
        -11   -1    0    0    0    0  0.00000000000E+00  0.00000000000E+00  0.45593999997E+02  0.45594000000E+02  0.51100000000E-03 0. -1.
         11   -1    0    0    0    0 -0.00000000000E+00 -0.00000000000E+00 -0.45593999997E+02  0.45594000000E+02  0.51100000000E-03 0.  1.
    9900012    2    1    2    0    0  0.74456451388E+00  0.86882204232E+00 -0.28903861113E+00  0.90007842648E+02  0.90000105371E+02 0.  0.
        -12    1    1    2    0    0 -0.74456451388E+00 -0.86882204232E+00  0.28903861113E+00  0.11801573519E+01  0.00000000000E+00 0.  1.
         11    1    3    3    0    0  0.31931004022E+02  0.27238122737E+01  0.18203745599E+02  0.36856268466E+02  0.51100000000E-03 0. -1.
        -11    1    3    3    0    0  0.80939222407E+01 -0.54491240110E+01 -0.71881374045E+01  0.12119152171E+02  0.51100000000E-03 0.  1.
        -12    1    3    3    0    0 -0.39280361749E+02  0.35941337796E+01 -0.11304646806E+02  0.41032422011E+02  0.00000000000E+00 0.  1.
</event>
<event>
 7    1  0.2542335E-015  0.9000778E+02  0.7816164E-02  0.1186339E+00
        -11   -1    0    0    0    0  0.00000000000E+00  0.00000000000E+00  0.45593999997E+02  0.45594000000E+02  0.51100000000E-03 0.  1.
         11   -1    0    0    0    0 -0.00000000000E+00 -0.00000000000E+00 -0.45593999997E+02  0.45594000000E+02  0.51100000000E-03 0. -1.
    9900012    2    1    2    0    0 -0.75610881105E+00 -0.66672857786E+00 -0.61374315488E+00  0.90007784685E+02  0.90000046642E+02 0.  0.
        -12    1    1    2    0    0  0.75610881105E+00  0.66672857786E+00  0.61374315488E+00  0.11802153155E+01  0.00000000000E+00 0.  1.
         11    1    3    3    0    0 -0.34786365715E+01 -0.47528579774E+00  0.10664148699E+02  0.11227238160E+02  0.51100000000E-03 0. -1.
        -11    1    3    3    0    0  0.64478807424E+01 -0.35086755672E+01  0.33211146620E+02  0.34012736297E+02  0.51100000000E-03 0.  1.
         12    1    3    3    0    0 -0.37253529819E+01  0.33172327871E+01 -0.44489038474E+02  0.44767810227E+02  0.00000000000E+00 0. -1.
</event>
<event>
 7    1  0.2542335E-015  0.9000771E+02  0.7816164E-02  0.1186339E+00
        -11   -1    0    0    0    0  0.00000000000E+00  0.00000000000E+00  0.45593999997E+02  0.45594000000E+02  0.51100000000E-03 0.  1.
         11   -1    0    0    0    0 -0.00000000000E+00 -0.00000000000E+00 -0.45593999997E+02  0.45594000000E+02  0.51100000000E-03 0. -1.
    9900012    2    1    2    0    0  0.18501026888E+00  0.27757288312E+00 -0.11321739878E+01  0.90007706204E+02  0.89999967126E+02 0.  0.
        -12    1    1    2    0    0 -0.18501026888E+00 -0.27757288312E+00  0.11321739878E+01  0.11802937955E+01  0.00000000000E+00 0.  1.
         11    1    3    3    0    0  0.17453415475E+02 -0.31931025553E+02 -0.16352569827E+02  0.39895095498E+02  0.51100000000E-03 0. -1.
        -11    1    3    3    0    0 -0.41987704746E+01 -0.45033528225E+01 -0.32786724082E+01  0.69756399824E+01  0.51100000000E-03 0.  1.
        -12    1    3    3    0    0 -0.13069634731E+02  0.36711951259E+02  0.18499068247E+02  0.43136970724E+02  0.00000000000E+00 0.  1.
</event>
<event>
 7    1  0.2542335E-015  0.9000778E+02  0.7816164E-02  0.1186339E+00
        -11   -1    0    0    0    0  0.00000000000E+00  0.00000000000E+00  0.45593999997E+02  0.45594000000E+02  0.51100000000E-03 0.  1.
         11   -1    0    0    0    0 -0.00000000000E+00 -0.00000000000E+00 -0.45593999997E+02  0.45594000000E+02  0.51100000000E-03 0. -1.
    9900012    2    1    2    0    0 -0.67425276594E+00  0.91711885952E+00 -0.31176718783E+00  0.90007778591E+02  0.90000040468E+02 0.  0.
        -12    1    1    2    0    0  0.67425276594E+00 -0.91711885952E+00  0.31176718783E+00  0.11802214090E+01  0.00000000000E+00 0.  1.
         11    1    3    3    0    0  0.16380417863E+02  0.20638284190E+02 -0.73781833274E+01  0.27362281578E+02  0.51100000000E-03 0. -1.
        -11    1    3    3    0    0  0.11436439493E+02 -0.26102604968E+02 -0.82590834409E+01  0.29670702620E+02  0.51100000000E-03 0.  1.
         12    1    3    3    0    0 -0.28491110122E+02  0.63814396378E+01  0.15325499580E+02  0.32974794393E+02  0.00000000000E+00 0. -1.
</event>
<event>
 7    1  0.2542335E-015  0.9000773E+02  0.7816164E-02  0.1186339E+00
        -11   -1    0    0    0    0  0.00000000000E+00  0.00000000000E+00  0.45593999997E+02  0.45594000000E+02  0.51100000000E-03 0.  1.
         11   -1    0    0    0    0 -0.00000000000E+00 -0.00000000000E+00 -0.45593999997E+02  0.45594000000E+02  0.51100000000E-03 0. -1.
    9900012    2    1    2    0    0 -0.95741289948E-01 -0.11433835174E+01 -0.27667676526E+00  0.90007727873E+02  0.89999989080E+02 0.  0.
        -12    1    1    2    0    0  0.95741289948E-01  0.11433835174E+01  0.27667676526E+00  0.11802721275E+01  0.00000000000E+00 0.  1.
         11    1    3    3    0    0  0.12928219933E+02  0.32846542563E+02 -0.96972696812E+01  0.36606983877E+02  0.51100000000E-03 0. -1.
        -11    1    3    3    0    0  0.29001642058E+01  0.69957508622E+01 -0.22639536192E+01  0.79042373951E+01  0.51100000000E-03 0.  1.
        -12    1    3    3    0    0 -0.15924125429E+02 -0.40985676943E+02  0.11684546535E+02  0.45496506601E+02  0.00000000000E+00 0.  1.
</event>
<event>
 7    1  0.2542335E-015  0.9000773E+02  0.7816164E-02  0.1186339E+00
        -11   -1    0    0    0    0  0.00000000000E+00  0.00000000000E+00  0.45593999997E+02  0.45594000000E+02  0.51100000000E-03 0. -1.
         11   -1    0    0    0    0 -0.00000000000E+00 -0.00000000000E+00 -0.45593999997E+02  0.45594000000E+02  0.51100000000E-03 0.  1.
    9900012    2    1    2    0    0 -0.41318006561E+00  0.64036252770E+00  0.90125327158E+00  0.90007729102E+02  0.89999990326E+02 0.  0.
        -12    1    1    2    0    0  0.41318006561E+00 -0.64036252770E+00 -0.90125327158E+00  0.11802708982E+01  0.00000000000E+00 0.  1.
         11    1    3    3    0    0  0.54042208428E+01  0.76017915822E+01  0.43839876328E+01  0.10305929652E+02  0.51100000000E-03 0. -1.
        -11    1    3    3    0    0 -0.46504386610E+01  0.35570051187E+02 -0.84811915179E+01  0.36861710907E+02  0.51100000000E-03 0.  1.
         12    1    3    3    0    0 -0.11669622474E+01 -0.42531480241E+02  0.49984571567E+01  0.42840088543E+02  0.00000000000E+00 0. -1.
</event>
<event>
 7    1  0.2542335E-015  0.9000789E+02  0.7816164E-02  0.1186339E+00
        -11   -1    0    0    0    0  0.00000000000E+00  0.00000000000E+00  0.45593999997E+02  0.45594000000E+02  0.51100000000E-03 0. -1.
         11   -1    0    0    0    0 -0.00000000000E+00 -0.00000000000E+00 -0.45593999997E+02  0.45594000000E+02  0.51100000000E-03 0.  1.
    9900012    2    1    2    0    0  0.14772695841E+00  0.15947571806E+00  0.11599169652E+01  0.90007888512E+02  0.90000151840E+02 0.  0.
        -12    1    1    2    0    0 -0.14772695841E+00 -0.15947571806E+00 -0.11599169652E+01  0.11801114883E+01  0.00000000000E+00 0.  1.
         11    1    3    3    0    0  0.69357624517E+01  0.21589976834E+02  0.28537948552E+02  0.36450602304E+02  0.51100000000E-03 0. -1.
        -11    1    3    3    0    0 -0.12814048649E+01  0.82797080510E+01  0.46030309527E+01  0.95594695486E+01  0.51100000000E-03 0.  1.
        -12    1    3    3    0    0 -0.55066306283E+01 -0.29710209167E+02 -0.31981062540E+02  0.43997816659E+02  0.00000000000E+00 0.  1.
</event>
<event>
 7    1  0.2542335E-015  0.9000654E+02  0.7816164E-02  0.1186341E+00
        -11   -1    0    0    0    0  0.00000000000E+00  0.00000000000E+00  0.45593999997E+02  0.45594000000E+02  0.51100000000E-03 0.  1.
         11   -1    0    0    0    0 -0.00000000000E+00 -0.00000000000E+00 -0.45593999997E+02  0.45594000000E+02  0.51100000000E-03 0. -1.
    9900012    2    1    2    0    0 -0.32784212664E+00 -0.39532421881E+00 -0.10639968624E+01  0.90006538608E+02  0.89998784109E+02 0.  0.
        -12    1    1    2    0    0  0.32784212664E+00  0.39532421881E+00  0.10639968624E+01  0.11814613921E+01  0.00000000000E+00 0.  1.
         11    1    3    3    0    0  0.31821678159E+02 -0.19350990207E+02  0.41735957949E+01  0.37476645060E+02  0.51100000000E-03 0. -1.
        -11    1    3    3    0    0  0.36716042744E+01 -0.78486088183E+00  0.85743342141E+01  0.93603361066E+01  0.51100000000E-03 0.  1.
        -12    1    3    3    0    0 -0.35821124560E+02  0.19740526870E+02 -0.13811926871E+02  0.43169557442E+02  0.00000000000E+00 0.  1.
</event>
<event>
 7    1  0.2542335E-015  0.9000779E+02  0.7816164E-02  0.1186339E+00
        -11   -1    0    0    0    0  0.00000000000E+00  0.00000000000E+00  0.45593999997E+02  0.45594000000E+02  0.51100000000E-03 0. -1.
         11   -1    0    0    0    0 -0.00000000000E+00 -0.00000000000E+00 -0.45593999997E+02  0.45594000000E+02  0.51100000000E-03 0.  1.
    9900012    2    1    2    0    0  0.10262140024E+01  0.46920615088E+00  0.34588090527E+00  0.90007786803E+02  0.90000048788E+02 0.  0.
        -12    1    1    2    0    0 -0.10262140024E+01 -0.46920615088E+00 -0.34588090527E+00  0.11802131974E+01  0.00000000000E+00 0.  1.
         11    1    3    3    0    0 -0.46982796256E+00 -0.92002511297E+01  0.27570354266E+01  0.96159556867E+01  0.51100000000E-03 0. -1.
        -11    1    3    3    0    0  0.17594590694E+02  0.24530581602E+02 -0.31726643421E+02  0.43793823291E+02  0.51100000000E-03 0.  1.
         12    1    3    3    0    0 -0.16098548729E+02 -0.14861124321E+02  0.29315488900E+02  0.36598007825E+02  0.00000000000E+00 0. -1.
</event>
<event>
 7    1  0.2542335E-015  0.9000774E+02  0.7816164E-02  0.1186339E+00
        -11   -1    0    0    0    0  0.00000000000E+00  0.00000000000E+00  0.45593999997E+02  0.45594000000E+02  0.51100000000E-03 0.  1.
         11   -1    0    0    0    0 -0.00000000000E+00 -0.00000000000E+00 -0.45593999997E+02  0.45594000000E+02  0.51100000000E-03 0. -1.
    9900012    2    1    2    0    0  0.68379960244E+00  0.78036616699E+00 -0.56254222033E+00  0.90007742824E+02  0.90000004230E+02 0.  0.
        -12    1    1    2    0    0 -0.68379960244E+00 -0.78036616699E+00  0.56254222033E+00  0.11802571756E+01  0.00000000000E+00 0.  1.
         11    1    3    3    0    0 -0.16224963452E+01  0.14675473025E+02  0.29307258881E+01  0.15052945141E+02  0.51100000000E-03 0. -1.
        -11    1    3    3    0    0  0.36522485040E+02 -0.12046040575E+02  0.70599561415E+01  0.39100409052E+02  0.51100000000E-03 0.  1.
         12    1    3    3    0    0 -0.34216189092E+02 -0.18490662833E+01 -0.10553224250E+02  0.35854388632E+02  0.00000000000E+00 0. -1.
</event>
<event>
 7    1  0.2542335E-015  0.9000776E+02  0.7816164E-02  0.1186339E+00
        -11   -1    0    0    0    0  0.00000000000E+00  0.00000000000E+00  0.45593999997E+02  0.45594000000E+02  0.51100000000E-03 0.  1.
         11   -1    0    0    0    0 -0.00000000000E+00 -0.00000000000E+00 -0.45593999997E+02  0.45594000000E+02  0.51100000000E-03 0. -1.
    9900012    2    1    2    0    0  0.37254127208E+00  0.67854290409E+00 -0.89093129331E+00  0.90007760176E+02  0.90000021811E+02 0.  0.
        -12    1    1    2    0    0 -0.37254127208E+00 -0.67854290409E+00  0.89093129331E+00  0.11802398237E+01  0.00000000000E+00 0.  1.
         11    1    3    3    0    0 -0.35561043107E+02  0.12905551615E+02  0.23486813184E+01  0.37903263099E+02  0.51100000000E-03 0. -1.
        -11    1    3    3    0    0  0.68091458915E+00  0.95460549959E+01 -0.46623706236E+01  0.10645586445E+02  0.51100000000E-03 0.  1.
        -12    1    3    3    0    0  0.35252669790E+02 -0.21773063707E+02  0.14227580119E+01  0.41458910633E+02  0.00000000000E+00 0.  1.
</event>
<event>
 7    1  0.2542335E-015  0.9000763E+02  0.7816164E-02  0.1186339E+00
        -11   -1    0    0    0    0  0.00000000000E+00  0.00000000000E+00  0.45593999997E+02  0.45594000000E+02  0.51100000000E-03 0.  1.
         11   -1    0    0    0    0 -0.00000000000E+00 -0.00000000000E+00 -0.45593999997E+02  0.45594000000E+02  0.51100000000E-03 0. -1.
    9900012    2    1    2    0    0 -0.76688229863E+00 -0.55671080978E+00 -0.70372632058E+00  0.90007633057E+02  0.89999893013E+02 0.  0.
        -12    1    1    2    0    0  0.76688229863E+00  0.55671080978E+00  0.70372632058E+00  0.11803669429E+01  0.00000000000E+00 0.  1.
         11    1    3    3    0    0 -0.32969136630E+01  0.80903943470E+01  0.33459400763E+01  0.93551822883E+01  0.51100000000E-03 0. -1.
        -11    1    3    3    0    0 -0.24767570316E+02 -0.27128911526E+02  0.18085213237E+02  0.40944905886E+02  0.51100000000E-03 0.  1.
         12    1    3    3    0    0  0.27297601680E+02  0.18481806369E+02 -0.22134879634E+02  0.39707544882E+02  0.00000000000E+00 0. -1.
</event>
<event>
 7    1  0.2542335E-015  0.9000772E+02  0.7816164E-02  0.1186339E+00
        -11   -1    0    0    0    0  0.00000000000E+00  0.00000000000E+00  0.45593999997E+02  0.45594000000E+02  0.51100000000E-03 0. -1.
         11   -1    0    0    0    0 -0.00000000000E+00 -0.00000000000E+00 -0.45593999997E+02  0.45594000000E+02  0.51100000000E-03 0.  1.
    9900012    2    1    2    0    0 -0.19695488302E+00  0.11080556504E+01  0.35564723470E+00  0.90007718887E+02  0.89999979976E+02 0.  0.
        -12    1    1    2    0    0  0.19695488302E+00 -0.11080556504E+01 -0.35564723470E+00  0.11802811131E+01  0.00000000000E+00 0.  1.
         11    1    3    3    0    0  0.33452857437E+01 -0.56278437298E+01 -0.55317947694E+01  0.85711326781E+01  0.51100000000E-03 0. -1.
        -11    1    3    3    0    0 -0.14622569989E+02  0.19309417722E+02 -0.31926864550E+02  0.40074902945E+02  0.51100000000E-03 0.  1.
         12    1    3    3    0    0  0.11080329362E+02 -0.12573518342E+02  0.37814306554E+02  0.41361683264E+02  0.00000000000E+00 0. -1.
</event>
<event>
 7    1  0.2542335E-015  0.9000821E+02  0.7816164E-02  0.1186338E+00
        -11   -1    0    0    0    0  0.00000000000E+00  0.00000000000E+00  0.45593999997E+02  0.45594000000E+02  0.51100000000E-03 0.  1.
         11   -1    0    0    0    0 -0.00000000000E+00 -0.00000000000E+00 -0.45593999997E+02  0.45594000000E+02  0.51100000000E-03 0. -1.
    9900012    2    1    2    0    0  0.99582578945E+00 -0.47350604543E+00 -0.41954423089E+00  0.90008214282E+02  0.90000481910E+02 0.  0.
        -12    1    1    2    0    0 -0.99582578945E+00  0.47350604543E+00  0.41954423089E+00  0.11797857177E+01  0.00000000000E+00 0.  1.
         11    1    3    3    0    0 -0.19534657560E+02 -0.12946621538E+02 -0.14881442788E+02  0.27761037354E+02  0.51100000000E-03 0. -1.
        -11    1    3    3    0    0 -0.15814475554E+02  0.17552517816E+02  0.82620066872E+01  0.25028968686E+02  0.51100000000E-03 0.  1.
        -12    1    3    3    0    0  0.36344958903E+02 -0.50794023234E+01  0.61998918699E+01  0.37218208243E+02  0.00000000000E+00 0.  1.
</event>
<event>
 7    1  0.2542335E-015  0.9000770E+02  0.7816164E-02  0.1186339E+00
        -11   -1    0    0    0    0  0.00000000000E+00  0.00000000000E+00  0.45593999997E+02  0.45594000000E+02  0.51100000000E-03 0.  1.
         11   -1    0    0    0    0 -0.00000000000E+00 -0.00000000000E+00 -0.45593999997E+02  0.45594000000E+02  0.51100000000E-03 0. -1.
    9900012    2    1    2    0    0  0.34886992330E+00 -0.72878094864E+00 -0.86038796454E+00  0.90007703705E+02  0.89999964594E+02 0.  0.
        -12    1    1    2    0    0 -0.34886992330E+00  0.72878094864E+00  0.86038796454E+00  0.11802962950E+01  0.00000000000E+00 0.  1.
         11    1    3    3    0    0 -0.29016392329E+02  0.14954002068E+02 -0.14457711554E+02  0.35701521330E+02  0.51100000000E-03 0. -1.
        -11    1    3    3    0    0 -0.48243532166E+01  0.45586267673E+01 -0.69205140627E+01  0.95890029260E+01  0.51100000000E-03 0.  1.
        -12    1    3    3    0    0  0.34189615468E+02 -0.20241409784E+02  0.20517837653E+02  0.44717179449E+02  0.00000000000E+00 0.  1.
</event>
<event>
 7    1  0.2542335E-015  0.9000777E+02  0.7816164E-02  0.1186339E+00
        -11   -1    0    0    0    0  0.00000000000E+00  0.00000000000E+00  0.45593999997E+02  0.45594000000E+02  0.51100000000E-03 0. -1.
         11   -1    0    0    0    0 -0.00000000000E+00 -0.00000000000E+00 -0.45593999997E+02  0.45594000000E+02  0.51100000000E-03 0.  1.
    9900012    2    1    2    0    0  0.16013391485E+00 -0.11679497985E+01 -0.56548631186E-01  0.90007768095E+02  0.90000029834E+02 0.  0.
        -12    1    1    2    0    0 -0.16013391485E+00  0.11679497985E+01  0.56548631186E-01  0.11802319052E+01  0.00000000000E+00 0.  1.
         11    1    3    3    0    0  0.18803996485E+02  0.26896131326E+02  0.17536885231E+02  0.37209333614E+02  0.51100000000E-03 0. -1.
        -11    1    3    3    0    0  0.11912557979E+01  0.67884821031E+01  0.32313413450E+01  0.76121052797E+01  0.51100000000E-03 0.  1.
        -12    1    3    3    0    0 -0.19835118368E+02 -0.34852563228E+02 -0.20824775207E+02  0.45186329201E+02  0.00000000000E+00 0.  1.
</event>
<event>
 7    1  0.2542335E-015  0.9000776E+02  0.7816164E-02  0.1186339E+00
        -11   -1    0    0    0    0  0.00000000000E+00  0.00000000000E+00  0.45593999997E+02  0.45594000000E+02  0.51100000000E-03 0.  1.
         11   -1    0    0    0    0 -0.00000000000E+00 -0.00000000000E+00 -0.45593999997E+02  0.45594000000E+02  0.51100000000E-03 0. -1.
    9900012    2    1    2    0    0  0.10872144784E+01 -0.10886757270E+00  0.44618349105E+00  0.90007759695E+02  0.90000021323E+02 0.  0.
        -12    1    1    2    0    0 -0.10872144784E+01  0.10886757270E+00 -0.44618349105E+00  0.11802403052E+01  0.00000000000E+00 0.  1.
         11    1    3    3    0    0  0.32387522299E+01  0.13500428560E+02  0.64833933263E+01  0.15322711137E+02  0.51100000000E-03 0. -1.
        -11    1    3    3    0    0  0.19039834191E+02  0.21279235346E+01  0.26555086340E+02  0.32744708816E+02  0.51100000000E-03 0.  1.
         12    1    3    3    0    0 -0.21191371943E+02 -0.15737219667E+02 -0.32592296176E+02  0.41940339742E+02  0.00000000000E+00 0. -1.
</event>
<event>
 7    1  0.2542335E-015  0.9000773E+02  0.7816164E-02  0.1186339E+00
        -11   -1    0    0    0    0  0.00000000000E+00  0.00000000000E+00  0.45593999997E+02  0.45594000000E+02  0.51100000000E-03 0.  1.
         11   -1    0    0    0    0 -0.00000000000E+00 -0.00000000000E+00 -0.45593999997E+02  0.45594000000E+02  0.51100000000E-03 0. -1.
    9900012    2    1    2    0    0 -0.35836850623E+00 -0.15419441246E+00 -0.11139280495E+01  0.90007729013E+02  0.89999990236E+02 0.  0.
        -12    1    1    2    0    0  0.35836850623E+00  0.15419441246E+00  0.11139280495E+01  0.11802709869E+01  0.00000000000E+00 0.  1.
         11    1    3    3    0    0 -0.79280882586E+01 -0.36671990686E+02 -0.45465256869E+01  0.37793655292E+02  0.51100000000E-03 0. -1.
        -11    1    3    3    0    0 -0.46160019091E+00 -0.67395204445E+01 -0.36068571071E+01  0.76579128365E+01  0.51100000000E-03 0.  1.
        -12    1    3    3    0    0  0.80313199432E+01  0.43257316718E+02  0.70394547446E+01  0.44556160884E+02  0.00000000000E+00 0.  1.
</event>
<event>
 7    1  0.2542335E-015  0.9000771E+02  0.7816164E-02  0.1186339E+00
        -11   -1    0    0    0    0  0.00000000000E+00  0.00000000000E+00  0.45593999997E+02  0.45594000000E+02  0.51100000000E-03 0.  1.
         11   -1    0    0    0    0 -0.00000000000E+00 -0.00000000000E+00 -0.45593999997E+02  0.45594000000E+02  0.51100000000E-03 0. -1.
    9900012    2    1    2    0    0 -0.11191589169E+01  0.34211737193E+00  0.15336746633E+00  0.90007710816E+02  0.89999971799E+02 0.  0.
        -12    1    1    2    0    0  0.11191589169E+01 -0.34211737193E+00 -0.15336746633E+00  0.11802891837E+01  0.00000000000E+00 0.  1.
         11    1    3    3    0    0  0.82721249894E+01 -0.51839774310E-01 -0.22268427059E+01  0.85667711479E+01  0.51100000000E-03 0. -1.
        -11    1    3    3    0    0 -0.79043238140E+01 -0.26977208901E+02  0.30975174662E+02  0.41829530008E+02  0.51100000000E-03 0.  1.
         12    1    3    3    0    0 -0.14869600923E+01  0.27371166047E+02 -0.28594964490E+02  0.39611409661E+02  0.00000000000E+00 0. -1.
</event>
<event>
 7    1  0.2542335E-015  0.9000771E+02  0.7816164E-02  0.1186339E+00
        -11   -1    0    0    0    0  0.00000000000E+00  0.00000000000E+00  0.45593999997E+02  0.45594000000E+02  0.51100000000E-03 0. -1.
         11   -1    0    0    0    0 -0.00000000000E+00 -0.00000000000E+00 -0.45593999997E+02  0.45594000000E+02  0.51100000000E-03 0.  1.
    9900012    2    1    2    0    0 -0.49798140537E+00 -0.10898160736E+00  0.10645323444E+01  0.90007706993E+02  0.89999967925E+02 0.  0.
        -12    1    1    2    0    0  0.49798140537E+00  0.10898160736E+00 -0.10645323444E+01  0.11802930073E+01  0.00000000000E+00 0.  1.
         11    1    3    3    0    0 -0.45060528469E+01 -0.99934299407E+01  0.46835572862E+01  0.11920942218E+02  0.51100000000E-03 0. -1.
        -11    1    3    3    0    0  0.40559189824E+02  0.37949685020E+01  0.97605217220E+00  0.40748034838E+02  0.51100000000E-03 0.  1.
         12    1    3    3    0    0 -0.36551118382E+02  0.60894798314E+01 -0.45950771140E+01  0.37338729937E+02  0.00000000000E+00 0. -1.
</event>
<event>
 7    1  0.2542335E-015  0.9000777E+02  0.7816164E-02  0.1186339E+00
        -11   -1    0    0    0    0  0.00000000000E+00  0.00000000000E+00  0.45593999997E+02  0.45594000000E+02  0.51100000000E-03 0. -1.
         11   -1    0    0    0    0 -0.00000000000E+00 -0.00000000000E+00 -0.45593999997E+02  0.45594000000E+02  0.51100000000E-03 0.  1.
    9900012    2    1    2    0    0 -0.39345937281E+00  0.14872465532E+00  0.11027284925E+01  0.90007771450E+02  0.90000033234E+02 0.  0.
        -12    1    1    2    0    0  0.39345937281E+00 -0.14872465532E+00 -0.11027284925E+01  0.11802285496E+01  0.00000000000E+00 0.  1.
         11    1    3    3    0    0  0.14001747086E+02 -0.15653247468E+02  0.17119470125E+02  0.27095190262E+02  0.51100000000E-03 0. -1.
        -11    1    3    3    0    0  0.19292732962E+02  0.16566129039E+02  0.39395681141E+00  0.25432290080E+02  0.51100000000E-03 0.  1.
         12    1    3    3    0    0 -0.33687939420E+02 -0.76415691554E+00 -0.16410698444E+02  0.37480291108E+02  0.00000000000E+00 0. -1.
</event>
<event>
 7    1  0.2542335E-015  0.9000776E+02  0.7816164E-02  0.1186339E+00
        -11   -1    0    0    0    0  0.00000000000E+00  0.00000000000E+00  0.45593999997E+02  0.45594000000E+02  0.51100000000E-03 0.  1.
         11   -1    0    0    0    0 -0.00000000000E+00 -0.00000000000E+00 -0.45593999997E+02  0.45594000000E+02  0.51100000000E-03 0. -1.
    9900012    2    1    2    0    0 -0.16003322170E+00  0.11401384291E+01 -0.25968054235E+00  0.90007762628E+02  0.90000024295E+02 0.  0.
        -12    1    1    2    0    0  0.16003322170E+00 -0.11401384291E+01  0.25968054235E+00  0.11802373717E+01  0.00000000000E+00 0.  1.
         11    1    3    3    0    0 -0.12277147576E+02  0.14500265302E+01 -0.17883111923E+00  0.12363774115E+02  0.51100000000E-03 0. -1.
        -11    1    3    3    0    0 -0.21762170017E+02 -0.96488053113E+01  0.24960310247E+02  0.34492152378E+02  0.51100000000E-03 0.  1.
         12    1    3    3    0    0  0.33879284371E+02  0.93389172102E+01 -0.25041159670E+02  0.43151836135E+02  0.00000000000E+00 0. -1.
</event>
<event>
 7    1  0.2542335E-015  0.9000773E+02  0.7816164E-02  0.1186339E+00
        -11   -1    0    0    0    0  0.00000000000E+00  0.00000000000E+00  0.45593999997E+02  0.45594000000E+02  0.51100000000E-03 0. -1.
         11   -1    0    0    0    0 -0.00000000000E+00 -0.00000000000E+00 -0.45593999997E+02  0.45594000000E+02  0.51100000000E-03 0.  1.
    9900012    2    1    2    0    0  0.64007888263E+00 -0.67483527654E+00 -0.72659154333E+00  0.90007729312E+02  0.89999990539E+02 0.  0.
        -12    1    1    2    0    0 -0.64007888263E+00  0.67483527654E+00  0.72659154333E+00  0.11802706881E+01  0.00000000000E+00 0.  1.
         11    1    3    3    0    0  0.46341483285E+01  0.74019827972E+01 -0.58586187017E+01  0.10516087362E+02  0.51100000000E-03 0. -1.
        -11    1    3    3    0    0 -0.18176844527E+02  0.29247139540E+02 -0.11404773927E+02  0.36274808295E+02  0.51100000000E-03 0.  1.
         12    1    3    3    0    0  0.14182775082E+02 -0.37323957614E+02  0.16536801086E+02  0.43216833654E+02  0.00000000000E+00 0. -1.
</event>
<event>
 7    1  0.2542335E-015  0.9000773E+02  0.7816164E-02  0.1186339E+00
        -11   -1    0    0    0    0  0.00000000000E+00  0.00000000000E+00  0.45593999997E+02  0.45594000000E+02  0.51100000000E-03 0. -1.
         11   -1    0    0    0    0 -0.00000000000E+00 -0.00000000000E+00 -0.45593999997E+02  0.45594000000E+02  0.51100000000E-03 0.  1.
    9900012    2    1    2    0    0  0.18072681229E+00 -0.11103351449E+01  0.35712684961E+00  0.90007726345E+02  0.89999987532E+02 0.  0.
        -12    1    1    2    0    0 -0.18072681229E+00  0.11103351449E+01 -0.35712684961E+00  0.11802736553E+01  0.00000000000E+00 0.  1.
         11    1    3    3    0    0 -0.13550937370E+02 -0.26164560969E+02  0.26561250047E+02  0.39670041072E+02  0.51100000000E-03 0. -1.
        -11    1    3    3    0    0 -0.64204904518E+01 -0.38653843038E+01 -0.26739519853E+01  0.79570040177E+01  0.51100000000E-03 0.  1.
        -12    1    3    3    0    0  0.20152154634E+02  0.28919610128E+02 -0.23530171213E+02  0.42380681255E+02  0.00000000000E+00 0.  1.
</event>
<event>
 7    1  0.2542335E-015  0.9000779E+02  0.7816164E-02  0.1186339E+00
        -11   -1    0    0    0    0  0.00000000000E+00  0.00000000000E+00  0.45593999997E+02  0.45594000000E+02  0.51100000000E-03 0.  1.
         11   -1    0    0    0    0 -0.00000000000E+00 -0.00000000000E+00 -0.45593999997E+02  0.45594000000E+02  0.51100000000E-03 0. -1.
    9900012    2    1    2    0    0  0.32003499457E-01 -0.92696085521E+00 -0.72981182315E+00  0.90007785635E+02  0.90000047605E+02 0.  0.
        -12    1    1    2    0    0 -0.32003499457E-01  0.92696085521E+00  0.72981182315E+00  0.11802143654E+01  0.00000000000E+00 0.  1.
         11    1    3    3    0    0 -0.91222933709E+01 -0.46086582076E+01 -0.31539960711E+01  0.10695964580E+02  0.51100000000E-03 0. -1.
        -11    1    3    3    0    0  0.39249157561E+02 -0.16249354604E+02  0.65446234035E+01  0.42981042217E+02  0.51100000000E-03 0.  1.
         12    1    3    3    0    0 -0.30094860691E+02  0.19931051957E+02 -0.41204391556E+01  0.36330778837E+02  0.00000000000E+00 0. -1.
</event>
<event>
 7    1  0.2542335E-015  0.9000785E+02  0.7816164E-02  0.1186339E+00
        -11   -1    0    0    0    0  0.00000000000E+00  0.00000000000E+00  0.45593999997E+02  0.45594000000E+02  0.51100000000E-03 0.  1.
         11   -1    0    0    0    0 -0.00000000000E+00 -0.00000000000E+00 -0.45593999997E+02  0.45594000000E+02  0.51100000000E-03 0. -1.
    9900012    2    1    2    0    0  0.11085903703E+01 -0.26415506669E+00  0.30661687555E+00  0.90007845596E+02  0.90000108358E+02 0.  0.
        -12    1    1    2    0    0 -0.11085903703E+01  0.26415506669E+00 -0.30661687555E+00  0.11801544038E+01  0.00000000000E+00 0.  1.
         11    1    3    3    0    0  0.32068397721E+02 -0.14364267938E+02 -0.20052355865E+02  0.40457524662E+02  0.51100000000E-03 0. -1.
        -11    1    3    3    0    0 -0.65511699041E+01 -0.45871857918E+01 -0.52275857850E+01  0.95544625177E+01  0.51100000000E-03 0.  1.
        -12    1    3    3    0    0 -0.24408637446E+02  0.18687298663E+02  0.25586558526E+02  0.39995858417E+02  0.00000000000E+00 0.  1.
</event>
<event>
 7    1  0.2542335E-015  0.9000775E+02  0.7816164E-02  0.1186339E+00
        -11   -1    0    0    0    0  0.00000000000E+00  0.00000000000E+00  0.45593999997E+02  0.45594000000E+02  0.51100000000E-03 0. -1.
         11   -1    0    0    0    0 -0.00000000000E+00 -0.00000000000E+00 -0.45593999997E+02  0.45594000000E+02  0.51100000000E-03 0.  1.
    9900012    2    1    2    0    0 -0.92439460250E+00  0.60256292345E+00 -0.41881137545E+00  0.90007749846E+02  0.90000011344E+02 0.  0.
        -12    1    1    2    0    0  0.92439460250E+00 -0.60256292345E+00  0.41881137545E+00  0.11802501540E+01  0.00000000000E+00 0.  1.
         11    1    3    3    0    0  0.39664309653E+01  0.44290910452E+01  0.74111631650E+01  0.95013031637E+01  0.51100000000E-03 0. -1.
        -11    1    3    3    0    0  0.20315659525E+02  0.12380542823E+02 -0.33472307515E+02  0.41065791519E+02  0.51100000000E-03 0.  1.
         12    1    3    3    0    0 -0.25206485092E+02 -0.16207070945E+02  0.25642332974E+02  0.39440655163E+02  0.00000000000E+00 0. -1.
</event>
<event>
 7    1  0.2542335E-015  0.9000767E+02  0.7816164E-02  0.1186339E+00
        -11   -1    0    0    0    0  0.00000000000E+00  0.00000000000E+00  0.45593999997E+02  0.45594000000E+02  0.51100000000E-03 0.  1.
         11   -1    0    0    0    0 -0.00000000000E+00 -0.00000000000E+00 -0.45593999997E+02  0.45594000000E+02  0.51100000000E-03 0. -1.
    9900012    2    1    2    0    0 -0.66546103042E+00 -0.61857537449E+00  0.75346655588E+00  0.90007667111E+02  0.89999927517E+02 0.  0.
        -12    1    1    2    0    0  0.66546103042E+00  0.61857537449E+00 -0.75346655588E+00  0.11803328885E+01  0.00000000000E+00 0.  1.
         11    1    3    3    0    0 -0.38295538374E+01  0.34009555094E+02 -0.16687034024E+02  0.38075877207E+02  0.51100000000E-03 0. -1.
        -11    1    3    3    0    0 -0.72983657214E+01  0.13684792263E+00 -0.53640260803E+01  0.90585675252E+01  0.51100000000E-03 0.  1.
        -12    1    3    3    0    0  0.10462458528E+02 -0.34764978391E+02  0.22804526660E+02  0.42873222379E+02  0.00000000000E+00 0.  1.
</event>
<event>
 7    1  0.2542335E-015  0.9000777E+02  0.7816164E-02  0.1186339E+00
        -11   -1    0    0    0    0  0.00000000000E+00  0.00000000000E+00  0.45593999997E+02  0.45594000000E+02  0.51100000000E-03 0. -1.
         11   -1    0    0    0    0 -0.00000000000E+00 -0.00000000000E+00 -0.45593999997E+02  0.45594000000E+02  0.51100000000E-03 0.  1.
    9900012    2    1    2    0    0 -0.11039734786E+01  0.16856784960E+00 -0.38178759458E+00  0.90007773611E+02  0.90000035423E+02 0.  0.
        -12    1    1    2    0    0  0.11039734786E+01 -0.16856784960E+00  0.38178759458E+00  0.11802263888E+01  0.00000000000E+00 0.  1.
         11    1    3    3    0    0 -0.20901723120E+02 -0.27921481864E+02 -0.18291302290E+02  0.39383536136E+02  0.51100000000E-03 0. -1.
        -11    1    3    3    0    0  0.16593906582E+01 -0.65031909867E+01  0.77743670126E+01  0.10270630607E+02  0.51100000000E-03 0.  1.
        -12    1    3    3    0    0  0.18138358983E+02  0.34593240700E+02  0.10135147683E+02  0.40353606868E+02  0.00000000000E+00 0.  1.
</event>
<event>
 7    1  0.2542335E-015  0.9000780E+02  0.7816164E-02  0.1186339E+00
        -11   -1    0    0    0    0  0.00000000000E+00  0.00000000000E+00  0.45593999997E+02  0.45594000000E+02  0.51100000000E-03 0.  1.
         11   -1    0    0    0    0 -0.00000000000E+00 -0.00000000000E+00 -0.45593999997E+02  0.45594000000E+02  0.51100000000E-03 0. -1.
    9900012    2    1    2    0    0  0.48807520316E+00  0.89136676796E+00 -0.60009153332E+00  0.90007804267E+02  0.90000066484E+02 0.  0.
        -12    1    1    2    0    0 -0.48807520316E+00 -0.89136676796E+00  0.60009153332E+00  0.11801957326E+01  0.00000000000E+00 0.  1.
         11    1    3    3    0    0  0.10959120722E+02  0.25730713980E+01 -0.54498432098E+01  0.12506950655E+02  0.51100000000E-03 0. -1.
        -11    1    3    3    0    0 -0.16694008882E+02  0.32242090514E+02  0.18080408488E+02  0.40560368645E+02  0.51100000000E-03 0.  1.
         12    1    3    3    0    0  0.62229633639E+01 -0.33923795144E+02 -0.13230656811E+02  0.36940484968E+02  0.00000000000E+00 0. -1.
</event>
<event>
 7    1  0.2542335E-015  0.9000771E+02  0.7816164E-02  0.1186339E+00
        -11   -1    0    0    0    0  0.00000000000E+00  0.00000000000E+00  0.45593999997E+02  0.45594000000E+02  0.51100000000E-03 0.  1.
         11   -1    0    0    0    0 -0.00000000000E+00 -0.00000000000E+00 -0.45593999997E+02  0.45594000000E+02  0.51100000000E-03 0. -1.
    9900012    2    1    2    0    0 -0.46903309213E+00  0.39613035561E+00 -0.10080594047E+01  0.90007705518E+02  0.89999966431E+02 0.  0.
        -12    1    1    2    0    0  0.46903309213E+00 -0.39613035561E+00  0.10080594047E+01  0.11802944817E+01  0.00000000000E+00 0.  1.
         11    1    3    3    0    0 -0.95097932978E+01  0.26831311226E+02  0.19100792058E+02  0.34281127289E+02  0.51100000000E-03 0. -1.
        -11    1    3    3    0    0 -0.14307049552E+01  0.45316106912E+01  0.10134192906E+02  0.11193045977E+02  0.51100000000E-03 0.  1.
        -12    1    3    3    0    0  0.10471465161E+02 -0.30966791562E+02 -0.30243044368E+02  0.44533532253E+02  0.00000000000E+00 0.  1.
</event>
<event>
 7    1  0.2542335E-015  0.9000769E+02  0.7816164E-02  0.1186339E+00
        -11   -1    0    0    0    0  0.00000000000E+00  0.00000000000E+00  0.45593999997E+02  0.45594000000E+02  0.51100000000E-03 0. -1.
         11   -1    0    0    0    0 -0.00000000000E+00 -0.00000000000E+00 -0.45593999997E+02  0.45594000000E+02  0.51100000000E-03 0.  1.
    9900012    2    1    2    0    0 -0.41857925961E+00 -0.32040975308E+00  0.10560548173E+01  0.90007693776E+02  0.89999954533E+02 0.  0.
        -12    1    1    2    0    0  0.41857925961E+00  0.32040975308E+00 -0.10560548173E+01  0.11803062245E+01  0.00000000000E+00 0.  1.
         11    1    3    3    0    0  0.41092802723E+01 -0.71249583978E+01 -0.89091473791E+01  0.12125350461E+02  0.51100000000E-03 0. -1.
        -11    1    3    3    0    0 -0.31999658504E+02 -0.16981929255E+02  0.18320342670E+02  0.40595554207E+02  0.51100000000E-03 0.  1.
         12    1    3    3    0    0  0.27471798972E+02  0.23786477899E+02 -0.83551404734E+01  0.37286789107E+02  0.00000000000E+00 0. -1.
</event>
<event>
 7    1  0.2542335E-015  0.9000766E+02  0.7816164E-02  0.1186339E+00
        -11   -1    0    0    0    0  0.00000000000E+00  0.00000000000E+00  0.45593999997E+02  0.45594000000E+02  0.51100000000E-03 0. -1.
         11   -1    0    0    0    0 -0.00000000000E+00 -0.00000000000E+00 -0.45593999997E+02  0.45594000000E+02  0.51100000000E-03 0.  1.
    9900012    2    1    2    0    0  0.88321406206E+00  0.52169914556E+00  0.58392009703E+00  0.90007661168E+02  0.89999921496E+02 0.  0.
        -12    1    1    2    0    0 -0.88321406206E+00 -0.52169914556E+00 -0.58392009703E+00  0.11803388317E+01  0.00000000000E+00 0.  1.
         11    1    3    3    0    0  0.71406774697E+01  0.50090362837E+00 -0.87314415461E+01  0.11290626683E+02  0.51100000000E-03 0. -1.
        -11    1    3    3    0    0  0.63541454987E+01  0.66073853448E+01 -0.32907989970E+02  0.34160920805E+02  0.51100000000E-03 0.  1.
         12    1    3    3    0    0 -0.12611608906E+02 -0.65865898276E+01  0.42223351613E+02  0.44556113680E+02  0.00000000000E+00 0. -1.
</event>
<event>
 7    1  0.2542335E-015  0.9000770E+02  0.7816164E-02  0.1186339E+00
        -11   -1    0    0    0    0  0.00000000000E+00  0.00000000000E+00  0.45593999997E+02  0.45594000000E+02  0.51100000000E-03 0. -1.
         11   -1    0    0    0    0 -0.00000000000E+00 -0.00000000000E+00 -0.45593999997E+02  0.45594000000E+02  0.51100000000E-03 0.  1.
    9900012    2    1    2    0    0  0.47277837005E+00  0.10797663391E+01  0.60804250013E-01  0.90007698390E+02  0.89999959209E+02 0.  0.
        -12    1    1    2    0    0 -0.47277837005E+00 -0.10797663391E+01 -0.60804250013E-01  0.11803016102E+01  0.00000000000E+00 0.  1.
         11    1    3    3    0    0 -0.72425124414E+01 -0.59050079602E+01  0.20724366060E+01  0.95717343894E+01  0.51100000000E-03 0. -1.
        -11    1    3    3    0    0  0.38726977319E+02  0.74089794582E+01  0.18189392872E+02  0.43422641124E+02  0.51100000000E-03 0.  1.
         12    1    3    3    0    0 -0.31011686508E+02 -0.42420515889E+00 -0.20201025228E+02  0.37013322876E+02  0.00000000000E+00 0. -1.
</event>
<event>
 7    1  0.2542335E-015  0.9000781E+02  0.7816164E-02  0.1186339E+00
        -11   -1    0    0    0    0  0.00000000000E+00  0.00000000000E+00  0.45593999997E+02  0.45594000000E+02  0.51100000000E-03 0. -1.
         11   -1    0    0    0    0 -0.00000000000E+00 -0.00000000000E+00 -0.45593999997E+02  0.45594000000E+02  0.51100000000E-03 0.  1.
    9900012    2    1    2    0    0 -0.88096801786E+00 -0.69271054977E+00  0.37000654161E+00  0.90007806204E+02  0.90000068446E+02 0.  0.
        -12    1    1    2    0    0  0.88096801786E+00  0.69271054977E+00 -0.37000654161E+00  0.11801937956E+01  0.00000000000E+00 0.  1.
         11    1    3    3    0    0 -0.12580804266E+02 -0.50012678066E+01  0.65271173951E+00  0.13554163512E+02  0.51100000000E-03 0. -1.
        -11    1    3    3    0    0 -0.29840357298E+02 -0.79178201965E+01 -0.92579482167E+01  0.32231171337E+02  0.51100000000E-03 0.  1.
         12    1    3    3    0    0  0.41540193546E+02  0.12226377453E+02  0.89752430188E+01  0.44222471355E+02  0.00000000000E+00 0. -1.
</event>
<event>
 7    1  0.2642362E-015  0.9000779E+02  0.7816164E-02  0.1186339E+00
        -11   -1    0    0    0    0  0.00000000000E+00  0.00000000000E+00  0.45593999997E+02  0.45594000000E+02  0.51100000000E-03 0. -1.
         11   -1    0    0    0    0 -0.00000000000E+00 -0.00000000000E+00 -0.45593999997E+02  0.45594000000E+02  0.51100000000E-03 0.  1.
    9900012    2    1    2    0    0 -0.23681528889E+00 -0.11516476005E+01  0.10254852114E+00  0.90007792444E+02  0.90000054504E+02 0.  0.
        -12    1    1    2    0    0  0.23681528889E+00  0.11516476005E+01 -0.10254852114E+00  0.11802075563E+01  0.00000000000E+00 0.  1.
         11    1    3    3    0    0  0.75806832681E+01  0.24437743009E+01  0.48369724161E+01  0.93185349739E+01  0.51100000000E-03 0. -1.
        -11    1    3    3    0    0  0.74175664701E+01 -0.39113929408E+02  0.67317273731E+01  0.40376180103E+02  0.51100000000E-03 0.  1.
         12    1    3    3    0    0 -0.15235065027E+02  0.35518507506E+02 -0.11466151268E+02  0.40313077366E+02  0.00000000000E+00 0. -1.
</event>
<event>
 7    1  0.2542335E-015  0.9000782E+02  0.7816164E-02  0.1186339E+00
        -11   -1    0    0    0    0  0.00000000000E+00  0.00000000000E+00  0.45593999997E+02  0.45594000000E+02  0.51100000000E-03 0.  1.
         11   -1    0    0    0    0 -0.00000000000E+00 -0.00000000000E+00 -0.45593999997E+02  0.45594000000E+02  0.51100000000E-03 0. -1.
    9900012    2    1    2    0    0 -0.45987846169E+00 -0.62595074761E-01 -0.10850922959E+01  0.90007817119E+02  0.90000079505E+02 0.  0.
        -12    1    1    2    0    0  0.45987846169E+00  0.62595074761E-01  0.10850922959E+01  0.11801828813E+01  0.00000000000E+00 0.  1.
         11    1    3    3    0    0  0.16860207320E+01  0.85201682755E+01 -0.55562254650E+00  0.87031402395E+01  0.51100000000E-03 0. -1.
        -11    1    3    3    0    0  0.30770580044E+02 -0.19240959966E+01  0.24533007811E+02  0.39400497639E+02  0.51100000000E-03 0.  1.
         12    1    3    3    0    0 -0.32916479238E+02 -0.66586673537E+01 -0.25062477561E+02  0.41904179240E+02  0.00000000000E+00 0. -1.
</event>
<event>
 7    1  0.2542335E-015  0.9000770E+02  0.7816164E-02  0.1186339E+00
        -11   -1    0    0    0    0  0.00000000000E+00  0.00000000000E+00  0.45593999997E+02  0.45594000000E+02  0.51100000000E-03 0.  1.
         11   -1    0    0    0    0 -0.00000000000E+00 -0.00000000000E+00 -0.45593999997E+02  0.45594000000E+02  0.51100000000E-03 0. -1.
    9900012    2    1    2    0    0 -0.40500414947E+00  0.10260438279E+01 -0.41989436971E+00  0.90007701063E+02  0.89999961917E+02 0.  0.
        -12    1    1    2    0    0  0.40500414947E+00 -0.10260438279E+01  0.41989436971E+00  0.11802989366E+01  0.00000000000E+00 0.  1.
         11    1    3    3    0    0 -0.79132637926E+01  0.68232816578E+01  0.10730487878E+02  0.14977325756E+02  0.51100000000E-03 0. -1.
        -11    1    3    3    0    0  0.19847001873E+02  0.25409975969E+02  0.11845372160E+02  0.34349428001E+02  0.51100000000E-03 0.  1.
         12    1    3    3    0    0 -0.12338742230E+02 -0.31207213799E+02 -0.22995754409E+02  0.40680947306E+02  0.00000000000E+00 0. -1.
</event>
<event>
 7    1  0.2542335E-015  0.9000791E+02  0.7816164E-02  0.1186339E+00
        -11   -1    0    0    0    0  0.00000000000E+00  0.00000000000E+00  0.45593999997E+02  0.45594000000E+02  0.51100000000E-03 0. -1.
         11   -1    0    0    0    0 -0.00000000000E+00 -0.00000000000E+00 -0.45593999997E+02  0.45594000000E+02  0.51100000000E-03 0.  1.
    9900012    2    1    2    0    0 -0.73638882783E+00 -0.12216358210E+00  0.91400997787E+00  0.90007912424E+02  0.90000176068E+02 0.  0.
        -12    1    1    2    0    0  0.73638882783E+00  0.12216358210E+00 -0.91400997787E+00  0.11800875756E+01  0.00000000000E+00 0.  1.
         11    1    3    3    0    0  0.35533743087E+01  0.55336867097E+01  0.10788512798E+02  0.12634878956E+02  0.51100000000E-03 0. -1.
        -11    1    3    3    0    0  0.12553300811E+01 -0.40015327305E+02  0.32727782216E+01  0.40168561718E+02  0.51100000000E-03 0.  1.
         12    1    3    3    0    0 -0.55450932176E+01  0.34359477013E+02 -0.13147281042E+02  0.37204471750E+02  0.00000000000E+00 0. -1.
</event>
<event>
 7    1  0.2542335E-015  0.9000776E+02  0.7816164E-02  0.1186339E+00
        -11   -1    0    0    0    0  0.00000000000E+00  0.00000000000E+00  0.45593999997E+02  0.45594000000E+02  0.51100000000E-03 0.  1.
         11   -1    0    0    0    0 -0.00000000000E+00 -0.00000000000E+00 -0.45593999997E+02  0.45594000000E+02  0.51100000000E-03 0. -1.
    9900012    2    1    2    0    0 -0.17780024118E+00 -0.11446095247E+01  0.22633624525E+00  0.90007757658E+02  0.90000019259E+02 0.  0.
        -12    1    1    2    0    0  0.17780024118E+00  0.11446095247E+01 -0.22633624525E+00  0.11802423420E+01  0.00000000000E+00 0.  1.
         11    1    3    3    0    0  0.53496866629E+01 -0.76976755919E+01  0.11521532993E+02  0.14853251485E+02  0.51100000000E-03 0. -1.
        -11    1    3    3    0    0 -0.14164037454E+02 -0.13937692368E+02  0.25398786741E+02  0.32248683596E+02  0.51100000000E-03 0.  1.
         12    1    3    3    0    0  0.86365505499E+01  0.20490758435E+02 -0.36693983489E+02  0.42905822576E+02  0.00000000000E+00 0. -1.
</event>
<event>
 7    1  0.2542335E-015  0.9000771E+02  0.7816164E-02  0.1186339E+00
        -11   -1    0    0    0    0  0.00000000000E+00  0.00000000000E+00  0.45593999997E+02  0.45594000000E+02  0.51100000000E-03 0. -1.
         11   -1    0    0    0    0 -0.00000000000E+00 -0.00000000000E+00 -0.45593999997E+02  0.45594000000E+02  0.51100000000E-03 0.  1.
    9900012    2    1    2    0    0  0.38802873319E+00 -0.36864658561E+00  0.10519545500E+01  0.90007714027E+02  0.89999975052E+02 0.  0.
        -12    1    1    2    0    0 -0.38802873319E+00  0.36864658561E+00 -0.10519545500E+01  0.11802859730E+01  0.00000000000E+00 0.  1.
         11    1    3    3    0    0  0.19929527700E+01  0.16604535074E+02  0.18892929136E+01  0.16830088346E+02  0.51100000000E-03 0. -1.
        -11    1    3    3    0    0  0.11711885013E+02  0.13318219634E+02 -0.26094036101E+02  0.31550625114E+02  0.51100000000E-03 0.  1.
         12    1    3    3    0    0 -0.13316809050E+02 -0.30291401294E+02  0.25256697737E+02  0.41627000567E+02  0.00000000000E+00 0. -1.
</event>
<event>
 7    1  0.2542335E-015  0.9000809E+02  0.7816164E-02  0.1186338E+00
        -11   -1    0    0    0    0  0.00000000000E+00  0.00000000000E+00  0.45593999997E+02  0.45594000000E+02  0.51100000000E-03 0. -1.
         11   -1    0    0    0    0 -0.00000000000E+00 -0.00000000000E+00 -0.45593999997E+02  0.45594000000E+02  0.51100000000E-03 0.  1.
    9900012    2    1    2    0    0 -0.10421120281E+01  0.30418430575E+00  0.46224529833E+00  0.90008086322E+02  0.90000352261E+02 0.  0.
        -12    1    1    2    0    0  0.10421120281E+01 -0.30418430575E+00 -0.46224529833E+00  0.11799136777E+01  0.00000000000E+00 0.  1.
         11    1    3    3    0    0  0.28310005545E+02 -0.22353754326E+02  0.74980669226E+00  0.36079203937E+02  0.51100000000E-03 0. -1.
        -11    1    3    3    0    0  0.54640808439E+01 -0.78117458997E+00  0.93573543779E+01  0.10863999927E+02  0.51100000000E-03 0.  1.
        -12    1    3    3    0    0 -0.34816198417E+02  0.23439113222E+02 -0.96449157718E+01  0.43064882457E+02  0.00000000000E+00 0.  1.
</event>
<event>
 7    1  0.2542335E-015  0.9000767E+02  0.7816164E-02  0.1186339E+00
        -11   -1    0    0    0    0  0.00000000000E+00  0.00000000000E+00  0.45593999997E+02  0.45594000000E+02  0.51100000000E-03 0.  1.
         11   -1    0    0    0    0 -0.00000000000E+00 -0.00000000000E+00 -0.45593999997E+02  0.45594000000E+02  0.51100000000E-03 0. -1.
    9900012    2    1    2    0    0  0.83204235377E+00  0.27922544438E-01 -0.83672876318E+00  0.90007665653E+02  0.89999926040E+02 0.  0.
        -12    1    1    2    0    0 -0.83204235377E+00 -0.27922544438E-01  0.83672876318E+00  0.11803343467E+01  0.00000000000E+00 0.  1.
         11    1    3    3    0    0  0.48860770687E+01 -0.30869409322E+01  0.53737390060E+01  0.78917694217E+01  0.51100000000E-03 0. -1.
        -11    1    3    3    0    0 -0.35089031412E+02 -0.52522150332E+01  0.19921821857E+02  0.40690353581E+02  0.51100000000E-03 0.  1.
         12    1    3    3    0    0  0.31034996697E+02  0.83670785098E+01 -0.26132289627E+02  0.41425542650E+02  0.00000000000E+00 0. -1.
</event>
<event>
 7    1  0.2542335E-015  0.9000775E+02  0.7816164E-02  0.1186339E+00
        -11   -1    0    0    0    0  0.00000000000E+00  0.00000000000E+00  0.45593999997E+02  0.45594000000E+02  0.51100000000E-03 0.  1.
         11   -1    0    0    0    0 -0.00000000000E+00 -0.00000000000E+00 -0.45593999997E+02  0.45594000000E+02  0.51100000000E-03 0. -1.
    9900012    2    1    2    0    0 -0.10245239933E+01 -0.39275820591E+00 -0.43482930956E+00  0.90007752166E+02  0.90000013695E+02 0.  0.
        -12    1    1    2    0    0  0.10245239933E+01  0.39275820591E+00  0.43482930956E+00  0.11802478340E+01  0.00000000000E+00 0.  1.
         11    1    3    3    0    0 -0.36080710882E+01 -0.74164508368E+01  0.10465970813E+02  0.13325106578E+02  0.51100000000E-03 0. -1.
        -11    1    3    3    0    0  0.88210058389E+01  0.22385893591E+02  0.26486578150E+02  0.35783756067E+02  0.51100000000E-03 0.  1.
         12    1    3    3    0    0 -0.62374587440E+01 -0.15362200960E+02 -0.37387378273E+02  0.40898889521E+02  0.00000000000E+00 0. -1.
</event>
<event>
 7    1  0.2542335E-015  0.9000765E+02  0.7816164E-02  0.1186339E+00
        -11   -1    0    0    0    0  0.00000000000E+00  0.00000000000E+00  0.45593999997E+02  0.45594000000E+02  0.51100000000E-03 0.  1.
         11   -1    0    0    0    0 -0.00000000000E+00 -0.00000000000E+00 -0.45593999997E+02  0.45594000000E+02  0.51100000000E-03 0. -1.
    9900012    2    1    2    0    0  0.52671645556E+00 -0.81017225376E+00 -0.67780803194E+00  0.90007647072E+02  0.89999907214E+02 0.  0.
        -12    1    1    2    0    0 -0.52671645556E+00  0.81017225376E+00  0.67780803194E+00  0.11803529275E+01  0.00000000000E+00 0.  1.
         11    1    3    3    0    0  0.66364905352E+01  0.34601538570E+02  0.77908077279E+00  0.35240834910E+02  0.51100000000E-03 0. -1.
        -11    1    3    3    0    0 -0.12811034515E+01  0.94546003011E+01  0.87611507149E+00  0.95811414136E+01  0.51100000000E-03 0.  1.
        -12    1    3    3    0    0 -0.48286706281E+01 -0.44866311125E+02 -0.23330038762E+01  0.45185670749E+02  0.00000000000E+00 0.  1.
</event>
<event>
 7    1  0.2542335E-015  0.9000807E+02  0.7816164E-02  0.1186338E+00
        -11   -1    0    0    0    0  0.00000000000E+00  0.00000000000E+00  0.45593999997E+02  0.45594000000E+02  0.51100000000E-03 0. -1.
         11   -1    0    0    0    0 -0.00000000000E+00 -0.00000000000E+00 -0.45593999997E+02  0.45594000000E+02  0.51100000000E-03 0.  1.
    9900012    2    1    2    0    0  0.98631283577E+00  0.61922460634E+00 -0.18970779469E+00  0.90008067303E+02  0.90000332990E+02 0.  0.
        -12    1    1    2    0    0 -0.98631283577E+00 -0.61922460634E+00  0.18970779469E+00  0.11799326974E+01  0.00000000000E+00 0.  1.
         11    1    3    3    0    0  0.11701739443E+02 -0.69135397227E+01  0.39919515616E+02  0.42169840701E+02  0.51100000000E-03 0. -1.
        -11    1    3    3    0    0 -0.62470420300E+01  0.72870737990E+01 -0.24392689508E+01  0.99033838637E+01  0.51100000000E-03 0.  1.
        -12    1    3    3    0    0 -0.44683845769E+01  0.24569053007E+00 -0.37669954460E+02  0.37934842738E+02  0.00000000000E+00 0.  1.
</event>
<event>
 7    1  0.2542335E-015  0.9000774E+02  0.7816164E-02  0.1186339E+00
        -11   -1    0    0    0    0  0.00000000000E+00  0.00000000000E+00  0.45593999997E+02  0.45594000000E+02  0.51100000000E-03 0.  1.
         11   -1    0    0    0    0 -0.00000000000E+00 -0.00000000000E+00 -0.45593999997E+02  0.45594000000E+02  0.51100000000E-03 0. -1.
    9900012    2    1    2    0    0  0.51309498801E+00  0.24490287957E+00 -0.10342926430E+01  0.90007743605E+02  0.90000005020E+02 0.  0.
        -12    1    1    2    0    0 -0.51309498801E+00 -0.24490287957E+00  0.10342926430E+01  0.11802563952E+01  0.00000000000E+00 0.  1.
         11    1    3    3    0    0  0.17944149977E+01 -0.91568555382E+01  0.10110142802E+01  0.93856315007E+01  0.51100000000E-03 0. -1.
        -11    1    3    3    0    0 -0.67386734316E+00 -0.29800344524E+02  0.19756991402E+02  0.35761058995E+02  0.51100000000E-03 0.  1.
         12    1    3    3    0    0 -0.60745266652E+00  0.39202102941E+02 -0.21802298325E+02  0.44861053109E+02  0.00000000000E+00 0. -1.
</event>
<event>
 7    1  0.2542335E-015  0.9000776E+02  0.7816164E-02  0.1186339E+00
        -11   -1    0    0    0    0  0.00000000000E+00  0.00000000000E+00  0.45593999997E+02  0.45594000000E+02  0.51100000000E-03 0. -1.
         11   -1    0    0    0    0 -0.00000000000E+00 -0.00000000000E+00 -0.45593999997E+02  0.45594000000E+02  0.51100000000E-03 0.  1.
    9900012    2    1    2    0    0  0.36488595779E+00 -0.61123356885E+00  0.94139465339E+00  0.90007757596E+02  0.90000019197E+02 0.  0.
        -12    1    1    2    0    0 -0.36488595779E+00  0.61123356885E+00 -0.94139465339E+00  0.11802424036E+01  0.00000000000E+00 0.  1.
         11    1    3    3    0    0 -0.87727025173E+00  0.88698931379E+01 -0.57560659990E+01  0.10610226360E+02  0.51100000000E-03 0. -1.
        -11    1    3    3    0    0  0.32367697733E+02  0.18472401254E+02  0.24869475823E+01  0.37350801507E+02  0.51100000000E-03 0.  1.
         12    1    3    3    0    0 -0.31125541524E+02 -0.27953527961E+02  0.42105130701E+01  0.42046729729E+02  0.00000000000E+00 0. -1.
</event>
<event>
 7    1  0.2542335E-015  0.9000779E+02  0.7816164E-02  0.1186339E+00
        -11   -1    0    0    0    0  0.00000000000E+00  0.00000000000E+00  0.45593999997E+02  0.45594000000E+02  0.51100000000E-03 0.  1.
         11   -1    0    0    0    0 -0.00000000000E+00 -0.00000000000E+00 -0.45593999997E+02  0.45594000000E+02  0.51100000000E-03 0. -1.
    9900012    2    1    2    0    0  0.10807059908E+01 -0.12828504698E+00 -0.45662647190E+00  0.90007792295E+02  0.90000054353E+02 0.  0.
        -12    1    1    2    0    0 -0.10807059908E+01  0.12828504698E+00  0.45662647190E+00  0.11802077049E+01  0.00000000000E+00 0.  1.
         11    1    3    3    0    0  0.57011459460E+01  0.28624638415E+02  0.22770340973E+02  0.37018392966E+02  0.51100000000E-03 0. -1.
        -11    1    3    3    0    0 -0.41840832917E+01  0.85624150095E+01 -0.10711715238E+01  0.95900423608E+01  0.51100000000E-03 0.  1.
        -12    1    3    3    0    0 -0.43635666341E+00 -0.37315338471E+02 -0.22155795921E+02  0.43399356968E+02  0.00000000000E+00 0.  1.
</event>
<event>
 7    1  0.2542335E-015  0.9000769E+02  0.7816164E-02  0.1186339E+00
        -11   -1    0    0    0    0  0.00000000000E+00  0.00000000000E+00  0.45593999997E+02  0.45594000000E+02  0.51100000000E-03 0.  1.
         11   -1    0    0    0    0 -0.00000000000E+00 -0.00000000000E+00 -0.45593999997E+02  0.45594000000E+02  0.51100000000E-03 0. -1.
    9900012    2    1    2    0    0  0.21774262849E+00  0.11564286871E+01 -0.91592521976E-01  0.90007691417E+02  0.89999952144E+02 0.  0.
        -12    1    1    2    0    0 -0.21774262849E+00 -0.11564286871E+01  0.91592521976E-01  0.11803085828E+01  0.00000000000E+00 0.  1.
         11    1    3    3    0    0 -0.18314372748E+02 -0.31421780435E+02 -0.12959499278E+01  0.36392636911E+02  0.51100000000E-03 0. -1.
        -11    1    3    3    0    0  0.11424946829E+01 -0.72457518861E+01 -0.61125145577E+01  0.95482484768E+01  0.51100000000E-03 0.  1.
        -12    1    3    3    0    0  0.17389620694E+02  0.39823961008E+02  0.73168719635E+01  0.44066806029E+02  0.00000000000E+00 0.  1.
</event>
<event>
 7    1  0.2542335E-015  0.9000773E+02  0.7816164E-02  0.1186339E+00
        -11   -1    0    0    0    0  0.00000000000E+00  0.00000000000E+00  0.45593999997E+02  0.45594000000E+02  0.51100000000E-03 0.  1.
         11   -1    0    0    0    0 -0.00000000000E+00 -0.00000000000E+00 -0.45593999997E+02  0.45594000000E+02  0.51100000000E-03 0. -1.
    9900012    2    1    2    0    0  0.27021030938E-01  0.11455845416E+01 -0.28274798905E+00  0.90007728631E+02  0.89999989849E+02 0.  0.
        -12    1    1    2    0    0 -0.27021030938E-01 -0.11455845416E+01  0.28274798905E+00  0.11802713685E+01  0.00000000000E+00 0.  1.
         11    1    3    3    0    0 -0.21524871696E+02 -0.65883699661E+01 -0.30600821386E+02  0.37988642910E+02  0.51100000000E-03 0. -1.
        -11    1    3    3    0    0  0.15826452615E+01 -0.10755897316E+02 -0.52687943302E+00  0.10884470373E+02  0.51100000000E-03 0.  1.
        -12    1    3    3    0    0  0.19969247466E+02  0.18489851824E+02  0.30844952830E+02  0.41134615349E+02  0.00000000000E+00 0.  1.
</event>
<event>
 7    1  0.2542335E-015  0.9000787E+02  0.7816164E-02  0.1186339E+00
        -11   -1    0    0    0    0  0.00000000000E+00  0.00000000000E+00  0.45593999997E+02  0.45594000000E+02  0.51100000000E-03 0.  1.
         11   -1    0    0    0    0 -0.00000000000E+00 -0.00000000000E+00 -0.45593999997E+02  0.45594000000E+02  0.51100000000E-03 0. -1.
    9900012    2    1    2    0    0  0.11426728358E+00  0.99866887340E+00 -0.61831612214E+00  0.90007868076E+02  0.90000131135E+02 0.  0.
        -12    1    1    2    0    0 -0.11426728358E+00 -0.99866887340E+00  0.61831612214E+00  0.11801319239E+01  0.00000000000E+00 0.  1.
         11    1    3    3    0    0  0.64335224568E+01 -0.35318380823E+01  0.70880614108E+01  0.10203171383E+02  0.51100000000E-03 0. -1.
        -11    1    3    3    0    0 -0.32943093849E+02  0.28377254267E+02 -0.71106165388E+01  0.44057653818E+02  0.51100000000E-03 0.  1.
         12    1    3    3    0    0  0.26623838676E+02 -0.23846747312E+02 -0.59576099415E+00  0.35747042876E+02  0.00000000000E+00 0. -1.
</event>
<event>
 7    1  0.2542335E-015  0.9000787E+02  0.7816164E-02  0.1186339E+00
        -11   -1    0    0    0    0  0.00000000000E+00  0.00000000000E+00  0.45593999997E+02  0.45594000000E+02  0.51100000000E-03 0.  1.
         11   -1    0    0    0    0 -0.00000000000E+00 -0.00000000000E+00 -0.45593999997E+02  0.45594000000E+02  0.51100000000E-03 0. -1.
    9900012    2    1    2    0    0  0.28808697208E+00  0.13373518173E-01 -0.11443457933E+01  0.90007872783E+02  0.90000135903E+02 0.  0.
        -12    1    1    2    0    0 -0.28808697208E+00 -0.13373518173E-01  0.11443457933E+01  0.11801272174E+01  0.00000000000E+00 0.  1.
         11    1    3    3    0    0 -0.75737517986E+01 -0.50448039016E+01 -0.29734727730E+01  0.95735731733E+01  0.51100000000E-03 0. -1.
        -11    1    3    3    0    0  0.10183858505E+02 -0.36949443578E+02  0.16368520975E+01  0.38362112036E+02  0.51100000000E-03 0.  1.
         12    1    3    3    0    0 -0.23220197345E+01  0.42007620998E+02  0.19227488209E+00  0.42072187573E+02  0.00000000000E+00 0. -1.
</event>
<event>
 7    1  0.2542335E-015  0.9000775E+02  0.7816164E-02  0.1186339E+00
        -11   -1    0    0    0    0  0.00000000000E+00  0.00000000000E+00  0.45593999997E+02  0.45594000000E+02  0.51100000000E-03 0.  1.
         11   -1    0    0    0    0 -0.00000000000E+00 -0.00000000000E+00 -0.45593999997E+02  0.45594000000E+02  0.51100000000E-03 0. -1.
    9900012    2    1    2    0    0 -0.63377196715E+00 -0.93725177562E+00 -0.33597091692E+00  0.90007752461E+02  0.90000013993E+02 0.  0.
        -12    1    1    2    0    0  0.63377196715E+00  0.93725177562E+00  0.33597091692E+00  0.11802475394E+01  0.00000000000E+00 0.  1.
         11    1    3    3    0    0 -0.99830572519E+01  0.46548495699E+01  0.59976292322E+01  0.12541954125E+02  0.51100000000E-03 0. -1.
        -11    1    3    3    0    0 -0.15299416817E+02  0.34102852106E+01  0.29289985428E+02  0.33220557593E+02  0.51100000000E-03 0.  1.
         12    1    3    3    0    0  0.24648702102E+02 -0.90023865561E+01 -0.35623585577E+02  0.44245240742E+02  0.00000000000E+00 0. -1.
</event>
<event>
 7    1  0.2542335E-015  0.9000769E+02  0.7816164E-02  0.1186339E+00
        -11   -1    0    0    0    0  0.00000000000E+00  0.00000000000E+00  0.45593999997E+02  0.45594000000E+02  0.51100000000E-03 0. -1.
         11   -1    0    0    0    0 -0.00000000000E+00 -0.00000000000E+00 -0.45593999997E+02  0.45594000000E+02  0.51100000000E-03 0.  1.
    9900012    2    1    2    0    0  0.47517368823E+00 -0.30428145264E+00  0.10367087772E+01  0.90007685497E+02  0.89999946146E+02 0.  0.
        -12    1    1    2    0    0 -0.47517368823E+00  0.30428145264E+00 -0.10367087772E+01  0.11803145026E+01  0.00000000000E+00 0.  1.
         11    1    3    3    0    0 -0.18972314128E+02  0.35578752334E+01  0.30472286264E+02  0.36071698185E+02  0.51100000000E-03 0. -1.
        -11    1    3    3    0    0 -0.76372059046E+01 -0.81839041062E+00  0.56303698810E+01  0.95235362209E+01  0.51100000000E-03 0.  1.
        -12    1    3    3    0    0  0.27084693721E+02 -0.30437662755E+01 -0.35065947368E+02  0.44412451091E+02  0.00000000000E+00 0.  1.
</event>
<event>
 7    1  0.2542335E-015  0.9000873E+02  0.7816164E-02  0.1186337E+00
        -11   -1    0    0    0    0  0.00000000000E+00  0.00000000000E+00  0.45593999997E+02  0.45594000000E+02  0.51100000000E-03 0. -1.
         11   -1    0    0    0    0 -0.00000000000E+00 -0.00000000000E+00 -0.45593999997E+02  0.45594000000E+02  0.51100000000E-03 0.  1.
    9900012    2    1    2    0    0  0.10551190557E+01 -0.35293319293E+00  0.39095896280E+00  0.90008726083E+02  0.90001000462E+02 0.  0.
        -12    1    1    2    0    0 -0.10551190557E+01  0.35293319293E+00 -0.39095896280E+00  0.11792739169E+01  0.00000000000E+00 0.  1.
         11    1    3    3    0    0 -0.14634698717E+02 -0.31991609110E+02  0.68179818454E+01  0.35834652735E+02  0.51100000000E-03 0. -1.
        -11    1    3    3    0    0 -0.44303165699E+01 -0.75911711506E+01  0.26102762859E+01  0.91688127311E+01  0.51100000000E-03 0.  1.
        -12    1    3    3    0    0  0.20120134343E+02  0.39229847067E+02 -0.90372991685E+01  0.45005260617E+02  0.00000000000E+00 0.  1.
</event>
<event>
 7    1  0.2542335E-015  0.9000777E+02  0.7816164E-02  0.1186339E+00
        -11   -1    0    0    0    0  0.00000000000E+00  0.00000000000E+00  0.45593999997E+02  0.45594000000E+02  0.51100000000E-03 0.  1.
         11   -1    0    0    0    0 -0.00000000000E+00 -0.00000000000E+00 -0.45593999997E+02  0.45594000000E+02  0.51100000000E-03 0. -1.
    9900012    2    1    2    0    0  0.47801211734E-01 -0.40479933055E+00 -0.11076048149E+01  0.90007772954E+02  0.90000034757E+02 0.  0.
        -12    1    1    2    0    0 -0.47801211734E-01  0.40479933055E+00  0.11076048149E+01  0.11802270459E+01  0.00000000000E+00 0.  1.
         11    1    3    3    0    0 -0.27411963278E+02  0.95185060996E+01 -0.16303991326E+02  0.33284197790E+02  0.51100000000E-03 0. -1.
        -11    1    3    3    0    0 -0.11033447485E+02  0.20655244410E+01 -0.41978500697E+01  0.11984377334E+02  0.51100000000E-03 0.  1.
        -12    1    3    3    0    0  0.38493211975E+02 -0.11988829871E+02  0.19394236580E+02  0.44739197829E+02  0.00000000000E+00 0.  1.
</event>
<event>
 7    1  0.2542335E-015  0.9000772E+02  0.7816164E-02  0.1186339E+00
        -11   -1    0    0    0    0  0.00000000000E+00  0.00000000000E+00  0.45593999997E+02  0.45594000000E+02  0.51100000000E-03 0. -1.
         11   -1    0    0    0    0 -0.00000000000E+00 -0.00000000000E+00 -0.45593999997E+02  0.45594000000E+02  0.51100000000E-03 0.  1.
    9900012    2    1    2    0    0 -0.89274432574E+00 -0.73717012441E+00 -0.22944056426E+00  0.90007722407E+02  0.89999983543E+02 0.  0.
        -12    1    1    2    0    0  0.89274432574E+00  0.73717012441E+00  0.22944056426E+00  0.11802775928E+01  0.00000000000E+00 0.  1.
         11    1    3    3    0    0  0.44237271792E+01  0.28858002129E+01  0.86544582591E+01  0.10138878293E+02  0.51100000000E-03 0. -1.
        -11    1    3    3    0    0 -0.40003578758E+02  0.74288710819E+01 -0.14164698411E+02  0.43082631307E+02  0.51100000000E-03 0.  1.
         12    1    3    3    0    0  0.34687107254E+02 -0.11051841419E+02  0.52807995874E+01  0.36786212807E+02  0.00000000000E+00 0. -1.
</event>
<event>
 7    1  0.2542335E-015  0.9000897E+02  0.7816164E-02  0.1186337E+00
        -11   -1    0    0    0    0  0.00000000000E+00  0.00000000000E+00  0.45593999997E+02  0.45594000000E+02  0.51100000000E-03 0.  1.
         11   -1    0    0    0    0 -0.00000000000E+00 -0.00000000000E+00 -0.45593999997E+02  0.45594000000E+02  0.51100000000E-03 0. -1.
    9900012    2    1    2    0    0 -0.28119385482E+00  0.72785220683E+00 -0.88389902675E+00  0.90008968063E+02  0.90001245633E+02 0.  0.
        -12    1    1    2    0    0  0.28119385482E+00 -0.72785220683E+00  0.88389902675E+00  0.11790319370E+01  0.00000000000E+00 0.  1.
         11    1    3    3    0    0 -0.12044643380E+01 -0.30572542273E+01 -0.38047620363E+02  0.38189251803E+02  0.51100000000E-03 0. -1.
        -11    1    3    3    0    0  0.22481003599E+01 -0.75939883060E+01 -0.41541187849E+01  0.89431156070E+01  0.51100000000E-03 0.  1.
        -12    1    3    3    0    0 -0.13248298767E+01  0.11379094740E+02  0.41317840121E+02  0.42876600653E+02  0.00000000000E+00 0.  1.
</event>
<event>
 7    1  0.2542335E-015  0.9000865E+02  0.7816164E-02  0.1186337E+00
        -11   -1    0    0    0    0  0.00000000000E+00  0.00000000000E+00  0.45593999997E+02  0.45594000000E+02  0.51100000000E-03 0.  1.
         11   -1    0    0    0    0 -0.00000000000E+00 -0.00000000000E+00 -0.45593999997E+02  0.45594000000E+02  0.51100000000E-03 0. -1.
    9900012    2    1    2    0    0 -0.99795616124E+00 -0.46225458891E+00 -0.42576384329E+00  0.90008648206E+02  0.90000921557E+02 0.  0.
        -12    1    1    2    0    0  0.99795616124E+00  0.46225458891E+00  0.42576384329E+00  0.11793517944E+01  0.00000000000E+00 0.  1.
         11    1    3    3    0    0 -0.97599724051E+01 -0.15090931145E+01 -0.60255983623E+00  0.98943166512E+01  0.51100000000E-03 0. -1.
        -11    1    3    3    0    0  0.17998810704E+02 -0.36901917038E+02  0.13356327021E+00  0.41057599871E+02  0.51100000000E-03 0.  1.
         12    1    3    3    0    0 -0.92367944600E+01  0.37948755563E+02  0.43232722725E-01  0.39056731683E+02  0.00000000000E+00 0. -1.
</event>
<event>
 7    1  0.2542335E-015  0.9000774E+02  0.7816164E-02  0.1186339E+00
        -11   -1    0    0    0    0  0.00000000000E+00  0.00000000000E+00  0.45593999997E+02  0.45594000000E+02  0.51100000000E-03 0. -1.
         11   -1    0    0    0    0 -0.00000000000E+00 -0.00000000000E+00 -0.45593999997E+02  0.45594000000E+02  0.51100000000E-03 0.  1.
    9900012    2    1    2    0    0 -0.40280874417E+00 -0.55606893008E+00 -0.95997299854E+00  0.90007739140E+02  0.90000000497E+02 0.  0.
        -12    1    1    2    0    0  0.40280874417E+00  0.55606893008E+00  0.95997299854E+00  0.11802608599E+01  0.00000000000E+00 0.  1.
         11    1    3    3    0    0 -0.28544078046E+02  0.15178933163E+02 -0.19518111697E+02  0.37764018429E+02  0.51100000000E-03 0. -1.
        -11    1    3    3    0    0 -0.34006198840E+01  0.33195410849E+01 -0.62272032932E+01  0.78333664363E+01  0.51100000000E-03 0.  1.
        -12    1    3    3    0    0  0.31541889186E+02 -0.19054543178E+02  0.24785341992E+02  0.44410354274E+02  0.00000000000E+00 0.  1.
</event>
<event>
 7    1  0.2542335E-015  0.9000778E+02  0.7816164E-02  0.1186339E+00
        -11   -1    0    0    0    0  0.00000000000E+00  0.00000000000E+00  0.45593999997E+02  0.45594000000E+02  0.51100000000E-03 0.  1.
         11   -1    0    0    0    0 -0.00000000000E+00 -0.00000000000E+00 -0.45593999997E+02  0.45594000000E+02  0.51100000000E-03 0. -1.
    9900012    2    1    2    0    0  0.72343578199E+00 -0.69919673531E+00  0.61699860415E+00  0.90007778545E+02  0.90000040422E+02 0.  0.
        -12    1    1    2    0    0 -0.72343578199E+00  0.69919673531E+00 -0.61699860415E+00  0.11802214550E+01  0.00000000000E+00 0.  1.
         11    1    3    3    0    0  0.14653196440E+01  0.85259572062E+01  0.99978489719E+00  0.87085405231E+01  0.51100000000E-03 0. -1.
        -11    1    3    3    0    0 -0.13746784035E+02  0.26921622558E+02 -0.21844876878E+02  0.37295394870E+02  0.51100000000E-03 0.  1.
         12    1    3    3    0    0  0.13004900173E+02 -0.36146776499E+02  0.21462090585E+02  0.44003843151E+02  0.00000000000E+00 0. -1.
</event>
<event>
 7    1  0.2542335E-015  0.9000773E+02  0.7816164E-02  0.1186339E+00
        -11   -1    0    0    0    0  0.00000000000E+00  0.00000000000E+00  0.45593999997E+02  0.45594000000E+02  0.51100000000E-03 0.  1.
         11   -1    0    0    0    0 -0.00000000000E+00 -0.00000000000E+00 -0.45593999997E+02  0.45594000000E+02  0.51100000000E-03 0. -1.
    9900012    2    1    2    0    0  0.29209500913E+00  0.52009159268E+00 -0.10184447700E+01  0.90007726935E+02  0.89999988130E+02 0.  0.
        -12    1    1    2    0    0 -0.29209500913E+00 -0.52009159268E+00  0.10184447700E+01  0.11802730653E+01  0.00000000000E+00 0.  1.
         11    1    3    3    0    0 -0.69125535283E+01  0.44054376488E+01 -0.27799577661E+00  0.82017412220E+01  0.51100000000E-03 0. -1.
        -11    1    3    3    0    0  0.17762595772E+02  0.22688583299E+02  0.28767204022E+02  0.40716503389E+02  0.51100000000E-03 0.  1.
         12    1    3    3    0    0 -0.10557947235E+02 -0.26573929356E+02 -0.29507653015E+02  0.41089482324E+02  0.00000000000E+00 0. -1.
</event>
<event>
 7    1  0.2542335E-015  0.9000773E+02  0.7816164E-02  0.1186339E+00
        -11   -1    0    0    0    0  0.00000000000E+00  0.00000000000E+00  0.45593999997E+02  0.45594000000E+02  0.51100000000E-03 0. -1.
         11   -1    0    0    0    0 -0.00000000000E+00 -0.00000000000E+00 -0.45593999997E+02  0.45594000000E+02  0.51100000000E-03 0.  1.
    9900012    2    1    2    0    0  0.39065119994E-01 -0.34227109049E+00  0.11288740517E+01  0.90007732146E+02  0.89999993410E+02 0.  0.
        -12    1    1    2    0    0 -0.39065119994E-01  0.34227109049E+00 -0.11288740517E+01  0.11802678542E+01  0.00000000000E+00 0.  1.
         11    1    3    3    0    0 -0.33158100681E+02  0.14141552197E+02 -0.22793313246E+01  0.36119779773E+02  0.51100000000E-03 0. -1.
        -11    1    3    3    0    0 -0.22730973972E+01  0.79878366866E+01 -0.67327854902E+01  0.10691253782E+02  0.51100000000E-03 0.  1.
        -12    1    3    3    0    0  0.35470263199E+02 -0.22471659974E+02  0.10140990866E+02  0.43196698591E+02  0.00000000000E+00 0.  1.
</event>
<event>
 7    1  0.2542335E-015  0.9000771E+02  0.7816164E-02  0.1186339E+00
        -11   -1    0    0    0    0  0.00000000000E+00  0.00000000000E+00  0.45593999997E+02  0.45594000000E+02  0.51100000000E-03 0. -1.
         11   -1    0    0    0    0 -0.00000000000E+00 -0.00000000000E+00 -0.45593999997E+02  0.45594000000E+02  0.51100000000E-03 0.  1.
    9900012    2    1    2    0    0  0.27175311666E-01 -0.52589750698E+00  0.10563081458E+01  0.90007706145E+02  0.89999967066E+02 0.  0.
        -12    1    1    2    0    0 -0.27175311666E-01  0.52589750698E+00 -0.10563081458E+01  0.11802938551E+01  0.00000000000E+00 0.  1.
         11    1    3    3    0    0 -0.18884405558E+02 -0.35421971758E+02  0.58373286150E+01  0.40563669239E+02  0.51100000000E-03 0. -1.
        -11    1    3    3    0    0 -0.42579703283E+01  0.29644380395E+01 -0.83503928650E+01  0.98309341096E+01  0.51100000000E-03 0.  1.
        -12    1    3    3    0    0  0.23169551198E+02  0.31931636211E+02  0.35693723958E+01  0.39613102796E+02  0.00000000000E+00 0.  1.
</event>
<event>
 7    1  0.2542335E-015  0.9000782E+02  0.7816164E-02  0.1186339E+00
        -11   -1    0    0    0    0  0.00000000000E+00  0.00000000000E+00  0.45593999997E+02  0.45594000000E+02  0.51100000000E-03 0. -1.
         11   -1    0    0    0    0 -0.00000000000E+00 -0.00000000000E+00 -0.45593999997E+02  0.45594000000E+02  0.51100000000E-03 0.  1.
    9900012    2    1    2    0    0  0.62265651210E+00  0.10012267359E+01 -0.51715252284E-01  0.90007817567E+02  0.90000079958E+02 0.  0.
        -12    1    1    2    0    0 -0.62265651210E+00 -0.10012267359E+01  0.51715252284E-01  0.11801824334E+01  0.00000000000E+00 0.  1.
         11    1    3    3    0    0  0.33367629289E+01 -0.84958612414E+01 -0.86486438084E+00  0.91685132784E+01  0.51100000000E-03 0. -1.
        -11    1    3    3    0    0  0.15397937287E+02 -0.16291330270E+02 -0.29541926378E+02  0.37084084579E+02  0.51100000000E-03 0.  1.
         12    1    3    3    0    0 -0.18112043704E+02  0.25788418248E+02  0.30355075506E+02  0.43755219710E+02  0.00000000000E+00 0. -1.
</event>
<event>
 7    1  0.2542335E-015  0.9000772E+02  0.7816164E-02  0.1186339E+00
        -11   -1    0    0    0    0  0.00000000000E+00  0.00000000000E+00  0.45593999997E+02  0.45594000000E+02  0.51100000000E-03 0.  1.
         11   -1    0    0    0    0 -0.00000000000E+00 -0.00000000000E+00 -0.45593999997E+02  0.45594000000E+02  0.51100000000E-03 0. -1.
    9900012    2    1    2    0    0 -0.20547773660E+00  0.19361446923E+00 -0.11460137829E+01  0.90007722383E+02  0.89999983518E+02 0.  0.
        -12    1    1    2    0    0  0.20547773660E+00 -0.19361446923E+00  0.11460137829E+01  0.11802776171E+01  0.00000000000E+00 0.  1.
         11    1    3    3    0    0  0.10853434796E+02  0.62995822096E+01 -0.10850157181E+01  0.12595993103E+02  0.51100000000E-03 0. -1.
        -11    1    3    3    0    0  0.27222287523E+02 -0.22832672786E+02  0.19871405844E+01  0.35585567475E+02  0.51100000000E-03 0.  1.
         12    1    3    3    0    0 -0.38281200056E+02  0.16726705046E+02 -0.20481386491E+01  0.41826161805E+02  0.00000000000E+00 0. -1.
</event>
<event>
 7    1  0.2542335E-015  0.9000778E+02  0.7816164E-02  0.1186339E+00
        -11   -1    0    0    0    0  0.00000000000E+00  0.00000000000E+00  0.45593999997E+02  0.45594000000E+02  0.51100000000E-03 0. -1.
         11   -1    0    0    0    0 -0.00000000000E+00 -0.00000000000E+00 -0.45593999997E+02  0.45594000000E+02  0.51100000000E-03 0.  1.
    9900012    2    1    2    0    0  0.10348726187E+01  0.56358649591E+00 -0.65724689495E-01  0.90007783575E+02  0.90000045518E+02 0.  0.
        -12    1    1    2    0    0 -0.10348726187E+01 -0.56358649591E+00  0.65724689495E-01  0.11802164251E+01  0.00000000000E+00 0.  1.
         11    1    3    3    0    0 -0.83378088852E+01 -0.52742638642E+01 -0.69469330862E+01  0.12066349733E+02  0.51100000000E-03 0. -1.
        -11    1    3    3    0    0 -0.81683751497E+00 -0.16500461486E+02 -0.29640663813E+02  0.33933779693E+02  0.51100000000E-03 0.  1.
         12    1    3    3    0    0  0.10189519019E+02  0.22338311846E+02  0.36521872209E+02  0.44007654148E+02  0.00000000000E+00 0. -1.
</event>
<event>
 7    1  0.2542335E-015  0.9000773E+02  0.7816164E-02  0.1186339E+00
        -11   -1    0    0    0    0  0.00000000000E+00  0.00000000000E+00  0.45593999997E+02  0.45594000000E+02  0.51100000000E-03 0. -1.
         11   -1    0    0    0    0 -0.00000000000E+00 -0.00000000000E+00 -0.45593999997E+02  0.45594000000E+02  0.51100000000E-03 0.  1.
    9900012    2    1    2    0    0  0.55456154999E+00  0.57898626205E+00  0.86618350908E+00  0.90007729914E+02  0.89999991149E+02 0.  0.
        -12    1    1    2    0    0 -0.55456154999E+00 -0.57898626205E+00 -0.86618350908E+00  0.11802700859E+01  0.00000000000E+00 0.  1.
         11    1    3    3    0    0  0.19958188707E+02 -0.10457874568E+02  0.11253894074E+02  0.25186237691E+02  0.51100000000E-03 0. -1.
        -11    1    3    3    0    0  0.17194978333E+02  0.19919489336E+02 -0.47817821707E+01  0.26745444028E+02  0.51100000000E-03 0.  1.
         12    1    3    3    0    0 -0.36598605490E+02 -0.88826285056E+01 -0.56059283947E+01  0.38076048195E+02  0.00000000000E+00 0. -1.
</event>
<event>
 7    1  0.2542335E-015  0.9000771E+02  0.7816164E-02  0.1186339E+00
        -11   -1    0    0    0    0  0.00000000000E+00  0.00000000000E+00  0.45593999997E+02  0.45594000000E+02  0.51100000000E-03 0.  1.
         11   -1    0    0    0    0 -0.00000000000E+00 -0.00000000000E+00 -0.45593999997E+02  0.45594000000E+02  0.51100000000E-03 0. -1.
    9900012    2    1    2    0    0  0.81473724891E+00 -0.29885709417E+00 -0.79997838144E+00  0.90007712849E+02  0.89999973859E+02 0.  0.
        -12    1    1    2    0    0 -0.81473724891E+00  0.29885709417E+00  0.79997838144E+00  0.11802871508E+01  0.00000000000E+00 0.  1.
         11    1    3    3    0    0  0.63288270229E+01 -0.19337448929E+01 -0.93960441674E+01  0.11492565730E+02  0.51100000000E-03 0. -1.
        -11    1    3    3    0    0 -0.11270495008E+02 -0.20265067486E+02  0.36089693264E+02  0.42897120860E+02  0.51100000000E-03 0.  1.
         12    1    3    3    0    0  0.57564052344E+01  0.21899955285E+02 -0.27493627478E+02  0.35618026259E+02  0.00000000000E+00 0. -1.
</event>
<event>
 7    1  0.2542335E-015  0.9000767E+02  0.7816164E-02  0.1186339E+00
        -11   -1    0    0    0    0  0.00000000000E+00  0.00000000000E+00  0.45593999997E+02  0.45594000000E+02  0.51100000000E-03 0.  1.
         11   -1    0    0    0    0 -0.00000000000E+00 -0.00000000000E+00 -0.45593999997E+02  0.45594000000E+02  0.51100000000E-03 0. -1.
    9900012    2    1    2    0    0 -0.43996354981E+00  0.45084620273E+00 -0.99817191792E+00  0.90007670639E+02  0.89999931091E+02 0.  0.
        -12    1    1    2    0    0  0.43996354981E+00 -0.45084620273E+00  0.99817191792E+00  0.11803293614E+01  0.00000000000E+00 0.  1.
         11    1    3    3    0    0 -0.30550693686E+02  0.15710934097E+02  0.95897274807E+01  0.35667088588E+02  0.51100000000E-03 0. -1.
        -11    1    3    3    0    0 -0.86863738271E+01 -0.29711883640E+01  0.53598765227E+01  0.10630584516E+02  0.51100000000E-03 0.  1.
        -12    1    3    3    0    0  0.38797103964E+02 -0.12288899530E+02 -0.15947775921E+02  0.43709997534E+02  0.00000000000E+00 0.  1.
</event>
<event>
 7    1  0.2542335E-015  0.9000773E+02  0.7816164E-02  0.1186339E+00
        -11   -1    0    0    0    0  0.00000000000E+00  0.00000000000E+00  0.45593999997E+02  0.45594000000E+02  0.51100000000E-03 0.  1.
         11   -1    0    0    0    0 -0.00000000000E+00 -0.00000000000E+00 -0.45593999997E+02  0.45594000000E+02  0.51100000000E-03 0. -1.
    9900012    2    1    2    0    0 -0.18894614739E+00  0.52065787155E+00 -0.10422378124E+01  0.90007726759E+02  0.89999987952E+02 0.  0.
        -12    1    1    2    0    0  0.18894614739E+00 -0.52065787155E+00  0.10422378124E+01  0.11802732410E+01  0.00000000000E+00 0.  1.
         11    1    3    3    0    0 -0.17751130519E+02  0.16097823131E+02  0.28094183309E+02  0.36925948604E+02  0.51100000000E-03 0. -1.
        -11    1    3    3    0    0 -0.12636229357E+01 -0.51741210184E+01  0.83259553340E+01  0.98838152411E+01  0.51100000000E-03 0.  1.
        -12    1    3    3    0    0  0.18825807307E+02 -0.10403044241E+02 -0.37462376455E+02  0.43197962914E+02  0.00000000000E+00 0.  1.
</event>
<event>
 7    1  0.2542335E-015  0.9000774E+02  0.7816164E-02  0.1186339E+00
        -11   -1    0    0    0    0  0.00000000000E+00  0.00000000000E+00  0.45593999997E+02  0.45594000000E+02  0.51100000000E-03 0. -1.
         11   -1    0    0    0    0 -0.00000000000E+00 -0.00000000000E+00 -0.45593999997E+02  0.45594000000E+02  0.51100000000E-03 0.  1.
    9900012    2    1    2    0    0  0.27974959534E+00 -0.72389669692E+00 -0.88923078550E+00  0.90007738311E+02  0.89999999657E+02 0.  0.
        -12    1    1    2    0    0 -0.27974959534E+00  0.72389669692E+00  0.88923078550E+00  0.11802616887E+01  0.00000000000E+00 0.  1.
         11    1    3    3    0    0  0.20199698977E+02 -0.14100589825E+02  0.28367999636E+02  0.37571237347E+02  0.51100000000E-03 0. -1.
        -11    1    3    3    0    0  0.25854071732E+01 -0.10078101147E+02 -0.35479697855E+01  0.10992749558E+02  0.51100000000E-03 0.  1.
        -12    1    3    3    0    0 -0.22505356555E+02  0.23454794275E+02 -0.25709260636E+02  0.41443751406E+02  0.00000000000E+00 0.  1.
</event>
<event>
 7    1  0.2542335E-015  0.9000809E+02  0.7816164E-02  0.1186338E+00
        -11   -1    0    0    0    0  0.00000000000E+00  0.00000000000E+00  0.45593999997E+02  0.45594000000E+02  0.51100000000E-03 0.  1.
         11   -1    0    0    0    0 -0.00000000000E+00 -0.00000000000E+00 -0.45593999997E+02  0.45594000000E+02  0.51100000000E-03 0. -1.
    9900012    2    1    2    0    0  0.10717752158E+01  0.46567148480E+00 -0.16321090223E+00  0.90008089053E+02  0.90000355028E+02 0.  0.
        -12    1    1    2    0    0 -0.10717752158E+01 -0.46567148480E+00  0.16321090223E+00  0.11799109473E+01  0.00000000000E+00 0.  1.
         11    1    3    3    0    0  0.27429943730E+01  0.90319951081E+01 -0.32496049415E+01  0.99830299158E+01  0.51100000000E-03 0. -1.
        -11    1    3    3    0    0  0.22779466291E+02  0.23560684171E+02  0.17505480810E+02  0.37154431523E+02  0.51100000000E-03 0.  1.
         12    1    3    3    0    0 -0.24450685448E+02 -0.32127007795E+02 -0.14419086771E+02  0.42870627614E+02  0.00000000000E+00 0. -1.
</event>
<event>
 7    1  0.2542335E-015  0.9000768E+02  0.7816164E-02  0.1186339E+00
        -11   -1    0    0    0    0  0.00000000000E+00  0.00000000000E+00  0.45593999997E+02  0.45594000000E+02  0.51100000000E-03 0. -1.
         11   -1    0    0    0    0 -0.00000000000E+00 -0.00000000000E+00 -0.45593999997E+02  0.45594000000E+02  0.51100000000E-03 0.  1.
    9900012    2    1    2    0    0  0.10359441689E+01 -0.12394872244E+00  0.55192531370E+00  0.90007675825E+02  0.89999936346E+02 0.  0.
        -12    1    1    2    0    0 -0.10359441689E+01  0.12394872244E+00 -0.55192531370E+00  0.11803241753E+01  0.00000000000E+00 0.  1.
         11    1    3    3    0    0 -0.33308128160E+02 -0.25570668693E+01  0.17154313755E+02  0.37553168617E+02  0.51100000000E-03 0. -1.
        -11    1    3    3    0    0  0.12599718017E+02 -0.16403810810E+02 -0.41012275385E+01  0.21086914681E+02  0.51100000000E-03 0.  1.
        -12    1    3    3    0    0  0.21744354312E+02  0.18836928957E+02 -0.12501160903E+02  0.31367592526E+02  0.00000000000E+00 0.  1.
</event>
<event>
 7    1  0.2542335E-015  0.9000774E+02  0.7816164E-02  0.1186339E+00
        -11   -1    0    0    0    0  0.00000000000E+00  0.00000000000E+00  0.45593999997E+02  0.45594000000E+02  0.51100000000E-03 0. -1.
         11   -1    0    0    0    0 -0.00000000000E+00 -0.00000000000E+00 -0.45593999997E+02  0.45594000000E+02  0.51100000000E-03 0.  1.
    9900012    2    1    2    0    0 -0.93750476253E+00 -0.44784354957E+00 -0.55993259447E+00  0.90007744293E+02  0.90000005717E+02 0.  0.
        -12    1    1    2    0    0  0.93750476253E+00  0.44784354957E+00  0.55993259447E+00  0.11802557075E+01  0.00000000000E+00 0.  1.
         11    1    3    3    0    0  0.21625618390E+02  0.27448362971E+02  0.56345112924E+01  0.35395306444E+02  0.51100000000E-03 0. -1.
        -11    1    3    3    0    0  0.54216688396E+01  0.73859796148E+01 -0.20516716936E+01  0.93891716821E+01  0.51100000000E-03 0.  1.
        -12    1    3    3    0    0 -0.27984791992E+02 -0.35282186135E+02 -0.41427721933E+01  0.45223266166E+02  0.00000000000E+00 0.  1.
</event>
<event>
 7    1  0.2542335E-015  0.9000770E+02  0.7816164E-02  0.1186339E+00
        -11   -1    0    0    0    0  0.00000000000E+00  0.00000000000E+00  0.45593999997E+02  0.45594000000E+02  0.51100000000E-03 0. -1.
         11   -1    0    0    0    0 -0.00000000000E+00 -0.00000000000E+00 -0.45593999997E+02  0.45594000000E+02  0.51100000000E-03 0.  1.
    9900012    2    1    2    0    0 -0.92765473684E+00 -0.25496004297E+00  0.68378254803E+00  0.90007700670E+02  0.89999961519E+02 0.  0.
        -12    1    1    2    0    0  0.92765473684E+00  0.25496004297E+00 -0.68378254803E+00  0.11802993295E+01  0.00000000000E+00 0.  1.
         11    1    3    3    0    0  0.42319638648E+01  0.66181116812E+01 -0.13932487528E+02  0.15994471838E+02  0.51100000000E-03 0. -1.
        -11    1    3    3    0    0 -0.16424788095E+02 -0.23806817030E+02 -0.19083724132E+02  0.34651503980E+02  0.51100000000E-03 0.  1.
         12    1    3    3    0    0  0.11265169494E+02  0.16933745305E+02  0.33699994208E+02  0.39361724853E+02  0.00000000000E+00 0. -1.
</event>
<event>
 7    1  0.2542335E-015  0.9000772E+02  0.7816164E-02  0.1186339E+00
        -11   -1    0    0    0    0  0.00000000000E+00  0.00000000000E+00  0.45593999997E+02  0.45594000000E+02  0.51100000000E-03 0. -1.
         11   -1    0    0    0    0 -0.00000000000E+00 -0.00000000000E+00 -0.45593999997E+02  0.45594000000E+02  0.51100000000E-03 0.  1.
    9900012    2    1    2    0    0 -0.11438512149E+01  0.17245983147E+00 -0.23435520082E+00  0.90007720222E+02  0.89999981328E+02 0.  0.
        -12    1    1    2    0    0  0.11438512149E+01 -0.17245983147E+00  0.23435520082E+00  0.11802797784E+01  0.00000000000E+00 0.  1.
         11    1    3    3    0    0  0.34314000932E+02 -0.78761095777E+01  0.19123699132E+02  0.40064942665E+02  0.51100000000E-03 0. -1.
        -11    1    3    3    0    0 -0.16068816776E+01 -0.82142207937E+01 -0.49153256915E+01  0.97064884942E+01  0.51100000000E-03 0.  1.
        -12    1    3    3    0    0 -0.33850970469E+02  0.16262790203E+02 -0.14442728642E+02  0.40236289062E+02  0.00000000000E+00 0.  1.
</event>
<event>
 7    1  0.2542335E-015  0.9000770E+02  0.7816164E-02  0.1186339E+00
        -11   -1    0    0    0    0  0.00000000000E+00  0.00000000000E+00  0.45593999997E+02  0.45594000000E+02  0.51100000000E-03 0.  1.
         11   -1    0    0    0    0 -0.00000000000E+00 -0.00000000000E+00 -0.45593999997E+02  0.45594000000E+02  0.51100000000E-03 0. -1.
    9900012    2    1    2    0    0 -0.80129616683E+00  0.25616200079E+00 -0.82789641798E+00  0.90007700463E+02  0.89999961309E+02 0.  0.
        -12    1    1    2    0    0  0.80129616683E+00 -0.25616200079E+00  0.82789641798E+00  0.11802995368E+01  0.00000000000E+00 0.  1.
         11    1    3    3    0    0 -0.11135630023E+02  0.10702449556E+01  0.10237970289E+01  0.11233692220E+02  0.51100000000E-03 0. -1.
        -11    1    3    3    0    0  0.38734329330E+02  0.19940026208E+02 -0.16956892790E+01  0.43598489380E+02  0.51100000000E-03 0.  1.
         12    1    3    3    0    0 -0.28399995474E+02 -0.20754109163E+02 -0.15600416792E+00  0.35175518864E+02  0.00000000000E+00 0. -1.
</event>
<event>
 7    1  0.2542335E-015  0.9000785E+02  0.7816164E-02  0.1186339E+00
        -11   -1    0    0    0    0  0.00000000000E+00  0.00000000000E+00  0.45593999997E+02  0.45594000000E+02  0.51100000000E-03 0.  1.
         11   -1    0    0    0    0 -0.00000000000E+00 -0.00000000000E+00 -0.45593999997E+02  0.45594000000E+02  0.51100000000E-03 0. -1.
    9900012    2    1    2    0    0  0.47368668685E+00 -0.89688528351E+00 -0.60329613465E+00  0.90007852333E+02  0.90000115184E+02 0.  0.
        -12    1    1    2    0    0 -0.47368668685E+00  0.89688528351E+00  0.60329613465E+00  0.11801476667E+01  0.00000000000E+00 0.  1.
         11    1    3    3    0    0 -0.19461306537E+01 -0.10794710505E+01  0.10388544987E+02  0.10624243477E+02  0.51100000000E-03 0. -1.
        -11    1    3    3    0    0 -0.18173615450E+02  0.34540925045E+01  0.28933117561E+02  0.34341466853E+02  0.51100000000E-03 0.  1.
         12    1    3    3    0    0  0.20593432791E+02 -0.32715067374E+01 -0.39924958682E+02  0.45042142003E+02  0.00000000000E+00 0. -1.
</event>
<event>
 7    1  0.2542335E-015  0.9000786E+02  0.7816164E-02  0.1186339E+00
        -11   -1    0    0    0    0  0.00000000000E+00  0.00000000000E+00  0.45593999997E+02  0.45594000000E+02  0.51100000000E-03 0. -1.
         11   -1    0    0    0    0 -0.00000000000E+00 -0.00000000000E+00 -0.45593999997E+02  0.45594000000E+02  0.51100000000E-03 0.  1.
    9900012    2    1    2    0    0  0.67416331218E+00 -0.42453388440E+00  0.87062854780E+00  0.90007864729E+02  0.90000127743E+02 0.  0.
        -12    1    1    2    0    0 -0.67416331218E+00  0.42453388440E+00 -0.87062854780E+00  0.11801352714E+01  0.00000000000E+00 0.  1.
         11    1    3    3    0    0  0.26487569289E+02 -0.11600111599E+02  0.20923653749E+02  0.35692481035E+02  0.51100000000E-03 0. -1.
        -11    1    3    3    0    0  0.13277593641E+01 -0.23370302913E+01  0.10757956458E+02  0.11088655596E+02  0.51100000000E-03 0.  1.
        -12    1    3    3    0    0 -0.27141165341E+02  0.13512608006E+02 -0.30810981660E+02  0.43226728098E+02  0.00000000000E+00 0.  1.
</event>
<event>
 7    1  0.2542335E-015  0.9000761E+02  0.7816164E-02  0.1186339E+00
        -11   -1    0    0    0    0  0.00000000000E+00  0.00000000000E+00  0.45593999997E+02  0.45594000000E+02  0.51100000000E-03 0. -1.
         11   -1    0    0    0    0 -0.00000000000E+00 -0.00000000000E+00 -0.45593999997E+02  0.45594000000E+02  0.51100000000E-03 0.  1.
    9900012    2    1    2    0    0 -0.40484893240E+00  0.10439855816E+01  0.37352201512E+00  0.90007607164E+02  0.89999866778E+02 0.  0.
        -12    1    1    2    0    0  0.40484893240E+00 -0.10439855816E+01 -0.37352201512E+00  0.11803928364E+01  0.00000000000E+00 0.  1.
         11    1    3    3    0    0 -0.22174248135E+02 -0.21484050500E+02  0.26338146661E+02  0.40582750967E+02  0.51100000000E-03 0. -1.
        -11    1    3    3    0    0  0.33696632836E+01 -0.64296334265E+01 -0.76014957409E+01  0.10510830339E+02  0.51100000000E-03 0.  1.
        -12    1    3    3    0    0  0.18399735919E+02  0.28957669508E+02 -0.18363128905E+02  0.38914025858E+02  0.00000000000E+00 0.  1.
</event>
<event>
 7    1  0.2542335E-015  0.9000778E+02  0.7816164E-02  0.1186339E+00
        -11   -1    0    0    0    0  0.00000000000E+00  0.00000000000E+00  0.45593999997E+02  0.45594000000E+02  0.51100000000E-03 0. -1.
         11   -1    0    0    0    0 -0.00000000000E+00 -0.00000000000E+00 -0.45593999997E+02  0.45594000000E+02  0.51100000000E-03 0.  1.
    9900012    2    1    2    0    0 -0.11635691095E+01 -0.15964928052E+00  0.11637707849E+00  0.90007777737E+02  0.90000039603E+02 0.  0.
        -12    1    1    2    0    0  0.11635691095E+01  0.15964928052E+00 -0.11637707849E+00  0.11802222629E+01  0.00000000000E+00 0.  1.
         11    1    3    3    0    0 -0.15863931261E+02 -0.89242430506E+01  0.14925162705E+02  0.23538625939E+02  0.51100000000E-03 0. -1.
        -11    1    3    3    0    0 -0.55586046937E+01  0.11748044401E+01 -0.35845787610E+02  0.36293232720E+02  0.51100000000E-03 0.  1.
         12    1    3    3    0    0  0.20258966845E+02  0.75897893300E+01  0.21037001984E+02  0.30175919078E+02  0.00000000000E+00 0. -1.
</event>
<event>
 7    1  0.2542335E-015  0.9000778E+02  0.7816164E-02  0.1186339E+00
        -11   -1    0    0    0    0  0.00000000000E+00  0.00000000000E+00  0.45593999997E+02  0.45594000000E+02  0.51100000000E-03 0.  1.
         11   -1    0    0    0    0 -0.00000000000E+00 -0.00000000000E+00 -0.45593999997E+02  0.45594000000E+02  0.51100000000E-03 0. -1.
    9900012    2    1    2    0    0  0.65399606477E+00  0.97931103595E+00  0.78403284404E-01  0.90007784751E+02  0.90000046710E+02 0.  0.
        -12    1    1    2    0    0 -0.65399606477E+00 -0.97931103595E+00 -0.78403284404E-01  0.11802152485E+01  0.00000000000E+00 0.  1.
         11    1    3    3    0    0 -0.95811261035E+01 -0.36233860785E+01  0.86711992739E+00  0.10280019519E+02  0.51100000000E-03 0. -1.
        -11    1    3    3    0    0 -0.11712873173E+02  0.14638552660E+02  0.33149449985E+02  0.38083653403E+02  0.51100000000E-03 0.  1.
         12    1    3    3    0    0  0.21947995341E+02 -0.10035855546E+02 -0.33938166628E+02  0.41644111830E+02  0.00000000000E+00 0. -1.
</event>
<event>
 7    1  0.2542335E-015  0.9000773E+02  0.7816164E-02  0.1186339E+00
        -11   -1    0    0    0    0  0.00000000000E+00  0.00000000000E+00  0.45593999997E+02  0.45594000000E+02  0.51100000000E-03 0. -1.
         11   -1    0    0    0    0 -0.00000000000E+00 -0.00000000000E+00 -0.45593999997E+02  0.45594000000E+02  0.51100000000E-03 0.  1.
    9900012    2    1    2    0    0 -0.42725206810E+00 -0.58602865490E+00  0.93115603885E+00  0.90007734995E+02  0.89999996297E+02 0.  0.
        -12    1    1    2    0    0  0.42725206810E+00  0.58602865490E+00 -0.93115603885E+00  0.11802650053E+01  0.00000000000E+00 0.  1.
         11    1    3    3    0    0  0.31256349634E+02 -0.58235297290E+00 -0.35010081167E+01  0.31457202442E+02  0.51100000000E-03 0. -1.
        -11    1    3    3    0    0  0.99610990127E+01  0.11183094352E+02  0.36857209143E+01  0.15423022783E+02  0.51100000000E-03 0.  1.
        -12    1    3    3    0    0 -0.41644700715E+02 -0.11186770034E+02  0.74644324124E+00  0.43127509770E+02  0.00000000000E+00 0.  1.
</event>
<event>
 7    1  0.2542335E-015  0.9000775E+02  0.7816164E-02  0.1186339E+00
        -11   -1    0    0    0    0  0.00000000000E+00  0.00000000000E+00  0.45593999997E+02  0.45594000000E+02  0.51100000000E-03 0. -1.
         11   -1    0    0    0    0 -0.00000000000E+00 -0.00000000000E+00 -0.45593999997E+02  0.45594000000E+02  0.51100000000E-03 0.  1.
    9900012    2    1    2    0    0  0.56032695955E+00 -0.67573285797E+00 -0.78893227478E+00  0.90007747768E+02  0.90000009239E+02 0.  0.
        -12    1    1    2    0    0 -0.56032695955E+00  0.67573285797E+00  0.78893227478E+00  0.11802522320E+01  0.00000000000E+00 0.  1.
         11    1    3    3    0    0 -0.20201371385E+01 -0.58017120471E+01  0.81906675552E+01  0.10238547358E+02  0.51100000000E-03 0. -1.
        -11    1    3    3    0    0  0.37985356134E+02  0.11390521520E+02  0.72625628087E+01  0.40315953169E+02  0.51100000000E-03 0.  1.
         12    1    3    3    0    0 -0.35404892036E+02 -0.62645423307E+01 -0.16242162639E+02  0.39453247241E+02  0.00000000000E+00 0. -1.
</event>
<event>
 7    1  0.2542335E-015  0.9000774E+02  0.7816164E-02  0.1186339E+00
        -11   -1    0    0    0    0  0.00000000000E+00  0.00000000000E+00  0.45593999997E+02  0.45594000000E+02  0.51100000000E-03 0.  1.
         11   -1    0    0    0    0 -0.00000000000E+00 -0.00000000000E+00 -0.45593999997E+02  0.45594000000E+02  0.51100000000E-03 0. -1.
    9900012    2    1    2    0    0 -0.89471193836E+00 -0.73813118340E+00 -0.21832550959E+00  0.90007740230E+02  0.90000001601E+02 0.  0.
        -12    1    1    2    0    0  0.89471193836E+00  0.73813118340E+00  0.21832550959E+00  0.11802597700E+01  0.00000000000E+00 0.  1.
         11    1    3    3    0    0 -0.69240785812E+01  0.50290590686E+01  0.72215015832E+00  0.85881197259E+01  0.51100000000E-03 0. -1.
        -11    1    3    3    0    0  0.32455898843E+02 -0.54296834307E+01  0.27288681544E+02  0.42749724824E+02  0.51100000000E-03 0.  1.
         12    1    3    3    0    0 -0.26426532200E+02 -0.33750682121E+00 -0.28229157212E+02  0.38669895680E+02  0.00000000000E+00 0. -1.
</event>
<event>
 7    1  0.2650100E-015  0.9000777E+02  0.7816164E-02  0.1186339E+00
        -11   -1    0    0    0    0  0.00000000000E+00  0.00000000000E+00  0.45593999997E+02  0.45594000000E+02  0.51100000000E-03 0.  1.
         11   -1    0    0    0    0 -0.00000000000E+00 -0.00000000000E+00 -0.45593999997E+02  0.45594000000E+02  0.51100000000E-03 0. -1.
    9900012    2    1    2    0    0  0.78240820935E+00 -0.88065508903E+00  0.72281219083E-01  0.90007770969E+02  0.90000032745E+02 0.  0.
        -12    1    1    2    0    0 -0.78240820935E+00  0.88065508903E+00 -0.72281219083E-01  0.11802290314E+01  0.00000000000E+00 0.  1.
         11    1    3    3    0    0  0.36842915830E+01  0.46778005307E+01  0.69773555267E+01  0.91727483712E+01  0.51100000000E-03 0. -1.
        -11    1    3    3    0    0  0.33237413851E+02  0.15334428928E+02 -0.12583056848E+02  0.38706636510E+02  0.51100000000E-03 0.  1.
         12    1    3    3    0    0 -0.36139297225E+02 -0.20892884548E+02  0.56779825400E+01  0.42128386087E+02  0.00000000000E+00 0. -1.
</event>
<event>
 7    1  0.2542335E-015  0.9000757E+02  0.7816164E-02  0.1186339E+00
        -11   -1    0    0    0    0  0.00000000000E+00  0.00000000000E+00  0.45593999997E+02  0.45594000000E+02  0.51100000000E-03 0.  1.
         11   -1    0    0    0    0 -0.00000000000E+00 -0.00000000000E+00 -0.45593999997E+02  0.45594000000E+02  0.51100000000E-03 0. -1.
    9900012    2    1    2    0    0  0.39655498823E+00  0.52028054647E+00 -0.98257775675E+00  0.90007573486E+02  0.89999832656E+02 0.  0.
        -12    1    1    2    0    0 -0.39655498823E+00 -0.52028054647E+00  0.98257775675E+00  0.11804265135E+01  0.00000000000E+00 0.  1.
         11    1    3    3    0    0  0.72743074780E+01 -0.43149629865E+01  0.34776196607E+01  0.91448506617E+01  0.51100000000E-03 0. -1.
        -11    1    3    3    0    0 -0.11530648001E+02 -0.66033176639E+01  0.36098207365E+02  0.38466091857E+02  0.51100000000E-03 0.  1.
         12    1    3    3    0    0  0.46528955117E+01  0.11438561197E+02 -0.40558404783E+02  0.42396630968E+02  0.00000000000E+00 0. -1.
</event>
<event>
 7    1  0.2542335E-015  0.9000776E+02  0.7816164E-02  0.1186339E+00
        -11   -1    0    0    0    0  0.00000000000E+00  0.00000000000E+00  0.45593999997E+02  0.45594000000E+02  0.51100000000E-03 0. -1.
         11   -1    0    0    0    0 -0.00000000000E+00 -0.00000000000E+00 -0.45593999997E+02  0.45594000000E+02  0.51100000000E-03 0.  1.
    9900012    2    1    2    0    0 -0.19900856088E+00  0.40856593941E+00  0.10892409837E+01  0.90007755765E+02  0.90000017341E+02 0.  0.
        -12    1    1    2    0    0  0.19900856088E+00 -0.40856593941E+00 -0.10892409837E+01  0.11802442352E+01  0.00000000000E+00 0.  1.
         11    1    3    3    0    0  0.28820496534E+01  0.21619645906E+01 -0.93814146317E+01  0.10049439877E+02  0.51100000000E-03 0. -1.
        -11    1    3    3    0    0  0.19035895713E+02  0.32550990999E+02 -0.43277378744E+00  0.37711001499E+02  0.51100000000E-03 0.  1.
         12    1    3    3    0    0 -0.22116953927E+02 -0.34304389651E+02  0.10903429403E+02  0.42247314389E+02  0.00000000000E+00 0. -1.
</event>
<event>
 7    1  0.2542335E-015  0.9000792E+02  0.7816164E-02  0.1186339E+00
        -11   -1    0    0    0    0  0.00000000000E+00  0.00000000000E+00  0.45593999997E+02  0.45594000000E+02  0.51100000000E-03 0. -1.
         11   -1    0    0    0    0 -0.00000000000E+00 -0.00000000000E+00 -0.45593999997E+02  0.45594000000E+02  0.51100000000E-03 0.  1.
    9900012    2    1    2    0    0  0.48944868607E+00  0.10728406444E+01  0.45231107082E-01  0.90007918258E+02  0.90000181979E+02 0.  0.
        -12    1    1    2    0    0 -0.48944868607E+00 -0.10728406444E+01 -0.45231107082E-01  0.11800817419E+01  0.00000000000E+00 0.  1.
         11    1    3    3    0    0 -0.24116599775E+00 -0.26204067795E+00  0.83015881370E+01  0.83092233218E+01  0.51100000000E-03 0. -1.
        -11    1    3    3    0    0 -0.20250115155E+02 -0.23325507237E+02  0.21571287084E+02  0.37675812910E+02  0.51100000000E-03 0.  1.
         12    1    3    3    0    0  0.20980729839E+02  0.24660388560E+02 -0.29827644114E+02  0.44022882026E+02  0.00000000000E+00 0. -1.
</event>
<event>
 7    1  0.2542335E-015  0.9000778E+02  0.7816164E-02  0.1186339E+00
        -11   -1    0    0    0    0  0.00000000000E+00  0.00000000000E+00  0.45593999997E+02  0.45594000000E+02  0.51100000000E-03 0. -1.
         11   -1    0    0    0    0 -0.00000000000E+00 -0.00000000000E+00 -0.45593999997E+02  0.45594000000E+02  0.51100000000E-03 0.  1.
    9900012    2    1    2    0    0  0.72521604031E+00 -0.18235104943E+00  0.91309008691E+00  0.90007778107E+02  0.90000039978E+02 0.  0.
        -12    1    1    2    0    0 -0.72521604031E+00  0.18235104943E+00 -0.91309008691E+00  0.11802218932E+01  0.00000000000E+00 0.  1.
         11    1    3    3    0    0 -0.36511253648E+01  0.68187246007E+01  0.72060254338E+01  0.10571306656E+02  0.51100000000E-03 0. -1.
        -11    1    3    3    0    0 -0.28248651390E+02 -0.87165892345E+01  0.21491530893E+02  0.36549297307E+02  0.51100000000E-03 0.  1.
         12    1    3    3    0    0  0.32624992795E+02  0.17155135844E+01 -0.27784466240E+02  0.42887174143E+02  0.00000000000E+00 0. -1.
</event>
<event>
 7    1  0.2542335E-015  0.9000773E+02  0.7816164E-02  0.1186339E+00
        -11   -1    0    0    0    0  0.00000000000E+00  0.00000000000E+00  0.45593999997E+02  0.45594000000E+02  0.51100000000E-03 0.  1.
         11   -1    0    0    0    0 -0.00000000000E+00 -0.00000000000E+00 -0.45593999997E+02  0.45594000000E+02  0.51100000000E-03 0. -1.
    9900012    2    1    2    0    0  0.81510220553E+00 -0.76660792162E+00 -0.37544965086E+00  0.90007728103E+02  0.89999989314E+02 0.  0.
        -12    1    1    2    0    0 -0.81510220553E+00  0.76660792162E+00  0.37544965086E+00  0.11802718972E+01  0.00000000000E+00 0.  1.
         11    1    3    3    0    0  0.81326229562E+01  0.26666622897E+01 -0.69248237123E+01  0.11009260993E+02  0.51100000000E-03 0. -1.
        -11    1    3    3    0    0  0.12015716055E+02  0.17224431357E+02 -0.27580433196E+02  0.34666103955E+02  0.51100000000E-03 0.  1.
         12    1    3    3    0    0 -0.19333236806E+02 -0.20657701568E+02  0.34129807257E+02  0.44332363155E+02  0.00000000000E+00 0. -1.
</event>
<event>
 7    1  0.2542335E-015  0.9000811E+02  0.7816164E-02  0.1186338E+00
        -11   -1    0    0    0    0  0.00000000000E+00  0.00000000000E+00  0.45593999997E+02  0.45594000000E+02  0.51100000000E-03 0.  1.
         11   -1    0    0    0    0 -0.00000000000E+00 -0.00000000000E+00 -0.45593999997E+02  0.45594000000E+02  0.51100000000E-03 0. -1.
    9900012    2    1    2    0    0  0.56385113539E+00  0.60480878883E+00 -0.84168188543E+00  0.90008105865E+02  0.90000372061E+02 0.  0.
        -12    1    1    2    0    0 -0.56385113539E+00 -0.60480878883E+00  0.84168188543E+00  0.11798941352E+01  0.00000000000E+00 0.  1.
         11    1    3    3    0    0  0.18210861531E+01 -0.64776955748E+01 -0.80520810212E+01  0.10493469577E+02  0.51100000000E-03 0. -1.
        -11    1    3    3    0    0 -0.19627870637E+02 -0.30115365167E+02  0.11657641609E+02  0.37790066592E+02  0.51100000000E-03 0.  1.
         12    1    3    3    0    0  0.18370635620E+02  0.37197869530E+02 -0.44472424732E+01  0.41724569696E+02  0.00000000000E+00 0. -1.
</event>
<event>
 7    1  0.2542335E-015  0.9000765E+02  0.7816164E-02  0.1186339E+00
        -11   -1    0    0    0    0  0.00000000000E+00  0.00000000000E+00  0.45593999997E+02  0.45594000000E+02  0.51100000000E-03 0.  1.
         11   -1    0    0    0    0 -0.00000000000E+00 -0.00000000000E+00 -0.45593999997E+02  0.45594000000E+02  0.51100000000E-03 0. -1.
    9900012    2    1    2    0    0  0.10772249545E+01 -0.47544660129E+00  0.82239715269E-01  0.90007649864E+02  0.89999910042E+02 0.  0.
        -12    1    1    2    0    0 -0.10772249545E+01  0.47544660129E+00 -0.82239715269E-01  0.11803501362E+01  0.00000000000E+00 0.  1.
         11    1    3    3    0    0 -0.14151322197E+02 -0.22768735937E+02 -0.23826906470E+02  0.35866373225E+02  0.51100000000E-03 0. -1.
        -11    1    3    3    0    0 -0.17473716159E+01 -0.60318881596E+01 -0.66513116817E+01  0.91475094797E+01  0.51100000000E-03 0.  1.
        -12    1    3    3    0    0  0.16975918768E+02  0.28325177496E+02  0.30560457867E+02  0.44993767159E+02  0.00000000000E+00 0.  1.
</event>
<event>
 7    1  0.2542335E-015  0.9000776E+02  0.7816164E-02  0.1186339E+00
        -11   -1    0    0    0    0  0.00000000000E+00  0.00000000000E+00  0.45593999997E+02  0.45594000000E+02  0.51100000000E-03 0. -1.
         11   -1    0    0    0    0 -0.00000000000E+00 -0.00000000000E+00 -0.45593999997E+02  0.45594000000E+02  0.51100000000E-03 0.  1.
    9900012    2    1    2    0    0 -0.11178100361E+01 -0.13582821524E+00 -0.35357345218E+00  0.90007761563E+02  0.90000023216E+02 0.  0.
        -12    1    1    2    0    0  0.11178100361E+01  0.13582821524E+00  0.35357345218E+00  0.11802384365E+01  0.00000000000E+00 0.  1.
         11    1    3    3    0    0  0.21713187661E+01  0.36084461206E+01 -0.88578222623E+01  0.98079826713E+01  0.51100000000E-03 0. -1.
        -11    1    3    3    0    0 -0.38843115596E+02 -0.16057367740E+02  0.63946642185E+01  0.42514919953E+02  0.51100000000E-03 0.  1.
         12    1    3    3    0    0  0.35553986793E+02  0.12313093404E+02  0.21095845916E+01  0.37684858939E+02  0.00000000000E+00 0. -1.
</event>
<event>
 7    1  0.3572269E-015  0.9000760E+02  0.7816164E-02  0.1186339E+00
        -11   -1    0    0    0    0  0.00000000000E+00  0.00000000000E+00  0.45593999997E+02  0.45594000000E+02  0.51100000000E-03 0. -1.
         11   -1    0    0    0    0 -0.00000000000E+00 -0.00000000000E+00 -0.45593999997E+02  0.45594000000E+02  0.51100000000E-03 0.  1.
    9900012    2    1    2    0    0 -0.86445135678E+00 -0.27130848351E-01  0.80333097570E+00  0.90007596303E+02  0.89999855774E+02 0.  0.
        -12    1    1    2    0    0  0.86445135678E+00  0.27130848351E-01 -0.80333097570E+00  0.11804036969E+01  0.00000000000E+00 0.  1.
         11    1    3    3    0    0  0.70901391998E+01  0.32095938299E+01 -0.55718164152E+01  0.95716615513E+01  0.51100000000E-03 0. -1.
        -11    1    3    3    0    0 -0.37492485272E+02 -0.12672924875E+02 -0.15483549482E+02  0.42497409116E+02  0.51100000000E-03 0.  1.
         12    1    3    3    0    0  0.29537894716E+02  0.94362001964E+01  0.21858696873E+02  0.37938525635E+02  0.00000000000E+00 0. -1.
</event>
<event>
 7    1  0.2542335E-015  0.9000775E+02  0.7816164E-02  0.1186339E+00
        -11   -1    0    0    0    0  0.00000000000E+00  0.00000000000E+00  0.45593999997E+02  0.45594000000E+02  0.51100000000E-03 0. -1.
         11   -1    0    0    0    0 -0.00000000000E+00 -0.00000000000E+00 -0.45593999997E+02  0.45594000000E+02  0.51100000000E-03 0.  1.
    9900012    2    1    2    0    0  0.92848899658E+00 -0.64348708113E+00  0.34179859078E+00  0.90007748452E+02  0.90000009931E+02 0.  0.
        -12    1    1    2    0    0 -0.92848899658E+00  0.64348708113E+00 -0.34179859078E+00  0.11802515482E+01  0.00000000000E+00 0.  1.
         11    1    3    3    0    0 -0.11111569094E+02 -0.37973955518E+02 -0.88793247444E+01  0.40550347391E+02  0.51100000000E-03 0. -1.
        -11    1    3    3    0    0  0.81350829871E+01 -0.44623017834E+00 -0.42145525156E+01  0.91728485078E+01  0.51100000000E-03 0.  1.
        -12    1    3    3    0    0  0.39049751033E+01  0.37776698615E+02  0.13435675851E+02  0.40284552553E+02  0.00000000000E+00 0.  1.
</event>
<event>
 7    1  0.2542335E-015  0.9000819E+02  0.7816164E-02  0.1186338E+00
        -11   -1    0    0    0    0  0.00000000000E+00  0.00000000000E+00  0.45593999997E+02  0.45594000000E+02  0.51100000000E-03 0.  1.
         11   -1    0    0    0    0 -0.00000000000E+00 -0.00000000000E+00 -0.45593999997E+02  0.45594000000E+02  0.51100000000E-03 0. -1.
    9900012    2    1    2    0    0  0.96851884801E-01 -0.30846673285E+00 -0.11346415662E+01  0.90008193450E+02  0.90000460802E+02 0.  0.
        -12    1    1    2    0    0 -0.96851884801E-01  0.30846673285E+00  0.11346415662E+01  0.11798065505E+01  0.00000000000E+00 0.  1.
         11    1    3    3    0    0  0.38620761706E+02 -0.26568321982E+00 -0.22002745283E+02  0.44449461443E+02  0.51100000000E-03 0. -1.
        -11    1    3    3    0    0 -0.47187136215E+01 -0.23350411036E+01  0.74347807683E+01  0.91101394353E+01  0.51100000000E-03 0.  1.
        -12    1    3    3    0    0 -0.33805196200E+02  0.22922575905E+01  0.13433322949E+02  0.36448592571E+02  0.00000000000E+00 0.  1.
</event>
<event>
 7    1  0.2542335E-015  0.9000778E+02  0.7816164E-02  0.1186339E+00
        -11   -1    0    0    0    0  0.00000000000E+00  0.00000000000E+00  0.45593999997E+02  0.45594000000E+02  0.51100000000E-03 0.  1.
         11   -1    0    0    0    0 -0.00000000000E+00 -0.00000000000E+00 -0.45593999997E+02  0.45594000000E+02  0.51100000000E-03 0. -1.
    9900012    2    1    2    0    0  0.31552572361E+00  0.83702343297E-01 -0.11341775470E+01  0.90007779142E+02  0.90000041027E+02 0.  0.
        -12    1    1    2    0    0 -0.31552572361E+00 -0.83702343297E-01  0.11341775470E+01  0.11802208576E+01  0.00000000000E+00 0.  1.
         11    1    3    3    0    0 -0.16284940256E+01  0.77828525075E+01  0.40612937937E+01  0.89285437494E+01  0.51100000000E-03 0. -1.
        -11    1    3    3    0    0  0.31206296924E+02 -0.29755865172E+02  0.39852079486E+01  0.43302729273E+02  0.51100000000E-03 0.  1.
         12    1    3    3    0    0 -0.29262277175E+02  0.22056715008E+02 -0.91806792893E+01  0.37776506120E+02  0.00000000000E+00 0. -1.
</event>
<event>
 7    1  0.2542335E-015  0.9000780E+02  0.7816164E-02  0.1186339E+00
        -11   -1    0    0    0    0  0.00000000000E+00  0.00000000000E+00  0.45593999997E+02  0.45594000000E+02  0.51100000000E-03 0. -1.
         11   -1    0    0    0    0 -0.00000000000E+00 -0.00000000000E+00 -0.45593999997E+02  0.45594000000E+02  0.51100000000E-03 0.  1.
    9900012    2    1    2    0    0 -0.62221163185E+00  0.54111758110E+00 -0.84434602892E+00  0.90007798421E+02  0.90000060560E+02 0.  0.
        -12    1    1    2    0    0  0.62221163185E+00 -0.54111758110E+00  0.84434602892E+00  0.11802015794E+01  0.00000000000E+00 0.  1.
         11    1    3    3    0    0  0.38659063026E+01  0.49512377420E+01 -0.43678662315E+01  0.76510288455E+01  0.51100000000E-03 0. -1.
        -11    1    3    3    0    0  0.28754589372E+02  0.12811405529E+02 -0.20781624053E+02  0.37720477464E+02  0.51100000000E-03 0.  1.
         12    1    3    3    0    0 -0.33242707306E+02 -0.17221525690E+02  0.24305144255E+02  0.44636292111E+02  0.00000000000E+00 0. -1.
</event>
<event>
 7    1  0.2542335E-015  0.9000770E+02  0.7816164E-02  0.1186339E+00
        -11   -1    0    0    0    0  0.00000000000E+00  0.00000000000E+00  0.45593999997E+02  0.45594000000E+02  0.51100000000E-03 0. -1.
         11   -1    0    0    0    0 -0.00000000000E+00 -0.00000000000E+00 -0.45593999997E+02  0.45594000000E+02  0.51100000000E-03 0.  1.
    9900012    2    1    2    0    0 -0.40475478476E+00  0.10405409786E+01  0.38281557550E+00  0.90007703542E+02  0.89999964429E+02 0.  0.
        -12    1    1    2    0    0  0.40475478476E+00 -0.10405409786E+01 -0.38281557550E+00  0.11802964580E+01  0.00000000000E+00 0.  1.
         11    1    3    3    0    0 -0.71357373059E+01 -0.99861917539E+01  0.74980306240E+01  0.14382740912E+02  0.51100000000E-03 0. -1.
        -11    1    3    3    0    0  0.25078889253E+01 -0.14470821055E+02 -0.34787447386E+02  0.37760570238E+02  0.51100000000E-03 0.  1.
         12    1    3    3    0    0  0.42230935959E+01  0.25497553787E+02  0.27672232337E+02  0.37864392391E+02  0.00000000000E+00 0. -1.
</event>
<event>
 7    1  0.2542335E-015  0.9000778E+02  0.7816164E-02  0.1186339E+00
        -11   -1    0    0    0    0  0.00000000000E+00  0.00000000000E+00  0.45593999997E+02  0.45594000000E+02  0.51100000000E-03 0. -1.
         11   -1    0    0    0    0 -0.00000000000E+00 -0.00000000000E+00 -0.45593999997E+02  0.45594000000E+02  0.51100000000E-03 0.  1.
    9900012    2    1    2    0    0  0.26656663888E+00 -0.11309358211E+01 -0.20700944865E+00  0.90007776921E+02  0.90000038776E+02 0.  0.
        -12    1    1    2    0    0 -0.26656663888E+00  0.11309358211E+01  0.20700944865E+00  0.11802230790E+01  0.00000000000E+00 0.  1.
         11    1    3    3    0    0  0.27562596970E+02 -0.41676560783E+01  0.27111134026E+02  0.38885468974E+02  0.51100000000E-03 0. -1.
        -11    1    3    3    0    0  0.53678412175E+01 -0.71775189016E+01 -0.49757865999E+01  0.10251290137E+02  0.51100000000E-03 0.  1.
        -12    1    3    3    0    0 -0.32663871549E+02  0.10214239159E+02 -0.22342356874E+02  0.40871017810E+02  0.00000000000E+00 0.  1.
</event>
<event>
 7    1  0.2542335E-015  0.9000774E+02  0.7816164E-02  0.1186339E+00
        -11   -1    0    0    0    0  0.00000000000E+00  0.00000000000E+00  0.45593999997E+02  0.45594000000E+02  0.51100000000E-03 0.  1.
         11   -1    0    0    0    0 -0.00000000000E+00 -0.00000000000E+00 -0.45593999997E+02  0.45594000000E+02  0.51100000000E-03 0. -1.
    9900012    2    1    2    0    0  0.37206155366E+00  0.10727985383E+01 -0.32201985568E+00  0.90007735923E+02  0.89999997237E+02 0.  0.
        -12    1    1    2    0    0 -0.37206155366E+00 -0.10727985383E+01  0.32201985568E+00  0.11802640768E+01  0.00000000000E+00 0.  1.
         11    1    3    3    0    0  0.10356760644E+01 -0.33363015121E+02 -0.11092616345E+02  0.35173989545E+02  0.51100000000E-03 0. -1.
        -11    1    3    3    0    0  0.11861598387E+01 -0.88400567207E+01 -0.29544711161E+01  0.93958755753E+01  0.51100000000E-03 0.  1.
        -12    1    3    3    0    0 -0.18497743495E+01  0.43275870380E+02  0.13725067605E+02  0.45437870803E+02  0.00000000000E+00 0.  1.
</event>
<event>
 7    1  0.2542335E-015  0.9000775E+02  0.7816164E-02  0.1186339E+00
        -11   -1    0    0    0    0  0.00000000000E+00  0.00000000000E+00  0.45593999997E+02  0.45594000000E+02  0.51100000000E-03 0.  1.
         11   -1    0    0    0    0 -0.00000000000E+00 -0.00000000000E+00 -0.45593999997E+02  0.45594000000E+02  0.51100000000E-03 0. -1.
    9900012    2    1    2    0    0  0.23808066668E+00 -0.11512839561E+01 -0.10417903629E+00  0.90007749847E+02  0.90000011345E+02 0.  0.
        -12    1    1    2    0    0 -0.23808066668E+00  0.11512839561E+01  0.10417903629E+00  0.11802501527E+01  0.00000000000E+00 0.  1.
         11    1    3    3    0    0  0.32296633045E+01 -0.10047176846E+02  0.35542342710E+01  0.11135935935E+02  0.51100000000E-03 0. -1.
        -11    1    3    3    0    0 -0.49106109674E+01 -0.19845531999E+02  0.28899888356E+02  0.35400039374E+02  0.51100000000E-03 0.  1.
         12    1    3    3    0    0  0.19190283295E+01  0.28741424889E+02 -0.32558301663E+02  0.43471774539E+02  0.00000000000E+00 0. -1.
</event>
<event>
 7    1  0.2542335E-015  0.9000772E+02  0.7816164E-02  0.1186339E+00
        -11   -1    0    0    0    0  0.00000000000E+00  0.00000000000E+00  0.45593999997E+02  0.45594000000E+02  0.51100000000E-03 0. -1.
         11   -1    0    0    0    0 -0.00000000000E+00 -0.00000000000E+00 -0.45593999997E+02  0.45594000000E+02  0.51100000000E-03 0.  1.
    9900012    2    1    2    0    0  0.44578204772E-01  0.11758302392E+01  0.92133695628E-01  0.90007723513E+02  0.89999984663E+02 0.  0.
        -12    1    1    2    0    0 -0.44578204772E-01 -0.11758302392E+01 -0.92133695628E-01  0.11802764869E+01  0.00000000000E+00 0.  1.
         11    1    3    3    0    0  0.54203069431E+01 -0.99649554583E+01 -0.30522380849E+00  0.11347829153E+02  0.51100000000E-03 0. -1.
        -11    1    3    3    0    0 -0.21747487383E+02 -0.10453665906E+01 -0.32990973864E+02  0.39527842788E+02  0.51100000000E-03 0.  1.
         12    1    3    3    0    0  0.16371758645E+02  0.12186152288E+02  0.33388331368E+02  0.39132051572E+02  0.00000000000E+00 0. -1.
</event>
<event>
 7    1  0.2542335E-015  0.9000756E+02  0.7816164E-02  0.1186339E+00
        -11   -1    0    0    0    0  0.00000000000E+00  0.00000000000E+00  0.45593999997E+02  0.45594000000E+02  0.51100000000E-03 0.  1.
         11   -1    0    0    0    0 -0.00000000000E+00 -0.00000000000E+00 -0.45593999997E+02  0.45594000000E+02  0.51100000000E-03 0. -1.
    9900012    2    1    2    0    0  0.46815987375E+00 -0.86125039881E-02 -0.10835999995E+01  0.90007560759E+02  0.89999819761E+02 0.  0.
        -12    1    1    2    0    0 -0.46815987375E+00  0.86125039881E-02  0.10835999995E+01  0.11804392409E+01  0.00000000000E+00 0.  1.
         11    1    3    3    0    0 -0.12385635865E+02 -0.15760349388E+02 -0.34354434181E+02  0.39774611711E+02  0.51100000000E-03 0. -1.
        -11    1    3    3    0    0 -0.77845540082E+01 -0.69623093102E+00  0.63451425451E-01  0.78158841445E+01  0.51100000000E-03 0.  1.
        -12    1    3    3    0    0  0.20638349747E+02  0.16447967815E+02  0.33207382756E+02  0.42417064904E+02  0.00000000000E+00 0.  1.
</event>
<event>
 7    1  0.2542335E-015  0.9000746E+02  0.7816164E-02  0.1186340E+00
        -11   -1    0    0    0    0  0.00000000000E+00  0.00000000000E+00  0.45593999997E+02  0.45594000000E+02  0.51100000000E-03 0.  1.
         11   -1    0    0    0    0 -0.00000000000E+00 -0.00000000000E+00 -0.45593999997E+02  0.45594000000E+02  0.51100000000E-03 0. -1.
    9900012    2    1    2    0    0 -0.89855942864E+00 -0.67619292991E+00 -0.35920296623E+00  0.90007460845E+02  0.89999718528E+02 0.  0.
        -12    1    1    2    0    0  0.89855942864E+00  0.67619292991E+00  0.35920296623E+00  0.11805391549E+01  0.00000000000E+00 0.  1.
         11    1    3    3    0    0  0.24654165117E+01 -0.76018669522E+01 -0.94084566820E+00  0.80468534576E+01  0.51100000000E-03 0. -1.
        -11    1    3    3    0    0  0.20656887233E+02 -0.29657181178E+02  0.93380038508E+01  0.37328992777E+02  0.51100000000E-03 0.  1.
         12    1    3    3    0    0 -0.24020863173E+02  0.36582855200E+02 -0.87563611488E+01  0.44631614611E+02  0.00000000000E+00 0. -1.
</event>
<event>
 7    1  0.2542335E-015  0.9000761E+02  0.7816164E-02  0.1186339E+00
        -11   -1    0    0    0    0  0.00000000000E+00  0.00000000000E+00  0.45593999997E+02  0.45594000000E+02  0.51100000000E-03 0.  1.
         11   -1    0    0    0    0 -0.00000000000E+00 -0.00000000000E+00 -0.45593999997E+02  0.45594000000E+02  0.51100000000E-03 0. -1.
    9900012    2    1    2    0    0  0.52261888749E+00  0.77212340159E+00 -0.72388796258E+00  0.90007610729E+02  0.89999870390E+02 0.  0.
        -12    1    1    2    0    0 -0.52261888749E+00 -0.77212340159E+00  0.72388796258E+00  0.11803892711E+01  0.00000000000E+00 0.  1.
         11    1    3    3    0    0  0.61177484361E+01 -0.17091478066E+01  0.48325405419E+01  0.79813207242E+01  0.51100000000E-03 0. -1.
        -11    1    3    3    0    0 -0.10908304270E+02  0.26156905279E+02  0.28511556842E+02  0.40200543151E+02  0.51100000000E-03 0.  1.
         12    1    3    3    0    0  0.53131747218E+01 -0.23675634071E+02 -0.34067985347E+02  0.41825746854E+02  0.00000000000E+00 0. -1.
</event>
<event>
 7    1  0.2542335E-015  0.9000763E+02  0.7816164E-02  0.1186339E+00
        -11   -1    0    0    0    0  0.00000000000E+00  0.00000000000E+00  0.45593999997E+02  0.45594000000E+02  0.51100000000E-03 0.  1.
         11   -1    0    0    0    0 -0.00000000000E+00 -0.00000000000E+00 -0.45593999997E+02  0.45594000000E+02  0.51100000000E-03 0. -1.
    9900012    2    1    2    0    0  0.12803263110E+00 -0.84949666325E+00 -0.80947012886E+00  0.90007627675E+02  0.89999887561E+02 0.  0.
        -12    1    1    2    0    0 -0.12803263110E+00  0.84949666325E+00  0.80947012886E+00  0.11803723247E+01  0.00000000000E+00 0.  1.
         11    1    3    3    0    0 -0.11648055616E+02  0.52282987434E+01 -0.12578768040E+02  0.17923105564E+02  0.51100000000E-03 0. -1.
        -11    1    3    3    0    0 -0.14272935616E+02 -0.17934746404E+02  0.30296846098E+02  0.37990402780E+02  0.51100000000E-03 0.  1.
         12    1    3    3    0    0  0.26049023863E+02  0.11856950997E+02 -0.18527548187E+02  0.34094119332E+02  0.00000000000E+00 0. -1.
</event>
<event>
 7    1  0.2542335E-015  0.9000775E+02  0.7816164E-02  0.1186339E+00
        -11   -1    0    0    0    0  0.00000000000E+00  0.00000000000E+00  0.45593999997E+02  0.45594000000E+02  0.51100000000E-03 0.  1.
         11   -1    0    0    0    0 -0.00000000000E+00 -0.00000000000E+00 -0.45593999997E+02  0.45594000000E+02  0.51100000000E-03 0. -1.
    9900012    2    1    2    0    0  0.56845613385E+00  0.96767492763E+00 -0.36530690091E+00  0.90007751605E+02  0.90000013126E+02 0.  0.
        -12    1    1    2    0    0 -0.56845613385E+00 -0.96767492763E+00  0.36530690091E+00  0.11802483948E+01  0.00000000000E+00 0.  1.
         11    1    3    3    0    0  0.70035867610E+01  0.69493354788E+00 -0.35768930008E-02  0.70379807623E+01  0.51100000000E-03 0. -1.
        -11    1    3    3    0    0  0.36807006376E+02  0.38595830228E+01 -0.10381396972E+02  0.38437293126E+02  0.51100000000E-03 0.  1.
         12    1    3    3    0    0 -0.43242137003E+02 -0.35868416431E+01  0.10019666964E+02  0.44532477717E+02  0.00000000000E+00 0. -1.
</event>
<event>
 7    1  0.2542335E-015  0.9000774E+02  0.7816164E-02  0.1186339E+00
        -11   -1    0    0    0    0  0.00000000000E+00  0.00000000000E+00  0.45593999997E+02  0.45594000000E+02  0.51100000000E-03 0. -1.
         11   -1    0    0    0    0 -0.00000000000E+00 -0.00000000000E+00 -0.45593999997E+02  0.45594000000E+02  0.51100000000E-03 0.  1.
    9900012    2    1    2    0    0  0.49076593870E+00 -0.33991074520E+00  0.10181496623E+01  0.90007737633E+02  0.89999998969E+02 0.  0.
        -12    1    1    2    0    0 -0.49076593870E+00  0.33991074520E+00 -0.10181496623E+01  0.11802623675E+01  0.00000000000E+00 0.  1.
         11    1    3    3    0    0 -0.68610832379E+01  0.29434912914E+01  0.55611475851E+00  0.74865124101E+01  0.51100000000E-03 0. -1.
        -11    1    3    3    0    0  0.12560756320E+02 -0.12425858082E+02 -0.38394720988E+02  0.42264987264E+02  0.51100000000E-03 0.  1.
         12    1    3    3    0    0 -0.52089071437E+01  0.91424560451E+01  0.38856755892E+02  0.40256237959E+02  0.00000000000E+00 0. -1.
</event>
<event>
 7    1  0.2542335E-015  0.9000785E+02  0.7816164E-02  0.1186339E+00
        -11   -1    0    0    0    0  0.00000000000E+00  0.00000000000E+00  0.45593999997E+02  0.45594000000E+02  0.51100000000E-03 0.  1.
         11   -1    0    0    0    0 -0.00000000000E+00 -0.00000000000E+00 -0.45593999997E+02  0.45594000000E+02  0.51100000000E-03 0. -1.
    9900012    2    1    2    0    0  0.28601584361E+00  0.53309473420E+00 -0.10132869931E+01  0.90007853573E+02  0.90000116440E+02 0.  0.
        -12    1    1    2    0    0 -0.28601584361E+00 -0.53309473420E+00  0.10132869931E+01  0.11801464269E+01  0.00000000000E+00 0.  1.
         11    1    3    3    0    0 -0.38403554105E+01 -0.29297710846E+02  0.20196360368E+02  0.35791020701E+02  0.51100000000E-03 0. -1.
        -11    1    3    3    0    0 -0.72818571651E+01 -0.34946978443E+01  0.57035974867E+01  0.98878400749E+01  0.51100000000E-03 0.  1.
        -12    1    3    3    0    0  0.11408228419E+02  0.33325503425E+02 -0.26913244847E+02  0.44328992797E+02  0.00000000000E+00 0.  1.
</event>
<event>
 7    1  0.2542335E-015  0.9000741E+02  0.7816164E-02  0.1186340E+00
        -11   -1    0    0    0    0  0.00000000000E+00  0.00000000000E+00  0.45593999997E+02  0.45594000000E+02  0.51100000000E-03 0.  1.
         11   -1    0    0    0    0 -0.00000000000E+00 -0.00000000000E+00 -0.45593999997E+02  0.45594000000E+02  0.51100000000E-03 0. -1.
    9900012    2    1    2    0    0 -0.48187682714E+00  0.92220357882E+00  0.55779618086E+00  0.90007406380E+02  0.89999663343E+02 0.  0.
        -12    1    1    2    0    0  0.48187682714E+00 -0.92220357882E+00 -0.55779618086E+00  0.11805936205E+01  0.00000000000E+00 0.  1.
         11    1    3    3    0    0 -0.11401072881E+01  0.10684860492E+02 -0.35938896657E+02  0.37510936826E+02  0.51100000000E-03 0. -1.
        -11    1    3    3    0    0 -0.10176615851E+02  0.83588088666E+01  0.40371061339E+01  0.13774302961E+02  0.51100000000E-03 0.  1.
        -12    1    3    3    0    0  0.10834846312E+02 -0.18121465780E+02  0.32459586704E+02  0.38722166593E+02  0.00000000000E+00 0.  1.
</event>
<event>
 7    1  0.2542335E-015  0.9000776E+02  0.7816164E-02  0.1186339E+00
        -11   -1    0    0    0    0  0.00000000000E+00  0.00000000000E+00  0.45593999997E+02  0.45594000000E+02  0.51100000000E-03 0. -1.
         11   -1    0    0    0    0 -0.00000000000E+00 -0.00000000000E+00 -0.45593999997E+02  0.45594000000E+02  0.51100000000E-03 0.  1.
    9900012    2    1    2    0    0 -0.43874139296E+00 -0.78527187517E+00 -0.76408477304E+00  0.90007757877E+02  0.90000019481E+02 0.  0.
        -12    1    1    2    0    0  0.43874139296E+00  0.78527187517E+00  0.76408477304E+00  0.11802421227E+01  0.00000000000E+00 0.  1.
         11    1    3    3    0    0 -0.14682875499E+02 -0.29990089094E+02  0.13477138733E+01  0.33418686535E+02  0.51100000000E-03 0. -1.
        -11    1    3    3    0    0  0.58266228513E+01  0.32030001298E+01 -0.21874073269E+02  0.22862279530E+02  0.51100000000E-03 0.  1.
        -12    1    3    3    0    0  0.84175112542E+01  0.26001817089E+02  0.19762274623E+02  0.33726791812E+02  0.00000000000E+00 0.  1.
</event>
<event>
 7    1  0.3166629E-015  0.9000770E+02  0.7816164E-02  0.1186339E+00
        -11   -1    0    0    0    0  0.00000000000E+00  0.00000000000E+00  0.45593999997E+02  0.45594000000E+02  0.51100000000E-03 0.  1.
         11   -1    0    0    0    0 -0.00000000000E+00 -0.00000000000E+00 -0.45593999997E+02  0.45594000000E+02  0.51100000000E-03 0. -1.
    9900012    2    1    2    0    0 -0.64857658618E-01  0.11725848218E+01  0.11814098168E+00  0.90007695390E+02  0.89999956169E+02 0.  0.
        -12    1    1    2    0    0  0.64857658618E-01 -0.11725848218E+01 -0.11814098168E+00  0.11803046097E+01  0.00000000000E+00 0.  1.
         11    1    3    3    0    0 -0.80082985946E+01  0.50778444477E+00 -0.50205277232E+01  0.94655369791E+01  0.51100000000E-03 0. -1.
        -11    1    3    3    0    0 -0.35368639020E+02 -0.23820649715E+01  0.10050763718E+02  0.36846067785E+02  0.51100000000E-03 0.  1.
         12    1    3    3    0    0  0.43312079956E+02  0.30468653485E+01 -0.49120950130E+01  0.43696090626E+02  0.00000000000E+00 0. -1.
</event>
<event>
 7    1  0.2542335E-015  0.9000764E+02  0.7816164E-02  0.1186339E+00
        -11   -1    0    0    0    0  0.00000000000E+00  0.00000000000E+00  0.45593999997E+02  0.45594000000E+02  0.51100000000E-03 0.  1.
         11   -1    0    0    0    0 -0.00000000000E+00 -0.00000000000E+00 -0.45593999997E+02  0.45594000000E+02  0.51100000000E-03 0. -1.
    9900012    2    1    2    0    0  0.42871907441E+00 -0.96726902717E+00  0.52330289528E+00  0.90007637625E+02  0.89999897642E+02 0.  0.
        -12    1    1    2    0    0 -0.42871907441E+00  0.96726902717E+00 -0.52330289528E+00  0.11803623748E+01  0.00000000000E+00 0.  1.
         11    1    3    3    0    0  0.74223117778E+00 -0.97703649855E+01  0.93213560978E+01  0.13524001584E+02  0.51100000000E-03 0. -1.
        -11    1    3    3    0    0 -0.83287854480E+01 -0.32627123540E+02 -0.58945804049E+01  0.34185434558E+02  0.51100000000E-03 0.  1.
         12    1    3    3    0    0  0.80152733446E+01  0.41430219498E+02 -0.29034727976E+01  0.42298201483E+02  0.00000000000E+00 0. -1.
</event>
<event>
 7    1  0.2542335E-015  0.9000773E+02  0.7816164E-02  0.1186339E+00
        -11   -1    0    0    0    0  0.00000000000E+00  0.00000000000E+00  0.45593999997E+02  0.45594000000E+02  0.51100000000E-03 0.  1.
         11   -1    0    0    0    0 -0.00000000000E+00 -0.00000000000E+00 -0.45593999997E+02  0.45594000000E+02  0.51100000000E-03 0. -1.
    9900012    2    1    2    0    0 -0.63102621055E+00  0.65260716064E+00 -0.75429261052E+00  0.90007725656E+02  0.89999986835E+02 0.  0.
        -12    1    1    2    0    0  0.63102621055E+00 -0.65260716064E+00  0.75429261052E+00  0.11802743439E+01  0.00000000000E+00 0.  1.
         11    1    3    3    0    0  0.48613860951E+01  0.74712025889E+01  0.79938227539E+01  0.11973017388E+02  0.51100000000E-03 0. -1.
        -11    1    3    3    0    0  0.87100845651E+01  0.20935793105E+02  0.23862897937E+02  0.32918245765E+02  0.51100000000E-03 0.  1.
         12    1    3    3    0    0 -0.14202496871E+02 -0.27754388534E+02 -0.32611013301E+02  0.45116462503E+02  0.00000000000E+00 0. -1.
</event>
<event>
 7    1  0.2542335E-015  0.9000762E+02  0.7816164E-02  0.1186339E+00
        -11   -1    0    0    0    0  0.00000000000E+00  0.00000000000E+00  0.45593999997E+02  0.45594000000E+02  0.51100000000E-03 0.  1.
         11   -1    0    0    0    0 -0.00000000000E+00 -0.00000000000E+00 -0.45593999997E+02  0.45594000000E+02  0.51100000000E-03 0. -1.
    9900012    2    1    2    0    0 -0.19820836919E+00 -0.62412859321E+00 -0.98207478519E+00  0.90007621272E+02  0.89999881072E+02 0.  0.
        -12    1    1    2    0    0  0.19820836919E+00  0.62412859321E+00  0.98207478519E+00  0.11803787283E+01  0.00000000000E+00 0.  1.
         11    1    3    3    0    0 -0.85177719210E+01  0.11368706797E+01 -0.86493910451E-02  0.85933106841E+01  0.51100000000E-03 0. -1.
        -11    1    3    3    0    0 -0.21582272345E+02 -0.24735299605E+02 -0.20748922596E+02  0.38834872412E+02  0.51100000000E-03 0.  1.
         12    1    3    3    0    0  0.29901835897E+02  0.22974300332E+02  0.19775497201E+02  0.42579438175E+02  0.00000000000E+00 0. -1.
</event>
<event>
 7    1  0.2542335E-015  0.9000762E+02  0.7816164E-02  0.1186339E+00
        -11   -1    0    0    0    0  0.00000000000E+00  0.00000000000E+00  0.45593999997E+02  0.45594000000E+02  0.51100000000E-03 0.  1.
         11   -1    0    0    0    0 -0.00000000000E+00 -0.00000000000E+00 -0.45593999997E+02  0.45594000000E+02  0.51100000000E-03 0. -1.
    9900012    2    1    2    0    0 -0.15152694486E+00  0.11192330230E+01 -0.34302087486E+00  0.90007616039E+02  0.89999875771E+02 0.  0.
        -12    1    1    2    0    0  0.15152694486E+00 -0.11192330230E+01  0.34302087486E+00  0.11803839610E+01  0.00000000000E+00 0.  1.
         11    1    3    3    0    0 -0.81604507512E+01 -0.43926425796E-02  0.43553361803E+01  0.92499691493E+01  0.51100000000E-03 0. -1.
        -11    1    3    3    0    0 -0.82990383710E+01 -0.36898590744E+02  0.53127395492E+01  0.38191690701E+02  0.51100000000E-03 0.  1.
         12    1    3    3    0    0  0.16307962177E+02  0.38022216410E+02 -0.10011096604E+02  0.42565956189E+02  0.00000000000E+00 0. -1.
</event>
<event>
 7    1  0.2542335E-015  0.9000778E+02  0.7816164E-02  0.1186339E+00
        -11   -1    0    0    0    0  0.00000000000E+00  0.00000000000E+00  0.45593999997E+02  0.45594000000E+02  0.51100000000E-03 0.  1.
         11   -1    0    0    0    0 -0.00000000000E+00 -0.00000000000E+00 -0.45593999997E+02  0.45594000000E+02  0.51100000000E-03 0. -1.
    9900012    2    1    2    0    0 -0.61643525362E+00 -0.88619726825E+00 -0.47705678287E+00  0.90007779176E+02  0.90000041061E+02 0.  0.
        -12    1    1    2    0    0  0.61643525362E+00  0.88619726825E+00  0.47705678287E+00  0.11802208244E+01  0.00000000000E+00 0.  1.
         11    1    3    3    0    0 -0.31148344042E+02 -0.25172950847E+02 -0.16817094991E+01  0.40083973581E+02  0.51100000000E-03 0. -1.
        -11    1    3    3    0    0 -0.32245295088E+00 -0.98432586577E+00 -0.87553253327E+01  0.88163822092E+01  0.51100000000E-03 0.  1.
        -12    1    3    3    0    0  0.30854361740E+02  0.25271079445E+02  0.99599780490E+01  0.41107423386E+02  0.00000000000E+00 0.  1.
</event>
<event>
 7    1  0.2542335E-015  0.9000769E+02  0.7816164E-02  0.1186339E+00
        -11   -1    0    0    0    0  0.00000000000E+00  0.00000000000E+00  0.45593999997E+02  0.45594000000E+02  0.51100000000E-03 0. -1.
         11   -1    0    0    0    0 -0.00000000000E+00 -0.00000000000E+00 -0.45593999997E+02  0.45594000000E+02  0.51100000000E-03 0.  1.
    9900012    2    1    2    0    0 -0.91586882759E+00 -0.71781934046E+00  0.19763770112E+00  0.90007686069E+02  0.89999946725E+02 0.  0.
        -12    1    1    2    0    0  0.91586882759E+00  0.71781934046E+00 -0.19763770112E+00  0.11803139310E+01  0.00000000000E+00 0.  1.
         11    1    3    3    0    0 -0.62043783868E+01  0.20213760132E+01 -0.46374801293E+01  0.80054040725E+01  0.51100000000E-03 0. -1.
        -11    1    3    3    0    0 -0.35442732689E+02  0.11635115017E+02 -0.51843181827E+01  0.37662187367E+02  0.51100000000E-03 0.  1.
         12    1    3    3    0    0  0.40731242249E+02 -0.14374310371E+02  0.10019436013E+02  0.44340094630E+02  0.00000000000E+00 0. -1.
</event>
<event>
 7    1  0.2542335E-015  0.9000798E+02  0.7816164E-02  0.1186339E+00
        -11   -1    0    0    0    0  0.00000000000E+00  0.00000000000E+00  0.45593999997E+02  0.45594000000E+02  0.51100000000E-03 0.  1.
         11   -1    0    0    0    0 -0.00000000000E+00 -0.00000000000E+00 -0.45593999997E+02  0.45594000000E+02  0.51100000000E-03 0. -1.
    9900012    2    1    2    0    0  0.30576679982E+00  0.11346564596E+01  0.10724494517E+00  0.90007983011E+02  0.90000247586E+02 0.  0.
        -12    1    1    2    0    0 -0.30576679982E+00 -0.11346564596E+01 -0.10724494517E+00  0.11800169894E+01  0.00000000000E+00 0.  1.
         11    1    3    3    0    0  0.13841986257E+01 -0.88858302115E+00  0.80888144802E+01  0.82543628208E+01  0.51100000000E-03 0. -1.
        -11    1    3    3    0    0  0.62911956352E+01 -0.13794285098E+02  0.33489109303E+02  0.36761146419E+02  0.51100000000E-03 0.  1.
         12    1    3    3    0    0 -0.73696274611E+01  0.15817524578E+02 -0.41470678838E+02  0.44992473771E+02  0.00000000000E+00 0. -1.
</event>
<event>
 7    1  0.2542335E-015  0.9000773E+02  0.7816164E-02  0.1186339E+00
        -11   -1    0    0    0    0  0.00000000000E+00  0.00000000000E+00  0.45593999997E+02  0.45594000000E+02  0.51100000000E-03 0.  1.
         11   -1    0    0    0    0 -0.00000000000E+00 -0.00000000000E+00 -0.45593999997E+02  0.45594000000E+02  0.51100000000E-03 0. -1.
    9900012    2    1    2    0    0 -0.65243523734E+00  0.30389932050E+00 -0.93541600211E+00  0.90007733237E+02  0.89999994515E+02 0.  0.
        -12    1    1    2    0    0  0.65243523734E+00 -0.30389932050E+00  0.93541600211E+00  0.11802667635E+01  0.00000000000E+00 0.  1.
         11    1    3    3    0    0  0.28862811209E+02  0.25960268176E+02 -0.19000400571E+01  0.38866535054E+02  0.51100000000E-03 0. -1.
        -11    1    3    3    0    0  0.36108196616E+01 -0.37557252490E+01  0.92114989886E+01  0.10582778683E+02  0.51100000000E-03 0.  1.
        -12    1    3    3    0    0 -0.33126066108E+02 -0.21900643606E+02 -0.82468749336E+01  0.40558419500E+02  0.00000000000E+00 0.  1.
</event>
<event>
 7    1  0.2542335E-015  0.9000776E+02  0.7816164E-02  0.1186339E+00
        -11   -1    0    0    0    0  0.00000000000E+00  0.00000000000E+00  0.45593999997E+02  0.45594000000E+02  0.51100000000E-03 0.  1.
         11   -1    0    0    0    0 -0.00000000000E+00 -0.00000000000E+00 -0.45593999997E+02  0.45594000000E+02  0.51100000000E-03 0. -1.
    9900012    2    1    2    0    0 -0.39592374059E+00  0.39782898368E+00 -0.10382360286E+01  0.90007763770E+02  0.90000025451E+02 0.  0.
        -12    1    1    2    0    0  0.39592374059E+00 -0.39782898368E+00  0.10382360286E+01  0.11802362305E+01  0.00000000000E+00 0.  1.
         11    1    3    3    0    0 -0.35525121958E+02 -0.13859865694E+02 -0.13542896338E+02  0.40466531958E+02  0.51100000000E-03 0. -1.
        -11    1    3    3    0    0  0.43468201387E+01 -0.31217838106E+01 -0.72770152498E+01  0.90330133779E+01  0.51100000000E-03 0.  1.
        -12    1    3    3    0    0  0.30782378079E+02  0.17379478489E+02  0.19781675559E+02  0.40508218434E+02  0.00000000000E+00 0.  1.
</event>
<event>
 7    1  0.2542335E-015  0.9000774E+02  0.7816164E-02  0.1186339E+00
        -11   -1    0    0    0    0  0.00000000000E+00  0.00000000000E+00  0.45593999997E+02  0.45594000000E+02  0.51100000000E-03 0. -1.
         11   -1    0    0    0    0 -0.00000000000E+00 -0.00000000000E+00 -0.45593999997E+02  0.45594000000E+02  0.51100000000E-03 0.  1.
    9900012    2    1    2    0    0 -0.70710244087E+00 -0.58269724886E+00  0.74397226685E+00  0.90007735335E+02  0.89999996641E+02 0.  0.
        -12    1    1    2    0    0  0.70710244087E+00  0.58269724886E+00 -0.74397226685E+00  0.11802646650E+01  0.00000000000E+00 0.  1.
         11    1    3    3    0    0 -0.28227013233E+02 -0.47882774711E+01  0.26844282240E+02  0.39246749756E+02  0.51100000000E-03 0. -1.
        -11    1    3    3    0    0 -0.71628728087E+01  0.50109165903E+01 -0.66910400732E+01  0.11008453546E+02  0.51100000000E-03 0.  1.
        -12    1    3    3    0    0  0.34682783601E+02 -0.80533636804E+00 -0.19409269900E+02  0.39752532033E+02  0.00000000000E+00 0.  1.
</event>
<event>
 7    1  0.2542335E-015  0.9000775E+02  0.7816164E-02  0.1186339E+00
        -11   -1    0    0    0    0  0.00000000000E+00  0.00000000000E+00  0.45593999997E+02  0.45594000000E+02  0.51100000000E-03 0.  1.
         11   -1    0    0    0    0 -0.00000000000E+00 -0.00000000000E+00 -0.45593999997E+02  0.45594000000E+02  0.51100000000E-03 0. -1.
    9900012    2    1    2    0    0  0.25036499460E+00 -0.10203880971E+01 -0.53769956829E+00  0.90007747771E+02  0.90000009241E+02 0.  0.
        -12    1    1    2    0    0 -0.25036499460E+00  0.10203880971E+01  0.53769956829E+00  0.11802522294E+01  0.00000000000E+00 0.  1.
         11    1    3    3    0    0 -0.15916414285E+02 -0.37579273728E+01 -0.51774195704E+01  0.17154006398E+02  0.51100000000E-03 0. -1.
        -11    1    3    3    0    0  0.20757714264E+01 -0.24151065485E+02  0.26143532254E+02  0.35652027572E+02  0.51100000000E-03 0.  1.
         12    1    3    3    0    0  0.14091007854E+02  0.26888604760E+02 -0.21503812252E+02  0.37201713800E+02  0.00000000000E+00 0. -1.
</event>
<event>
 7    1  0.3431892E-015  0.9000776E+02  0.7816164E-02  0.1186339E+00
        -11   -1    0    0    0    0  0.00000000000E+00  0.00000000000E+00  0.45593999997E+02  0.45594000000E+02  0.51100000000E-03 0. -1.
         11   -1    0    0    0    0 -0.00000000000E+00 -0.00000000000E+00 -0.45593999997E+02  0.45594000000E+02  0.51100000000E-03 0.  1.
    9900012    2    1    2    0    0 -0.27798554447E+00 -0.96604761111E+00  0.61842087147E+00  0.90007759209E+02  0.90000020831E+02 0.  0.
        -12    1    1    2    0    0  0.27798554447E+00  0.96604761111E+00 -0.61842087147E+00  0.11802407907E+01  0.00000000000E+00 0.  1.
         11    1    3    3    0    0  0.27296427204E+01  0.61048749914E+01 -0.65576353010E+01  0.93660572838E+01  0.51100000000E-03 0. -1.
        -11    1    3    3    0    0 -0.26792303410E+01  0.30525246340E+02 -0.17863330418E+02  0.35469247430E+02  0.51100000000E-03 0.  1.
         12    1    3    3    0    0 -0.32839792393E+00 -0.37596168942E+02  0.25039386591E+02  0.45172454496E+02  0.00000000000E+00 0. -1.
</event>
<event>
 7    1  0.2542335E-015  0.9000761E+02  0.7816164E-02  0.1186339E+00
        -11   -1    0    0    0    0  0.00000000000E+00  0.00000000000E+00  0.45593999997E+02  0.45594000000E+02  0.51100000000E-03 0.  1.
         11   -1    0    0    0    0 -0.00000000000E+00 -0.00000000000E+00 -0.45593999997E+02  0.45594000000E+02  0.51100000000E-03 0. -1.
    9900012    2    1    2    0    0  0.33907274577E+00 -0.10958895256E+01  0.27817271347E+00  0.90007608439E+02  0.89999868070E+02 0.  0.
        -12    1    1    2    0    0 -0.33907274577E+00  0.10958895256E+01 -0.27817271347E+00  0.11803915612E+01  0.00000000000E+00 0.  1.
         11    1    3    3    0    0  0.15706406121E+01 -0.67785529489E+01  0.57650704881E+01  0.90361346829E+01  0.51100000000E-03 0. -1.
        -11    1    3    3    0    0 -0.19606907639E+00 -0.25837911453E+02  0.25823706018E+02  0.36530807603E+02  0.51100000000E-03 0.  1.
         12    1    3    3    0    0 -0.10354987899E+01  0.31520574876E+02 -0.31310603793E+02  0.44440666153E+02  0.00000000000E+00 0. -1.
</event>
<event>
 7    1  0.2542335E-015  0.9000776E+02  0.7816164E-02  0.1186339E+00
        -11   -1    0    0    0    0  0.00000000000E+00  0.00000000000E+00  0.45593999997E+02  0.45594000000E+02  0.51100000000E-03 0. -1.
         11   -1    0    0    0    0 -0.00000000000E+00 -0.00000000000E+00 -0.45593999997E+02  0.45594000000E+02  0.51100000000E-03 0.  1.
    9900012    2    1    2    0    0  0.65238325762E+00  0.86440091686E+00 -0.46923472471E+00  0.90007756768E+02  0.90000018357E+02 0.  0.
        -12    1    1    2    0    0 -0.65238325762E+00 -0.86440091686E+00  0.46923472471E+00  0.11802432320E+01  0.00000000000E+00 0.  1.
         11    1    3    3    0    0  0.20382311362E+02 -0.36555865783E+02 -0.95747565274E+01  0.42935368898E+02  0.51100000000E-03 0. -1.
        -11    1    3    3    0    0  0.32602536154E+01  0.92571314988E+01  0.14711383785E+01  0.99241113261E+01  0.51100000000E-03 0.  1.
        -12    1    3    3    0    0 -0.22990181720E+02  0.28163135201E+02  0.76343834243E+01  0.37148276543E+02  0.00000000000E+00 0.  1.
</event>
<event>
 7    1  0.2542335E-015  0.9000777E+02  0.7816164E-02  0.1186339E+00
        -11   -1    0    0    0    0  0.00000000000E+00  0.00000000000E+00  0.45593999997E+02  0.45594000000E+02  0.51100000000E-03 0. -1.
         11   -1    0    0    0    0 -0.00000000000E+00 -0.00000000000E+00 -0.45593999997E+02  0.45594000000E+02  0.51100000000E-03 0.  1.
    9900012    2    1    2    0    0 -0.11170186317E+01  0.35879136752E+00  0.12840486229E+00  0.90007767109E+02  0.90000028835E+02 0.  0.
        -12    1    1    2    0    0  0.11170186317E+01 -0.35879136752E+00 -0.12840486229E+00  0.11802328913E+01  0.00000000000E+00 0.  1.
         11    1    3    3    0    0 -0.56587120091E+01  0.69824263808E+01  0.42034138307E+01  0.99218943684E+01  0.51100000000E-03 0. -1.
        -11    1    3    3    0    0 -0.27706210492E+01  0.22868272284E+02 -0.31588219976E+02  0.39095394355E+02  0.51100000000E-03 0.  1.
         12    1    3    3    0    0  0.73123144265E+01 -0.29491907297E+02  0.27513211008E+02  0.40990478385E+02  0.00000000000E+00 0. -1.
</event>
<event>
 7    1  0.2542335E-015  0.9000766E+02  0.7816164E-02  0.1186339E+00
        -11   -1    0    0    0    0  0.00000000000E+00  0.00000000000E+00  0.45593999997E+02  0.45594000000E+02  0.51100000000E-03 0. -1.
         11   -1    0    0    0    0 -0.00000000000E+00 -0.00000000000E+00 -0.45593999997E+02  0.45594000000E+02  0.51100000000E-03 0.  1.
    9900012    2    1    2    0    0  0.61503277520E-01 -0.11702575065E+01  0.14109751444E+00  0.90007663695E+02  0.89999924056E+02 0.  0.
        -12    1    1    2    0    0 -0.61503277520E-01  0.11702575065E+01 -0.14109751444E+00  0.11803363052E+01  0.00000000000E+00 0.  1.
         11    1    3    3    0    0  0.34846434948E+02 -0.11248201310E+02  0.48953935361E+01  0.36942670984E+02  0.51100000000E-03 0. -1.
        -11    1    3    3    0    0  0.83747665457E+01  0.31129863427E+01 -0.25499657639E+01  0.92913790324E+01  0.51100000000E-03 0.  1.
        -12    1    3    3    0    0 -0.43159698216E+02  0.69649574608E+01 -0.22043302578E+01  0.43773613678E+02  0.00000000000E+00 0.  1.
</event>
<event>
 7    1  0.2542335E-015  0.9000770E+02  0.7816164E-02  0.1186339E+00
        -11   -1    0    0    0    0  0.00000000000E+00  0.00000000000E+00  0.45593999997E+02  0.45594000000E+02  0.51100000000E-03 0. -1.
         11   -1    0    0    0    0 -0.00000000000E+00 -0.00000000000E+00 -0.45593999997E+02  0.45594000000E+02  0.51100000000E-03 0.  1.
    9900012    2    1    2    0    0  0.82902270279E+00 -0.44329209584E+00  0.71367138646E+00  0.90007697763E+02  0.89999958573E+02 0.  0.
        -12    1    1    2    0    0 -0.82902270279E+00  0.44329209584E+00 -0.71367138646E+00  0.11803022375E+01  0.00000000000E+00 0.  1.
         11    1    3    3    0    0  0.10385960532E+02  0.11313607787E+02  0.35278423085E+02  0.38476395790E+02  0.51100000000E-03 0. -1.
        -11    1    3    3    0    0  0.45059428956E+01 -0.81347453650E+01  0.41494474879E+01  0.10183099638E+02  0.51100000000E-03 0.  1.
        -12    1    3    3    0    0 -0.14062880724E+02 -0.36221545174E+01 -0.38714199187E+02  0.41348202334E+02  0.00000000000E+00 0.  1.
</event>
<event>
 7    1  0.2542335E-015  0.9000831E+02  0.7816164E-02  0.1186338E+00
        -11   -1    0    0    0    0  0.00000000000E+00  0.00000000000E+00  0.45593999997E+02  0.45594000000E+02  0.51100000000E-03 0.  1.
         11   -1    0    0    0    0 -0.00000000000E+00 -0.00000000000E+00 -0.45593999997E+02  0.45594000000E+02  0.51100000000E-03 0. -1.
    9900012    2    1    2    0    0  0.10114621238E-01 -0.85404419971E+00 -0.81374190091E+00  0.90008309497E+02  0.90000578381E+02 0.  0.
        -12    1    1    2    0    0 -0.10114621238E-01  0.85404419971E+00  0.81374190091E+00  0.11796905026E+01  0.00000000000E+00 0.  1.
         11    1    3    3    0    0  0.66123939060E+01  0.46333394472E+01  0.32635087504E+01  0.87087356847E+01  0.51100000000E-03 0. -1.
        -11    1    3    3    0    0  0.15454482352E+02  0.28162499012E+02  0.16493959101E+02  0.36111190266E+02  0.51100000000E-03 0.  1.
         12    1    3    3    0    0 -0.22056761637E+02 -0.33649882659E+02 -0.20571209752E+02  0.45188383546E+02  0.00000000000E+00 0. -1.
</event>
<event>
 7    1  0.2542335E-015  0.9000782E+02  0.7816164E-02  0.1186339E+00
        -11   -1    0    0    0    0  0.00000000000E+00  0.00000000000E+00  0.45593999997E+02  0.45594000000E+02  0.51100000000E-03 0.  1.
         11   -1    0    0    0    0 -0.00000000000E+00 -0.00000000000E+00 -0.45593999997E+02  0.45594000000E+02  0.51100000000E-03 0. -1.
    9900012    2    1    2    0    0 -0.10481367236E+01  0.52818888523E+00 -0.12346429946E+00  0.90007823097E+02  0.90000085562E+02 0.  0.
        -12    1    1    2    0    0  0.10481367236E+01 -0.52818888523E+00  0.12346429946E+00  0.11801769033E+01  0.00000000000E+00 0.  1.
         11    1    3    3    0    0 -0.34611672506E+01 -0.17152411208E+01  0.93237955283E+01  0.10092318572E+02  0.51100000000E-03 0. -1.
        -11    1    3    3    0    0  0.21861300481E+02 -0.29134503808E+02  0.10562592486E+02  0.37924980305E+02  0.51100000000E-03 0.  1.
         12    1    3    3    0    0 -0.19448269954E+02  0.31377933814E+02 -0.20009852314E+02  0.41990524220E+02  0.00000000000E+00 0. -1.
</event>
<event>
 7    1  0.2542335E-015  0.9000773E+02  0.7816164E-02  0.1186339E+00
        -11   -1    0    0    0    0  0.00000000000E+00  0.00000000000E+00  0.45593999997E+02  0.45594000000E+02  0.51100000000E-03 0.  1.
         11   -1    0    0    0    0 -0.00000000000E+00 -0.00000000000E+00 -0.45593999997E+02  0.45594000000E+02  0.51100000000E-03 0. -1.
    9900012    2    1    2    0    0  0.23052509793E+00  0.11535415663E+00 -0.11517728575E+01  0.90007733455E+02  0.89999994736E+02 0.  0.
        -12    1    1    2    0    0 -0.23052509793E+00 -0.11535415663E+00  0.11517728575E+01  0.11802665451E+01  0.00000000000E+00 0.  1.
         11    1    3    3    0    0  0.12234874415E+02 -0.41066433987E+01 -0.35517669421E+02  0.37789701154E+02  0.51100000000E-03 0. -1.
        -11    1    3    3    0    0  0.88620614762E+01 -0.55973176200E+01 -0.41086687629E+00  0.10489752619E+02  0.51100000000E-03 0.  1.
        -12    1    3    3    0    0 -0.20866410794E+02  0.98193151754E+01  0.34776763439E+02  0.41728279682E+02  0.00000000000E+00 0.  1.
</event>
<event>
 7    1  0.2542335E-015  0.9000801E+02  0.7816164E-02  0.1186338E+00
        -11   -1    0    0    0    0  0.00000000000E+00  0.00000000000E+00  0.45593999997E+02  0.45594000000E+02  0.51100000000E-03 0. -1.
         11   -1    0    0    0    0 -0.00000000000E+00 -0.00000000000E+00 -0.45593999997E+02  0.45594000000E+02  0.51100000000E-03 0.  1.
    9900012    2    1    2    0    0  0.23749943075E+00 -0.56058625790E+00  0.10107946703E+01  0.90008013221E+02  0.90000278195E+02 0.  0.
        -12    1    1    2    0    0 -0.23749943075E+00  0.56058625790E+00 -0.10107946703E+01  0.11799867786E+01  0.00000000000E+00 0.  1.
         11    1    3    3    0    0  0.41025898522E+01 -0.60275741986E+01  0.15834187035E+01  0.74612404643E+01  0.51100000000E-03 0. -1.
        -11    1    3    3    0    0  0.15150862262E+02  0.39758317800E+02  0.53815613097E+01  0.42886287598E+02  0.51100000000E-03 0.  1.
         12    1    3    3    0    0 -0.19015952684E+02 -0.34291329859E+02 -0.59541853429E+01  0.39660485159E+02  0.00000000000E+00 0. -1.
</event>
<event>
 7    1  0.2542335E-015  0.9000762E+02  0.7816164E-02  0.1186339E+00
        -11   -1    0    0    0    0  0.00000000000E+00  0.00000000000E+00  0.45593999997E+02  0.45594000000E+02  0.51100000000E-03 0.  1.
         11   -1    0    0    0    0 -0.00000000000E+00 -0.00000000000E+00 -0.45593999997E+02  0.45594000000E+02  0.51100000000E-03 0. -1.
    9900012    2    1    2    0    0  0.10616953830E+01 -0.48611720245E+00 -0.17259242633E+00  0.90007620753E+02  0.89999880547E+02 0.  0.
        -12    1    1    2    0    0 -0.10616953830E+01  0.48611720245E+00  0.17259242633E+00  0.11803792469E+01  0.00000000000E+00 0.  1.
         11    1    3    3    0    0 -0.18781429897E+02  0.28457704264E+02  0.11515399289E+02  0.35988712980E+02  0.51100000000E-03 0. -1.
        -11    1    3    3    0    0 -0.19557924213E+01 -0.47483247112E-01  0.11083760129E+02  0.11255092959E+02  0.51100000000E-03 0.  1.
        -12    1    3    3    0    0  0.21798917702E+02 -0.28896338219E+02 -0.22771751844E+02  0.42763814814E+02  0.00000000000E+00 0.  1.
</event>
<event>
 7    1  0.2542335E-015  0.9000778E+02  0.7816164E-02  0.1186339E+00
        -11   -1    0    0    0    0  0.00000000000E+00  0.00000000000E+00  0.45593999997E+02  0.45594000000E+02  0.51100000000E-03 0. -1.
         11   -1    0    0    0    0 -0.00000000000E+00 -0.00000000000E+00 -0.45593999997E+02  0.45594000000E+02  0.51100000000E-03 0.  1.
    9900012    2    1    2    0    0  0.44596322649E+00  0.92035771813E+00  0.58905794476E+00  0.90007775110E+02  0.90000036941E+02 0.  0.
        -12    1    1    2    0    0 -0.44596322649E+00 -0.92035771813E+00 -0.58905794476E+00  0.11802248900E+01  0.00000000000E+00 0.  1.
         11    1    3    3    0    0  0.18380739477E+02  0.32253829205E+02 -0.66136749066E+01  0.37708112895E+02  0.51100000000E-03 0. -1.
        -11    1    3    3    0    0  0.27258816157E+01  0.40798796825E+01  0.10068031623E+02  0.11200049545E+02  0.51100000000E-03 0.  1.
        -12    1    3    3    0    0 -0.20660657866E+02 -0.35413351169E+02 -0.28652987711E+01  0.41099612669E+02  0.00000000000E+00 0.  1.
</event>
<event>
 7    1  0.2542335E-015  0.9000749E+02  0.7816164E-02  0.1186340E+00
        -11   -1    0    0    0    0  0.00000000000E+00  0.00000000000E+00  0.45593999997E+02  0.45594000000E+02  0.51100000000E-03 0.  1.
         11   -1    0    0    0    0 -0.00000000000E+00 -0.00000000000E+00 -0.45593999997E+02  0.45594000000E+02  0.51100000000E-03 0. -1.
    9900012    2    1    2    0    0  0.43019154089E+00 -0.24359404481E+00 -0.10720132799E+01  0.90007485158E+02  0.89999743161E+02 0.  0.
        -12    1    1    2    0    0 -0.43019154089E+00  0.24359404481E+00  0.10720132799E+01  0.11805148423E+01  0.00000000000E+00 0.  1.
         11    1    3    3    0    0 -0.21159933390E+02  0.25338840094E+02  0.23277553880E+02  0.40393614759E+02  0.51100000000E-03 0. -1.
        -11    1    3    3    0    0 -0.61581810612E+01 -0.31703514991E+01 -0.73560472778E+01  0.10103749523E+02  0.51100000000E-03 0.  1.
        -12    1    3    3    0    0  0.27748305992E+02 -0.22412082639E+02 -0.16993519883E+02  0.39510120876E+02  0.00000000000E+00 0.  1.
</event>
<event>
 7    1  0.2542335E-015  0.9000787E+02  0.7816164E-02  0.1186339E+00
        -11   -1    0    0    0    0  0.00000000000E+00  0.00000000000E+00  0.45593999997E+02  0.45594000000E+02  0.51100000000E-03 0.  1.
         11   -1    0    0    0    0 -0.00000000000E+00 -0.00000000000E+00 -0.45593999997E+02  0.45594000000E+02  0.51100000000E-03 0. -1.
    9900012    2    1    2    0    0  0.37130398790E+00  0.98386738477E+00 -0.53556831732E+00  0.90007874962E+02  0.90000138112E+02 0.  0.
        -12    1    1    2    0    0 -0.37130398790E+00 -0.98386738477E+00  0.53556831732E+00  0.11801250378E+01  0.00000000000E+00 0.  1.
         11    1    3    3    0    0 -0.12102163345E+02 -0.62408339536E+01 -0.32842893928E+02  0.35553706528E+02  0.51100000000E-03 0. -1.
        -11    1    3    3    0    0 -0.57971568441E+01  0.54992882321E+01 -0.72865129516E+01  0.10813994165E+02  0.51100000000E-03 0.  1.
        -12    1    3    3    0    0  0.18270624177E+02  0.17254131064E+01  0.39593838562E+02  0.43640174270E+02  0.00000000000E+00 0.  1.
</event>
<event>
 7    1  0.2542335E-015  0.9000778E+02  0.7816164E-02  0.1186339E+00
        -11   -1    0    0    0    0  0.00000000000E+00  0.00000000000E+00  0.45593999997E+02  0.45594000000E+02  0.51100000000E-03 0. -1.
         11   -1    0    0    0    0 -0.00000000000E+00 -0.00000000000E+00 -0.45593999997E+02  0.45594000000E+02  0.51100000000E-03 0.  1.
    9900012    2    1    2    0    0 -0.73617412126E+00 -0.27095673607E+00  0.88178365953E+00  0.90007782939E+02  0.90000044873E+02 0.  0.
        -12    1    1    2    0    0  0.73617412126E+00  0.27095673607E+00 -0.88178365953E+00  0.11802170613E+01  0.00000000000E+00 0.  1.
         11    1    3    3    0    0  0.44049864072E+01 -0.73964942035E+01 -0.64322645571E+01  0.10746444032E+02  0.51100000000E-03 0. -1.
        -11    1    3    3    0    0  0.31225959083E+02  0.16295229721E+02 -0.11826036287E+02  0.37154409790E+02  0.51100000000E-03 0.  1.
         12    1    3    3    0    0 -0.36367119611E+02 -0.91696922538E+01  0.19140084503E+02  0.42106929117E+02  0.00000000000E+00 0. -1.
</event>
<event>
 7    1  0.2542335E-015  0.9000780E+02  0.7816164E-02  0.1186339E+00
        -11   -1    0    0    0    0  0.00000000000E+00  0.00000000000E+00  0.45593999997E+02  0.45594000000E+02  0.51100000000E-03 0.  1.
         11   -1    0    0    0    0 -0.00000000000E+00 -0.00000000000E+00 -0.45593999997E+02  0.45594000000E+02  0.51100000000E-03 0. -1.
    9900012    2    1    2    0    0  0.11209013701E+01  0.20814050048E+00  0.30515655011E+00  0.90007803885E+02  0.90000066096E+02 0.  0.
        -12    1    1    2    0    0 -0.11209013701E+01 -0.20814050048E+00 -0.30515655011E+00  0.11801961148E+01  0.00000000000E+00 0.  1.
         11    1    3    3    0    0  0.54571225094E+01 -0.28717954476E+02 -0.28282664940E+02  0.40674441997E+02  0.51100000000E-03 0. -1.
        -11    1    3    3    0    0 -0.38553860586E+01  0.73425406342E+01 -0.47937517492E+01  0.95789853701E+01  0.51100000000E-03 0.  1.
        -12    1    3    3    0    0 -0.48083508070E+00  0.21583554342E+02  0.33381573240E+02  0.39754376518E+02  0.00000000000E+00 0.  1.
</event>
<event>
 7    1  0.2542335E-015  0.9000777E+02  0.7816164E-02  0.1186339E+00
        -11   -1    0    0    0    0  0.00000000000E+00  0.00000000000E+00  0.45593999997E+02  0.45594000000E+02  0.51100000000E-03 0. -1.
         11   -1    0    0    0    0 -0.00000000000E+00 -0.00000000000E+00 -0.45593999997E+02  0.45594000000E+02  0.51100000000E-03 0.  1.
    9900012    2    1    2    0    0  0.10101467588E+01  0.51258405365E+00  0.33137695235E+00  0.90007767154E+02  0.90000028880E+02 0.  0.
        -12    1    1    2    0    0 -0.10101467588E+01 -0.51258405365E+00 -0.33137695235E+00  0.11802328460E+01  0.00000000000E+00 0.  1.
         11    1    3    3    0    0 -0.31226222540E+01  0.60545372204E+01 -0.29250966308E+01  0.74137966829E+01  0.51100000000E-03 0. -1.
        -11    1    3    3    0    0  0.17603463379E+02  0.35266830122E+02  0.39518816201E+01  0.39613742545E+02  0.51100000000E-03 0.  1.
         12    1    3    3    0    0 -0.13470694366E+02 -0.40808783289E+02 -0.69540803692E+00  0.42980227926E+02  0.00000000000E+00 0. -1.
</event>
<event>
 7    1  0.2542335E-015  0.9000767E+02  0.7816164E-02  0.1186339E+00
        -11   -1    0    0    0    0  0.00000000000E+00  0.00000000000E+00  0.45593999997E+02  0.45594000000E+02  0.51100000000E-03 0. -1.
         11   -1    0    0    0    0 -0.00000000000E+00 -0.00000000000E+00 -0.45593999997E+02  0.45594000000E+02  0.51100000000E-03 0.  1.
    9900012    2    1    2    0    0 -0.12939906135E+00  0.51206962305E+00  0.10555710855E+01  0.90007665415E+02  0.89999925798E+02 0.  0.
        -12    1    1    2    0    0  0.12939906135E+00 -0.51206962305E+00 -0.10555710855E+01  0.11803345850E+01  0.00000000000E+00 0.  1.
         11    1    3    3    0    0 -0.72944578859E+01  0.29519512142E+02 -0.25549961103E+02  0.39716636635E+02  0.51100000000E-03 0. -1.
        -11    1    3    3    0    0 -0.32877562665E+01  0.40916356700E+01 -0.16841979797E+01  0.55124719337E+01  0.51100000000E-03 0.  1.
        -12    1    3    3    0    0  0.10452815091E+02 -0.33099078189E+02  0.28289730168E+02  0.44778556847E+02  0.00000000000E+00 0.  1.
</event>
<event>
 7    1  0.2542335E-015  0.9000773E+02  0.7816164E-02  0.1186339E+00
        -11   -1    0    0    0    0  0.00000000000E+00  0.00000000000E+00  0.45593999997E+02  0.45594000000E+02  0.51100000000E-03 0.  1.
         11   -1    0    0    0    0 -0.00000000000E+00 -0.00000000000E+00 -0.45593999997E+02  0.45594000000E+02  0.51100000000E-03 0. -1.
    9900012    2    1    2    0    0  0.55552563187E+00 -0.25337154534E+00 -0.10100692873E+01  0.90007726374E+02  0.89999987562E+02 0.  0.
        -12    1    1    2    0    0 -0.55552563187E+00  0.25337154534E+00  0.10100692873E+01  0.11802736263E+01  0.00000000000E+00 0.  1.
         11    1    3    3    0    0  0.32882532242E+02 -0.24928973215E+02 -0.15499660928E+02  0.44078953270E+02  0.51100000000E-03 0. -1.
        -11    1    3    3    0    0 -0.23973387623E+01  0.98904413001E+01  0.27439577277E+01  0.10540273551E+02  0.51100000000E-03 0.  1.
        -12    1    3    3    0    0 -0.29929667847E+02  0.14785160370E+02  0.11745633913E+02  0.35388499553E+02  0.00000000000E+00 0.  1.
</event>
<event>
 7    1  0.2542335E-015  0.9000779E+02  0.7816164E-02  0.1186339E+00
        -11   -1    0    0    0    0  0.00000000000E+00  0.00000000000E+00  0.45593999997E+02  0.45594000000E+02  0.51100000000E-03 0.  1.
         11   -1    0    0    0    0 -0.00000000000E+00 -0.00000000000E+00 -0.45593999997E+02  0.45594000000E+02  0.51100000000E-03 0. -1.
    9900012    2    1    2    0    0  0.76630083935E-01 -0.11610633139E+01 -0.19735509526E+00  0.90007792721E+02  0.90000054785E+02 0.  0.
        -12    1    1    2    0    0 -0.76630083935E-01  0.11610633139E+01  0.19735509526E+00  0.11802072794E+01  0.00000000000E+00 0.  1.
         11    1    3    3    0    0  0.27425443857E+02 -0.18104745474E+02 -0.18243139764E+02  0.37586552491E+02  0.51100000000E-03 0. -1.
        -11    1    3    3    0    0  0.62545987276E+01  0.36697878646E+01 -0.56680086696E+01  0.92040029745E+01  0.51100000000E-03 0.  1.
        -12    1    3    3    0    0 -0.33603412501E+02  0.13273894295E+02  0.23713793339E+02  0.43217237255E+02  0.00000000000E+00 0.  1.
</event>
<event>
 7    1  0.2542335E-015  0.9000885E+02  0.7816164E-02  0.1186337E+00
        -11   -1    0    0    0    0  0.00000000000E+00  0.00000000000E+00  0.45593999997E+02  0.45594000000E+02  0.51100000000E-03 0.  1.
         11   -1    0    0    0    0 -0.00000000000E+00 -0.00000000000E+00 -0.45593999997E+02  0.45594000000E+02  0.51100000000E-03 0. -1.
    9900012    2    1    2    0    0 -0.72233409206E+00 -0.28470461861E+00 -0.88745220406E+00  0.90008850020E+02  0.90001126033E+02 0.  0.
        -12    1    1    2    0    0  0.72233409206E+00  0.28470461861E+00  0.88745220406E+00  0.11791499798E+01  0.00000000000E+00 0.  1.
         11    1    3    3    0    0 -0.44857075072E+01 -0.80651664906E+01 -0.41228377397E+01  0.10107733359E+02  0.51100000000E-03 0. -1.
        -11    1    3    3    0    0 -0.31041704778E+02  0.22450805146E+02 -0.10480460554E+02  0.39717327968E+02  0.51100000000E-03 0.  1.
         12    1    3    3    0    0  0.34805078193E+02 -0.14670343274E+02  0.13715846090E+02  0.40183788694E+02  0.00000000000E+00 0. -1.
</event>
<event>
 7    1  0.2542335E-015  0.9000739E+02  0.7816164E-02  0.1186340E+00
        -11   -1    0    0    0    0  0.00000000000E+00  0.00000000000E+00  0.45593999997E+02  0.45594000000E+02  0.51100000000E-03 0.  1.
         11   -1    0    0    0    0 -0.00000000000E+00 -0.00000000000E+00 -0.45593999997E+02  0.45594000000E+02  0.51100000000E-03 0. -1.
    9900012    2    1    2    0    0 -0.72418712614E+00 -0.67908689144E+00 -0.63893269057E+00  0.90007389572E+02  0.89999646314E+02 0.  0.
        -12    1    1    2    0    0  0.72418712614E+00  0.67908689144E+00  0.63893269057E+00  0.11806104281E+01  0.00000000000E+00 0.  1.
         11    1    3    3    0    0 -0.23445901907E+02 -0.32641141411E+02  0.83687973425E+01  0.41051080353E+02  0.51100000000E-03 0. -1.
        -11    1    3    3    0    0 -0.13003775476E+01  0.25542906141E+01  0.71396850601E+01  0.76935352944E+01  0.51100000000E-03 0.  1.
        -12    1    3    3    0    0  0.24022092329E+02  0.29407763906E+02 -0.16147415093E+02  0.41262773925E+02  0.00000000000E+00 0.  1.
</event>
<event>
 7    1  0.2542335E-015  0.9000778E+02  0.7816164E-02  0.1186339E+00
        -11   -1    0    0    0    0  0.00000000000E+00  0.00000000000E+00  0.45593999997E+02  0.45594000000E+02  0.51100000000E-03 0. -1.
         11   -1    0    0    0    0 -0.00000000000E+00 -0.00000000000E+00 -0.45593999997E+02  0.45594000000E+02  0.51100000000E-03 0.  1.
    9900012    2    1    2    0    0 -0.38482030914E+00  0.11154910225E+01  0.22777846993E-01  0.90007777258E+02  0.90000039117E+02 0.  0.
        -12    1    1    2    0    0  0.38482030914E+00 -0.11154910225E+01 -0.22777846993E-01  0.11802227425E+01  0.00000000000E+00 0.  1.
         11    1    3    3    0    0  0.10550750087E+02  0.33836603567E+02  0.79586985812E+01  0.36325954243E+02  0.51100000000E-03 0. -1.
        -11    1    3    3    0    0  0.11687515224E+02  0.10043078256E+01  0.19346410569E+01  0.11889048852E+02  0.51100000000E-03 0.  1.
        -12    1    3    3    0    0 -0.22623085620E+02 -0.33725420370E+02 -0.98705617911E+01  0.41792774162E+02  0.00000000000E+00 0.  1.
</event>
<event>
 7    1  0.2542335E-015  0.9000776E+02  0.7816164E-02  0.1186339E+00
        -11   -1    0    0    0    0  0.00000000000E+00  0.00000000000E+00  0.45593999997E+02  0.45594000000E+02  0.51100000000E-03 0.  1.
         11   -1    0    0    0    0 -0.00000000000E+00 -0.00000000000E+00 -0.45593999997E+02  0.45594000000E+02  0.51100000000E-03 0. -1.
    9900012    2    1    2    0    0  0.51389448882E+00 -0.88664483646E+00 -0.58544947100E+00  0.90007755239E+02  0.90000016809E+02 0.  0.
        -12    1    1    2    0    0 -0.51389448882E+00  0.88664483646E+00  0.58544947100E+00  0.11802447605E+01  0.00000000000E+00 0.  1.
         11    1    3    3    0    0 -0.14266745293E+02  0.21447303413E+02 -0.32724125275E+02  0.41646070886E+02  0.51100000000E-03 0. -1.
        -11    1    3    3    0    0  0.40949733134E+01 -0.41431997594E+01 -0.36090943727E+01  0.68527712012E+01  0.51100000000E-03 0.  1.
        -12    1    3    3    0    0  0.10685666469E+02 -0.18190748490E+02  0.35747770177E+02  0.41508913153E+02  0.00000000000E+00 0.  1.
</event>
<event>
 7    1  0.2542335E-015  0.9000772E+02  0.7816164E-02  0.1186339E+00
        -11   -1    0    0    0    0  0.00000000000E+00  0.00000000000E+00  0.45593999997E+02  0.45594000000E+02  0.51100000000E-03 0.  1.
         11   -1    0    0    0    0 -0.00000000000E+00 -0.00000000000E+00 -0.45593999997E+02  0.45594000000E+02  0.51100000000E-03 0. -1.
    9900012    2    1    2    0    0  0.47693195377E+00  0.10760475897E+01 -0.87877303828E-01  0.90007718286E+02  0.89999979367E+02 0.  0.
        -12    1    1    2    0    0 -0.47693195377E+00 -0.10760475897E+01  0.87877303828E-01  0.11802817139E+01  0.00000000000E+00 0.  1.
         11    1    3    3    0    0  0.22716602806E+02  0.21809647928E+02 -0.15688996457E+02  0.35183083945E+02  0.51100000000E-03 0. -1.
        -11    1    3    3    0    0  0.33493310148E+01  0.97253159190E+01 -0.32716673200E+01  0.10793683120E+02  0.51100000000E-03 0.  1.
        -12    1    3    3    0    0 -0.25589001867E+02 -0.30458916258E+02  0.18872786474E+02  0.44030951221E+02  0.00000000000E+00 0.  1.
</event>
<event>
 7    1  0.2542335E-015  0.9000778E+02  0.7816164E-02  0.1186339E+00
        -11   -1    0    0    0    0  0.00000000000E+00  0.00000000000E+00  0.45593999997E+02  0.45594000000E+02  0.51100000000E-03 0. -1.
         11   -1    0    0    0    0 -0.00000000000E+00 -0.00000000000E+00 -0.45593999997E+02  0.45594000000E+02  0.51100000000E-03 0.  1.
    9900012    2    1    2    0    0  0.80767500467E+00 -0.65019762439E+00  0.56375886317E+00  0.90007779716E+02  0.90000041608E+02 0.  0.
        -12    1    1    2    0    0 -0.80767500467E+00  0.65019762439E+00 -0.56375886317E+00  0.11802202844E+01  0.00000000000E+00 0.  1.
         11    1    3    3    0    0 -0.89673446916E+01  0.33878108772E+01  0.33764261271E+02  0.35098659131E+02  0.51100000000E-03 0. -1.
        -11    1    3    3    0    0 -0.11196133555E+02  0.33102170146E+01  0.33389382030E+01  0.12143288346E+02  0.51100000000E-03 0.  1.
        -12    1    3    3    0    0  0.20971153251E+02 -0.73482255162E+01 -0.36539440611E+02  0.42765832239E+02  0.00000000000E+00 0.  1.
</event>
<event>
 7    1  0.2542335E-015  0.9000779E+02  0.7816164E-02  0.1186339E+00
        -11   -1    0    0    0    0  0.00000000000E+00  0.00000000000E+00  0.45593999997E+02  0.45594000000E+02  0.51100000000E-03 0.  1.
         11   -1    0    0    0    0 -0.00000000000E+00 -0.00000000000E+00 -0.45593999997E+02  0.45594000000E+02  0.51100000000E-03 0. -1.
    9900012    2    1    2    0    0  0.84197388317E+00  0.77100259140E+00  0.29922365604E+00  0.90007788234E+02  0.90000050239E+02 0.  0.
        -12    1    1    2    0    0 -0.84197388317E+00 -0.77100259140E+00 -0.29922365604E+00  0.11802117658E+01  0.00000000000E+00 0.  1.
         11    1    3    3    0    0 -0.30556569592E+01 -0.13193884511E+02 -0.24690436664E+02  0.28160846771E+02  0.51100000000E-03 0. -1.
        -11    1    3    3    0    0 -0.10521959098E+02 -0.11404594547E+02  0.28505128949E+02  0.32454872926E+02  0.51100000000E-03 0.  1.
         12    1    3    3    0    0  0.14419589940E+02  0.25369481649E+02 -0.35154686283E+01  0.29392068536E+02  0.00000000000E+00 0. -1.
</event>
<event>
 7    1  0.2542335E-015  0.9000774E+02  0.7816164E-02  0.1186339E+00
        -11   -1    0    0    0    0  0.00000000000E+00  0.00000000000E+00  0.45593999997E+02  0.45594000000E+02  0.51100000000E-03 0. -1.
         11   -1    0    0    0    0 -0.00000000000E+00 -0.00000000000E+00 -0.45593999997E+02  0.45594000000E+02  0.51100000000E-03 0.  1.
    9900012    2    1    2    0    0  0.10078818275E+01  0.60935746972E+00  0.76622324945E-01  0.90007740162E+02  0.90000001532E+02 0.  0.
        -12    1    1    2    0    0 -0.10078818275E+01 -0.60935746972E+00 -0.76622324945E-01  0.11802598378E+01  0.00000000000E+00 0.  1.
         11    1    3    3    0    0  0.24542800801E+02  0.26166872835E+02  0.24283830750E+02  0.43321573624E+02  0.51100000000E-03 0. -1.
        -11    1    3    3    0    0  0.15912001722E+01 -0.73145485237E+01 -0.28817220060E+00  0.74911669032E+01  0.51100000000E-03 0.  1.
        -12    1    3    3    0    0 -0.25126119146E+02 -0.18242966841E+02 -0.23919036224E+02  0.39194999635E+02  0.00000000000E+00 0.  1.
</event>
<event>
 7    1  0.2542335E-015  0.9000748E+02  0.7816164E-02  0.1186340E+00
        -11   -1    0    0    0    0  0.00000000000E+00  0.00000000000E+00  0.45593999997E+02  0.45594000000E+02  0.51100000000E-03 0. -1.
         11   -1    0    0    0    0 -0.00000000000E+00 -0.00000000000E+00 -0.45593999997E+02  0.45594000000E+02  0.51100000000E-03 0.  1.
    9900012    2    1    2    0    0 -0.10130436916E+01  0.56147974310E+00  0.22830239726E+00  0.90007475114E+02  0.89999732985E+02 0.  0.
        -12    1    1    2    0    0  0.10130436916E+01 -0.56147974310E+00 -0.22830239726E+00  0.11805248865E+01  0.00000000000E+00 0.  1.
         11    1    3    3    0    0 -0.16547449918E-02 -0.11405354166E+02  0.37839819253E+02  0.39521311058E+02  0.51100000000E-03 0. -1.
        -11    1    3    3    0    0  0.67098162395E+01 -0.41447132972E+01  0.99190792514E+00  0.79488467010E+01  0.51100000000E-03 0.  1.
        -12    1    3    3    0    0 -0.77212051861E+01  0.16111547207E+02 -0.38603424781E+02  0.42537317354E+02  0.00000000000E+00 0.  1.
</event>
<event>
 7    1  0.2542335E-015  0.9000775E+02  0.7816164E-02  0.1186339E+00
        -11   -1    0    0    0    0  0.00000000000E+00  0.00000000000E+00  0.45593999997E+02  0.45594000000E+02  0.51100000000E-03 0. -1.
         11   -1    0    0    0    0 -0.00000000000E+00 -0.00000000000E+00 -0.45593999997E+02  0.45594000000E+02  0.51100000000E-03 0.  1.
    9900012    2    1    2    0    0  0.11564462660E+01 -0.16216801766E+00 -0.17123817625E+00  0.90007750473E+02  0.90000011980E+02 0.  0.
        -12    1    1    2    0    0 -0.11564462660E+01  0.16216801766E+00  0.17123817625E+00  0.11802495267E+01  0.00000000000E+00 0.  1.
         11    1    3    3    0    0  0.48396643322E+01 -0.88969533302E+01 -0.28011835950E+01  0.10508318572E+02  0.51100000000E-03 0. -1.
        -11    1    3    3    0    0 -0.13887786870E+02  0.40622983691E+02 -0.93532868989E+01  0.43938381902E+02  0.51100000000E-03 0.  1.
         12    1    3    3    0    0  0.10204568803E+02 -0.31888198379E+02  0.11983232318E+02  0.35561050000E+02  0.00000000000E+00 0. -1.
</event>
<event>
 7    1  0.2542335E-015  0.9000774E+02  0.7816164E-02  0.1186339E+00
        -11   -1    0    0    0    0  0.00000000000E+00  0.00000000000E+00  0.45593999997E+02  0.45594000000E+02  0.51100000000E-03 0.  1.
         11   -1    0    0    0    0 -0.00000000000E+00 -0.00000000000E+00 -0.45593999997E+02  0.45594000000E+02  0.51100000000E-03 0. -1.
    9900012    2    1    2    0    0 -0.72804564341E+00 -0.54189285889E+00 -0.75452344303E+00  0.90007744114E+02  0.90000005537E+02 0.  0.
        -12    1    1    2    0    0  0.72804564341E+00  0.54189285889E+00  0.75452344303E+00  0.11802558856E+01  0.00000000000E+00 0.  1.
         11    1    3    3    0    0  0.71675422595E+00 -0.13016781070E+01  0.10344536569E+02  0.10450719573E+02  0.51100000000E-03 0. -1.
        -11    1    3    3    0    0  0.10321194747E+02  0.33269347957E+02 -0.24383078247E+02  0.42519537622E+02  0.51100000000E-03 0.  1.
         12    1    3    3    0    0 -0.11765994616E+02 -0.32509562709E+02  0.13284018235E+02  0.37037486920E+02  0.00000000000E+00 0. -1.
</event>
<event>
 7    1  0.2542335E-015  0.9000777E+02  0.7816164E-02  0.1186339E+00
        -11   -1    0    0    0    0  0.00000000000E+00  0.00000000000E+00  0.45593999997E+02  0.45594000000E+02  0.51100000000E-03 0.  1.
         11   -1    0    0    0    0 -0.00000000000E+00 -0.00000000000E+00 -0.45593999997E+02  0.45594000000E+02  0.51100000000E-03 0. -1.
    9900012    2    1    2    0    0  0.41879712428E-01 -0.53538631720E+00 -0.10509802122E+01  0.90007766199E+02  0.90000027913E+02 0.  0.
        -12    1    1    2    0    0 -0.41879712428E-01  0.53538631720E+00  0.10509802122E+01  0.11802338011E+01  0.00000000000E+00 0.  1.
         11    1    3    3    0    0  0.52001093424E+01  0.57255931498E+01  0.75028999683E+01  0.10775762724E+02  0.51100000000E-03 0. -1.
        -11    1    3    3    0    0 -0.16982039224E+02  0.26118752498E+02  0.17764101482E+02  0.35862824624E+02  0.51100000000E-03 0.  1.
         12    1    3    3    0    0  0.11823809594E+02 -0.32379731965E+02 -0.26317981662E+02  0.43369178851E+02  0.00000000000E+00 0. -1.
</event>
<event>
 7    1  0.2542335E-015  0.9000770E+02  0.7816164E-02  0.1186339E+00
        -11   -1    0    0    0    0  0.00000000000E+00  0.00000000000E+00  0.45593999997E+02  0.45594000000E+02  0.51100000000E-03 0.  1.
         11   -1    0    0    0    0 -0.00000000000E+00 -0.00000000000E+00 -0.45593999997E+02  0.45594000000E+02  0.51100000000E-03 0. -1.
    9900012    2    1    2    0    0  0.53178921043E+00  0.96768296745E+00 -0.41700468441E+00  0.90007702158E+02  0.89999963026E+02 0.  0.
        -12    1    1    2    0    0 -0.53178921043E+00 -0.96768296745E+00  0.41700468441E+00  0.11802978423E+01  0.00000000000E+00 0.  1.
         11    1    3    3    0    0  0.45328956188E+01  0.19099776483E+02 -0.13931978455E+02  0.24071739205E+02  0.51100000000E-03 0. -1.
        -11    1    3    3    0    0  0.26468011287E+02 -0.43779515673E+01  0.17854431290E+02  0.32225809506E+02  0.51100000000E-03 0.  1.
         12    1    3    3    0    0 -0.30469117695E+02 -0.13754141948E+02 -0.43394575191E+01  0.33710153447E+02  0.00000000000E+00 0. -1.
</event>
<event>
 7    1  0.2542335E-015  0.9000876E+02  0.7816164E-02  0.1186337E+00
        -11   -1    0    0    0    0  0.00000000000E+00  0.00000000000E+00  0.45593999997E+02  0.45594000000E+02  0.51100000000E-03 0.  1.
         11   -1    0    0    0    0 -0.00000000000E+00 -0.00000000000E+00 -0.45593999997E+02  0.45594000000E+02  0.51100000000E-03 0. -1.
    9900012    2    1    2    0    0 -0.48392351633E-01 -0.37746040867E+00 -0.11161531836E+01  0.90008756128E+02  0.90001030903E+02 0.  0.
        -12    1    1    2    0    0  0.48392351633E-01  0.37746040867E+00  0.11161531836E+01  0.11792438717E+01  0.00000000000E+00 0.  1.
         11    1    3    3    0    0  0.95657019580E+01  0.34173458088E+02 -0.84721911701E+01  0.36484324238E+02  0.51100000000E-03 0. -1.
        -11    1    3    3    0    0 -0.11988156608E+01  0.57454649431E+01 -0.77087658181E+01  0.96887871842E+01  0.51100000000E-03 0.  1.
        -12    1    3    3    0    0 -0.84152786488E+01 -0.40296383440E+02  0.15064803805E+02  0.43835644706E+02  0.00000000000E+00 0.  1.
</event>
<event>
 7    1  0.2542335E-015  0.9000770E+02  0.7816164E-02  0.1186339E+00
        -11   -1    0    0    0    0  0.00000000000E+00  0.00000000000E+00  0.45593999997E+02  0.45594000000E+02  0.51100000000E-03 0.  1.
         11   -1    0    0    0    0 -0.00000000000E+00 -0.00000000000E+00 -0.45593999997E+02  0.45594000000E+02  0.51100000000E-03 0. -1.
    9900012    2    1    2    0    0  0.96098165348E+00 -0.56886401923E-01 -0.68293203855E+00  0.90007695814E+02  0.89999956599E+02 0.  0.
        -12    1    1    2    0    0 -0.96098165348E+00  0.56886401923E-01  0.68293203855E+00  0.11803041855E+01  0.00000000000E+00 0.  1.
         11    1    3    3    0    0  0.83842045875E+01  0.13088284529E+02 -0.32724754369E+02  0.36228547131E+02  0.51100000000E-03 0. -1.
        -11    1    3    3    0    0  0.30551011005E+01  0.61443246093E+01 -0.64823374031E+01  0.94396539189E+01  0.51100000000E-03 0.  1.
        -12    1    3    3    0    0 -0.10478324035E+02 -0.19289495540E+02  0.38524159734E+02  0.44339494764E+02  0.00000000000E+00 0.  1.
</event>
<event>
 7    1  0.2542335E-015  0.9000778E+02  0.7816164E-02  0.1186339E+00
        -11   -1    0    0    0    0  0.00000000000E+00  0.00000000000E+00  0.45593999997E+02  0.45594000000E+02  0.51100000000E-03 0.  1.
         11   -1    0    0    0    0 -0.00000000000E+00 -0.00000000000E+00 -0.45593999997E+02  0.45594000000E+02  0.51100000000E-03 0. -1.
    9900012    2    1    2    0    0 -0.37110451917E+00  0.38840598065E+00  0.10508818193E+01  0.90007775289E+02  0.90000037123E+02 0.  0.
        -12    1    1    2    0    0  0.37110451917E+00 -0.38840598065E+00 -0.10508818193E+01  0.11802247108E+01  0.00000000000E+00 0.  1.
         11    1    3    3    0    0 -0.88594830993E+01 -0.41517927172E+02 -0.10349147907E+02  0.43695921779E+02  0.51100000000E-03 0. -1.
        -11    1    3    3    0    0 -0.24120894063E+01  0.87344005531E+01 -0.13058091035E+01  0.91549476242E+01  0.51100000000E-03 0.  1.
        -12    1    3    3    0    0  0.10900467986E+02  0.33171932599E+02  0.12705838829E+02  0.37156905886E+02  0.00000000000E+00 0.  1.
</event>
<event>
 7    1  0.2542335E-015  0.9000775E+02  0.7816164E-02  0.1186339E+00
        -11   -1    0    0    0    0  0.00000000000E+00  0.00000000000E+00  0.45593999997E+02  0.45594000000E+02  0.51100000000E-03 0.  1.
         11   -1    0    0    0    0 -0.00000000000E+00 -0.00000000000E+00 -0.45593999997E+02  0.45594000000E+02  0.51100000000E-03 0. -1.
    9900012    2    1    2    0    0  0.49466891223E+00  0.70639537066E+00 -0.80579254496E+00  0.90007748595E+02  0.90000010077E+02 0.  0.
        -12    1    1    2    0    0 -0.49466891223E+00 -0.70639537066E+00  0.80579254496E+00  0.11802514045E+01  0.00000000000E+00 0.  1.
         11    1    3    3    0    0 -0.30280717398E+01 -0.52595399656E+01 -0.76708990525E+01  0.97813430389E+01  0.51100000000E-03 0. -1.
        -11    1    3    3    0    0 -0.33950373737E+02  0.20320966285E+02  0.32646279595E+00  0.39568625524E+02  0.51100000000E-03 0.  1.
         12    1    3    3    0    0  0.37473114389E+02 -0.14355030948E+02  0.65386437116E+01  0.40657780032E+02  0.00000000000E+00 0. -1.
</event>
<event>
 7    1  0.2542335E-015  0.9000769E+02  0.7816164E-02  0.1186339E+00
        -11   -1    0    0    0    0  0.00000000000E+00  0.00000000000E+00  0.45593999997E+02  0.45594000000E+02  0.51100000000E-03 0. -1.
         11   -1    0    0    0    0 -0.00000000000E+00 -0.00000000000E+00 -0.45593999997E+02  0.45594000000E+02  0.51100000000E-03 0.  1.
    9900012    2    1    2    0    0 -0.40974362162E+00  0.90317653788E+00 -0.63993380200E+00  0.90007689462E+02  0.89999950163E+02 0.  0.
        -12    1    1    2    0    0  0.40974362162E+00 -0.90317653788E+00  0.63993380200E+00  0.11803105375E+01  0.00000000000E+00 0.  1.
         11    1    3    3    0    0  0.21040079953E+01 -0.61913063454E+01  0.25700308174E+02  0.26519143357E+02  0.51100000000E-03 0. -1.
        -11    1    3    3    0    0  0.10461293515E+02  0.27818201426E+02 -0.33175688099E+01  0.29904803221E+02  0.51100000000E-03 0.  1.
         12    1    3    3    0    0 -0.12975045132E+02 -0.20723718543E+02 -0.23022673166E+02  0.33583742884E+02  0.00000000000E+00 0. -1.
</event>
<event>
 7    1  0.2542335E-015  0.9000775E+02  0.7816164E-02  0.1186339E+00
        -11   -1    0    0    0    0  0.00000000000E+00  0.00000000000E+00  0.45593999997E+02  0.45594000000E+02  0.51100000000E-03 0. -1.
         11   -1    0    0    0    0 -0.00000000000E+00 -0.00000000000E+00 -0.45593999997E+02  0.45594000000E+02  0.51100000000E-03 0.  1.
    9900012    2    1    2    0    0 -0.11161927773E+01 -0.25956459343E+00  0.28236502711E+00  0.90007749983E+02  0.90000011483E+02 0.  0.
        -12    1    1    2    0    0  0.11161927773E+01  0.25956459343E+00 -0.28236502711E+00  0.11802500170E+01  0.00000000000E+00 0.  1.
         11    1    3    3    0    0 -0.33122875239E+02  0.21903399937E+02  0.52698012616E+00  0.39713492685E+02  0.51100000000E-03 0. -1.
        -11    1    3    3    0    0  0.10819637501E+01  0.50018178728E+01 -0.69079085775E+01  0.85969778855E+01  0.51100000000E-03 0.  1.
        -12    1    3    3    0    0  0.30924718712E+02 -0.27164782403E+02  0.66632934784E+01  0.41697279413E+02  0.00000000000E+00 0.  1.
</event>
<event>
 7    1  0.2542335E-015  0.9000769E+02  0.7816164E-02  0.1186339E+00
        -11   -1    0    0    0    0  0.00000000000E+00  0.00000000000E+00  0.45593999997E+02  0.45594000000E+02  0.51100000000E-03 0.  1.
         11   -1    0    0    0    0 -0.00000000000E+00 -0.00000000000E+00 -0.45593999997E+02  0.45594000000E+02  0.51100000000E-03 0. -1.
    9900012    2    1    2    0    0  0.10687867033E+01  0.22759583672E+00 -0.44612396397E+00  0.90007690094E+02  0.89999950804E+02 0.  0.
        -12    1    1    2    0    0 -0.10687867033E+01 -0.22759583672E+00  0.44612396397E+00  0.11803099056E+01  0.00000000000E+00 0.  1.
         11    1    3    3    0    0  0.21730696858E+02 -0.14793795124E+02  0.14178126707E+02  0.29868023659E+02  0.51100000000E-03 0. -1.
        -11    1    3    3    0    0 -0.48343818102E+01  0.73218923605E+01  0.19700130739E+02  0.21565632535E+02  0.51100000000E-03 0.  1.
         12    1    3    3    0    0 -0.15827528344E+02  0.76994986006E+01 -0.34324381410E+02  0.38574033901E+02  0.00000000000E+00 0. -1.
</event>
<event>
 7    1  0.2542335E-015  0.9000779E+02  0.7816164E-02  0.1186339E+00
        -11   -1    0    0    0    0  0.00000000000E+00  0.00000000000E+00  0.45593999997E+02  0.45594000000E+02  0.51100000000E-03 0.  1.
         11   -1    0    0    0    0 -0.00000000000E+00 -0.00000000000E+00 -0.45593999997E+02  0.45594000000E+02  0.51100000000E-03 0. -1.
    9900012    2    1    2    0    0  0.10913264148E+00  0.11729887922E+01  0.71310154033E-01  0.90007789096E+02  0.90000051112E+02 0.  0.
        -12    1    1    2    0    0 -0.10913264148E+00 -0.11729887922E+01 -0.71310154033E-01  0.11802109041E+01  0.00000000000E+00 0.  1.
         11    1    3    3    0    0 -0.85553722462E+01  0.93218579297E+00  0.49638987603E+01  0.99349713531E+01  0.51100000000E-03 0. -1.
        -11    1    3    3    0    0  0.20548689172E+02  0.12209265672E+02  0.31746134510E+02  0.39738292006E+02  0.51100000000E-03 0.  1.
         12    1    3    3    0    0 -0.11884184284E+02 -0.11968462672E+02 -0.36638723116E+02  0.40334525737E+02  0.00000000000E+00 0. -1.
</event>
<event>
 7    1  0.2542335E-015  0.9000778E+02  0.7816164E-02  0.1186339E+00
        -11   -1    0    0    0    0  0.00000000000E+00  0.00000000000E+00  0.45593999997E+02  0.45594000000E+02  0.51100000000E-03 0.  1.
         11   -1    0    0    0    0 -0.00000000000E+00 -0.00000000000E+00 -0.45593999997E+02  0.45594000000E+02  0.51100000000E-03 0. -1.
    9900012    2    1    2    0    0  0.80835286326E+00  0.29252739172E+00 -0.80864762861E+00  0.90007780693E+02  0.90000042598E+02 0.  0.
        -12    1    1    2    0    0 -0.80835286326E+00 -0.29252739172E+00  0.80864762861E+00  0.11802193075E+01  0.00000000000E+00 0.  1.
         11    1    3    3    0    0  0.28324934362E+02  0.31966593777E+02  0.15589494417E-01  0.42710247806E+02  0.51100000000E-03 0. -1.
        -11    1    3    3    0    0 -0.67871309238E+01 -0.42441516897E+00 -0.64561739230E+01  0.93769641354E+01  0.51100000000E-03 0.  1.
        -12    1    3    3    0    0 -0.20729450575E+02 -0.31249651217E+02  0.56319367999E+01  0.37920568751E+02  0.00000000000E+00 0.  1.
</event>
<event>
 7    1  0.2542335E-015  0.9000767E+02  0.7816164E-02  0.1186339E+00
        -11   -1    0    0    0    0  0.00000000000E+00  0.00000000000E+00  0.45593999997E+02  0.45594000000E+02  0.51100000000E-03 0.  1.
         11   -1    0    0    0    0 -0.00000000000E+00 -0.00000000000E+00 -0.45593999997E+02  0.45594000000E+02  0.51100000000E-03 0. -1.
    9900012    2    1    2    0    0  0.24181622126E-01  0.91881073827E+00 -0.74052104635E+00  0.90007674052E+02  0.89999934549E+02 0.  0.
        -12    1    1    2    0    0 -0.24181622126E-01 -0.91881073827E+00  0.74052104635E+00  0.11803259481E+01  0.00000000000E+00 0.  1.
         11    1    3    3    0    0  0.13525872711E+01 -0.49551094706E+01  0.59930663379E+01  0.78929998469E+01  0.51100000000E-03 0. -1.
        -11    1    3    3    0    0 -0.20532983057E+01  0.29119090118E+02  0.27911272983E+02  0.40387827412E+02  0.51100000000E-03 0.  1.
         12    1    3    3    0    0  0.72489265669E+00 -0.23245169909E+02 -0.34644860367E+02  0.41726846794E+02  0.00000000000E+00 0. -1.
</event>
<event>
 7    1  0.2542335E-015  0.9000765E+02  0.7816164E-02  0.1186339E+00
        -11   -1    0    0    0    0  0.00000000000E+00  0.00000000000E+00  0.45593999997E+02  0.45594000000E+02  0.51100000000E-03 0. -1.
         11   -1    0    0    0    0 -0.00000000000E+00 -0.00000000000E+00 -0.45593999997E+02  0.45594000000E+02  0.51100000000E-03 0.  1.
    9900012    2    1    2    0    0  0.10057511385E+01 -0.61265000849E+00 -0.79653128553E-01  0.90007652591E+02  0.89999912805E+02 0.  0.
        -12    1    1    2    0    0 -0.10057511385E+01  0.61265000849E+00  0.79653128553E-01  0.11803474092E+01  0.00000000000E+00 0.  1.
         11    1    3    3    0    0 -0.29875311318E+02 -0.10664743834E+02  0.23223432258E+02  0.39314104256E+02  0.51100000000E-03 0. -1.
        -11    1    3    3    0    0  0.32755150870E+01  0.45340845906E+01  0.72443619498E+01  0.91524697476E+01  0.51100000000E-03 0.  1.
        -12    1    3    3    0    0  0.27605547369E+02  0.55180092345E+01 -0.30547447336E+02  0.41541078587E+02  0.00000000000E+00 0.  1.
</event>
<event>
 7    1  0.2542335E-015  0.9000757E+02  0.7816164E-02  0.1186339E+00
        -11   -1    0    0    0    0  0.00000000000E+00  0.00000000000E+00  0.45593999997E+02  0.45594000000E+02  0.51100000000E-03 0. -1.
         11   -1    0    0    0    0 -0.00000000000E+00 -0.00000000000E+00 -0.45593999997E+02  0.45594000000E+02  0.51100000000E-03 0.  1.
    9900012    2    1    2    0    0 -0.41249037545E+00  0.11049751689E+01 -0.47985630069E-01  0.90007567429E+02  0.89999826519E+02 0.  0.
        -12    1    1    2    0    0  0.41249037545E+00 -0.11049751689E+01  0.47985630069E-01  0.11804325709E+01  0.00000000000E+00 0.  1.
         11    1    3    3    0    0  0.53562656659E+01 -0.20601852240E+02  0.28755875375E+02  0.35777454723E+02  0.51100000000E-03 0. -1.
        -11    1    3    3    0    0 -0.72351228774E+00 -0.10705065171E+02 -0.23653028830E+00  0.10732093793E+02  0.51100000000E-03 0.  1.
        -12    1    3    3    0    0 -0.50452437536E+01  0.32411892580E+02 -0.28567330717E+02  0.43498018913E+02  0.00000000000E+00 0.  1.
</event>
<event>
 7    1  0.4467303E-015  0.9000761E+02  0.7816164E-02  0.1186339E+00
        -11   -1    0    0    0    0  0.00000000000E+00  0.00000000000E+00  0.45593999997E+02  0.45594000000E+02  0.51100000000E-03 0.  1.
         11   -1    0    0    0    0 -0.00000000000E+00 -0.00000000000E+00 -0.45593999997E+02  0.45594000000E+02  0.51100000000E-03 0. -1.
    9900012    2    1    2    0    0  0.78365811042E+00  0.83175720191E+00 -0.29561652732E+00  0.90007606333E+02  0.89999865937E+02 0.  0.
        -12    1    1    2    0    0 -0.78365811042E+00 -0.83175720191E+00  0.29561652732E+00  0.11803936666E+01  0.00000000000E+00 0.  1.
         11    1    3    3    0    0  0.99819964919E+01  0.78819502808E+00  0.13484695815E+01  0.10103458608E+02  0.51100000000E-03 0. -1.
        -11    1    3    3    0    0 -0.31050430912E+02 -0.36528311697E+00  0.28850269705E+02  0.42386327441E+02  0.51100000000E-03 0.  1.
         12    1    3    3    0    0  0.21852092531E+02  0.40884529079E+00 -0.30494355814E+02  0.37517820285E+02  0.00000000000E+00 0. -1.
</event>
<event>
 7    1  0.2542335E-015  0.9000769E+02  0.7816164E-02  0.1186339E+00
        -11   -1    0    0    0    0  0.00000000000E+00  0.00000000000E+00  0.45593999997E+02  0.45594000000E+02  0.51100000000E-03 0.  1.
         11   -1    0    0    0    0 -0.00000000000E+00 -0.00000000000E+00 -0.45593999997E+02  0.45594000000E+02  0.51100000000E-03 0. -1.
    9900012    2    1    2    0    0  0.42601610764E+00 -0.47956242935E+00 -0.99079232646E+00  0.90007686787E+02  0.89999947452E+02 0.  0.
        -12    1    1    2    0    0 -0.42601610764E+00  0.47956242935E+00  0.99079232646E+00  0.11803132134E+01  0.00000000000E+00 0.  1.
         11    1    3    3    0    0  0.12557783762E+02  0.37948833153E+02  0.64874890994E+01  0.40495671198E+02  0.51100000000E-03 0. -1.
        -11    1    3    3    0    0 -0.12112874368E+02 -0.81707637182E+01 -0.12014248604E+02  0.18916270113E+02  0.51100000000E-03 0.  1.
        -12    1    3    3    0    0 -0.18893285826E-01 -0.30257631864E+02  0.45359671785E+01  0.30595745476E+02  0.00000000000E+00 0.  1.
</event>
<event>
 7    1  0.2542335E-015  0.9000766E+02  0.7816164E-02  0.1186339E+00
        -11   -1    0    0    0    0  0.00000000000E+00  0.00000000000E+00  0.45593999997E+02  0.45594000000E+02  0.51100000000E-03 0. -1.
         11   -1    0    0    0    0 -0.00000000000E+00 -0.00000000000E+00 -0.45593999997E+02  0.45594000000E+02  0.51100000000E-03 0.  1.
    9900012    2    1    2    0    0 -0.11726623702E+01 -0.13296081831E+00  0.19422988382E-01  0.90007664088E+02  0.89999924453E+02 0.  0.
        -12    1    1    2    0    0  0.11726623702E+01  0.13296081831E+00 -0.19422988382E-01  0.11803359125E+01  0.00000000000E+00 0.  1.
         11    1    3    3    0    0 -0.33916966657E+02  0.17456123057E+02  0.17247566130E+01  0.38184442447E+02  0.51100000000E-03 0. -1.
        -11    1    3    3    0    0 -0.10471500742E+01  0.80058211391E+01  0.40686393394E+01  0.90412124035E+01  0.51100000000E-03 0.  1.
        -12    1    3    3    0    0  0.33791454361E+02 -0.25594905015E+02 -0.57739729640E+01  0.42782009237E+02  0.00000000000E+00 0.  1.
</event>
<event>
 7    1  0.2542335E-015  0.9000783E+02  0.7816164E-02  0.1186339E+00
        -11   -1    0    0    0    0  0.00000000000E+00  0.00000000000E+00  0.45593999997E+02  0.45594000000E+02  0.51100000000E-03 0. -1.
         11   -1    0    0    0    0 -0.00000000000E+00 -0.00000000000E+00 -0.45593999997E+02  0.45594000000E+02  0.51100000000E-03 0.  1.
    9900012    2    1    2    0    0 -0.96063304487E+00  0.63146225923E+00  0.26692750701E+00  0.90007825977E+02  0.90000088479E+02 0.  0.
        -12    1    1    2    0    0  0.96063304487E+00 -0.63146225923E+00 -0.26692750701E+00  0.11801740235E+01  0.00000000000E+00 0.  1.
         11    1    3    3    0    0 -0.25703556874E+02  0.20119677872E+02  0.26487159508E+02  0.42036221199E+02  0.51100000000E-03 0. -1.
        -11    1    3    3    0    0  0.46533093318E+00  0.45258770923E+01 -0.81582003813E+01  0.93411096801E+01  0.51100000000E-03 0.  1.
        -12    1    3    3    0    0  0.24277592896E+02 -0.24014092705E+02 -0.18062031620E+02  0.38630495097E+02  0.00000000000E+00 0.  1.
</event>
<event>
 7    1  0.2542335E-015  0.9000765E+02  0.7816164E-02  0.1186339E+00
        -11   -1    0    0    0    0  0.00000000000E+00  0.00000000000E+00  0.45593999997E+02  0.45594000000E+02  0.51100000000E-03 0. -1.
         11   -1    0    0    0    0 -0.00000000000E+00 -0.00000000000E+00 -0.45593999997E+02  0.45594000000E+02  0.51100000000E-03 0.  1.
    9900012    2    1    2    0    0  0.10417982317E+01  0.29790844734E-01  0.55407180528E+00  0.90007649791E+02  0.89999909968E+02 0.  0.
        -12    1    1    2    0    0 -0.10417982317E+01 -0.29790844734E-01 -0.55407180528E+00  0.11803502088E+01  0.00000000000E+00 0.  1.
         11    1    3    3    0    0 -0.35331905889E+01  0.57304399806E+01 -0.18793787026E+01  0.69895237805E+01  0.51100000000E-03 0. -1.
        -11    1    3    3    0    0  0.29986059294E+02 -0.17806590649E+02 -0.25623276788E+02  0.43275752289E+02  0.51100000000E-03 0.  1.
         12    1    3    3    0    0 -0.25411070473E+02  0.12105941514E+02  0.28056727296E+02  0.39742373722E+02  0.00000000000E+00 0. -1.
</event>
<event>
 7    1  0.2542335E-015  0.9000755E+02  0.7816164E-02  0.1186339E+00
        -11   -1    0    0    0    0  0.00000000000E+00  0.00000000000E+00  0.45593999997E+02  0.45594000000E+02  0.51100000000E-03 0.  1.
         11   -1    0    0    0    0 -0.00000000000E+00 -0.00000000000E+00 -0.45593999997E+02  0.45594000000E+02  0.51100000000E-03 0. -1.
    9900012    2    1    2    0    0 -0.10027927775E+01  0.34258462651E+00 -0.52009975912E+00  0.90007550365E+02  0.89999809230E+02 0.  0.
        -12    1    1    2    0    0  0.10027927775E+01 -0.34258462651E+00  0.52009975912E+00  0.11804496348E+01  0.00000000000E+00 0.  1.
         11    1    3    3    0    0  0.49992418420E+01 -0.16944821207E+01  0.56621136954E+01  0.77410090049E+01  0.51100000000E-03 0. -1.
        -11    1    3    3    0    0 -0.17114122849E+02  0.67332464141E+01  0.34900274729E+02  0.39449448470E+02  0.51100000000E-03 0.  1.
         12    1    3    3    0    0  0.11112088229E+02 -0.46961796668E+01 -0.41082488183E+02  0.42817092891E+02  0.00000000000E+00 0. -1.
</event>
<event>
 7    1 -0.2542335E-015  0.9000777E+02  0.7816164E-02  0.1186339E+00
        -11   -1    0    0    0    0  0.00000000000E+00  0.00000000000E+00  0.45593999997E+02  0.45594000000E+02  0.51100000000E-03 0.  1.
         11   -1    0    0    0    0 -0.00000000000E+00 -0.00000000000E+00 -0.45593999997E+02  0.45594000000E+02  0.51100000000E-03 0. -1.
    9900012    2    1    2    0    0  0.12613104697E-02  0.56452778901E+00 -0.10364549073E+01  0.90007774602E+02  0.90000036427E+02 0.  0.
        -12    1    1    2    0    0 -0.12613104697E-02 -0.56452778901E+00  0.10364549073E+01  0.11802253981E+01  0.00000000000E+00 0.  1.
         11    1    3    3    0    0 -0.21641251679E+02  0.14741083685E+02 -0.24847814648E+02  0.36097883809E+02  0.51100000000E-03 0. -1.
        -11    1    3    3    0    0 -0.48883320567E+01  0.77440528746E+01 -0.36728873522E+01  0.98669269271E+01  0.51100000000E-03 0.  1.
        -12    1    3    3    0    0  0.26530845046E+02 -0.21920608771E+02  0.27484247093E+02  0.44042963865E+02  0.00000000000E+00 0.  1.
</event>
<event>
 7    1  0.2542335E-015  0.9000753E+02  0.7816164E-02  0.1186339E+00
        -11   -1    0    0    0    0  0.00000000000E+00  0.00000000000E+00  0.45593999997E+02  0.45594000000E+02  0.51100000000E-03 0. -1.
         11   -1    0    0    0    0 -0.00000000000E+00 -0.00000000000E+00 -0.45593999997E+02  0.45594000000E+02  0.51100000000E-03 0.  1.
    9900012    2    1    2    0    0 -0.23340679411E+00  0.73220478594E+00  0.89604978550E+00  0.90007530687E+02  0.89999789292E+02 0.  0.
        -12    1    1    2    0    0  0.23340679411E+00 -0.73220478594E+00 -0.89604978550E+00  0.11804693127E+01  0.00000000000E+00 0.  1.
         11    1    3    3    0    0 -0.24664619248E+01 -0.57557462062E+01 -0.71300436087E+01  0.94894452388E+01  0.51100000000E-03 0. -1.
        -11    1    3    3    0    0 -0.37313029443E+02  0.13343830477E+02  0.77671093391E+01  0.40381282370E+02  0.51100000000E-03 0.  1.
         12    1    3    3    0    0  0.39546084574E+02 -0.68558794853E+01  0.25898405507E+00  0.40136803079E+02  0.00000000000E+00 0. -1.
</event>
<event>
 7    1  0.2542335E-015  0.9000781E+02  0.7816164E-02  0.1186339E+00
        -11   -1    0    0    0    0  0.00000000000E+00  0.00000000000E+00  0.45593999997E+02  0.45594000000E+02  0.51100000000E-03 0.  1.
         11   -1    0    0    0    0 -0.00000000000E+00 -0.00000000000E+00 -0.45593999997E+02  0.45594000000E+02  0.51100000000E-03 0. -1.
    9900012    2    1    2    0    0  0.49530129372E+00  0.70880681063E+00 -0.80319136694E+00  0.90007810677E+02  0.90000072978E+02 0.  0.
        -12    1    1    2    0    0 -0.49530129372E+00 -0.70880681063E+00  0.80319136694E+00  0.11801893231E+01  0.00000000000E+00 0.  1.
         11    1    3    3    0    0 -0.29292045848E+02  0.87572749367E+01 -0.17294061193E+02  0.35125466077E+02  0.51100000000E-03 0. -1.
        -11    1    3    3    0    0 -0.10554037948E+02  0.18375110089E+01  0.20406356814E+01  0.10905427913E+02  0.51100000000E-03 0.  1.
        -12    1    3    3    0    0  0.40341385090E+02 -0.98859791350E+01  0.14450234145E+02  0.43976916687E+02  0.00000000000E+00 0.  1.
</event>
<event>
 7    1  0.2542335E-015  0.9000771E+02  0.7816164E-02  0.1186339E+00
        -11   -1    0    0    0    0  0.00000000000E+00  0.00000000000E+00  0.45593999997E+02  0.45594000000E+02  0.51100000000E-03 0. -1.
         11   -1    0    0    0    0 -0.00000000000E+00 -0.00000000000E+00 -0.45593999997E+02  0.45594000000E+02  0.51100000000E-03 0.  1.
    9900012    2    1    2    0    0  0.36386588070E+00 -0.88295251066E+00  0.69359801038E+00  0.90007711173E+02  0.89999972160E+02 0.  0.
        -12    1    1    2    0    0 -0.36386588070E+00  0.88295251066E+00 -0.69359801038E+00  0.11802888270E+01  0.00000000000E+00 0.  1.
         11    1    3    3    0    0 -0.21801254078E+01 -0.35603990501E+02 -0.22517239431E+02  0.42183209435E+02  0.51100000000E-03 0. -1.
        -11    1    3    3    0    0  0.79972801505E+01  0.57553097403E+01 -0.69013268816E+00  0.98770624885E+01  0.51100000000E-03 0.  1.
        -12    1    3    3    0    0 -0.54532888620E+01  0.28965728250E+02  0.23900970129E+02  0.37947439249E+02  0.00000000000E+00 0.  1.
</event>
<event>
 7    1  0.2542335E-015  0.9000759E+02  0.7816164E-02  0.1186339E+00
        -11   -1    0    0    0    0  0.00000000000E+00  0.00000000000E+00  0.45593999997E+02  0.45594000000E+02  0.51100000000E-03 0. -1.
         11   -1    0    0    0    0 -0.00000000000E+00 -0.00000000000E+00 -0.45593999997E+02  0.45594000000E+02  0.51100000000E-03 0.  1.
    9900012    2    1    2    0    0 -0.44855645608E+00 -0.69984885329E-01  0.10896167926E+01  0.90007590947E+02  0.89999850347E+02 0.  0.
        -12    1    1    2    0    0  0.44855645608E+00  0.69984885329E-01 -0.10896167926E+01  0.11804090533E+01  0.00000000000E+00 0.  1.
         11    1    3    3    0    0  0.13278927190E+02 -0.27715539985E+02 -0.21218928847E+02  0.37346003878E+02  0.51100000000E-03 0. -1.
        -11    1    3    3    0    0 -0.66202991885E+01 -0.82841713852E+01  0.20315754072E+01  0.10797368002E+02  0.51100000000E-03 0.  1.
         12    1    3    3    0    0 -0.71071844577E+01  0.35929726485E+02  0.20276970233E+02  0.41864219066E+02  0.00000000000E+00 0. -1.
</event>
<event>
 7    1  0.2542335E-015  0.9000783E+02  0.7816164E-02  0.1186339E+00
        -11   -1    0    0    0    0  0.00000000000E+00  0.00000000000E+00  0.45593999997E+02  0.45594000000E+02  0.51100000000E-03 0.  1.
         11   -1    0    0    0    0 -0.00000000000E+00 -0.00000000000E+00 -0.45593999997E+02  0.45594000000E+02  0.51100000000E-03 0. -1.
    9900012    2    1    2    0    0  0.38151944847E+00 -0.23457211717E+00 -0.10918916785E+01  0.90007826875E+02  0.90000089390E+02 0.  0.
        -12    1    1    2    0    0 -0.38151944847E+00  0.23457211717E+00  0.10918916785E+01  0.11801731252E+01  0.00000000000E+00 0.  1.
         11    1    3    3    0    0 -0.25025410588E+02  0.27094455062E+02  0.10029096065E+02  0.38222551436E+02  0.51100000000E-03 0. -1.
        -11    1    3    3    0    0 -0.47067168869E+01 -0.59429974725E+01  0.72886805451E+01  0.10516523530E+02  0.51100000000E-03 0.  1.
        -12    1    3    3    0    0  0.30113646923E+02 -0.21386029706E+02 -0.18409668288E+02  0.41268751908E+02  0.00000000000E+00 0.  1.
</event>
<event>
 7    1  0.2542335E-015  0.9000781E+02  0.7816164E-02  0.1186339E+00
        -11   -1    0    0    0    0  0.00000000000E+00  0.00000000000E+00  0.45593999997E+02  0.45594000000E+02  0.51100000000E-03 0.  1.
         11   -1    0    0    0    0 -0.00000000000E+00 -0.00000000000E+00 -0.45593999997E+02  0.45594000000E+02  0.51100000000E-03 0. -1.
    9900012    2    1    2    0    0  0.67576768795E+00 -0.79525916295E+00 -0.55112399933E+00  0.90007814944E+02  0.90000077301E+02 0.  0.
        -12    1    1    2    0    0 -0.67576768795E+00  0.79525916295E+00  0.55112399933E+00  0.11801850562E+01  0.00000000000E+00 0.  1.
         11    1    3    3    0    0  0.58349659683E+01 -0.10391601454E+02 -0.52694905510E+01  0.13030722910E+02  0.51100000000E-03 0. -1.
        -11    1    3    3    0    0 -0.22351195773E+02  0.14617186077E+01 -0.29970801698E+02  0.37416059766E+02  0.51100000000E-03 0.  1.
         12    1    3    3    0    0  0.17191997493E+02  0.81346236830E+01  0.34689168249E+02  0.39561032268E+02  0.00000000000E+00 0. -1.
</event>
<event>
 7    1  0.2542335E-015  0.9000750E+02  0.7816164E-02  0.1186340E+00
        -11   -1    0    0    0    0  0.00000000000E+00  0.00000000000E+00  0.45593999997E+02  0.45594000000E+02  0.51100000000E-03 0.  1.
         11   -1    0    0    0    0 -0.00000000000E+00 -0.00000000000E+00 -0.45593999997E+02  0.45594000000E+02  0.51100000000E-03 0. -1.
    9900012    2    1    2    0    0  0.66207518465E+00  0.41244479226E+00 -0.88607880059E+00  0.90007495914E+02  0.89999754059E+02 0.  0.
        -12    1    1    2    0    0 -0.66207518465E+00 -0.41244479226E+00  0.88607880059E+00  0.11805040862E+01  0.00000000000E+00 0.  1.
         11    1    3    3    0    0 -0.93986613155E+01 -0.93624532964E+01 -0.27466938460E+01  0.13547497688E+02  0.51100000000E-03 0. -1.
        -11    1    3    3    0    0 -0.13571443276E+02  0.17816613223E+01  0.33488175525E+02  0.36177566114E+02  0.51100000000E-03 0.  1.
         12    1    3    3    0    0  0.23632179777E+02  0.79932367664E+01 -0.31627560480E+02  0.40282432112E+02  0.00000000000E+00 0. -1.
</event>
<event>
 7    1  0.2542335E-015  0.9000775E+02  0.7816164E-02  0.1186339E+00
        -11   -1    0    0    0    0  0.00000000000E+00  0.00000000000E+00  0.45593999997E+02  0.45594000000E+02  0.51100000000E-03 0.  1.
         11   -1    0    0    0    0 -0.00000000000E+00 -0.00000000000E+00 -0.45593999997E+02  0.45594000000E+02  0.51100000000E-03 0. -1.
    9900012    2    1    2    0    0  0.10745989483E+01 -0.39515022413E+00 -0.28651133437E+00  0.90007747763E+02  0.90000009233E+02 0.  0.
        -12    1    1    2    0    0 -0.10745989483E+01  0.39515022413E+00  0.28651133437E+00  0.11802522375E+01  0.00000000000E+00 0.  1.
         11    1    3    3    0    0 -0.71894946569E+01  0.67039566090E+00  0.38016591019E+01  0.81603232750E+01  0.51100000000E-03 0. -1.
        -11    1    3    3    0    0  0.17095468660E+02  0.15536799330E+02  0.32989549390E+02  0.40273534130E+02  0.51100000000E-03 0.  1.
         12    1    3    3    0    0 -0.88313750549E+01 -0.16602345215E+02 -0.37077719826E+02  0.41573890358E+02  0.00000000000E+00 0. -1.
</event>
<event>
 7    1  0.2542335E-015  0.9000785E+02  0.7816164E-02  0.1186339E+00
        -11   -1    0    0    0    0  0.00000000000E+00  0.00000000000E+00  0.45593999997E+02  0.45594000000E+02  0.51100000000E-03 0.  1.
         11   -1    0    0    0    0 -0.00000000000E+00 -0.00000000000E+00 -0.45593999997E+02  0.45594000000E+02  0.51100000000E-03 0. -1.
    9900012    2    1    2    0    0 -0.10713640696E+01 -0.29021491773E+00  0.40088954865E+00  0.90007848273E+02  0.90000111070E+02 0.  0.
        -12    1    1    2    0    0  0.10713640696E+01  0.29021491773E+00 -0.40088954865E+00  0.11801517268E+01  0.00000000000E+00 0.  1.
         11    1    3    3    0    0 -0.32898222604E+02 -0.25080924713E+02  0.68586974986E+01  0.41933132087E+02  0.51100000000E-03 0. -1.
        -11    1    3    3    0    0 -0.18038189538E+01  0.71889410702E+01 -0.68815795641E+01  0.10113890156E+02  0.51100000000E-03 0.  1.
        -12    1    3    3    0    0  0.33630677488E+02  0.17601768725E+02  0.42377161414E+00  0.37960826031E+02  0.00000000000E+00 0.  1.
</event>
<event>
 7    1  0.2542335E-015  0.9000777E+02  0.7816164E-02  0.1186339E+00
        -11   -1    0    0    0    0  0.00000000000E+00  0.00000000000E+00  0.45593999997E+02  0.45594000000E+02  0.51100000000E-03 0.  1.
         11   -1    0    0    0    0 -0.00000000000E+00 -0.00000000000E+00 -0.45593999997E+02  0.45594000000E+02  0.51100000000E-03 0. -1.
    9900012    2    1    2    0    0  0.70752410455E-01 -0.49153981247E+00 -0.10706699090E+01  0.90007766402E+02  0.90000028119E+02 0.  0.
        -12    1    1    2    0    0 -0.70752410455E-01  0.49153981247E+00  0.10706699090E+01  0.11802335976E+01  0.00000000000E+00 0.  1.
         11    1    3    3    0    0  0.42547037318E+01 -0.99968007787E+00 -0.95214721912E+01  0.10476654860E+02  0.51100000000E-03 0. -1.
        -11    1    3    3    0    0  0.31712765517E+02  0.18928256382E+02  0.12479508307E+02  0.38983541582E+02  0.51100000000E-03 0.  1.
         12    1    3    3    0    0 -0.35896716838E+02 -0.18420116117E+02 -0.40287060253E+01  0.40547569961E+02  0.00000000000E+00 0. -1.
</event>
<event>
 7    1  0.2542335E-015  0.9000785E+02  0.7816164E-02  0.1186339E+00
        -11   -1    0    0    0    0  0.00000000000E+00  0.00000000000E+00  0.45593999997E+02  0.45594000000E+02  0.51100000000E-03 0.  1.
         11   -1    0    0    0    0 -0.00000000000E+00 -0.00000000000E+00 -0.45593999997E+02  0.45594000000E+02  0.51100000000E-03 0. -1.
    9900012    2    1    2    0    0  0.11468336869E+01 -0.18040841598E+00 -0.21207168804E+00  0.90007852084E+02  0.90000114932E+02 0.  0.
        -12    1    1    2    0    0 -0.11468336869E+01  0.18040841598E+00  0.21207168804E+00  0.11801479157E+01  0.00000000000E+00 0.  1.
         11    1    3    3    0    0  0.31486474053E+02 -0.36673325989E+01  0.25163231167E+02  0.40472652245E+02  0.51100000000E-03 0. -1.
        -11    1    3    3    0    0  0.16776081942E+01  0.96808293532E+01 -0.73854073851E+01  0.12291341209E+02  0.51100000000E-03 0.  1.
        -12    1    3    3    0    0 -0.32017248561E+02 -0.61939051703E+01 -0.17989895470E+02  0.37243858630E+02  0.00000000000E+00 0.  1.
</event>
<event>
 7    1  0.2542335E-015  0.9000781E+02  0.7816164E-02  0.1186339E+00
        -11   -1    0    0    0    0  0.00000000000E+00  0.00000000000E+00  0.45593999997E+02  0.45594000000E+02  0.51100000000E-03 0.  1.
         11   -1    0    0    0    0 -0.00000000000E+00 -0.00000000000E+00 -0.45593999997E+02  0.45594000000E+02  0.51100000000E-03 0. -1.
    9900012    2    1    2    0    0  0.33530731394E+00 -0.10860926475E+01 -0.31750403905E+00  0.90007814824E+02  0.90000077180E+02 0.  0.
        -12    1    1    2    0    0 -0.33530731394E+00  0.10860926475E+01  0.31750403905E+00  0.11801851756E+01  0.00000000000E+00 0.  1.
         11    1    3    3    0    0 -0.20483239758E+00 -0.47161564193E+00 -0.77163954947E+01  0.77335074395E+01  0.51100000000E-03 0. -1.
        -11    1    3    3    0    0 -0.36847956204E+02 -0.15089447636E+02 -0.54142018483E+01  0.40184286585E+02  0.51100000000E-03 0.  1.
         12    1    3    3    0    0  0.37388095916E+02  0.14474970631E+02  0.12813093304E+02  0.42090020800E+02  0.00000000000E+00 0. -1.
</event>
<event>
 7    1  0.2542335E-015  0.9000774E+02  0.7816164E-02  0.1186339E+00
        -11   -1    0    0    0    0  0.00000000000E+00  0.00000000000E+00  0.45593999997E+02  0.45594000000E+02  0.51100000000E-03 0.  1.
         11   -1    0    0    0    0 -0.00000000000E+00 -0.00000000000E+00 -0.45593999997E+02  0.45594000000E+02  0.51100000000E-03 0. -1.
    9900012    2    1    2    0    0  0.37974607658E+00  0.23110663213E-02 -0.11174985330E+01  0.90007739268E+02  0.90000000627E+02 0.  0.
        -12    1    1    2    0    0 -0.37974607658E+00 -0.23110663213E-02  0.11174985330E+01  0.11802607318E+01  0.00000000000E+00 0.  1.
         11    1    3    3    0    0 -0.52291206455E+01 -0.58242131418E+00  0.94067461472E+01  0.10778209065E+02  0.51100000000E-03 0. -1.
        -11    1    3    3    0    0  0.93548286915E+01  0.34481704817E+02 -0.23474775902E+02  0.42750039659E+02  0.51100000000E-03 0.  1.
         12    1    3    3    0    0 -0.37459619695E+01 -0.33896972436E+02  0.12950531222E+02  0.36479490544E+02  0.00000000000E+00 0. -1.
</event>
<event>
 7    1  0.2542335E-015  0.9000766E+02  0.7816164E-02  0.1186339E+00
        -11   -1    0    0    0    0  0.00000000000E+00  0.00000000000E+00  0.45593999997E+02  0.45594000000E+02  0.51100000000E-03 0.  1.
         11   -1    0    0    0    0 -0.00000000000E+00 -0.00000000000E+00 -0.45593999997E+02  0.45594000000E+02  0.51100000000E-03 0. -1.
    9900012    2    1    2    0    0 -0.79787903299E+00 -0.35987230867E+00 -0.79188831726E+00  0.90007658466E+02  0.89999918758E+02 0.  0.
        -12    1    1    2    0    0  0.79787903299E+00  0.35987230867E+00  0.79188831726E+00  0.11803415340E+01  0.00000000000E+00 0.  1.
         11    1    3    3    0    0  0.71196397125E+01 -0.42605816602E+01 -0.50828016975E+00  0.83126514850E+01  0.51100000000E-03 0. -1.
        -11    1    3    3    0    0  0.31633249760E+02  0.98820013382E+01  0.18000429507E+02  0.37713815818E+02  0.51100000000E-03 0.  1.
         12    1    3    3    0    0 -0.39550768506E+02 -0.59812919866E+01 -0.18284037654E+02  0.43981191163E+02  0.00000000000E+00 0. -1.
</event>
<event>
 7    1  0.2542335E-015  0.9000788E+02  0.7816164E-02  0.1186339E+00
        -11   -1    0    0    0    0  0.00000000000E+00  0.00000000000E+00  0.45593999997E+02  0.45594000000E+02  0.51100000000E-03 0. -1.
         11   -1    0    0    0    0 -0.00000000000E+00 -0.00000000000E+00 -0.45593999997E+02  0.45594000000E+02  0.51100000000E-03 0.  1.
    9900012    2    1    2    0    0 -0.17877300625E+00  0.95070551328E+00 -0.67593358032E+00  0.90007878411E+02  0.90000141606E+02 0.  0.
        -12    1    1    2    0    0  0.17877300625E+00 -0.95070551328E+00  0.67593358032E+00  0.11801215894E+01  0.00000000000E+00 0.  1.
         11    1    3    3    0    0  0.28877063960E+02 -0.11930162517E+02  0.85315539450E+01  0.32388285129E+02  0.51100000000E-03 0. -1.
        -11    1    3    3    0    0  0.10483632089E+02 -0.69255212683E+01 -0.68704340268E+00  0.12583378541E+02  0.51100000000E-03 0.  1.
        -12    1    3    3    0    0 -0.39539469054E+02  0.19806389298E+02 -0.85204441226E+01  0.45036214741E+02  0.00000000000E+00 0.  1.
</event>
<event>
 7    1  0.2542335E-015  0.9000789E+02  0.7816164E-02  0.1186339E+00
        -11   -1    0    0    0    0  0.00000000000E+00  0.00000000000E+00  0.45593999997E+02  0.45594000000E+02  0.51100000000E-03 0. -1.
         11   -1    0    0    0    0 -0.00000000000E+00 -0.00000000000E+00 -0.45593999997E+02  0.45594000000E+02  0.51100000000E-03 0.  1.
    9900012    2    1    2    0    0 -0.76019574703E+00 -0.68096905675E+00  0.59248157248E+00  0.90007893715E+02  0.90000157112E+02 0.  0.
        -12    1    1    2    0    0  0.76019574703E+00  0.68096905675E+00 -0.59248157248E+00  0.11801062850E+01  0.00000000000E+00 0.  1.
         11    1    3    3    0    0 -0.39213898645E+02  0.15600993477E+01 -0.84394702389E+01  0.40142102774E+02  0.51100000000E-03 0. -1.
        -11    1    3    3    0    0 -0.18894935147E+01 -0.50360484793E+01  0.77143631061E+01  0.94044334450E+01  0.51100000000E-03 0.  1.
        -12    1    3    3    0    0  0.40343196413E+02  0.27949800749E+01  0.13175887052E+01  0.40461357496E+02  0.00000000000E+00 0.  1.
</event>
<event>
 7    1  0.2542335E-015  0.9000788E+02  0.7816164E-02  0.1186339E+00
        -11   -1    0    0    0    0  0.00000000000E+00  0.00000000000E+00  0.45593999997E+02  0.45594000000E+02  0.51100000000E-03 0. -1.
         11   -1    0    0    0    0 -0.00000000000E+00 -0.00000000000E+00 -0.45593999997E+02  0.45594000000E+02  0.51100000000E-03 0.  1.
    9900012    2    1    2    0    0 -0.28671492409E+00 -0.26302668891E+00  0.11141341564E+01  0.90007879919E+02  0.90000143134E+02 0.  0.
        -12    1    1    2    0    0  0.28671492409E+00  0.26302668891E+00 -0.11141341564E+01  0.11801200809E+01  0.00000000000E+00 0.  1.
         11    1    3    3    0    0  0.38252049524E+01 -0.39315089623E+01 -0.51333177631E+01  0.75126498099E+01  0.51100000000E-03 0. -1.
        -11    1    3    3    0    0  0.34811656077E+02  0.19580302775E+02 -0.27906505272E+00  0.39941426278E+02  0.51100000000E-03 0.  1.
         12    1    3    3    0    0 -0.38923575954E+02 -0.15911820502E+02  0.65265169723E+01  0.42553803831E+02  0.00000000000E+00 0. -1.
</event>
<event>
 7    1  0.2542335E-015  0.9000771E+02  0.7816164E-02  0.1186339E+00
        -11   -1    0    0    0    0  0.00000000000E+00  0.00000000000E+00  0.45593999997E+02  0.45594000000E+02  0.51100000000E-03 0. -1.
         11   -1    0    0    0    0 -0.00000000000E+00 -0.00000000000E+00 -0.45593999997E+02  0.45594000000E+02  0.51100000000E-03 0.  1.
    9900012    2    1    2    0    0  0.24724066717E+00  0.87455528726E+00  0.75307147695E+00  0.90007707008E+02  0.89999967940E+02 0.  0.
        -12    1    1    2    0    0 -0.24724066717E+00 -0.87455528726E+00 -0.75307147695E+00  0.11802929922E+01  0.00000000000E+00 0.  1.
         11    1    3    3    0    0 -0.70623294182E+01 -0.33779225701E+02 -0.95478216038E+01  0.35806053726E+02  0.51100000000E-03 0. -1.
        -11    1    3    3    0    0 -0.53132910399E+01 -0.73928133198E+01  0.36122837255E+01  0.97945568777E+01  0.51100000000E-03 0.  1.
        -12    1    3    3    0    0  0.12622861125E+02  0.42046594308E+02  0.66886093552E+01  0.44407096404E+02  0.00000000000E+00 0.  1.
</event>
<event>
 7    1  0.2542335E-015  0.9000797E+02  0.7816164E-02  0.1186339E+00
        -11   -1    0    0    0    0  0.00000000000E+00  0.00000000000E+00  0.45593999997E+02  0.45594000000E+02  0.51100000000E-03 0.  1.
         11   -1    0    0    0    0 -0.00000000000E+00 -0.00000000000E+00 -0.45593999997E+02  0.45594000000E+02  0.51100000000E-03 0. -1.
    9900012    2    1    2    0    0  0.71589481428E+00 -0.46791724739E+00 -0.81303587397E+00  0.90007966412E+02  0.90000230769E+02 0.  0.
        -12    1    1    2    0    0 -0.71589481428E+00  0.46791724739E+00  0.81303587397E+00  0.11800335876E+01  0.00000000000E+00 0.  1.
         11    1    3    3    0    0 -0.52281256150E+01  0.38974496208E+01 -0.10540666694E+02  0.12394719263E+02  0.51100000000E-03 0. -1.
        -11    1    3    3    0    0 -0.96473058404E+00  0.36018107915E+02  0.45231730156E+01  0.36313825154E+02  0.51100000000E-03 0.  1.
         12    1    3    3    0    0  0.69087510133E+01 -0.40383474784E+02  0.52044578043E+01  0.41299421996E+02  0.00000000000E+00 0. -1.
</event>
<event>
 7    1  0.2542335E-015  0.9000776E+02  0.7816164E-02  0.1186339E+00
        -11   -1    0    0    0    0  0.00000000000E+00  0.00000000000E+00  0.45593999997E+02  0.45594000000E+02  0.51100000000E-03 0.  1.
         11   -1    0    0    0    0 -0.00000000000E+00 -0.00000000000E+00 -0.45593999997E+02  0.45594000000E+02  0.51100000000E-03 0. -1.
    9900012    2    1    2    0    0  0.83300909696E+00  0.45596915167E+00 -0.70081809918E+00  0.90007763570E+02  0.90000025249E+02 0.  0.
        -12    1    1    2    0    0 -0.83300909696E+00 -0.45596915167E+00  0.70081809918E+00  0.11802364301E+01  0.00000000000E+00 0.  1.
         11    1    3    3    0    0  0.16073438246E+02  0.16071279143E+02 -0.29222269738E+02  0.37021378678E+02  0.51100000000E-03 0. -1.
        -11    1    3    3    0    0 -0.10784593049E+01 -0.67408760097E+01 -0.93582744130E+01  0.11583599790E+02  0.51100000000E-03 0.  1.
        -12    1    3    3    0    0 -0.14161969844E+02 -0.88744339820E+01  0.37879726052E+02  0.41402785101E+02  0.00000000000E+00 0.  1.
</event>
<event>
 7    1  0.2542335E-015  0.9000781E+02  0.7816164E-02  0.1186339E+00
        -11   -1    0    0    0    0  0.00000000000E+00  0.00000000000E+00  0.45593999997E+02  0.45594000000E+02  0.51100000000E-03 0. -1.
         11   -1    0    0    0    0 -0.00000000000E+00 -0.00000000000E+00 -0.45593999997E+02  0.45594000000E+02  0.51100000000E-03 0.  1.
    9900012    2    1    2    0    0 -0.65107235679E+00  0.77531244288E+00  0.60650505473E+00  0.90007808075E+02  0.90000070342E+02 0.  0.
        -12    1    1    2    0    0  0.65107235679E+00 -0.77531244288E+00 -0.60650505473E+00  0.11801919248E+01  0.00000000000E+00 0.  1.
         11    1    3    3    0    0  0.46572228883E+01  0.36780892970E+02  0.22526700264E+01  0.37142944623E+02  0.51100000000E-03 0. -1.
        -11    1    3    3    0    0  0.82841403679E+01  0.37522591932E+01  0.49166550959E+01  0.10338274918E+02  0.51100000000E-03 0.  1.
        -12    1    3    3    0    0 -0.13592435613E+02 -0.39757839721E+02 -0.65628200675E+01  0.42526588535E+02  0.00000000000E+00 0.  1.
</event>
<event>
 7    1  0.2542335E-015  0.9000777E+02  0.7816164E-02  0.1186339E+00
        -11   -1    0    0    0    0  0.00000000000E+00  0.00000000000E+00  0.45593999997E+02  0.45594000000E+02  0.51100000000E-03 0.  1.
         11   -1    0    0    0    0 -0.00000000000E+00 -0.00000000000E+00 -0.45593999997E+02  0.45594000000E+02  0.51100000000E-03 0. -1.
    9900012    2    1    2    0    0  0.11655535579E+01 -0.94153437555E-02 -0.18527948772E+00  0.90007774499E+02  0.90000036322E+02 0.  0.
        -12    1    1    2    0    0 -0.11655535579E+01  0.94153437555E-02  0.18527948772E+00  0.11802255011E+01  0.00000000000E+00 0.  1.
         11    1    3    3    0    0  0.46234026068E+01 -0.79197914416E+01 -0.67319722838E+01  0.11376220780E+02  0.51100000000E-03 0. -1.
        -11    1    3    3    0    0 -0.26662020747E+01  0.41483891454E+02 -0.74800195114E+01  0.42237099520E+02  0.51100000000E-03 0.  1.
         12    1    3    3    0    0 -0.79164697423E+00 -0.33573515356E+02  0.14026712307E+02  0.36394454199E+02  0.00000000000E+00 0. -1.
</event>
<event>
 7    1  0.2542335E-015  0.9000777E+02  0.7816164E-02  0.1186339E+00
        -11   -1    0    0    0    0  0.00000000000E+00  0.00000000000E+00  0.45593999997E+02  0.45594000000E+02  0.51100000000E-03 0.  1.
         11   -1    0    0    0    0 -0.00000000000E+00 -0.00000000000E+00 -0.45593999997E+02  0.45594000000E+02  0.51100000000E-03 0. -1.
    9900012    2    1    2    0    0 -0.62516428611E+00  0.36201886894E+00  0.93329774405E+00  0.90007774291E+02  0.90000036111E+02 0.  0.
        -12    1    1    2    0    0  0.62516428611E+00 -0.36201886894E+00 -0.93329774405E+00  0.11802257094E+01  0.00000000000E+00 0.  1.
         11    1    3    3    0    0 -0.10545938148E+02 -0.36341913405E+02  0.82971158951E+01  0.38740077617E+02  0.51100000000E-03 0. -1.
        -11    1    3    3    0    0  0.44173503743E+01 -0.34948148591E+01  0.63039072610E+01  0.84537543284E+01  0.51100000000E-03 0.  1.
        -12    1    3    3    0    0  0.55034234873E+01  0.40198747133E+02 -0.13667725412E+02  0.42813942345E+02  0.00000000000E+00 0.  1.
</event>
<event>
 7    1  0.2542335E-015  0.9000776E+02  0.7816164E-02  0.1186339E+00
        -11   -1    0    0    0    0  0.00000000000E+00  0.00000000000E+00  0.45593999997E+02  0.45594000000E+02  0.51100000000E-03 0.  1.
         11   -1    0    0    0    0 -0.00000000000E+00 -0.00000000000E+00 -0.45593999997E+02  0.45594000000E+02  0.51100000000E-03 0. -1.
    9900012    2    1    2    0    0 -0.18540530613E+00 -0.10913108849E+01 -0.40942722627E+00  0.90007760521E+02  0.90000022160E+02 0.  0.
        -12    1    1    2    0    0  0.18540530613E+00  0.10913108849E+01  0.40942722627E+00  0.11802394793E+01  0.00000000000E+00 0.  1.
         11    1    3    3    0    0  0.17566307385E+01  0.26079682684E+01 -0.10575776030E+02  0.11033326286E+02  0.51100000000E-03 0. -1.
        -11    1    3    3    0    0  0.37726601629E+02 -0.33804977286E+01  0.10488928593E+02  0.39303204178E+02  0.51100000000E-03 0.  1.
         12    1    3    3    0    0 -0.39668637673E+02 -0.31878142473E+00 -0.32257978914E+00  0.39671230056E+02  0.00000000000E+00 0. -1.
</event>
<event>
 7    1  0.2542335E-015  0.9000831E+02  0.7816164E-02  0.1186338E+00
        -11   -1    0    0    0    0  0.00000000000E+00  0.00000000000E+00  0.45593999997E+02  0.45594000000E+02  0.51100000000E-03 0. -1.
         11   -1    0    0    0    0 -0.00000000000E+00 -0.00000000000E+00 -0.45593999997E+02  0.45594000000E+02  0.51100000000E-03 0.  1.
    9900012    2    1    2    0    0  0.85989861850E+00  0.79083980598E+00 -0.16372415321E+00  0.90008314096E+02  0.90000583041E+02 0.  0.
        -12    1    1    2    0    0 -0.85989861850E+00 -0.79083980598E+00  0.16372415321E+00  0.11796859036E+01  0.00000000000E+00 0.  1.
         11    1    3    3    0    0 -0.36313141695E+02 -0.38860496842E+01  0.83922904345E+01  0.37472338877E+02  0.51100000000E-03 0. -1.
        -11    1    3    3    0    0  0.59074310128E-03 -0.64187848747E+01  0.80859235012E+01  0.10323902302E+02  0.51100000000E-03 0.  1.
        -12    1    3    3    0    0  0.37172449570E+02  0.11095674365E+02 -0.16641938089E+02  0.42212072918E+02  0.00000000000E+00 0.  1.
</event>
<event>
 7    1  0.2542335E-015  0.9000643E+02  0.7816164E-02  0.1186342E+00
        -11   -1    0    0    0    0  0.00000000000E+00  0.00000000000E+00  0.45593999997E+02  0.45594000000E+02  0.51100000000E-03 0. -1.
         11   -1    0    0    0    0 -0.00000000000E+00 -0.00000000000E+00 -0.45593999997E+02  0.45594000000E+02  0.51100000000E-03 0.  1.
    9900012    2    1    2    0    0  0.25194856812E+00  0.11498196495E+01 -0.10268346053E+00  0.90006430197E+02  0.89998674265E+02 0.  0.
        -12    1    1    2    0    0 -0.25194856812E+00 -0.11498196495E+01  0.10268346053E+00  0.11815698035E+01  0.00000000000E+00 0.  1.
         11    1    3    3    0    0  0.13016513069E+02  0.78821819848E+01 -0.42163985858E+01  0.15790390198E+02  0.51100000000E-03 0. -1.
        -11    1    3    3    0    0 -0.21204434384E+00  0.75958359783E+01 -0.32267175778E+02  0.33149846455E+02  0.51100000000E-03 0.  1.
         12    1    3    3    0    0 -0.12552520157E+02 -0.14328198314E+02  0.36380890904E+02  0.41066193543E+02  0.00000000000E+00 0. -1.
</event>
<event>
 7    1  0.2542335E-015  0.9000772E+02  0.7816164E-02  0.1186339E+00
        -11   -1    0    0    0    0  0.00000000000E+00  0.00000000000E+00  0.45593999997E+02  0.45594000000E+02  0.51100000000E-03 0.  1.
         11   -1    0    0    0    0 -0.00000000000E+00 -0.00000000000E+00 -0.45593999997E+02  0.45594000000E+02  0.51100000000E-03 0. -1.
    9900012    2    1    2    0    0 -0.37436435436E+00  0.91309292051E+00 -0.64743237153E+00  0.90007722055E+02  0.89999983186E+02 0.  0.
        -12    1    1    2    0    0  0.37436435436E+00 -0.91309292051E+00  0.64743237153E+00  0.11802779448E+01  0.00000000000E+00 0.  1.
         11    1    3    3    0    0 -0.11808122994E+02  0.39120227425E+01  0.22771239532E+01  0.12645986887E+02  0.51100000000E-03 0. -1.
        -11    1    3    3    0    0  0.38682516716E+02 -0.20509204654E+02  0.48525984974E+01  0.44051246151E+02  0.51100000000E-03 0.  1.
         12    1    3    3    0    0 -0.27248758076E+02  0.17510274832E+02 -0.77771548221E+01  0.33310489017E+02  0.00000000000E+00 0. -1.
</event>
<event>
 7    1  0.2542335E-015  0.9000774E+02  0.7816164E-02  0.1186339E+00
        -11   -1    0    0    0    0  0.00000000000E+00  0.00000000000E+00  0.45593999997E+02  0.45594000000E+02  0.51100000000E-03 0.  1.
         11   -1    0    0    0    0 -0.00000000000E+00 -0.00000000000E+00 -0.45593999997E+02  0.45594000000E+02  0.51100000000E-03 0. -1.
    9900012    2    1    2    0    0 -0.86077418514E+00 -0.76368778419E+00 -0.26240499874E+00  0.90007742565E+02  0.90000003967E+02 0.  0.
        -12    1    1    2    0    0  0.86077418514E+00  0.76368778419E+00  0.26240499874E+00  0.11802574350E+01  0.00000000000E+00 0.  1.
         11    1    3    3    0    0 -0.72826404419E+01 -0.57211264887E+00  0.10396166462E+02  0.12706078941E+02  0.51100000000E-03 0. -1.
        -11    1    3    3    0    0 -0.32016599866E+02  0.10552482486E+02 -0.15488550315E+02  0.37098689259E+02  0.51100000000E-03 0.  1.
         12    1    3    3    0    0  0.38438466123E+02 -0.10744057622E+02  0.48299788541E+01  0.40202974365E+02  0.00000000000E+00 0. -1.
</event>
<event>
 7    1  0.2542335E-015  0.9000778E+02  0.7816164E-02  0.1186339E+00
        -11   -1    0    0    0    0  0.00000000000E+00  0.00000000000E+00  0.45593999997E+02  0.45594000000E+02  0.51100000000E-03 0. -1.
         11   -1    0    0    0    0 -0.00000000000E+00 -0.00000000000E+00 -0.45593999997E+02  0.45594000000E+02  0.51100000000E-03 0.  1.
    9900012    2    1    2    0    0 -0.13202348455E+00  0.35219491268E+00  0.11186839911E+01  0.90007777424E+02  0.90000039286E+02 0.  0.
        -12    1    1    2    0    0  0.13202348455E+00 -0.35219491268E+00 -0.11186839911E+01  0.11802225760E+01  0.00000000000E+00 0.  1.
         11    1    3    3    0    0 -0.45667554740E+01  0.69975660644E+01 -0.72101591759E+01  0.11036647226E+02  0.51100000000E-03 0. -1.
        -11    1    3    3    0    0  0.14827672771E+02  0.27975311385E+02 -0.15924943230E+02  0.35441243545E+02  0.51100000000E-03 0.  1.
         12    1    3    3    0    0 -0.10392940782E+02 -0.34620682537E+02  0.24253786397E+02  0.43529886653E+02  0.00000000000E+00 0. -1.
</event>
<event>
 7    1  0.2542335E-015  0.9000774E+02  0.7816164E-02  0.1186339E+00
        -11   -1    0    0    0    0  0.00000000000E+00  0.00000000000E+00  0.45593999997E+02  0.45594000000E+02  0.51100000000E-03 0.  1.
         11   -1    0    0    0    0 -0.00000000000E+00 -0.00000000000E+00 -0.45593999997E+02  0.45594000000E+02  0.51100000000E-03 0. -1.
    9900012    2    1    2    0    0 -0.11598826557E+01  0.12087199120E+00  0.18189528492E+00  0.90007735747E+02  0.89999997058E+02 0.  0.
        -12    1    1    2    0    0  0.11598826557E+01 -0.12087199120E+00 -0.18189528492E+00  0.11802642535E+01  0.00000000000E+00 0.  1.
         11    1    3    3    0    0  0.14740637065E+01 -0.27651119610E+02 -0.22180174153E+02  0.35478407591E+02  0.51100000000E-03 0. -1.
        -11    1    3    3    0    0 -0.78130218115E+01 -0.93661444764E+01  0.45730417257E+01  0.13026153809E+02  0.51100000000E-03 0.  1.
        -12    1    3    3    0    0  0.51790754493E+01  0.37138136077E+02  0.17789027713E+02  0.41503174346E+02  0.00000000000E+00 0.  1.
</event>
<event>
 7    1  0.2542335E-015  0.9000779E+02  0.7816164E-02  0.1186339E+00
        -11   -1    0    0    0    0  0.00000000000E+00  0.00000000000E+00  0.45593999997E+02  0.45594000000E+02  0.51100000000E-03 0. -1.
         11   -1    0    0    0    0 -0.00000000000E+00 -0.00000000000E+00 -0.45593999997E+02  0.45594000000E+02  0.51100000000E-03 0.  1.
    9900012    2    1    2    0    0 -0.96003278364E+00 -0.11384005272E-01  0.68636278214E+00  0.90007793912E+02  0.90000055992E+02 0.  0.
        -12    1    1    2    0    0  0.96003278364E+00  0.11384005272E-01 -0.68636278214E+00  0.11802060879E+01  0.00000000000E+00 0.  1.
         11    1    3    3    0    0  0.33505010182E+02  0.61338548561E+01  0.18908997400E+02  0.38958440236E+02  0.51100000000E-03 0. -1.
        -11    1    3    3    0    0  0.24071638707E+01  0.56512748873E+01 -0.95847152871E+01  0.11384116705E+02  0.51100000000E-03 0.  1.
        -12    1    3    3    0    0 -0.36872206836E+02 -0.11796513749E+02 -0.86379193309E+01  0.39665236971E+02  0.00000000000E+00 0.  1.
</event>
<event>
 7    1  0.2542335E-015  0.9000773E+02  0.7816164E-02  0.1186339E+00
        -11   -1    0    0    0    0  0.00000000000E+00  0.00000000000E+00  0.45593999997E+02  0.45594000000E+02  0.51100000000E-03 0. -1.
         11   -1    0    0    0    0 -0.00000000000E+00 -0.00000000000E+00 -0.45593999997E+02  0.45594000000E+02  0.51100000000E-03 0.  1.
    9900012    2    1    2    0    0  0.11413012645E+01  0.24855581105E+00  0.16935320793E+00  0.90007733472E+02  0.89999994754E+02 0.  0.
        -12    1    1    2    0    0 -0.11413012645E+01 -0.24855581105E+00 -0.16935320793E+00  0.11802665277E+01  0.00000000000E+00 0.  1.
         11    1    3    3    0    0 -0.59148412818E+01  0.47643292980E+01  0.36792888225E+01  0.84392741127E+01  0.51100000000E-03 0. -1.
        -11    1    3    3    0    0  0.56562999643E+01  0.23473609270E+02 -0.32997562129E+02  0.40888178832E+02  0.51100000000E-03 0.  1.
         12    1    3    3    0    0  0.13998425820E+01 -0.27989382757E+02  0.29487626514E+02  0.40680280528E+02  0.00000000000E+00 0. -1.
</event>
<event>
 7    1  0.2542335E-015  0.9000780E+02  0.7816164E-02  0.1186339E+00
        -11   -1    0    0    0    0  0.00000000000E+00  0.00000000000E+00  0.45593999997E+02  0.45594000000E+02  0.51100000000E-03 0.  1.
         11   -1    0    0    0    0 -0.00000000000E+00 -0.00000000000E+00 -0.45593999997E+02  0.45594000000E+02  0.51100000000E-03 0. -1.
    9900012    2    1    2    0    0  0.11143578669E+01 -0.26507171601E+00  0.28429200930E+00  0.90007797299E+02  0.90000059423E+02 0.  0.
        -12    1    1    2    0    0 -0.11143578669E+01  0.26507171601E+00 -0.28429200930E+00  0.11802027015E+01  0.00000000000E+00 0.  1.
         11    1    3    3    0    0  0.29278748736E+02 -0.62726884697E+01 -0.22208557262E+02  0.37280179239E+02  0.51100000000E-03 0. -1.
        -11    1    3    3    0    0  0.77749350318E+01 -0.51972939370E+01  0.10692677276E+01  0.94130129475E+01  0.51100000000E-03 0.  1.
        -12    1    3    3    0    0 -0.35939325901E+02  0.11204910691E+02  0.21423581544E+02  0.43314605112E+02  0.00000000000E+00 0.  1.
</event>
<event>
 7    1  0.2542335E-015  0.9000771E+02  0.7816164E-02  0.1186339E+00
        -11   -1    0    0    0    0  0.00000000000E+00  0.00000000000E+00  0.45593999997E+02  0.45594000000E+02  0.51100000000E-03 0.  1.
         11   -1    0    0    0    0 -0.00000000000E+00 -0.00000000000E+00 -0.45593999997E+02  0.45594000000E+02  0.51100000000E-03 0. -1.
    9900012    2    1    2    0    0 -0.10434196471E+01  0.16504162377E+00 -0.52641544109E+00  0.90007713376E+02  0.89999974393E+02 0.  0.
        -12    1    1    2    0    0  0.10434196471E+01 -0.16504162377E+00  0.52641544109E+00  0.11802866237E+01  0.00000000000E+00 0.  1.
         11    1    3    3    0    0  0.15064479867E+02 -0.12263039097E+02 -0.30672361242E+02  0.36305845618E+02  0.51100000000E-03 0. -1.
        -11    1    3    3    0    0  0.30871296082E+01  0.45374175866E+01 -0.83359939304E+01  0.99803468197E+01  0.51100000000E-03 0.  1.
        -12    1    3    3    0    0 -0.19195029123E+02  0.78906631339E+01  0.38481939732E+02  0.43721520939E+02  0.00000000000E+00 0.  1.
</event>
<event>
 7    1  0.2542335E-015  0.9000661E+02  0.7816164E-02  0.1186341E+00
        -11   -1    0    0    0    0  0.00000000000E+00  0.00000000000E+00  0.45593999997E+02  0.45594000000E+02  0.51100000000E-03 0.  1.
         11   -1    0    0    0    0 -0.00000000000E+00 -0.00000000000E+00 -0.45593999997E+02  0.45594000000E+02  0.51100000000E-03 0. -1.
    9900012    2    1    2    0    0 -0.89463922192E+00 -0.46126910645E+00 -0.61848841065E+00  0.90006612494E+02  0.89998858971E+02 0.  0.
        -12    1    1    2    0    0  0.89463922192E+00  0.46126910645E+00  0.61848841065E+00  0.11813875063E+01  0.00000000000E+00 0.  1.
         11    1    3    3    0    0 -0.59337568527E+00 -0.46737017684E+01 -0.12280181696E+02  0.13152887351E+02  0.51100000000E-03 0. -1.
        -11    1    3    3    0    0 -0.37207125841E+02  0.40511889731E+01 -0.20488891552E+01  0.37483066743E+02  0.51100000000E-03 0.  1.
         12    1    3    3    0    0  0.36905862304E+02  0.16124368878E+00  0.13710582440E+02  0.39370658400E+02  0.00000000000E+00 0. -1.
</event>
<event>
 7    1  0.2542335E-015  0.9000769E+02  0.7816164E-02  0.1186339E+00
        -11   -1    0    0    0    0  0.00000000000E+00  0.00000000000E+00  0.45593999997E+02  0.45594000000E+02  0.51100000000E-03 0. -1.
         11   -1    0    0    0    0 -0.00000000000E+00 -0.00000000000E+00 -0.45593999997E+02  0.45594000000E+02  0.51100000000E-03 0.  1.
    9900012    2    1    2    0    0  0.21721671853E+00 -0.11085107546E+01  0.34227381245E+00  0.90007690482E+02  0.89999951196E+02 0.  0.
        -12    1    1    2    0    0 -0.21721671853E+00  0.11085107546E+01 -0.34227381245E+00  0.11803095181E+01  0.00000000000E+00 0.  1.
         11    1    3    3    0    0 -0.37389650325E+01 -0.24840196335E+02  0.29113445032E+02  0.38452670848E+02  0.51100000000E-03 0. -1.
        -11    1    3    3    0    0 -0.99957785516E+01 -0.18477869916E+01  0.60041267450E+00  0.10182848386E+02  0.51100000000E-03 0.  1.
        -12    1    3    3    0    0  0.13951960303E+02  0.25579472572E+02 -0.29371583894E+02  0.41372171248E+02  0.00000000000E+00 0.  1.
</event>
<event>
 7    1  0.2542335E-015  0.9000782E+02  0.7816164E-02  0.1186339E+00
        -11   -1    0    0    0    0  0.00000000000E+00  0.00000000000E+00  0.45593999997E+02  0.45594000000E+02  0.51100000000E-03 0.  1.
         11   -1    0    0    0    0 -0.00000000000E+00 -0.00000000000E+00 -0.45593999997E+02  0.45594000000E+02  0.51100000000E-03 0. -1.
    9900012    2    1    2    0    0  0.73216631409E-01  0.11092393589E+01 -0.39628423176E+00  0.90007824664E+02  0.90000087150E+02 0.  0.
        -12    1    1    2    0    0 -0.73216631409E-01 -0.11092393589E+01  0.39628423176E+00  0.11801753356E+01  0.00000000000E+00 0.  1.
         11    1    3    3    0    0 -0.59353344155E+01 -0.46941702925E+01 -0.81534032899E+01  0.11123911849E+02  0.51100000000E-03 0. -1.
        -11    1    3    3    0    0  0.11151447198E+02 -0.20925069497E+02  0.33750723177E+02  0.41247116545E+02  0.51100000000E-03 0.  1.
         12    1    3    3    0    0 -0.51428961515E+01  0.26728479148E+02 -0.25993604119E+02  0.37636796270E+02  0.00000000000E+00 0. -1.
</event>
<event>
 7    1  0.2542335E-015  0.9000768E+02  0.7816164E-02  0.1186339E+00
        -11   -1    0    0    0    0  0.00000000000E+00  0.00000000000E+00  0.45593999997E+02  0.45594000000E+02  0.51100000000E-03 0. -1.
         11   -1    0    0    0    0 -0.00000000000E+00 -0.00000000000E+00 -0.45593999997E+02  0.45594000000E+02  0.51100000000E-03 0.  1.
    9900012    2    1    2    0    0  0.81577446118E-01  0.11300770838E+01  0.33079000412E+00  0.90007681771E+02  0.89999942370E+02 0.  0.
        -12    1    1    2    0    0 -0.81577446118E-01 -0.11300770838E+01 -0.33079000412E+00  0.11803182290E+01  0.00000000000E+00 0.  1.
         11    1    3    3    0    0 -0.30360079243E+02  0.13306798423E+01  0.13003241486E+02  0.33054340258E+02  0.51100000000E-03 0. -1.
        -11    1    3    3    0    0 -0.91701314955E+01  0.91598993039E+01  0.30571750590E+01  0.13316958606E+02  0.51100000000E-03 0.  1.
        -12    1    3    3    0    0  0.39611788185E+02 -0.93605020624E+01 -0.15729626541E+02  0.43636382907E+02  0.00000000000E+00 0.  1.
</event>
<event>
 7    1  0.2542335E-015  0.9000773E+02  0.7816164E-02  0.1186339E+00
        -11   -1    0    0    0    0  0.00000000000E+00  0.00000000000E+00  0.45593999997E+02  0.45594000000E+02  0.51100000000E-03 0. -1.
         11   -1    0    0    0    0 -0.00000000000E+00 -0.00000000000E+00 -0.45593999997E+02  0.45594000000E+02  0.51100000000E-03 0.  1.
    9900012    2    1    2    0    0 -0.72001204581E-01  0.88458264404E+00  0.77805009623E+00  0.90007731988E+02  0.89999993250E+02 0.  0.
        -12    1    1    2    0    0  0.72001204581E-01 -0.88458264404E+00 -0.77805009623E+00  0.11802680119E+01  0.00000000000E+00 0.  1.
         11    1    3    3    0    0 -0.83531037887E+01  0.31104648323E+01 -0.28813262280E+01  0.93675704145E+01  0.51100000000E-03 0. -1.
        -11    1    3    3    0    0 -0.25361841734E+01  0.38164240515E+02 -0.27097317751E+01  0.38344284200E+02  0.51100000000E-03 0.  1.
         12    1    3    3    0    0  0.10817286758E+02 -0.40390122704E+02  0.63691080992E+01  0.42295877373E+02  0.00000000000E+00 0. -1.
</event>
<event>
 7    1  0.2542335E-015  0.9000773E+02  0.7816164E-02  0.1186339E+00
        -11   -1    0    0    0    0  0.00000000000E+00  0.00000000000E+00  0.45593999997E+02  0.45594000000E+02  0.51100000000E-03 0. -1.
         11   -1    0    0    0    0 -0.00000000000E+00 -0.00000000000E+00 -0.45593999997E+02  0.45594000000E+02  0.51100000000E-03 0.  1.
    9900012    2    1    2    0    0  0.38660114210E+00  0.46082937237E+00  0.10154906563E+01  0.90007726546E+02  0.89999987736E+02 0.  0.
        -12    1    1    2    0    0 -0.38660114210E+00 -0.46082937237E+00 -0.10154906563E+01  0.11802734541E+01  0.00000000000E+00 0.  1.
         11    1    3    3    0    0 -0.69441451546E+01  0.66114617028E+00 -0.50827856297E+01  0.86309313637E+01  0.51100000000E-03 0. -1.
        -11    1    3    3    0    0 -0.41507372250E+01 -0.35977136731E+02 -0.13924904303E+02  0.38800592096E+02  0.51100000000E-03 0.  1.
         12    1    3    3    0    0  0.11481483522E+02  0.35776819933E+02  0.20023180589E+02  0.42576203087E+02  0.00000000000E+00 0. -1.
</event>
<event>
 7    1  0.2542335E-015  0.9000775E+02  0.7816164E-02  0.1186339E+00
        -11   -1    0    0    0    0  0.00000000000E+00  0.00000000000E+00  0.45593999997E+02  0.45594000000E+02  0.51100000000E-03 0. -1.
         11   -1    0    0    0    0 -0.00000000000E+00 -0.00000000000E+00 -0.45593999997E+02  0.45594000000E+02  0.51100000000E-03 0.  1.
    9900012    2    1    2    0    0  0.17914292344E+00  0.11212264403E+01  0.32208806758E+00  0.90007753568E+02  0.90000015115E+02 0.  0.
        -12    1    1    2    0    0 -0.17914292344E+00 -0.11212264403E+01 -0.32208806758E+00  0.11802464322E+01  0.00000000000E+00 0.  1.
         11    1    3    3    0    0  0.22348431397E+02 -0.15238630618E+02  0.28107177239E+02  0.39008738273E+02  0.51100000000E-03 0. -1.
        -11    1    3    3    0    0 -0.11856136416E+01  0.10773519067E+02  0.47900043427E+01  0.11849832685E+02  0.51100000000E-03 0.  1.
        -12    1    3    3    0    0 -0.20983674832E+02  0.55863379909E+01 -0.32575093514E+02  0.39149182610E+02  0.00000000000E+00 0.  1.
</event>
<event>
 7    1  0.2542335E-015  0.9000769E+02  0.7816164E-02  0.1186339E+00
        -11   -1    0    0    0    0  0.00000000000E+00  0.00000000000E+00  0.45593999997E+02  0.45594000000E+02  0.51100000000E-03 0. -1.
         11   -1    0    0    0    0 -0.00000000000E+00 -0.00000000000E+00 -0.45593999997E+02  0.45594000000E+02  0.51100000000E-03 0.  1.
    9900012    2    1    2    0    0  0.17490926799E+00  0.19642303498E+00  0.11506329253E+01  0.90007690130E+02  0.89999950840E+02 0.  0.
        -12    1    1    2    0    0 -0.17490926799E+00 -0.19642303498E+00 -0.11506329253E+01  0.11803098701E+01  0.00000000000E+00 0.  1.
         11    1    3    3    0    0  0.67638474863E+01 -0.62129271811E+01  0.94921584018E+01  0.13207996380E+02  0.51100000000E-03 0. -1.
        -11    1    3    3    0    0  0.19196555261E+02 -0.26074471178E+02  0.59726320858E+01  0.32925037819E+02  0.51100000000E-03 0.  1.
         12    1    3    3    0    0 -0.25785493480E+02  0.32483821394E+02 -0.14314157562E+02  0.43874655931E+02  0.00000000000E+00 0. -1.
</event>
<event>
 7    1  0.2542335E-015  0.9000772E+02  0.7816164E-02  0.1186339E+00
        -11   -1    0    0    0    0  0.00000000000E+00  0.00000000000E+00  0.45593999997E+02  0.45594000000E+02  0.51100000000E-03 0. -1.
         11   -1    0    0    0    0 -0.00000000000E+00 -0.00000000000E+00 -0.45593999997E+02  0.45594000000E+02  0.51100000000E-03 0.  1.
    9900012    2    1    2    0    0  0.10510924915E+00  0.10017598637E+01  0.61521094755E+00  0.90007722368E+02  0.89999983503E+02 0.  0.
        -12    1    1    2    0    0 -0.10510924915E+00 -0.10017598637E+01 -0.61521094755E+00  0.11802776321E+01  0.00000000000E+00 0.  1.
         11    1    3    3    0    0  0.67611157468E+01 -0.45063227979E+01 -0.21928961213E+01  0.84159625095E+01  0.51100000000E-03 0. -1.
        -11    1    3    3    0    0  0.27188810147E+02 -0.24283598313E+02  0.12891536303E+01  0.36477204684E+02  0.51100000000E-03 0.  1.
         12    1    3    3    0    0 -0.33844816645E+02  0.29791680975E+02  0.15189534386E+01  0.45114555174E+02  0.00000000000E+00 0. -1.
</event>
<event>
 7    1  0.2542335E-015  0.9000781E+02  0.7816164E-02  0.1186339E+00
        -11   -1    0    0    0    0  0.00000000000E+00  0.00000000000E+00  0.45593999997E+02  0.45594000000E+02  0.51100000000E-03 0. -1.
         11   -1    0    0    0    0 -0.00000000000E+00 -0.00000000000E+00 -0.45593999997E+02  0.45594000000E+02  0.51100000000E-03 0.  1.
    9900012    2    1    2    0    0 -0.31096293512E+00 -0.11025249333E+01  0.28388125724E+00  0.90007810293E+02  0.90000072589E+02 0.  0.
        -12    1    1    2    0    0  0.31096293512E+00  0.11025249333E+01 -0.28388125724E+00  0.11801897067E+01  0.00000000000E+00 0.  1.
         11    1    3    3    0    0 -0.94707451961E+01 -0.36563985338E+02  0.20305611727E+02  0.42882839297E+02  0.51100000000E-03 0. -1.
        -11    1    3    3    0    0  0.82238852078E+01  0.47192823466E+01  0.14818032368E+01  0.95968565099E+01  0.51100000000E-03 0.  1.
        -12    1    3    3    0    0  0.93589705326E+00  0.30742178058E+02 -0.21503533706E+02  0.37528114486E+02  0.00000000000E+00 0.  1.
</event>
<event>
 7    1  0.2542335E-015  0.9000768E+02  0.7816164E-02  0.1186339E+00
        -11   -1    0    0    0    0  0.00000000000E+00  0.00000000000E+00  0.45593999997E+02  0.45594000000E+02  0.51100000000E-03 0. -1.
         11   -1    0    0    0    0 -0.00000000000E+00 -0.00000000000E+00 -0.45593999997E+02  0.45594000000E+02  0.51100000000E-03 0.  1.
    9900012    2    1    2    0    0 -0.36064307198E-01 -0.10893560337E+01  0.45293708384E+00  0.90007682583E+02  0.89999943193E+02 0.  0.
        -12    1    1    2    0    0  0.36064307198E-01  0.10893560337E+01 -0.45293708384E+00  0.11803174168E+01  0.00000000000E+00 0.  1.
         11    1    3    3    0    0 -0.11571586517E+02 -0.37470228815E+02  0.76127656469E+01  0.39948389993E+02  0.51100000000E-03 0. -1.
        -11    1    3    3    0    0  0.29673294546E+00 -0.58166383911E+01 -0.15874466386E+01  0.60366646176E+01  0.51100000000E-03 0.  1.
        -12    1    3    3    0    0  0.11238789264E+02  0.42197511173E+02 -0.55723819245E+01  0.44022627973E+02  0.00000000000E+00 0.  1.
</event>
<event>
 7    1  0.2542335E-015  0.9000754E+02  0.7816164E-02  0.1186339E+00
        -11   -1    0    0    0    0  0.00000000000E+00  0.00000000000E+00  0.45593999997E+02  0.45594000000E+02  0.51100000000E-03 0.  1.
         11   -1    0    0    0    0 -0.00000000000E+00 -0.00000000000E+00 -0.45593999997E+02  0.45594000000E+02  0.51100000000E-03 0. -1.
    9900012    2    1    2    0    0  0.19982852248E-01 -0.55201498571E+00 -0.10432443772E+01  0.90007543017E+02  0.89999801784E+02 0.  0.
        -12    1    1    2    0    0 -0.19982852248E-01  0.55201498571E+00  0.10432443772E+01  0.11804569833E+01  0.00000000000E+00 0.  1.
         11    1    3    3    0    0  0.83833161398E+01 -0.24838410024E+01  0.28832994930E+01  0.92066753963E+01  0.51100000000E-03 0. -1.
        -11    1    3    3    0    0  0.32141230483E+02 -0.13860247082E+02  0.76140589080E+01  0.35820930187E+02  0.51100000000E-03 0.  1.
         12    1    3    3    0    0 -0.40504563771E+02  0.15792073099E+02 -0.11540602778E+02  0.44979937433E+02  0.00000000000E+00 0. -1.
</event>
<event>
 7    1  0.2542335E-015  0.9000710E+02  0.7816164E-02  0.1186340E+00
        -11   -1    0    0    0    0  0.00000000000E+00  0.00000000000E+00  0.45593999997E+02  0.45594000000E+02  0.51100000000E-03 0.  1.
         11   -1    0    0    0    0 -0.00000000000E+00 -0.00000000000E+00 -0.45593999997E+02  0.45594000000E+02  0.51100000000E-03 0. -1.
    9900012    2    1    2    0    0  0.10214665203E+01 -0.17444468462E+00 -0.56630990769E+00  0.90007097078E+02  0.89999349957E+02 0.  0.
        -12    1    1    2    0    0 -0.10214665203E+01  0.17444468462E+00  0.56630990769E+00  0.11809029222E+01  0.00000000000E+00 0.  1.
         11    1    3    3    0    0 -0.76789457981E+01 -0.31187779859E+01 -0.30965743816E+01  0.88476978846E+01  0.51100000000E-03 0. -1.
        -11    1    3    3    0    0 -0.87074582620E+01 -0.22824390473E+02 -0.28289080582E+02  0.37377061284E+02  0.51100000000E-03 0.  1.
         12    1    3    3    0    0  0.17407870580E+02  0.25768723774E+02  0.30819345056E+02  0.43782337909E+02  0.00000000000E+00 0. -1.
</event>
<event>
 7    1  0.2542335E-015  0.9000764E+02  0.7816164E-02  0.1186339E+00
        -11   -1    0    0    0    0  0.00000000000E+00  0.00000000000E+00  0.45593999997E+02  0.45594000000E+02  0.51100000000E-03 0.  1.
         11   -1    0    0    0    0 -0.00000000000E+00 -0.00000000000E+00 -0.45593999997E+02  0.45594000000E+02  0.51100000000E-03 0. -1.
    9900012    2    1    2    0    0  0.47392142400E+00 -0.10387896292E+01  0.29928254082E+00  0.90007637577E+02  0.89999897593E+02 0.  0.
        -12    1    1    2    0    0 -0.47392142400E+00  0.10387896292E+01 -0.29928254082E+00  0.11803624228E+01  0.00000000000E+00 0.  1.
         11    1    3    3    0    0  0.36825261004E+01  0.44660064871E+01  0.70789083735E+01  0.91442417096E+01  0.51100000000E-03 0. -1.
        -11    1    3    3    0    0 -0.36777071780E+02 -0.22248163711E+02 -0.54535908991E+01  0.43327536869E+02  0.51100000000E-03 0.  1.
         12    1    3    3    0    0  0.33568467103E+02  0.16743367595E+02 -0.13260349335E+01  0.37535858998E+02  0.00000000000E+00 0. -1.
</event>
<event>
 7    1  0.2542335E-015  0.9000772E+02  0.7816164E-02  0.1186339E+00
        -11   -1    0    0    0    0  0.00000000000E+00  0.00000000000E+00  0.45593999997E+02  0.45594000000E+02  0.51100000000E-03 0. -1.
         11   -1    0    0    0    0 -0.00000000000E+00 -0.00000000000E+00 -0.45593999997E+02  0.45594000000E+02  0.51100000000E-03 0.  1.
    9900012    2    1    2    0    0  0.41718832053E+00  0.15975024566E-01  0.11039752408E+01  0.90007719259E+02  0.89999980353E+02 0.  0.
        -12    1    1    2    0    0 -0.41718832053E+00 -0.15975024566E-01 -0.11039752408E+01  0.11802807414E+01  0.00000000000E+00 0.  1.
         11    1    3    3    0    0 -0.20839193466E+02 -0.72643131651E+01  0.85290668579E+01  0.23659822734E+02  0.51100000000E-03 0. -1.
        -11    1    3    3    0    0  0.21810199644E+02 -0.16929631908E+02 -0.24341940640E+02  0.36807979019E+02  0.51100000000E-03 0.  1.
         12    1    3    3    0    0 -0.55381785776E+00  0.24209920098E+02  0.16916849023E+02  0.29539917506E+02  0.00000000000E+00 0. -1.
</event>
<event>
 7    1  0.2542335E-015  0.9000772E+02  0.7816164E-02  0.1186339E+00
        -11   -1    0    0    0    0  0.00000000000E+00  0.00000000000E+00  0.45593999997E+02  0.45594000000E+02  0.51100000000E-03 0.  1.
         11   -1    0    0    0    0 -0.00000000000E+00 -0.00000000000E+00 -0.45593999997E+02  0.45594000000E+02  0.51100000000E-03 0. -1.
    9900012    2    1    2    0    0 -0.30947547469E+00  0.29643789778E+00 -0.10997311613E+01  0.90007720743E+02  0.89999981857E+02 0.  0.
        -12    1    1    2    0    0  0.30947547469E+00 -0.29643789778E+00  0.10997311613E+01  0.11802792567E+01  0.00000000000E+00 0.  1.
         11    1    3    3    0    0 -0.25810530544E+02  0.32425240165E+02 -0.92622955710E+01  0.42466101849E+02  0.51100000000E-03 0. -1.
        -11    1    3    3    0    0  0.11179432597E+01 -0.85986191391E+01 -0.62806769253E+01  0.10706677876E+02  0.51100000000E-03 0.  1.
        -12    1    3    3    0    0  0.24383111810E+02 -0.23530183128E+02  0.14443241335E+02  0.36834941019E+02  0.00000000000E+00 0.  1.
</event>
<event>
 7    1  0.2542335E-015  0.9000779E+02  0.7816164E-02  0.1186339E+00
        -11   -1    0    0    0    0  0.00000000000E+00  0.00000000000E+00  0.45593999997E+02  0.45594000000E+02  0.51100000000E-03 0. -1.
         11   -1    0    0    0    0 -0.00000000000E+00 -0.00000000000E+00 -0.45593999997E+02  0.45594000000E+02  0.51100000000E-03 0.  1.
    9900012    2    1    2    0    0  0.15442540778E+00  0.38920979086E+00  0.11034328182E+01  0.90007790081E+02  0.90000052110E+02 0.  0.
        -12    1    1    2    0    0 -0.15442540778E+00 -0.38920979086E+00 -0.11034328182E+01  0.11802099187E+01  0.00000000000E+00 0.  1.
         11    1    3    3    0    0  0.19395335170E+02 -0.66098899549E+01  0.30629188652E+02  0.36851280430E+02  0.51100000000E-03 0. -1.
        -11    1    3    3    0    0  0.72364835837E+01  0.41114847655E+01  0.48785547079E+01  0.96473466784E+01  0.51100000000E-03 0.  1.
        -12    1    3    3    0    0 -0.26477393346E+02  0.28876149802E+01 -0.34404310542E+02  0.43509162973E+02  0.00000000000E+00 0.  1.
</event>
<event>
 7    1  0.2542335E-015  0.9000773E+02  0.7816164E-02  0.1186339E+00
        -11   -1    0    0    0    0  0.00000000000E+00  0.00000000000E+00  0.45593999997E+02  0.45594000000E+02  0.51100000000E-03 0. -1.
         11   -1    0    0    0    0 -0.00000000000E+00 -0.00000000000E+00 -0.45593999997E+02  0.45594000000E+02  0.51100000000E-03 0.  1.
    9900012    2    1    2    0    0  0.87826050694E-01  0.11551085072E+01  0.22594786331E+00  0.90007728203E+02  0.89999989415E+02 0.  0.
        -12    1    1    2    0    0 -0.87826050694E-01 -0.11551085072E+01 -0.22594786331E+00  0.11802717974E+01  0.00000000000E+00 0.  1.
         11    1    3    3    0    0 -0.27220970615E+02 -0.47644749677E+01  0.24750736699E+02  0.37098253737E+02  0.51100000000E-03 0. -1.
        -11    1    3    3    0    0 -0.49284936926E-01  0.25130307002E+01  0.90922830734E+01  0.94333114044E+01  0.51100000000E-03 0.  1.
        -12    1    3    3    0    0  0.27358081602E+02  0.34065527747E+01 -0.33617071909E+02  0.43476163061E+02  0.00000000000E+00 0.  1.
</event>
<event>
 7    1  0.2542335E-015  0.9000774E+02  0.7816164E-02  0.1186339E+00
        -11   -1    0    0    0    0  0.00000000000E+00  0.00000000000E+00  0.45593999997E+02  0.45594000000E+02  0.51100000000E-03 0. -1.
         11   -1    0    0    0    0 -0.00000000000E+00 -0.00000000000E+00 -0.45593999997E+02  0.45594000000E+02  0.51100000000E-03 0.  1.
    9900012    2    1    2    0    0  0.18652356147E-01  0.11780530868E+01 -0.69684901883E-01  0.90007740295E+02  0.90000001667E+02 0.  0.
        -12    1    1    2    0    0 -0.18652356147E-01 -0.11780530868E+01  0.69684901883E-01  0.11802597050E+01  0.00000000000E+00 0.  1.
         11    1    3    3    0    0  0.66351625447E+00  0.55192729468E+01  0.36497276083E+02  0.36918204039E+02  0.51100000000E-03 0. -1.
        -11    1    3    3    0    0 -0.10949993889E+02  0.37730420234E+01  0.25267041511E+01  0.11854216398E+02  0.51100000000E-03 0.  1.
        -12    1    3    3    0    0  0.10305129990E+02 -0.81142618834E+01 -0.39093665136E+02  0.41235319858E+02  0.00000000000E+00 0.  1.
</event>
<event>
 7    1  0.2542335E-015  0.9000772E+02  0.7816164E-02  0.1186339E+00
        -11   -1    0    0    0    0  0.00000000000E+00  0.00000000000E+00  0.45593999997E+02  0.45594000000E+02  0.51100000000E-03 0.  1.
         11   -1    0    0    0    0 -0.00000000000E+00 -0.00000000000E+00 -0.45593999997E+02  0.45594000000E+02  0.51100000000E-03 0. -1.
    9900012    2    1    2    0    0 -0.55561505586E+00 -0.30505600287E+00 -0.99563697735E+00  0.90007720268E+02  0.89999981375E+02 0.  0.
        -12    1    1    2    0    0  0.55561505586E+00  0.30505600287E+00  0.99563697735E+00  0.11802797320E+01  0.00000000000E+00 0.  1.
         11    1    3    3    0    0  0.14671032062E+01 -0.10037086812E+02  0.40569845027E+01  0.10924954326E+02  0.51100000000E-03 0. -1.
        -11    1    3    3    0    0 -0.76316464684E+01  0.15646517518E+02  0.34529726577E+02  0.38669853323E+02  0.51100000000E-03 0.  1.
         12    1    3    3    0    0  0.56089282063E+01 -0.59144867084E+01 -0.39582348057E+02  0.40412912619E+02  0.00000000000E+00 0. -1.
</event>
<event>
 7    1  0.2542335E-015  0.9000786E+02  0.7816164E-02  0.1186339E+00
        -11   -1    0    0    0    0  0.00000000000E+00  0.00000000000E+00  0.45593999997E+02  0.45594000000E+02  0.51100000000E-03 0. -1.
         11   -1    0    0    0    0 -0.00000000000E+00 -0.00000000000E+00 -0.45593999997E+02  0.45594000000E+02  0.51100000000E-03 0.  1.
    9900012    2    1    2    0    0 -0.35509623887E+00  0.84060784566E+00  0.74833527402E+00  0.90007864172E+02  0.90000127179E+02 0.  0.
        -12    1    1    2    0    0  0.35509623887E+00 -0.84060784566E+00 -0.74833527402E+00  0.11801358275E+01  0.00000000000E+00 0.  1.
         11    1    3    3    0    0  0.53257889219E+01  0.52386841296E+01 -0.31379444129E+01  0.81027485738E+01  0.51100000000E-03 0. -1.
        -11    1    3    3    0    0  0.24154937187E+02 -0.27327148610E+02 -0.15437201518E+02  0.39604813250E+02  0.51100000000E-03 0.  1.
         12    1    3    3    0    0 -0.29835822348E+02  0.22929072326E+02  0.19323481205E+02  0.42300302348E+02  0.00000000000E+00 0. -1.
</event>
<event>
 7    1  0.2542335E-015  0.9000761E+02  0.7816164E-02  0.1186339E+00
        -11   -1    0    0    0    0  0.00000000000E+00  0.00000000000E+00  0.45593999997E+02  0.45594000000E+02  0.51100000000E-03 0.  1.
         11   -1    0    0    0    0 -0.00000000000E+00 -0.00000000000E+00 -0.45593999997E+02  0.45594000000E+02  0.51100000000E-03 0. -1.
    9900012    2    1    2    0    0  0.10493916736E+01  0.52110318163E+00 -0.14333430460E+00  0.90007611872E+02  0.89999871548E+02 0.  0.
        -12    1    1    2    0    0 -0.10493916736E+01 -0.52110318163E+00  0.14333430460E+00  0.11803881283E+01  0.00000000000E+00 0.  1.
         11    1    3    3    0    0  0.68383627790E+01  0.28879131024E+01 -0.56426632977E+01  0.93243175051E+01  0.51100000000E-03 0. -1.
        -11    1    3    3    0    0  0.32396323725E+02 -0.70269858803E+01 -0.15788285265E+02  0.36717438273E+02  0.51100000000E-03 0.  1.
         12    1    3    3    0    0 -0.38185294830E+02  0.46601759595E+01  0.21287614258E+02  0.43965856094E+02  0.00000000000E+00 0. -1.
</event>
<event>
 7    1  0.2542335E-015  0.9000769E+02  0.7816164E-02  0.1186339E+00
        -11   -1    0    0    0    0  0.00000000000E+00  0.00000000000E+00  0.45593999997E+02  0.45594000000E+02  0.51100000000E-03 0. -1.
         11   -1    0    0    0    0 -0.00000000000E+00 -0.00000000000E+00 -0.45593999997E+02  0.45594000000E+02  0.51100000000E-03 0.  1.
    9900012    2    1    2    0    0 -0.10629502292E+01 -0.93240592577E-01  0.50455712576E+00  0.90007688647E+02  0.89999949337E+02 0.  0.
        -12    1    1    2    0    0  0.10629502292E+01  0.93240592577E-01 -0.50455712576E+00  0.11803113534E+01  0.00000000000E+00 0.  1.
         11    1    3    3    0    0  0.19089883178E+01 -0.34732946504E+02  0.16018594609E+01  0.34822230877E+02  0.51100000000E-03 0. -1.
        -11    1    3    3    0    0 -0.39112928694E+01 -0.98883449007E+01  0.75949818282E-02  0.10633796816E+02  0.51100000000E-03 0.  1.
        -12    1    3    3    0    0  0.93935432241E+00  0.44528050812E+02 -0.11048973169E+01  0.44551660954E+02  0.00000000000E+00 0.  1.
</event>
<event>
 7    1  0.2542335E-015  0.9000771E+02  0.7816164E-02  0.1186339E+00
        -11   -1    0    0    0    0  0.00000000000E+00  0.00000000000E+00  0.45593999997E+02  0.45594000000E+02  0.51100000000E-03 0.  1.
         11   -1    0    0    0    0 -0.00000000000E+00 -0.00000000000E+00 -0.45593999997E+02  0.45594000000E+02  0.51100000000E-03 0. -1.
    9900012    2    1    2    0    0 -0.39289875455E+00 -0.77118267628E+00  0.80249680571E+00  0.90007706276E+02  0.89999967199E+02 0.  0.
        -12    1    1    2    0    0  0.39289875455E+00  0.77118267628E+00 -0.80249680571E+00  0.11802937239E+01  0.00000000000E+00 0.  1.
         11    1    3    3    0    0 -0.87389411219E+01  0.69816932855E+00 -0.80462928481E+00  0.88036333914E+01  0.51100000000E-03 0. -1.
        -11    1    3    3    0    0 -0.27012155521E+02 -0.24797452273E+02  0.10027823218E+02  0.38014831630E+02  0.51100000000E-03 0.  1.
         12    1    3    3    0    0  0.35358197888E+02  0.23328100268E+02 -0.84206971271E+01  0.43189241255E+02  0.00000000000E+00 0. -1.
</event>
<event>
 7    1  0.2542335E-015  0.9000785E+02  0.7816164E-02  0.1186339E+00
        -11   -1    0    0    0    0  0.00000000000E+00  0.00000000000E+00  0.45593999997E+02  0.45594000000E+02  0.51100000000E-03 0. -1.
         11   -1    0    0    0    0 -0.00000000000E+00 -0.00000000000E+00 -0.45593999997E+02  0.45594000000E+02  0.51100000000E-03 0.  1.
    9900012    2    1    2    0    0 -0.30092731364E+00 -0.61050099326E-01  0.11395019419E+01  0.90007852112E+02  0.90000114959E+02 0.  0.
        -12    1    1    2    0    0  0.30092731364E+00  0.61050099326E-01 -0.11395019419E+01  0.11801478883E+01  0.00000000000E+00 0.  1.
         11    1    3    3    0    0 -0.10760341505E+01  0.65322739005E+01 -0.94391217124E+01  0.11529330890E+02  0.51100000000E-03 0. -1.
        -11    1    3    3    0    0 -0.25050086503E+02  0.57184790203E+01 -0.22915649670E+02  0.34428692049E+02  0.51100000000E-03 0.  1.
         12    1    3    3    0    0  0.25825193340E+02 -0.12311803020E+02  0.33494273324E+02  0.44049829173E+02  0.00000000000E+00 0. -1.
</event>
<event>
 7    1  0.2542335E-015  0.9000781E+02  0.7816164E-02  0.1186339E+00
        -11   -1    0    0    0    0  0.00000000000E+00  0.00000000000E+00  0.45593999997E+02  0.45594000000E+02  0.51100000000E-03 0.  1.
         11   -1    0    0    0    0 -0.00000000000E+00 -0.00000000000E+00 -0.45593999997E+02  0.45594000000E+02  0.51100000000E-03 0. -1.
    9900012    2    1    2    0    0 -0.37057505622E+00  0.57818287025E+00 -0.95980997998E+00  0.90007806583E+02  0.90000068830E+02 0.  0.
        -12    1    1    2    0    0  0.37057505622E+00 -0.57818287025E+00  0.95980997998E+00  0.11801934170E+01  0.00000000000E+00 0.  1.
         11    1    3    3    0    0 -0.25011006611E+01 -0.17955950773E+01 -0.96771443599E+01  0.10155136110E+02  0.51100000000E-03 0. -1.
        -11    1    3    3    0    0  0.24457069378E+02 -0.19767679435E+02 -0.20000424756E+02  0.37268302664E+02  0.51100000000E-03 0.  1.
         12    1    3    3    0    0 -0.22326543773E+02  0.22141457383E+02  0.28717759135E+02  0.42584367808E+02  0.00000000000E+00 0. -1.
</event>
<event>
 7    1  0.2542335E-015  0.9000776E+02  0.7816164E-02  0.1186339E+00
        -11   -1    0    0    0    0  0.00000000000E+00  0.00000000000E+00  0.45593999997E+02  0.45594000000E+02  0.51100000000E-03 0. -1.
         11   -1    0    0    0    0 -0.00000000000E+00 -0.00000000000E+00 -0.45593999997E+02  0.45594000000E+02  0.51100000000E-03 0.  1.
    9900012    2    1    2    0    0 -0.67961233778E+00  0.86430611417E+00  0.42903513541E+00  0.90007758865E+02  0.90000020482E+02 0.  0.
        -12    1    1    2    0    0  0.67961233778E+00 -0.86430611417E+00 -0.42903513541E+00  0.11802411347E+01  0.00000000000E+00 0.  1.
         11    1    3    3    0    0 -0.45504393591E+01 -0.19661236218E+01 -0.83925584473E+01  0.97471625619E+01  0.51100000000E-03 0. -1.
        -11    1    3    3    0    0  0.29641434364E+02  0.11888768869E+02 -0.22223977159E+02  0.38908387495E+02  0.51100000000E-03 0.  1.
         12    1    3    3    0    0 -0.25770607343E+02 -0.90583391329E+01  0.31045570742E+02  0.41352208809E+02  0.00000000000E+00 0. -1.
</event>
<event>
 7    1  0.2542335E-015  0.9000780E+02  0.7816164E-02  0.1186339E+00
        -11   -1    0    0    0    0  0.00000000000E+00  0.00000000000E+00  0.45593999997E+02  0.45594000000E+02  0.51100000000E-03 0.  1.
         11   -1    0    0    0    0 -0.00000000000E+00 -0.00000000000E+00 -0.45593999997E+02  0.45594000000E+02  0.51100000000E-03 0. -1.
    9900012    2    1    2    0    0 -0.21317594495E+00  0.62080826536E+00 -0.98082603399E+00  0.90007802307E+02  0.90000064497E+02 0.  0.
        -12    1    1    2    0    0  0.21317594495E+00 -0.62080826536E+00  0.98082603399E+00  0.11801976931E+01  0.00000000000E+00 0.  1.
         11    1    3    3    0    0 -0.16577033299E+02  0.17488222838E+02 -0.31593516583E+02  0.39733943441E+02  0.51100000000E-03 0. -1.
        -11    1    3    3    0    0 -0.52601500665E+01 -0.76811295773E+01 -0.25310982506E+01  0.96475587026E+01  0.51100000000E-03 0.  1.
        -12    1    3    3    0    0  0.21624007421E+02 -0.91862849953E+01  0.33143788800E+02  0.40626300163E+02  0.00000000000E+00 0.  1.
</event>
<event>
 7    1  0.2542335E-015  0.9000773E+02  0.7816164E-02  0.1186339E+00
        -11   -1    0    0    0    0  0.00000000000E+00  0.00000000000E+00  0.45593999997E+02  0.45594000000E+02  0.51100000000E-03 0. -1.
         11   -1    0    0    0    0 -0.00000000000E+00 -0.00000000000E+00 -0.45593999997E+02  0.45594000000E+02  0.51100000000E-03 0.  1.
    9900012    2    1    2    0    0  0.98658565381E-01  0.10822688868E+01 -0.46043648911E+00  0.90007728329E+02  0.89999989543E+02 0.  0.
        -12    1    1    2    0    0 -0.98658565381E-01 -0.10822688868E+01  0.46043648911E+00  0.11802716706E+01  0.00000000000E+00 0.  1.
         11    1    3    3    0    0 -0.98429481189E+01  0.14046426727E+01 -0.18341911983E+02  0.20863422159E+02  0.51100000000E-03 0. -1.
        -11    1    3    3    0    0 -0.10661679784E+02 -0.29190764784E+02  0.53813837005E+01  0.31539363584E+02  0.51100000000E-03 0.  1.
         12    1    3    3    0    0  0.20603286468E+02  0.28868390998E+02  0.12500091794E+02  0.37604942587E+02  0.00000000000E+00 0. -1.
</event>
<event>
 7    1  0.2542335E-015  0.9000776E+02  0.7816164E-02  0.1186339E+00
        -11   -1    0    0    0    0  0.00000000000E+00  0.00000000000E+00  0.45593999997E+02  0.45594000000E+02  0.51100000000E-03 0.  1.
         11   -1    0    0    0    0 -0.00000000000E+00 -0.00000000000E+00 -0.45593999997E+02  0.45594000000E+02  0.51100000000E-03 0. -1.
    9900012    2    1    2    0    0  0.78297814109E+00  0.81028164365E+00 -0.35121140776E+00  0.90007762497E+02  0.90000024162E+02 0.  0.
        -12    1    1    2    0    0 -0.78297814109E+00 -0.81028164365E+00  0.35121140776E+00  0.11802375034E+01  0.00000000000E+00 0.  1.
         11    1    3    3    0    0  0.30790092495E+01  0.11428556875E+01  0.12854142577E+02  0.13267079510E+02  0.51100000000E-03 0. -1.
        -11    1    3    3    0    0 -0.36947649886E+02  0.20118905151E+01  0.53120712164E+01  0.37381742019E+02  0.51100000000E-03 0.  1.
         12    1    3    3    0    0  0.34651618777E+02 -0.23444645589E+01 -0.18517425201E+02  0.39358940967E+02  0.00000000000E+00 0. -1.
</event>
<event>
 7    1  0.2542335E-015  0.9000771E+02  0.7816164E-02  0.1186339E+00
        -11   -1    0    0    0    0  0.00000000000E+00  0.00000000000E+00  0.45593999997E+02  0.45594000000E+02  0.51100000000E-03 0.  1.
         11   -1    0    0    0    0 -0.00000000000E+00 -0.00000000000E+00 -0.45593999997E+02  0.45594000000E+02  0.51100000000E-03 0. -1.
    9900012    2    1    2    0    0 -0.47870237158E+00  0.59689116562E+00  0.89869743037E+00  0.90007706776E+02  0.89999967705E+02 0.  0.
        -12    1    1    2    0    0  0.47870237158E+00 -0.59689116562E+00 -0.89869743037E+00  0.11802932244E+01  0.00000000000E+00 0.  1.
         11    1    3    3    0    0  0.35269585676E+01 -0.19575526919E+01  0.89258136497E+01  0.97949782465E+01  0.51100000000E-03 0. -1.
        -11    1    3    3    0    0 -0.30105276414E+02 -0.18358510604E+02  0.16309744382E+02  0.38850615718E+02  0.51100000000E-03 0.  1.
         12    1    3    3    0    0  0.26099615475E+02  0.20912954461E+02 -0.24336860602E+02  0.41362112811E+02  0.00000000000E+00 0. -1.
</event>
<event>
 7    1  0.2542335E-015  0.9000750E+02  0.7816164E-02  0.1186340E+00
        -11   -1    0    0    0    0  0.00000000000E+00  0.00000000000E+00  0.45593999997E+02  0.45594000000E+02  0.51100000000E-03 0.  1.
         11   -1    0    0    0    0 -0.00000000000E+00 -0.00000000000E+00 -0.45593999997E+02  0.45594000000E+02  0.51100000000E-03 0. -1.
    9900012    2    1    2    0    0 -0.71201318471E+00  0.63386227196E+00 -0.69630364496E+00  0.90007498869E+02  0.89999757053E+02 0.  0.
        -12    1    1    2    0    0  0.71201318471E+00 -0.63386227196E+00  0.69630364496E+00  0.11805011313E+01  0.00000000000E+00 0.  1.
         11    1    3    3    0    0 -0.47567340051E+01 -0.12729435801E+01  0.88386701436E+01  0.10117756368E+02  0.51100000000E-03 0. -1.
        -11    1    3    3    0    0  0.24724918220E+02  0.28625406309E+02  0.12166609094E+02  0.39733636185E+02  0.51100000000E-03 0.  1.
         12    1    3    3    0    0 -0.20680197400E+02 -0.26718600457E+02 -0.21701582883E+02  0.40156106316E+02  0.00000000000E+00 0. -1.
</event>
<event>
 7    1  0.2542335E-015  0.9000767E+02  0.7816164E-02  0.1186339E+00
        -11   -1    0    0    0    0  0.00000000000E+00  0.00000000000E+00  0.45593999997E+02  0.45594000000E+02  0.51100000000E-03 0.  1.
         11   -1    0    0    0    0 -0.00000000000E+00 -0.00000000000E+00 -0.45593999997E+02  0.45594000000E+02  0.51100000000E-03 0. -1.
    9900012    2    1    2    0    0 -0.94889079162E+00  0.54587261215E+00 -0.44138336093E+00  0.90007665338E+02  0.89999925720E+02 0.  0.
        -12    1    1    2    0    0  0.94889079162E+00 -0.54587261215E+00  0.44138336093E+00  0.11803346620E+01  0.00000000000E+00 0.  1.
         11    1    3    3    0    0  0.39682104303E+01  0.33713646933E+02  0.92718646624E+01  0.35189830323E+02  0.51100000000E-03 0. -1.
        -11    1    3    3    0    0 -0.10424001694E+02  0.67768147899E+01 -0.73121020312E+01  0.14424003133E+02  0.51100000000E-03 0.  1.
        -12    1    3    3    0    0  0.55069004721E+01 -0.39944589111E+02 -0.24011459921E+01  0.40393831882E+02  0.00000000000E+00 0.  1.
</event>
<event>
 7    1  0.2542335E-015  0.9000774E+02  0.7816164E-02  0.1186339E+00
        -11   -1    0    0    0    0  0.00000000000E+00  0.00000000000E+00  0.45593999997E+02  0.45594000000E+02  0.51100000000E-03 0.  1.
         11   -1    0    0    0    0 -0.00000000000E+00 -0.00000000000E+00 -0.45593999997E+02  0.45594000000E+02  0.51100000000E-03 0. -1.
    9900012    2    1    2    0    0  0.94293955913E+00 -0.68027357102E+00  0.20277367524E+00  0.90007735493E+02  0.89999996801E+02 0.  0.
        -12    1    1    2    0    0 -0.94293955913E+00  0.68027357102E+00 -0.20277367524E+00  0.11802645072E+01  0.00000000000E+00 0.  1.
         11    1    3    3    0    0  0.26810317921E+02  0.24287023065E+02 -0.18244872586E+02  0.40515774858E+02  0.51100000000E-03 0. -1.
        -11    1    3    3    0    0 -0.60013010524E+00  0.40940079254E+01  0.89023305709E+01  0.98169520163E+01  0.51100000000E-03 0.  1.
        -12    1    3    3    0    0 -0.25267248257E+02 -0.29061304561E+02  0.95453156900E+01  0.39675008619E+02  0.00000000000E+00 0.  1.
</event>
<event>
 7    1  0.2542335E-015  0.9000775E+02  0.7816164E-02  0.1186339E+00
        -11   -1    0    0    0    0  0.00000000000E+00  0.00000000000E+00  0.45593999997E+02  0.45594000000E+02  0.51100000000E-03 0. -1.
         11   -1    0    0    0    0 -0.00000000000E+00 -0.00000000000E+00 -0.45593999997E+02  0.45594000000E+02  0.51100000000E-03 0.  1.
    9900012    2    1    2    0    0 -0.38549149701E+00  0.39741391932E+00  0.10423229797E+01  0.90007754809E+02  0.90000016372E+02 0.  0.
        -12    1    1    2    0    0  0.38549149701E+00 -0.39741391932E+00 -0.10423229797E+01  0.11802451913E+01  0.00000000000E+00 0.  1.
         11    1    3    3    0    0  0.87928409364E+01 -0.29089934814E+01 -0.52483173864E+01  0.10645239803E+02  0.51100000000E-03 0. -1.
        -11    1    3    3    0    0  0.18062733686E+02 -0.56035373292E+00 -0.29270727640E+02  0.34399881415E+02  0.51100000000E-03 0.  1.
         12    1    3    3    0    0 -0.27241066119E+02  0.38667611336E+01  0.35561368006E+02  0.44962633591E+02  0.00000000000E+00 0. -1.
</event>
<event>
 7    1  0.2542335E-015  0.9000770E+02  0.7816164E-02  0.1186339E+00
        -11   -1    0    0    0    0  0.00000000000E+00  0.00000000000E+00  0.45593999997E+02  0.45594000000E+02  0.51100000000E-03 0.  1.
         11   -1    0    0    0    0 -0.00000000000E+00 -0.00000000000E+00 -0.45593999997E+02  0.45594000000E+02  0.51100000000E-03 0. -1.
    9900012    2    1    2    0    0  0.10105752786E+01  0.21882680607E-01 -0.60939105970E+00  0.90007703974E+02  0.89999964866E+02 0.  0.
        -12    1    1    2    0    0 -0.10105752786E+01 -0.21882680607E-01  0.60939105970E+00  0.11802960260E+01  0.00000000000E+00 0.  1.
         11    1    3    3    0    0  0.30509096094E+01 -0.10384421392E+02 -0.12844591056E+02  0.16796659690E+02  0.51100000000E-03 0. -1.
        -11    1    3    3    0    0 -0.25135520998E+02 -0.21295954591E+02  0.63198201032E+01  0.33544779388E+02  0.51100000000E-03 0.  1.
         12    1    3    3    0    0  0.23095186667E+02  0.31702258663E+02  0.59153798931E+01  0.39666264896E+02  0.00000000000E+00 0. -1.
</event>
<event>
 7    1  0.2542335E-015  0.9000759E+02  0.7816164E-02  0.1186339E+00
        -11   -1    0    0    0    0  0.00000000000E+00  0.00000000000E+00  0.45593999997E+02  0.45594000000E+02  0.51100000000E-03 0.  1.
         11   -1    0    0    0    0 -0.00000000000E+00 -0.00000000000E+00 -0.45593999997E+02  0.45594000000E+02  0.51100000000E-03 0. -1.
    9900012    2    1    2    0    0 -0.18435083130E+00 -0.11631503186E+01 -0.80392600033E-01  0.90007590383E+02  0.89999849776E+02 0.  0.
        -12    1    1    2    0    0  0.18435083130E+00  0.11631503186E+01  0.80392600033E-01  0.11804096165E+01  0.00000000000E+00 0.  1.
         11    1    3    3    0    0  0.32474245735E+01 -0.10005521723E+02 -0.10036332626E+02  0.14539057884E+02  0.51100000000E-03 0. -1.
        -11    1    3    3    0    0 -0.33108915636E+02 -0.62186463900E+01  0.21819831498E+02  0.40136976772E+02  0.51100000000E-03 0.  1.
         12    1    3    3    0    0  0.29677140231E+02  0.15061017794E+02 -0.11863891472E+02  0.35331555728E+02  0.00000000000E+00 0. -1.
</event>
<event>
 7    1  0.2542335E-015  0.9000775E+02  0.7816164E-02  0.1186339E+00
        -11   -1    0    0    0    0  0.00000000000E+00  0.00000000000E+00  0.45593999997E+02  0.45594000000E+02  0.51100000000E-03 0. -1.
         11   -1    0    0    0    0 -0.00000000000E+00 -0.00000000000E+00 -0.45593999997E+02  0.45594000000E+02  0.51100000000E-03 0.  1.
    9900012    2    1    2    0    0  0.39002098210E+00 -0.10912443134E+01 -0.22375137648E+00  0.90007747825E+02  0.90000009296E+02 0.  0.
        -12    1    1    2    0    0 -0.39002098210E+00  0.10912443134E+01  0.22375137648E+00  0.11802521749E+01  0.00000000000E+00 0.  1.
         11    1    3    3    0    0 -0.76109818890E-01  0.22313748826E+02  0.29069920730E+02  0.36646547871E+02  0.51100000000E-03 0. -1.
        -11    1    3    3    0    0 -0.36348495707E+01  0.32645438402E+01  0.67524001725E+01  0.83345237559E+01  0.51100000000E-03 0.  1.
        -12    1    3    3    0    0  0.41009803717E+01 -0.26669536979E+02 -0.36046072279E+02  0.45026676198E+02  0.00000000000E+00 0.  1.
</event>
<event>
 7    1  0.2542335E-015  0.9000836E+02  0.7816164E-02  0.1186338E+00
        -11   -1    0    0    0    0  0.00000000000E+00  0.00000000000E+00  0.45593999997E+02  0.45594000000E+02  0.51100000000E-03 0.  1.
         11   -1    0    0    0    0 -0.00000000000E+00 -0.00000000000E+00 -0.45593999997E+02  0.45594000000E+02  0.51100000000E-03 0. -1.
    9900012    2    1    2    0    0 -0.11029281266E+01  0.33956529812E+00  0.24451582588E+00  0.90008363177E+02  0.90000632769E+02 0.  0.
        -12    1    1    2    0    0  0.11029281266E+01 -0.33956529812E+00 -0.24451582588E+00  0.11796368226E+01  0.00000000000E+00 0.  1.
         11    1    3    3    0    0  0.60279396562E-01  0.13964662127E+02 -0.41471582749E+02  0.43759657196E+02  0.51100000000E-03 0. -1.
        -11    1    3    3    0    0 -0.50613845932E+01  0.42400849746E+00  0.75244026750E+01  0.90782175059E+01  0.51100000000E-03 0.  1.
        -12    1    3    3    0    0  0.38981770701E+01 -0.14049105327E+02  0.34191695900E+02  0.37170488475E+02  0.00000000000E+00 0.  1.
</event>
<event>
 7    1  0.2542335E-015  0.9000773E+02  0.7816164E-02  0.1186339E+00
        -11   -1    0    0    0    0  0.00000000000E+00  0.00000000000E+00  0.45593999997E+02  0.45594000000E+02  0.51100000000E-03 0. -1.
         11   -1    0    0    0    0 -0.00000000000E+00 -0.00000000000E+00 -0.45593999997E+02  0.45594000000E+02  0.51100000000E-03 0.  1.
    9900012    2    1    2    0    0  0.64396705839E+00  0.25638134931E+00  0.95530338686E+00  0.90007733280E+02  0.89999994560E+02 0.  0.
        -12    1    1    2    0    0 -0.64396705839E+00 -0.25638134931E+00 -0.95530338686E+00  0.11802667197E+01  0.00000000000E+00 0.  1.
         11    1    3    3    0    0  0.15889620661E+02  0.32607571557E+02  0.90518222784E+01  0.37385414996E+02  0.51100000000E-03 0. -1.
        -11    1    3    3    0    0 -0.88362755277E+01  0.31209375463E+01  0.87610612928E+01  0.12828726032E+02  0.51100000000E-03 0.  1.
        -12    1    3    3    0    0 -0.64093780745E+01 -0.35472127754E+02 -0.16857580184E+02  0.39793592253E+02  0.00000000000E+00 0.  1.
</event>
<event>
 7    1  0.2542335E-015  0.9000771E+02  0.7816164E-02  0.1186339E+00
        -11   -1    0    0    0    0  0.00000000000E+00  0.00000000000E+00  0.45593999997E+02  0.45594000000E+02  0.51100000000E-03 0.  1.
         11   -1    0    0    0    0 -0.00000000000E+00 -0.00000000000E+00 -0.45593999997E+02  0.45594000000E+02  0.51100000000E-03 0. -1.
    9900012    2    1    2    0    0  0.56106696250E+00 -0.13904185462E+00  0.10290578956E+01  0.90007708118E+02  0.89999969065E+02 0.  0.
        -12    1    1    2    0    0 -0.56106696250E+00  0.13904185462E+00 -0.10290578956E+01  0.11802918818E+01  0.00000000000E+00 0.  1.
         11    1    3    3    0    0  0.35898576982E+01  0.58279083225E+01  0.66311186314E+01  0.95301274008E+01  0.51100000000E-03 0. -1.
        -11    1    3    3    0    0 -0.27509171877E+02 -0.25461841530E+02  0.17707420836E+02  0.41456153516E+02  0.51100000000E-03 0.  1.
         12    1    3    3    0    0  0.24480381141E+02  0.19494891353E+02 -0.23309481572E+02  0.39021427201E+02  0.00000000000E+00 0. -1.
</event>
<event>
 7    1  0.2542335E-015  0.9000768E+02  0.7816164E-02  0.1186339E+00
        -11   -1    0    0    0    0  0.00000000000E+00  0.00000000000E+00  0.45593999997E+02  0.45594000000E+02  0.51100000000E-03 0.  1.
         11   -1    0    0    0    0 -0.00000000000E+00 -0.00000000000E+00 -0.45593999997E+02  0.45594000000E+02  0.51100000000E-03 0. -1.
    9900012    2    1    2    0    0 -0.80364779522E+00 -0.56843142180E+00 -0.65129444733E+00  0.90007682874E+02  0.89999943488E+02 0.  0.
        -12    1    1    2    0    0  0.80364779522E+00  0.56843142180E+00  0.65129444733E+00  0.11803171257E+01  0.00000000000E+00 0.  1.
         11    1    3    3    0    0 -0.74749027052E+01 -0.40561145569E+01  0.31415846874E+01  0.90661894068E+01  0.51100000000E-03 0. -1.
        -11    1    3    3    0    0 -0.12811006143E+02 -0.32271799500E+02  0.12748337014E+02  0.36987984782E+02  0.51100000000E-03 0.  1.
         12    1    3    3    0    0  0.19482261053E+02  0.35759482635E+02 -0.16541216149E+02  0.43953508685E+02  0.00000000000E+00 0. -1.
</event>
<event>
 7    1  0.2542335E-015  0.9000777E+02  0.7816164E-02  0.1186339E+00
        -11   -1    0    0    0    0  0.00000000000E+00  0.00000000000E+00  0.45593999997E+02  0.45594000000E+02  0.51100000000E-03 0.  1.
         11   -1    0    0    0    0 -0.00000000000E+00 -0.00000000000E+00 -0.45593999997E+02  0.45594000000E+02  0.51100000000E-03 0. -1.
    9900012    2    1    2    0    0  0.52758327835E+00 -0.10315158071E+01 -0.22486033362E+00  0.90007774960E+02  0.90000036789E+02 0.  0.
        -12    1    1    2    0    0 -0.52758327835E+00  0.10315158071E+01  0.22486033362E+00  0.11802250402E+01  0.00000000000E+00 0.  1.
         11    1    3    3    0    0 -0.31324546786E+02 -0.15846871005E+02 -0.13458114730E+02  0.37596162096E+02  0.51100000000E-03 0. -1.
        -11    1    3    3    0    0 -0.35504545941E+01  0.72839595396E+00 -0.80069139724E+01  0.87890249808E+01  0.51100000000E-03 0.  1.
        -12    1    3    3    0    0  0.35402584659E+02  0.14086959244E+02  0.21240168369E+02  0.43622587883E+02  0.00000000000E+00 0.  1.
</event>
<event>
 7    1  0.2542335E-015  0.9000772E+02  0.7816164E-02  0.1186339E+00
        -11   -1    0    0    0    0  0.00000000000E+00  0.00000000000E+00  0.45593999997E+02  0.45594000000E+02  0.51100000000E-03 0. -1.
         11   -1    0    0    0    0 -0.00000000000E+00 -0.00000000000E+00 -0.45593999997E+02  0.45594000000E+02  0.51100000000E-03 0.  1.
    9900012    2    1    2    0    0 -0.75907772606E+00  0.62237670731E+00  0.65537824467E+00  0.90007715118E+02  0.89999976157E+02 0.  0.
        -12    1    1    2    0    0  0.75907772606E+00 -0.62237670731E+00 -0.65537824467E+00  0.11802848824E+01  0.00000000000E+00 0.  1.
         11    1    3    3    0    0  0.26174857283E+02 -0.13457543446E+02  0.15951324282E+02  0.33476460028E+02  0.51100000000E-03 0. -1.
        -11    1    3    3    0    0 -0.61532841971E+01 -0.10467517881E+02 -0.20621842893E+02  0.23930989147E+02  0.51100000000E-03 0.  1.
         12    1    3    3    0    0 -0.20780650812E+02  0.24547438034E+02  0.53258968560E+01  0.32600265943E+02  0.00000000000E+00 0. -1.
</event>
<event>
 7    1  0.2542335E-015  0.9000772E+02  0.7816164E-02  0.1186339E+00
        -11   -1    0    0    0    0  0.00000000000E+00  0.00000000000E+00  0.45593999997E+02  0.45594000000E+02  0.51100000000E-03 0.  1.
         11   -1    0    0    0    0 -0.00000000000E+00 -0.00000000000E+00 -0.45593999997E+02  0.45594000000E+02  0.51100000000E-03 0. -1.
    9900012    2    1    2    0    0  0.93752849531E+00  0.61166331472E+00 -0.37412015357E+00  0.90007721398E+02  0.89999982520E+02 0.  0.
        -12    1    1    2    0    0 -0.93752849531E+00 -0.61166331472E+00  0.37412015357E+00  0.11802786025E+01  0.00000000000E+00 0.  1.
         11    1    3    3    0    0 -0.33193629174E+02  0.11383906938E+02  0.22324307142E+02  0.41590684589E+02  0.51100000000E-03 0. -1.
        -11    1    3    3    0    0  0.65240296960E+01  0.58481626554E+01 -0.11162455660E+02  0.14190291982E+02  0.51100000000E-03 0.  1.
        -12    1    3    3    0    0  0.27607127974E+02 -0.16620406279E+02 -0.11535971636E+02  0.34226744826E+02  0.00000000000E+00 0.  1.
</event>
<event>
 7    1  0.2542335E-015  0.9000702E+02  0.7816164E-02  0.1186340E+00
        -11   -1    0    0    0    0  0.00000000000E+00  0.00000000000E+00  0.45593999997E+02  0.45594000000E+02  0.51100000000E-03 0.  1.
         11   -1    0    0    0    0 -0.00000000000E+00 -0.00000000000E+00 -0.45593999997E+02  0.45594000000E+02  0.51100000000E-03 0. -1.
    9900012    2    1    2    0    0 -0.12812748071E+00 -0.11356229018E+00 -0.11685003913E+01  0.90007023197E+02  0.89999275100E+02 0.  0.
        -12    1    1    2    0    0  0.12812748071E+00  0.11356229018E+00  0.11685003913E+01  0.11809768031E+01  0.00000000000E+00 0.  1.
         11    1    3    3    0    0  0.35701582422E+02 -0.12145349243E+02  0.29203553734E+01  0.37823814871E+02  0.51100000000E-03 0. -1.
        -11    1    3    3    0    0  0.57078416211E+01  0.14871286337E+01 -0.70905017350E+01  0.92231351860E+01  0.51100000000E-03 0.  1.
        -12    1    3    3    0    0 -0.41537551524E+02  0.10544658319E+02  0.30016459703E+01  0.42960073140E+02  0.00000000000E+00 0.  1.
</event>
<event>
 7    1  0.2542335E-015  0.9000772E+02  0.7816164E-02  0.1186339E+00
        -11   -1    0    0    0    0  0.00000000000E+00  0.00000000000E+00  0.45593999997E+02  0.45594000000E+02  0.51100000000E-03 0.  1.
         11   -1    0    0    0    0 -0.00000000000E+00 -0.00000000000E+00 -0.45593999997E+02  0.45594000000E+02  0.51100000000E-03 0. -1.
    9900012    2    1    2    0    0 -0.15552430390E+00  0.11196225853E+01  0.33958223294E+00  0.90007720950E+02  0.89999982067E+02 0.  0.
        -12    1    1    2    0    0  0.15552430390E+00 -0.11196225853E+01 -0.33958223294E+00  0.11802790498E+01  0.00000000000E+00 0.  1.
         11    1    3    3    0    0  0.23376119006E+02  0.39073632923E+01 -0.19956099992E+02  0.30983162440E+02  0.51100000000E-03 0. -1.
        -11    1    3    3    0    0 -0.12990267996E+01  0.12283825983E+02 -0.11861698231E+02  0.17125412013E+02  0.51100000000E-03 0.  1.
        -12    1    3    3    0    0 -0.22232616510E+02 -0.15071566690E+02  0.32157380456E+02  0.41899146497E+02  0.00000000000E+00 0.  1.
</event>
<event>
 7    1  0.2542335E-015  0.9000742E+02  0.7816164E-02  0.1186340E+00
        -11   -1    0    0    0    0  0.00000000000E+00  0.00000000000E+00  0.45593999997E+02  0.45594000000E+02  0.51100000000E-03 0.  1.
         11   -1    0    0    0    0 -0.00000000000E+00 -0.00000000000E+00 -0.45593999997E+02  0.45594000000E+02  0.51100000000E-03 0. -1.
    9900012    2    1    2    0    0 -0.10547253788E+01 -0.43529463863E+00  0.30307000324E+00  0.90007416045E+02  0.89999673137E+02 0.  0.
        -12    1    1    2    0    0  0.10547253788E+01  0.43529463863E+00 -0.30307000324E+00  0.11805839546E+01  0.00000000000E+00 0.  1.
         11    1    3    3    0    0 -0.65108778637E+01  0.16378565476E+02 -0.16506934794E+02  0.24148039965E+02  0.51100000000E-03 0. -1.
        -11    1    3    3    0    0  0.15560560001E+02  0.19807703924E+02  0.26975248582E+01  0.25332840404E+02  0.51100000000E-03 0.  1.
         12    1    3    3    0    0 -0.10104407516E+02 -0.36621564039E+02  0.14112479939E+02  0.40526535676E+02  0.00000000000E+00 0. -1.
</event>
<event>
 7    1  0.2542335E-015  0.9000777E+02  0.7816164E-02  0.1186339E+00
        -11   -1    0    0    0    0  0.00000000000E+00  0.00000000000E+00  0.45593999997E+02  0.45594000000E+02  0.51100000000E-03 0.  1.
         11   -1    0    0    0    0 -0.00000000000E+00 -0.00000000000E+00 -0.45593999997E+02  0.45594000000E+02  0.51100000000E-03 0. -1.
    9900012    2    1    2    0    0  0.60678039896E+00  0.50683040910E+00 -0.87629396634E+00  0.90007766705E+02  0.90000028425E+02 0.  0.
        -12    1    1    2    0    0 -0.60678039896E+00 -0.50683040910E+00  0.87629396634E+00  0.11802332954E+01  0.00000000000E+00 0.  1.
         11    1    3    3    0    0 -0.87671312740E+01 -0.22089928093E+01 -0.29054045964E+01  0.94965054697E+01  0.51100000000E-03 0. -1.
        -11    1    3    3    0    0 -0.28333423370E+01  0.40247011417E+02  0.62183948960E+01  0.40823010572E+02  0.51100000000E-03 0.  1.
         12    1    3    3    0    0  0.12207254010E+02 -0.37531188198E+02 -0.41892842659E+01  0.39688250663E+02  0.00000000000E+00 0. -1.
</event>
<event>
 7    1  0.2542335E-015  0.9000777E+02  0.7816164E-02  0.1186339E+00
        -11   -1    0    0    0    0  0.00000000000E+00  0.00000000000E+00  0.45593999997E+02  0.45594000000E+02  0.51100000000E-03 0. -1.
         11   -1    0    0    0    0 -0.00000000000E+00 -0.00000000000E+00 -0.45593999997E+02  0.45594000000E+02  0.51100000000E-03 0.  1.
    9900012    2    1    2    0    0 -0.11540863961E+01  0.84601993216E-01  0.23210962870E+00  0.90007767910E+02  0.90000029646E+02 0.  0.
        -12    1    1    2    0    0  0.11540863961E+01 -0.84601993216E-01 -0.23210962870E+00  0.11802320901E+01  0.00000000000E+00 0.  1.
         11    1    3    3    0    0 -0.19673115862E+02 -0.29322348707E+02  0.13789461891E+02  0.37907530662E+02  0.51100000000E-03 0. -1.
        -11    1    3    3    0    0  0.14882718243E+02 -0.49998612417E+01 -0.46305771130E+01  0.16368755585E+02  0.51100000000E-03 0.  1.
        -12    1    3    3    0    0  0.36363112233E+01  0.34406811942E+02 -0.89267751492E+01  0.35731481663E+02  0.00000000000E+00 0.  1.
</event>
<event>
 7    1  0.2542335E-015  0.9000785E+02  0.7816164E-02  0.1186339E+00
        -11   -1    0    0    0    0  0.00000000000E+00  0.00000000000E+00  0.45593999997E+02  0.45594000000E+02  0.51100000000E-03 0. -1.
         11   -1    0    0    0    0 -0.00000000000E+00 -0.00000000000E+00 -0.45593999997E+02  0.45594000000E+02  0.51100000000E-03 0.  1.
    9900012    2    1    2    0    0 -0.42873192313E+00 -0.52525135241E+00  0.96594649495E+00  0.90007850570E+02  0.90000113398E+02 0.  0.
        -12    1    1    2    0    0  0.42873192313E+00  0.52525135241E+00 -0.96594649495E+00  0.11801494296E+01  0.00000000000E+00 0.  1.
         11    1    3    3    0    0 -0.62996360608E+01  0.78216458366E+01 -0.18410522800E+00  0.10044772426E+02  0.51100000000E-03 0. -1.
        -11    1    3    3    0    0  0.13983029225E+02  0.30969542265E+02  0.15476859141E+02  0.37338596968E+02  0.51100000000E-03 0.  1.
         12    1    3    3    0    0 -0.81121250874E+01 -0.39316439454E+02 -0.14326807418E+02  0.42624481177E+02  0.00000000000E+00 0. -1.
</event>
<event>
 7    1  0.2542335E-015  0.9000809E+02  0.7816164E-02  0.1186338E+00
        -11   -1    0    0    0    0  0.00000000000E+00  0.00000000000E+00  0.45593999997E+02  0.45594000000E+02  0.51100000000E-03 0. -1.
         11   -1    0    0    0    0 -0.00000000000E+00 -0.00000000000E+00 -0.45593999997E+02  0.45594000000E+02  0.51100000000E-03 0.  1.
    9900012    2    1    2    0    0 -0.10579550575E+01  0.42709417195E+00  0.30082938545E+00  0.90008094642E+02  0.90000360690E+02 0.  0.
        -12    1    1    2    0    0  0.10579550575E+01 -0.42709417195E+00 -0.30082938545E+00  0.11799053583E+01  0.00000000000E+00 0.  1.
         11    1    3    3    0    0 -0.10773027582E+02 -0.13587108314E+02  0.30275825499E+02  0.34889729800E+02  0.51100000000E-03 0. -1.
        -11    1    3    3    0    0 -0.66426393681E+00 -0.69807395727E+01  0.79149260651E+01  0.10574404306E+02  0.51100000000E-03 0.  1.
        -12    1    3    3    0    0  0.10379336461E+02  0.20994942059E+02 -0.37889922179E+02  0.44543960535E+02  0.00000000000E+00 0.  1.
</event>
<event>
 7    1  0.2542335E-015  0.9000780E+02  0.7816164E-02  0.1186339E+00
        -11   -1    0    0    0    0  0.00000000000E+00  0.00000000000E+00  0.45593999997E+02  0.45594000000E+02  0.51100000000E-03 0. -1.
         11   -1    0    0    0    0 -0.00000000000E+00 -0.00000000000E+00 -0.45593999997E+02  0.45594000000E+02  0.51100000000E-03 0.  1.
    9900012    2    1    2    0    0 -0.94069924558E-02 -0.10053313239E+01  0.61813063407E+00  0.90007802964E+02  0.90000065163E+02 0.  0.
        -12    1    1    2    0    0  0.94069924558E-02  0.10053313239E+01 -0.61813063407E+00  0.11801970357E+01  0.00000000000E+00 0.  1.
         11    1    3    3    0    0  0.26277169254E+02  0.38405454899E+01  0.27347065452E+02  0.38119567190E+02  0.51100000000E-03 0. -1.
        -11    1    3    3    0    0  0.73725081494E+01 -0.64960141388E+01 -0.18467179485E+01  0.99981220010E+01  0.51100000000E-03 0.  1.
        -12    1    3    3    0    0 -0.33659084396E+02  0.16501373250E+01 -0.24882216869E+02  0.41890113773E+02  0.00000000000E+00 0.  1.
</event>
<event>
 7    1  0.2542335E-015  0.9000768E+02  0.7816164E-02  0.1186339E+00
        -11   -1    0    0    0    0  0.00000000000E+00  0.00000000000E+00  0.45593999997E+02  0.45594000000E+02  0.51100000000E-03 0.  1.
         11   -1    0    0    0    0 -0.00000000000E+00 -0.00000000000E+00 -0.45593999997E+02  0.45594000000E+02  0.51100000000E-03 0. -1.
    9900012    2    1    2    0    0  0.82660744375E+00  0.72111595682E+00  0.43573387337E+00  0.90007681358E+02  0.89999941951E+02 0.  0.
        -12    1    1    2    0    0 -0.82660744375E+00 -0.72111595682E+00 -0.43573387337E+00  0.11803186424E+01  0.00000000000E+00 0.  1.
         11    1    3    3    0    0  0.40265701436E+02  0.60126137325E+01 -0.96886880965E+01  0.41849120819E+02  0.51100000000E-03 0. -1.
        -11    1    3    3    0    0 -0.56840516758E+00 -0.11117002365E+01  0.89598694782E+01  0.90464480974E+01  0.51100000000E-03 0.  1.
        -12    1    3    3    0    0 -0.38870688824E+02 -0.41797975391E+01  0.11645524916E+01  0.39112112442E+02  0.00000000000E+00 0.  1.
</event>
<event>
 7    1  0.2542335E-015  0.9000774E+02  0.7816164E-02  0.1186339E+00
        -11   -1    0    0    0    0  0.00000000000E+00  0.00000000000E+00  0.45593999997E+02  0.45594000000E+02  0.51100000000E-03 0.  1.
         11   -1    0    0    0    0 -0.00000000000E+00 -0.00000000000E+00 -0.45593999997E+02  0.45594000000E+02  0.51100000000E-03 0. -1.
    9900012    2    1    2    0    0 -0.33321138672E+00  0.10940263752E+01 -0.29168830745E+00  0.90007743415E+02  0.90000004828E+02 0.  0.
        -12    1    1    2    0    0  0.33321138672E+00 -0.10940263752E+01  0.29168830745E+00  0.11802565851E+01  0.00000000000E+00 0.  1.
         11    1    3    3    0    0  0.54403677925E+01 -0.55845305851E+01  0.27720417823E+01  0.82745875714E+01  0.51100000000E-03 0. -1.
        -11    1    3    3    0    0 -0.24211773293E+02  0.14658358438E+02  0.31130444743E+02  0.42073531207E+02  0.51100000000E-03 0.  1.
         12    1    3    3    0    0  0.18438194114E+02 -0.79798014782E+01 -0.34194174833E+02  0.39659624636E+02  0.00000000000E+00 0. -1.
</event>
<event>
 7    1  0.2542335E-015  0.9000770E+02  0.7816164E-02  0.1186339E+00
        -11   -1    0    0    0    0  0.00000000000E+00  0.00000000000E+00  0.45593999997E+02  0.45594000000E+02  0.51100000000E-03 0.  1.
         11   -1    0    0    0    0 -0.00000000000E+00 -0.00000000000E+00 -0.45593999997E+02  0.45594000000E+02  0.51100000000E-03 0. -1.
    9900012    2    1    2    0    0 -0.10259182640E+01 -0.33537752993E+00 -0.47760884966E+00  0.90007704874E+02  0.89999965778E+02 0.  0.
        -12    1    1    2    0    0  0.10259182640E+01  0.33537752993E+00  0.47760884966E+00  0.11802951263E+01  0.00000000000E+00 0.  1.
         11    1    3    3    0    0  0.30129640151E+01  0.19488704539E+02 -0.12587006307E+02  0.23394877320E+02  0.51100000000E-03 0. -1.
        -11    1    3    3    0    0  0.18328917228E+02  0.47817268973E+01 -0.14636591646E+02  0.23938336077E+02  0.51100000000E-03 0.  1.
        -12    1    3    3    0    0 -0.22367799507E+02 -0.24605808966E+02  0.26745989103E+02  0.42674491477E+02  0.00000000000E+00 0.  1.
</event>
<event>
 7    1  0.2542335E-015  0.9000777E+02  0.7816164E-02  0.1186339E+00
        -11   -1    0    0    0    0  0.00000000000E+00  0.00000000000E+00  0.45593999997E+02  0.45594000000E+02  0.51100000000E-03 0.  1.
         11   -1    0    0    0    0 -0.00000000000E+00 -0.00000000000E+00 -0.45593999997E+02  0.45594000000E+02  0.51100000000E-03 0. -1.
    9900012    2    1    2    0    0  0.95812815661E+00 -0.64517797651E+00 -0.24223539421E+00  0.90007770288E+02  0.90000032056E+02 0.  0.
        -12    1    1    2    0    0 -0.95812815661E+00  0.64517797651E+00  0.24223539421E+00  0.11802297116E+01  0.00000000000E+00 0.  1.
         11    1    3    3    0    0  0.10756026408E+02 -0.29666863505E+02  0.45699067409E+01  0.31885716899E+02  0.51100000000E-03 0. -1.
        -11    1    3    3    0    0  0.19199086771E+02  0.58823742943E+01  0.27315232305E+01  0.20264956935E+02  0.51100000000E-03 0.  1.
        -12    1    3    3    0    0 -0.28996985022E+02  0.23139311234E+02 -0.75436653657E+01  0.37857096454E+02  0.00000000000E+00 0.  1.
</event>
<event>
 7    1  0.2542335E-015  0.9000768E+02  0.7816164E-02  0.1186339E+00
        -11   -1    0    0    0    0  0.00000000000E+00  0.00000000000E+00  0.45593999997E+02  0.45594000000E+02  0.51100000000E-03 0.  1.
         11   -1    0    0    0    0 -0.00000000000E+00 -0.00000000000E+00 -0.45593999997E+02  0.45594000000E+02  0.51100000000E-03 0. -1.
    9900012    2    1    2    0    0 -0.31824783995E+00 -0.11361609086E+01  0.31732030823E-01  0.90007682153E+02  0.89999942758E+02 0.  0.
        -12    1    1    2    0    0  0.31824783995E+00  0.11361609086E+01 -0.31732030823E-01  0.11803178468E+01  0.00000000000E+00 0.  1.
         11    1    3    3    0    0  0.69005850232E+01 -0.10980584861E+02 -0.32035744428E+01  0.13358675347E+02  0.51100000000E-03 0. -1.
        -11    1    3    3    0    0  0.83842524204E+01  0.23683306219E+02  0.32272065771E+02  0.40898421871E+02  0.51100000000E-03 0.  1.
         12    1    3    3    0    0 -0.15603085284E+02 -0.13838882267E+02 -0.29036759298E+02  0.35750584936E+02  0.00000000000E+00 0. -1.
</event>
<event>
 7    1  0.2542335E-015  0.9000776E+02  0.7816164E-02  0.1186339E+00
        -11   -1    0    0    0    0  0.00000000000E+00  0.00000000000E+00  0.45593999997E+02  0.45594000000E+02  0.51100000000E-03 0.  1.
         11   -1    0    0    0    0 -0.00000000000E+00 -0.00000000000E+00 -0.45593999997E+02  0.45594000000E+02  0.51100000000E-03 0. -1.
    9900012    2    1    2    0    0  0.17522571915E-01  0.10174517403E+00 -0.11757138358E+01  0.90007761827E+02  0.90000023483E+02 0.  0.
        -12    1    1    2    0    0 -0.17522571915E-01 -0.10174517403E+00  0.11757138358E+01  0.11802381728E+01  0.00000000000E+00 0.  1.
         11    1    3    3    0    0 -0.19727370844E+02  0.28114920247E+02  0.12403140965E+02  0.36516514168E+02  0.51100000000E-03 0. -1.
        -11    1    3    3    0    0 -0.84114850470E+01  0.26286972081E+01  0.20351595779E+01  0.90446119030E+01  0.51100000000E-03 0.  1.
        -12    1    3    3    0    0  0.28156378463E+02 -0.30641872281E+02 -0.15614014379E+02  0.44446635756E+02  0.00000000000E+00 0.  1.
</event>
<event>
 7    1  0.2542335E-015  0.9000774E+02  0.7816164E-02  0.1186339E+00
        -11   -1    0    0    0    0  0.00000000000E+00  0.00000000000E+00  0.45593999997E+02  0.45594000000E+02  0.51100000000E-03 0.  1.
         11   -1    0    0    0    0 -0.00000000000E+00 -0.00000000000E+00 -0.45593999997E+02  0.45594000000E+02  0.51100000000E-03 0. -1.
    9900012    2    1    2    0    0  0.41919059981E+00  0.10376822838E+01  0.37485344746E+00  0.90007737153E+02  0.89999998483E+02 0.  0.
        -12    1    1    2    0    0 -0.41919059981E+00 -0.10376822838E+01 -0.37485344746E+00  0.11802628470E+01  0.00000000000E+00 0.  1.
         11    1    3    3    0    0  0.19858232016E+02 -0.33899397191E+02 -0.10174515780E+01  0.39300810637E+02  0.51100000000E-03 0. -1.
        -11    1    3    3    0    0  0.47523420552E+01 -0.12281409624E+01  0.50509261513E+01  0.70430774865E+01  0.51100000000E-03 0.  1.
        -12    1    3    3    0    0 -0.24191383471E+02  0.36165220438E+02 -0.36586211259E+01  0.43663849030E+02  0.00000000000E+00 0.  1.
</event>
<event>
 7    1  0.2542335E-015  0.9000763E+02  0.7816164E-02  0.1186339E+00
        -11   -1    0    0    0    0  0.00000000000E+00  0.00000000000E+00  0.45593999997E+02  0.45594000000E+02  0.51100000000E-03 0. -1.
         11   -1    0    0    0    0 -0.00000000000E+00 -0.00000000000E+00 -0.45593999997E+02  0.45594000000E+02  0.51100000000E-03 0.  1.
    9900012    2    1    2    0    0  0.77801907494E+00 -0.34915919885E+00  0.81611575471E+00  0.90007631095E+02  0.89999891025E+02 0.  0.
        -12    1    1    2    0    0 -0.77801907494E+00  0.34915919885E+00 -0.81611575471E+00  0.11803689051E+01  0.00000000000E+00 0.  1.
         11    1    3    3    0    0  0.27698606017E+02  0.25709152008E+02  0.11722296299E+02  0.39567480373E+02  0.51100000000E-03 0. -1.
        -11    1    3    3    0    0 -0.34595051976E+01  0.89487410897E+00  0.88957301004E+01  0.95866047256E+01  0.51100000000E-03 0.  1.
        -12    1    3    3    0    0 -0.23461081745E+02 -0.26953185316E+02 -0.19801910645E+02  0.40853545996E+02  0.00000000000E+00 0.  1.
</event>
<event>
 7    1  0.2542335E-015  0.9000768E+02  0.7816164E-02  0.1186339E+00
        -11   -1    0    0    0    0  0.00000000000E+00  0.00000000000E+00  0.45593999997E+02  0.45594000000E+02  0.51100000000E-03 0. -1.
         11   -1    0    0    0    0 -0.00000000000E+00 -0.00000000000E+00 -0.45593999997E+02  0.45594000000E+02  0.51100000000E-03 0.  1.
    9900012    2    1    2    0    0 -0.99848966837E+00 -0.55561794309E+00 -0.29573907088E+00  0.90007680334E+02  0.89999940914E+02 0.  0.
        -12    1    1    2    0    0  0.99848966837E+00  0.55561794309E+00  0.29573907088E+00  0.11803196663E+01  0.00000000000E+00 0.  1.
         11    1    3    3    0    0 -0.28220047457E+02 -0.25484038202E+02  0.63253374851E+01  0.38546299123E+02  0.51100000000E-03 0. -1.
        -11    1    3    3    0    0 -0.37016429061E+01 -0.55038526266E+01  0.25681403219E+01  0.71126576548E+01  0.51100000000E-03 0.  1.
        -12    1    3    3    0    0  0.30923200694E+02  0.30432272886E+02 -0.91892168779E+01  0.44348723556E+02  0.00000000000E+00 0.  1.
</event>
<event>
 7    1  0.2542335E-015  0.9000778E+02  0.7816164E-02  0.1186339E+00
        -11   -1    0    0    0    0  0.00000000000E+00  0.00000000000E+00  0.45593999997E+02  0.45594000000E+02  0.51100000000E-03 0. -1.
         11   -1    0    0    0    0 -0.00000000000E+00 -0.00000000000E+00 -0.45593999997E+02  0.45594000000E+02  0.51100000000E-03 0.  1.
    9900012    2    1    2    0    0 -0.64445948095E+00 -0.92952551059E+00  0.33699927769E+00  0.90007782134E+02  0.90000044058E+02 0.  0.
        -12    1    1    2    0    0  0.64445948095E+00  0.92952551059E+00 -0.33699927769E+00  0.11802178657E+01  0.00000000000E+00 0.  1.
         11    1    3    3    0    0 -0.28898204824E+02 -0.47775248514E+01  0.15213375288E+02  0.33005723348E+02  0.51100000000E-03 0. -1.
        -11    1    3    3    0    0 -0.68556667692E+01 -0.43891781250E+01 -0.19032829227E+02  0.20700571010E+02  0.51100000000E-03 0.  1.
        -12    1    3    3    0    0  0.35109412113E+02  0.82371774658E+01  0.41564532166E+01  0.36301487777E+02  0.00000000000E+00 0.  1.
</event>
<event>
 7    1  0.3086817E-015  0.9000773E+02  0.7816164E-02  0.1186339E+00
        -11   -1    0    0    0    0  0.00000000000E+00  0.00000000000E+00  0.45593999997E+02  0.45594000000E+02  0.51100000000E-03 0. -1.
         11   -1    0    0    0    0 -0.00000000000E+00 -0.00000000000E+00 -0.45593999997E+02  0.45594000000E+02  0.51100000000E-03 0.  1.
    9900012    2    1    2    0    0  0.62921473795E+00  0.56087298181E+00  0.82616701576E+00  0.90007728156E+02  0.89999989368E+02 0.  0.
        -12    1    1    2    0    0 -0.62921473795E+00 -0.56087298181E+00 -0.82616701576E+00  0.11802718442E+01  0.00000000000E+00 0.  1.
         11    1    3    3    0    0  0.48116805576E+01 -0.71664775451E+01 -0.25728927466E+01  0.90072441701E+01  0.51100000000E-03 0. -1.
        -11    1    3    3    0    0  0.87023113153E+01 -0.30845920981E+02 -0.16136964722E+02  0.35883181215E+02  0.51100000000E-03 0.  1.
         12    1    3    3    0    0 -0.12884777135E+02  0.38573271508E+02  0.19536024485E+02  0.45117302771E+02  0.00000000000E+00 0. -1.
</event>
<event>
 7    1  0.2542335E-015  0.9000689E+02  0.7816164E-02  0.1186341E+00
        -11   -1    0    0    0    0  0.00000000000E+00  0.00000000000E+00  0.45593999997E+02  0.45594000000E+02  0.51100000000E-03 0.  1.
         11   -1    0    0    0    0 -0.00000000000E+00 -0.00000000000E+00 -0.45593999997E+02  0.45594000000E+02  0.51100000000E-03 0. -1.
    9900012    2    1    2    0    0 -0.77293208398E+00  0.87729420700E+00 -0.16718840432E+00  0.90006889889E+02  0.89999140031E+02 0.  0.
        -12    1    1    2    0    0  0.77293208398E+00 -0.87729420700E+00  0.16718840432E+00  0.11811101111E+01  0.00000000000E+00 0.  1.
         11    1    3    3    0    0  0.17194728407E+02  0.19080207815E+02 -0.27096325506E+02  0.37335289894E+02  0.51100000000E-03 0. -1.
        -11    1    3    3    0    0  0.96583597093E+01  0.15038953776E+01  0.73314103384E+00  0.98021992236E+01  0.51100000000E-03 0.  1.
        -12    1    3    3    0    0 -0.27626020201E+02 -0.19706808986E+02  0.26195996068E+02  0.42869400772E+02  0.00000000000E+00 0.  1.
</event>
<event>
 7    1  0.2542335E-015  0.9000773E+02  0.7816164E-02  0.1186339E+00
        -11   -1    0    0    0    0  0.00000000000E+00  0.00000000000E+00  0.45593999997E+02  0.45594000000E+02  0.51100000000E-03 0.  1.
         11   -1    0    0    0    0 -0.00000000000E+00 -0.00000000000E+00 -0.45593999997E+02  0.45594000000E+02  0.51100000000E-03 0. -1.
    9900012    2    1    2    0    0 -0.11390132065E+01 -0.15524809990E+00  0.26753426407E+00  0.90007734081E+02  0.89999995371E+02 0.  0.
        -12    1    1    2    0    0  0.11390132065E+01  0.15524809990E+00 -0.26753426407E+00  0.11802659190E+01  0.00000000000E+00 0.  1.
         11    1    3    3    0    0  0.11175579725E-01 -0.34076754427E+01  0.89370657018E+01  0.95647017955E+01  0.51100000000E-03 0. -1.
        -11    1    3    3    0    0 -0.18726353364E+02  0.69025285716E+01  0.31018227993E+02  0.36884301256E+02  0.51100000000E-03 0.  1.
         12    1    3    3    0    0  0.17576164578E+02 -0.36501012288E+01 -0.39687759431E+02  0.43558731030E+02  0.00000000000E+00 0. -1.
</event>
<event>
 7    1  0.2542335E-015  0.9000778E+02  0.7816164E-02  0.1186339E+00
        -11   -1    0    0    0    0  0.00000000000E+00  0.00000000000E+00  0.45593999997E+02  0.45594000000E+02  0.51100000000E-03 0. -1.
         11   -1    0    0    0    0 -0.00000000000E+00 -0.00000000000E+00 -0.45593999997E+02  0.45594000000E+02  0.51100000000E-03 0.  1.
    9900012    2    1    2    0    0  0.67863778722E+00  0.76631522312E+00  0.58747059864E+00  0.90007783930E+02  0.90000045878E+02 0.  0.
        -12    1    1    2    0    0 -0.67863778722E+00 -0.76631522312E+00 -0.58747059864E+00  0.11802160699E+01  0.00000000000E+00 0.  1.
         11    1    3    3    0    0  0.31209263944E+01  0.15809245733E+02  0.36421963034E+02  0.39827525955E+02  0.51100000000E-03 0. -1.
        -11    1    3    3    0    0 -0.27032558671E+01 -0.78156604659E+01  0.43541060340E+01  0.93461425421E+01  0.51100000000E-03 0.  1.
        -12    1    3    3    0    0  0.26096725998E+00 -0.72272700436E+01 -0.40188598470E+02  0.40834115432E+02  0.00000000000E+00 0.  1.
</event>
<event>
 7    1  0.2542335E-015  0.9000773E+02  0.7816164E-02  0.1186339E+00
        -11   -1    0    0    0    0  0.00000000000E+00  0.00000000000E+00  0.45593999997E+02  0.45594000000E+02  0.51100000000E-03 0.  1.
         11   -1    0    0    0    0 -0.00000000000E+00 -0.00000000000E+00 -0.45593999997E+02  0.45594000000E+02  0.51100000000E-03 0. -1.
    9900012    2    1    2    0    0  0.11427121501E+01 -0.19818348312E+00 -0.21903401061E+00  0.90007727299E+02  0.89999988499E+02 0.  0.
        -12    1    1    2    0    0 -0.11427121501E+01  0.19818348312E+00  0.21903401061E+00  0.11802727010E+01  0.00000000000E+00 0.  1.
         11    1    3    3    0    0  0.22569659986E+02  0.21223050708E+02 -0.22567635107E+02  0.38328913210E+02  0.51100000000E-03 0. -1.
        -11    1    3    3    0    0 -0.30482352689E+01  0.87401145779E+01 -0.10437439413E+01  0.93150814685E+01  0.51100000000E-03 0.  1.
        -12    1    3    3    0    0 -0.18378712567E+02 -0.30161348769E+02  0.23392345038E+02  0.42363732621E+02  0.00000000000E+00 0.  1.
</event>
<event>
 7    1  0.2542335E-015  0.9000893E+02  0.7816164E-02  0.1186337E+00
        -11   -1    0    0    0    0  0.00000000000E+00  0.00000000000E+00  0.45593999997E+02  0.45594000000E+02  0.51100000000E-03 0.  1.
         11   -1    0    0    0    0 -0.00000000000E+00 -0.00000000000E+00 -0.45593999997E+02  0.45594000000E+02  0.51100000000E-03 0. -1.
    9900012    2    1    2    0    0  0.10399130646E+01  0.12513511855E+00 -0.54142116170E+00  0.90008926273E+02  0.90001203292E+02 0.  0.
        -12    1    1    2    0    0 -0.10399130646E+01 -0.12513511855E+00  0.54142116170E+00  0.11790737272E+01  0.00000000000E+00 0.  1.
         11    1    3    3    0    0  0.26106233176E+02 -0.14905832203E+02 -0.22591897575E+02  0.37604694928E+02  0.51100000000E-03 0. -1.
        -11    1    3    3    0    0  0.14787583862E+01 -0.74812867339E+01 -0.42945915268E+01  0.87521365507E+01  0.51100000000E-03 0.  1.
        -12    1    3    3    0    0 -0.26545078498E+02  0.22512254055E+02  0.26345067940E+02  0.43652094794E+02  0.00000000000E+00 0.  1.
</event>
<event>
 7    1  0.2542335E-015  0.9000771E+02  0.7816164E-02  0.1186339E+00
        -11   -1    0    0    0    0  0.00000000000E+00  0.00000000000E+00  0.45593999997E+02  0.45594000000E+02  0.51100000000E-03 0.  1.
         11   -1    0    0    0    0 -0.00000000000E+00 -0.00000000000E+00 -0.45593999997E+02  0.45594000000E+02  0.51100000000E-03 0. -1.
    9900012    2    1    2    0    0 -0.32654301384E+00 -0.46093268965E+00 -0.10363379259E+01  0.90007709535E+02  0.89999970501E+02 0.  0.
        -12    1    1    2    0    0  0.32654301384E+00  0.46093268965E+00  0.10363379259E+01  0.11802904647E+01  0.00000000000E+00 0.  1.
         11    1    3    3    0    0  0.52860457562E+01 -0.19340469313E+01 -0.67899039387E+01  0.88196152426E+01  0.51100000000E-03 0. -1.
        -11    1    3    3    0    0 -0.18200494025E+00  0.11016573092E+02  0.41944813628E+02  0.43367792185E+02  0.51100000000E-03 0.  1.
         12    1    3    3    0    0 -0.54305838298E+01 -0.95434588505E+01 -0.36191247615E+02  0.37820302107E+02  0.00000000000E+00 0. -1.
</event>
<event>
 7    1  0.2542335E-015  0.9000753E+02  0.7816164E-02  0.1186339E+00
        -11   -1    0    0    0    0  0.00000000000E+00  0.00000000000E+00  0.45593999997E+02  0.45594000000E+02  0.51100000000E-03 0.  1.
         11   -1    0    0    0    0 -0.00000000000E+00 -0.00000000000E+00 -0.45593999997E+02  0.45594000000E+02  0.51100000000E-03 0. -1.
    9900012    2    1    2    0    0  0.13450011781E+00  0.11625997789E+01 -0.15419401401E+00  0.90007532160E+02  0.89999790784E+02 0.  0.
        -12    1    1    2    0    0 -0.13450011781E+00 -0.11625997789E+01  0.15419401401E+00  0.11804678401E+01  0.00000000000E+00 0.  1.
         11    1    3    3    0    0 -0.35316287140E+01 -0.62922383496E+01  0.53908472524E+00  0.72356946746E+01  0.51100000000E-03 0. -1.
        -11    1    3    3    0    0 -0.32800468068E+02  0.21457098049E+00 -0.22400506647E+02  0.39720264910E+02  0.51100000000E-03 0.  1.
         12    1    3    3    0    0  0.36466596899E+02  0.72402671480E+01  0.21707227908E+02  0.43051572576E+02  0.00000000000E+00 0. -1.
</event>
<event>
 7    1  0.2542335E-015  0.9000784E+02  0.7816164E-02  0.1186339E+00
        -11   -1    0    0    0    0  0.00000000000E+00  0.00000000000E+00  0.45593999997E+02  0.45594000000E+02  0.51100000000E-03 0.  1.
         11   -1    0    0    0    0 -0.00000000000E+00 -0.00000000000E+00 -0.45593999997E+02  0.45594000000E+02  0.51100000000E-03 0. -1.
    9900012    2    1    2    0    0  0.55100355109E+00  0.10288674852E+01 -0.17495856357E+00  0.90007837420E+02  0.90000100074E+02 0.  0.
        -12    1    1    2    0    0 -0.55100355109E+00 -0.10288674852E+01  0.17495856357E+00  0.11801625797E+01  0.00000000000E+00 0.  1.
         11    1    3    3    0    0 -0.40632939457E+01  0.80854153015E+01 -0.89670007824E+01  0.12739364253E+02  0.51100000000E-03 0. -1.
        -11    1    3    3    0    0 -0.16606352519E+02 -0.33550102022E+02 -0.96210110167E+01  0.38651573615E+02  0.51100000000E-03 0.  1.
         12    1    3    3    0    0  0.21220650016E+02  0.26493554206E+02  0.18413053235E+02  0.38616899552E+02  0.00000000000E+00 0. -1.
</event>
<event>
 7    1  0.2542335E-015  0.9000812E+02  0.7816164E-02  0.1186338E+00
        -11   -1    0    0    0    0  0.00000000000E+00  0.00000000000E+00  0.45593999997E+02  0.45594000000E+02  0.51100000000E-03 0. -1.
         11   -1    0    0    0    0 -0.00000000000E+00 -0.00000000000E+00 -0.45593999997E+02  0.45594000000E+02  0.51100000000E-03 0.  1.
    9900012    2    1    2    0    0 -0.26367850117E+00 -0.10259101693E+01 -0.51971200514E+00  0.90008119245E+02  0.90000385618E+02 0.  0.
        -12    1    1    2    0    0  0.26367850117E+00  0.10259101693E+01  0.51971200514E+00  0.11798807549E+01  0.00000000000E+00 0.  1.
         11    1    3    3    0    0  0.17021820736E+01 -0.24065690699E+02 -0.16831428123E+02  0.29416863625E+02  0.51100000000E-03 0. -1.
        -11    1    3    3    0    0  0.14481027497E+02  0.82634628989E+01 -0.14887425349E+02  0.22352190278E+02  0.51100000000E-03 0.  1.
         12    1    3    3    0    0 -0.16446888072E+02  0.14776317631E+02  0.31199141467E+02  0.38239065342E+02  0.00000000000E+00 0. -1.
</event>
<event>
 7    1  0.2542335E-015  0.9000778E+02  0.7816164E-02  0.1186339E+00
        -11   -1    0    0    0    0  0.00000000000E+00  0.00000000000E+00  0.45593999997E+02  0.45594000000E+02  0.51100000000E-03 0. -1.
         11   -1    0    0    0    0 -0.00000000000E+00 -0.00000000000E+00 -0.45593999997E+02  0.45594000000E+02  0.51100000000E-03 0.  1.
    9900012    2    1    2    0    0 -0.56395971298E+00  0.80147321266E+00  0.65765772628E+00  0.90007778176E+02  0.90000040048E+02 0.  0.
        -12    1    1    2    0    0  0.56395971298E+00 -0.80147321266E+00 -0.65765772628E+00  0.11802218238E+01  0.00000000000E+00 0.  1.
         11    1    3    3    0    0  0.82498057700E+00  0.51170391066E+01  0.14013514412E+01  0.53692148676E+01  0.51100000000E-03 0. -1.
        -11    1    3    3    0    0  0.28309286172E+02  0.28640159832E+02 -0.35294972494E-01  0.40270034576E+02  0.51100000000E-03 0.  1.
         12    1    3    3    0    0 -0.29698226462E+02 -0.32955725726E+02 -0.70839874244E+00  0.44368528732E+02  0.00000000000E+00 0. -1.
</event>
<event>
 7    1  0.2542335E-015  0.9000765E+02  0.7816164E-02  0.1186339E+00
        -11   -1    0    0    0    0  0.00000000000E+00  0.00000000000E+00  0.45593999997E+02  0.45594000000E+02  0.51100000000E-03 0. -1.
         11   -1    0    0    0    0 -0.00000000000E+00 -0.00000000000E+00 -0.45593999997E+02  0.45594000000E+02  0.51100000000E-03 0.  1.
    9900012    2    1    2    0    0  0.24340851885E+00  0.90631721629E+00  0.71593341394E+00  0.90007652908E+02  0.89999913127E+02 0.  0.
        -12    1    1    2    0    0 -0.24340851885E+00 -0.90631721629E+00 -0.71593341394E+00  0.11803470917E+01  0.00000000000E+00 0.  1.
         11    1    3    3    0    0  0.13071754563E+01 -0.90635029671E+01 -0.71006686526E+01  0.11587721488E+02  0.51100000000E-03 0. -1.
        -11    1    3    3    0    0 -0.25669787995E+02  0.25282908876E+01 -0.25545334846E+02  0.36302815362E+02  0.51100000000E-03 0.  1.
         12    1    3    3    0    0  0.24606021058E+02  0.74415292958E+01  0.33361936912E+02  0.42117116059E+02  0.00000000000E+00 0. -1.
</event>
<event>
 7    1  0.2542335E-015  0.9000779E+02  0.7816164E-02  0.1186339E+00
        -11   -1    0    0    0    0  0.00000000000E+00  0.00000000000E+00  0.45593999997E+02  0.45594000000E+02  0.51100000000E-03 0.  1.
         11   -1    0    0    0    0 -0.00000000000E+00 -0.00000000000E+00 -0.45593999997E+02  0.45594000000E+02  0.51100000000E-03 0. -1.
    9900012    2    1    2    0    0 -0.49762338700E+00  0.78211544935E+00 -0.73044821742E+00  0.90007793150E+02  0.90000055219E+02 0.  0.
        -12    1    1    2    0    0  0.49762338700E+00 -0.78211544935E+00  0.73044821742E+00  0.11802068504E+01  0.00000000000E+00 0.  1.
         11    1    3    3    0    0  0.10160065215E+02 -0.29774561666E+02  0.15854389299E+02  0.35229435247E+02  0.51100000000E-03 0. -1.
        -11    1    3    3    0    0 -0.62115306835E+00 -0.74135074230E+01  0.59250984801E+01  0.95106632631E+01  0.51100000000E-03 0.  1.
         12    1    3    3    0    0 -0.10036535533E+02  0.37970184538E+02 -0.22509935996E+02  0.45267694639E+02  0.00000000000E+00 0. -1.
</event>
<event>
 7    1  0.2542335E-015  0.9000772E+02  0.7816164E-02  0.1186339E+00
        -11   -1    0    0    0    0  0.00000000000E+00  0.00000000000E+00  0.45593999997E+02  0.45594000000E+02  0.51100000000E-03 0. -1.
         11   -1    0    0    0    0 -0.00000000000E+00 -0.00000000000E+00 -0.45593999997E+02  0.45594000000E+02  0.51100000000E-03 0.  1.
    9900012    2    1    2    0    0 -0.10592542854E+01  0.22538558151E+00 -0.46930499040E+00  0.90007718053E+02  0.89999979131E+02 0.  0.
        -12    1    1    2    0    0  0.10592542854E+01 -0.22538558151E+00  0.46930499040E+00  0.11802819474E+01  0.00000000000E+00 0.  1.
         11    1    3    3    0    0 -0.29796006884E+02 -0.21617344392E+02 -0.18096988304E+01  0.36856296815E+02  0.51100000000E-03 0. -1.
        -11    1    3    3    0    0 -0.79452353694E+01 -0.22295475016E+01 -0.35914714014E+01  0.89997952324E+01  0.51100000000E-03 0.  1.
        -12    1    3    3    0    0  0.36681987968E+02  0.24072277475E+02  0.49318652415E+01  0.44151626005E+02  0.00000000000E+00 0.  1.
</event>
<event>
 7    1  0.2542335E-015  0.9000780E+02  0.7816164E-02  0.1186339E+00
        -11   -1    0    0    0    0  0.00000000000E+00  0.00000000000E+00  0.45593999997E+02  0.45594000000E+02  0.51100000000E-03 0.  1.
         11   -1    0    0    0    0 -0.00000000000E+00 -0.00000000000E+00 -0.45593999997E+02  0.45594000000E+02  0.51100000000E-03 0. -1.
    9900012    2    1    2    0    0  0.95842630463E+00  0.57786027833E+00 -0.37466547738E+00  0.90007797601E+02  0.90000059729E+02 0.  0.
        -12    1    1    2    0    0 -0.95842630463E+00 -0.57786027833E+00  0.37466547738E+00  0.11802023990E+01  0.00000000000E+00 0.  1.
         11    1    3    3    0    0 -0.94568023472E+01 -0.26339449478E+02 -0.74212021759E+01  0.28952926475E+02  0.51100000000E-03 0. -1.
        -11    1    3    3    0    0 -0.12082112066E+02  0.21745914992E+02 -0.15070321958E+02  0.29085681271E+02  0.51100000000E-03 0.  1.
        -12    1    3    3    0    0  0.22497340717E+02  0.51713947645E+01  0.22116858657E+02  0.31969189855E+02  0.00000000000E+00 0.  1.
</event>
<event>
 7    1  0.2542335E-015  0.9000775E+02  0.7816164E-02  0.1186339E+00
        -11   -1    0    0    0    0  0.00000000000E+00  0.00000000000E+00  0.45593999997E+02  0.45594000000E+02  0.51100000000E-03 0.  1.
         11   -1    0    0    0    0 -0.00000000000E+00 -0.00000000000E+00 -0.45593999997E+02  0.45594000000E+02  0.51100000000E-03 0. -1.
    9900012    2    1    2    0    0  0.67852602245E+00  0.44968232436E+00 -0.85462511797E+00  0.90007747549E+02  0.90000009017E+02 0.  0.
        -12    1    1    2    0    0 -0.67852602245E+00 -0.44968232436E+00  0.85462511797E+00  0.11802524511E+01  0.00000000000E+00 0.  1.
         11    1    3    3    0    0  0.72481134328E+01 -0.38535876268E+02 -0.80203240608E+01  0.40023424470E+02  0.51100000000E-03 0. -1.
        -11    1    3    3    0    0  0.48074115169E+01 -0.63935580926E+00  0.72929821841E+01  0.87582858336E+01  0.51100000000E-03 0.  1.
        -12    1    3    3    0    0 -0.11376998927E+02  0.39624914401E+02 -0.12728324134E+00  0.41226037245E+02  0.00000000000E+00 0.  1.
</event>
<event>
 7    1  0.2542335E-015  0.9000780E+02  0.7816164E-02  0.1186339E+00
        -11   -1    0    0    0    0  0.00000000000E+00  0.00000000000E+00  0.45593999997E+02  0.45594000000E+02  0.51100000000E-03 0.  1.
         11   -1    0    0    0    0 -0.00000000000E+00 -0.00000000000E+00 -0.45593999997E+02  0.45594000000E+02  0.51100000000E-03 0. -1.
    9900012    2    1    2    0    0  0.66765715793E+00  0.26149467701E+00  0.93740674017E+00  0.90007797923E+02  0.90000060055E+02 0.  0.
        -12    1    1    2    0    0 -0.66765715793E+00 -0.26149467701E+00 -0.93740674017E+00  0.11802020773E+01  0.00000000000E+00 0.  1.
         11    1    3    3    0    0 -0.30696640323E+02 -0.13893019441E+02 -0.23092694681E+02  0.40848161088E+02  0.51100000000E-03 0. -1.
        -11    1    3    3    0    0  0.66108863894E+01 -0.70158464841E+01  0.20217202871E+01  0.98495316601E+01  0.51100000000E-03 0.  1.
        -12    1    3    3    0    0  0.24753411092E+02  0.21170360602E+02  0.22008381134E+02  0.39310105175E+02  0.00000000000E+00 0.  1.
</event>
<event>
 7    1  0.2542335E-015  0.9000775E+02  0.7816164E-02  0.1186339E+00
        -11   -1    0    0    0    0  0.00000000000E+00  0.00000000000E+00  0.45593999997E+02  0.45594000000E+02  0.51100000000E-03 0. -1.
         11   -1    0    0    0    0 -0.00000000000E+00 -0.00000000000E+00 -0.45593999997E+02  0.45594000000E+02  0.51100000000E-03 0.  1.
    9900012    2    1    2    0    0  0.10111682872E+01 -0.58255046059E+00  0.17656387472E+00  0.90007745305E+02  0.90000006743E+02 0.  0.
        -12    1    1    2    0    0 -0.10111682872E+01  0.58255046059E+00 -0.17656387472E+00  0.11802546954E+01  0.00000000000E+00 0.  1.
         11    1    3    3    0    0 -0.18359773882E+01 -0.26666150382E+01 -0.24423241504E+00  0.32467365871E+01  0.51100000000E-03 0. -1.
        -11    1    3    3    0    0  0.36991765383E+02  0.35990530227E+01 -0.24453476554E+02  0.44489508928E+02  0.51100000000E-03 0.  1.
         12    1    3    3    0    0 -0.34144619708E+02 -0.15149884450E+01  0.24874272844E+02  0.42271499790E+02  0.00000000000E+00 0. -1.
</event>
<event>
 7    1  0.2542335E-015  0.9000775E+02  0.7816164E-02  0.1186339E+00
        -11   -1    0    0    0    0  0.00000000000E+00  0.00000000000E+00  0.45593999997E+02  0.45594000000E+02  0.51100000000E-03 0. -1.
         11   -1    0    0    0    0 -0.00000000000E+00 -0.00000000000E+00 -0.45593999997E+02  0.45594000000E+02  0.51100000000E-03 0.  1.
    9900012    2    1    2    0    0 -0.54417626389E+00 -0.60855715757E+00  0.85236180372E+00  0.90007749914E+02  0.90000011413E+02 0.  0.
        -12    1    1    2    0    0  0.54417626389E+00  0.60855715757E+00 -0.85236180372E+00  0.11802500856E+01  0.00000000000E+00 0.  1.
         11    1    3    3    0    0  0.12330157922E+02 -0.10233770874E+02  0.38731307148E+02  0.41915116776E+02  0.51100000000E-03 0. -1.
        -11    1    3    3    0    0  0.33707080929E+01 -0.56917355975E+01 -0.47561618429E+01  0.81473064810E+01  0.51100000000E-03 0.  1.
        -12    1    3    3    0    0 -0.16245042279E+02  0.15316949314E+02 -0.33122783501E+02  0.39945326658E+02  0.00000000000E+00 0.  1.
</event>
<event>
 7    1  0.2542335E-015  0.9000772E+02  0.7816164E-02  0.1186339E+00
        -11   -1    0    0    0    0  0.00000000000E+00  0.00000000000E+00  0.45593999997E+02  0.45594000000E+02  0.51100000000E-03 0. -1.
         11   -1    0    0    0    0 -0.00000000000E+00 -0.00000000000E+00 -0.45593999997E+02  0.45594000000E+02  0.51100000000E-03 0.  1.
    9900012    2    1    2    0    0 -0.19484270136E+00  0.68093685943E+00  0.94414829141E+00  0.90007722625E+02  0.89999983764E+02 0.  0.
        -12    1    1    2    0    0  0.19484270136E+00 -0.68093685943E+00 -0.94414829141E+00  0.11802773746E+01  0.00000000000E+00 0.  1.
         11    1    3    3    0    0 -0.69270046022E+01  0.54356497711E+01  0.65991708989E+01  0.11003578418E+02  0.51100000000E-03 0. -1.
        -11    1    3    3    0    0 -0.18226833955E+02  0.69491955326E+01 -0.34167947924E+02  0.39344090537E+02  0.51100000000E-03 0.  1.
         12    1    3    3    0    0  0.24958995856E+02 -0.11703908444E+02  0.28512925317E+02  0.39660053670E+02  0.00000000000E+00 0. -1.
</event>
<event>
 7    1  0.2542335E-015  0.9000787E+02  0.7816164E-02  0.1186339E+00
        -11   -1    0    0    0    0  0.00000000000E+00  0.00000000000E+00  0.45593999997E+02  0.45594000000E+02  0.51100000000E-03 0. -1.
         11   -1    0    0    0    0 -0.00000000000E+00 -0.00000000000E+00 -0.45593999997E+02  0.45594000000E+02  0.51100000000E-03 0.  1.
    9900012    2    1    2    0    0  0.86581934111E+00 -0.75256298482E+00  0.27694991339E+00  0.90007874824E+02  0.90000137971E+02 0.  0.
        -12    1    1    2    0    0 -0.86581934111E+00  0.75256298482E+00 -0.27694991339E+00  0.11801251764E+01  0.00000000000E+00 0.  1.
         11    1    3    3    0    0  0.16968444367E+02 -0.25410876139E+02  0.19758168950E+02  0.36387167668E+02  0.51100000000E-03 0. -1.
        -11    1    3    3    0    0  0.57099760939E+01 -0.22128289169E+01  0.75387636591E+01  0.97125381121E+01  0.51100000000E-03 0.  1.
        -12    1    3    3    0    0 -0.21812601120E+02  0.26871142071E+02 -0.27019982696E+02  0.43908169043E+02  0.00000000000E+00 0.  1.
</event>
<event>
 7    1  0.2542335E-015  0.9000797E+02  0.7816164E-02  0.1186339E+00
        -11   -1    0    0    0    0  0.00000000000E+00  0.00000000000E+00  0.45593999997E+02  0.45594000000E+02  0.51100000000E-03 0. -1.
         11   -1    0    0    0    0 -0.00000000000E+00 -0.00000000000E+00 -0.45593999997E+02  0.45594000000E+02  0.51100000000E-03 0.  1.
    9900012    2    1    2    0    0  0.11468627025E+01  0.96629613971E-01  0.26043792427E+00  0.90007974893E+02  0.90000239361E+02 0.  0.
        -12    1    1    2    0    0 -0.11468627025E+01 -0.96629613971E-01 -0.26043792427E+00  0.11800251069E+01  0.00000000000E+00 0.  1.
         11    1    3    3    0    0 -0.27967172530E+02  0.22134315400E+02 -0.42483316419E+01  0.35918504695E+02  0.51100000000E-03 0. -1.
        -11    1    3    3    0    0 -0.37796533605E+01  0.42694733421E+01  0.10101914087E+02  0.11600122871E+02  0.51100000000E-03 0.  1.
        -12    1    3    3    0    0  0.32893688593E+02 -0.26307159128E+02 -0.55931445209E+01  0.42489347327E+02  0.00000000000E+00 0.  1.
</event>
<event>
 7    1  0.2542335E-015  0.9000775E+02  0.7816164E-02  0.1186339E+00
        -11   -1    0    0    0    0  0.00000000000E+00  0.00000000000E+00  0.45593999997E+02  0.45594000000E+02  0.51100000000E-03 0. -1.
         11   -1    0    0    0    0 -0.00000000000E+00 -0.00000000000E+00 -0.45593999997E+02  0.45594000000E+02  0.51100000000E-03 0.  1.
    9900012    2    1    2    0    0 -0.32033037122E+00 -0.71625874255E+00  0.88168009528E+00  0.90007746670E+02  0.90000008126E+02 0.  0.
        -12    1    1    2    0    0  0.32033037122E+00  0.71625874255E+00 -0.88168009528E+00  0.11802533302E+01  0.00000000000E+00 0.  1.
         11    1    3    3    0    0  0.10498818163E+01  0.93145180969E+01 -0.30006485246E+01  0.98420724969E+01  0.51100000000E-03 0. -1.
        -11    1    3    3    0    0  0.10892116486E+02  0.26811567893E+02  0.22923691406E+02  0.36918748656E+02  0.51100000000E-03 0.  1.
         12    1    3    3    0    0 -0.12262328674E+02 -0.36842344732E+02 -0.19041362786E+02  0.43246925516E+02  0.00000000000E+00 0. -1.
</event>
<event>
 7    1  0.2542335E-015  0.9000777E+02  0.7816164E-02  0.1186339E+00
        -11   -1    0    0    0    0  0.00000000000E+00  0.00000000000E+00  0.45593999997E+02  0.45594000000E+02  0.51100000000E-03 0.  1.
         11   -1    0    0    0    0 -0.00000000000E+00 -0.00000000000E+00 -0.45593999997E+02  0.45594000000E+02  0.51100000000E-03 0. -1.
    9900012    2    1    2    0    0  0.10522809567E+01  0.99181530088E-01 -0.52516892637E+00  0.90007773501E+02  0.90000035311E+02 0.  0.
        -12    1    1    2    0    0 -0.10522809567E+01 -0.99181530088E-01  0.52516892637E+00  0.11802264990E+01  0.00000000000E+00 0.  1.
         11    1    3    3    0    0 -0.91160217347E+01  0.50896283306E+01  0.90255196197E+01  0.13800948282E+02  0.51100000000E-03 0. -1.
        -11    1    3    3    0    0 -0.39760941313E+01 -0.61054675269E+01  0.31730066042E+02  0.32555846627E+02  0.51100000000E-03 0.  1.
         12    1    3    3    0    0  0.14144396823E+02  0.11150207263E+01 -0.41280754588E+02  0.43650978593E+02  0.00000000000E+00 0. -1.
</event>
<event>
 7    1  0.2542335E-015  0.9000777E+02  0.7816164E-02  0.1186339E+00
        -11   -1    0    0    0    0  0.00000000000E+00  0.00000000000E+00  0.45593999997E+02  0.45594000000E+02  0.51100000000E-03 0. -1.
         11   -1    0    0    0    0 -0.00000000000E+00 -0.00000000000E+00 -0.45593999997E+02  0.45594000000E+02  0.51100000000E-03 0.  1.
    9900012    2    1    2    0    0  0.62351286176E+00  0.97774001592E+00  0.21954773920E+00  0.90007769075E+02  0.90000030826E+02 0.  0.
        -12    1    1    2    0    0 -0.62351286176E+00 -0.97774001592E+00 -0.21954773920E+00  0.11802309254E+01  0.00000000000E+00 0.  1.
         11    1    3    3    0    0  0.33259076508E+02  0.10072844189E+02 -0.17652402153E+02  0.38977373722E+02  0.51100000000E-03 0. -1.
        -11    1    3    3    0    0 -0.36836448478E+01  0.35943671952E+01 -0.84509907806E+01  0.98948451395E+01  0.51100000000E-03 0.  1.
        -12    1    3    3    0    0 -0.28951918798E+02 -0.12689471368E+02  0.26322940673E+02  0.41135550214E+02  0.00000000000E+00 0.  1.
</event>
<event>
 7    1  0.2542335E-015  0.9000755E+02  0.7816164E-02  0.1186339E+00
        -11   -1    0    0    0    0  0.00000000000E+00  0.00000000000E+00  0.45593999997E+02  0.45594000000E+02  0.51100000000E-03 0. -1.
         11   -1    0    0    0    0 -0.00000000000E+00 -0.00000000000E+00 -0.45593999997E+02  0.45594000000E+02  0.51100000000E-03 0.  1.
    9900012    2    1    2    0    0  0.85989067752E+00 -0.80822462222E+00  0.28747979645E-01  0.90007548619E+02  0.89999807460E+02 0.  0.
        -12    1    1    2    0    0 -0.85989067752E+00  0.80822462222E+00 -0.28747979645E-01  0.11804513813E+01  0.00000000000E+00 0.  1.
         11    1    3    3    0    0 -0.24484147226E+02 -0.11337479456E+02  0.26195815179E+02  0.37606284567E+02  0.51100000000E-03 0. -1.
        -11    1    3    3    0    0  0.42521274995E+01 -0.15795056361E+01  0.87460052708E+01  0.98523111392E+01  0.51100000000E-03 0.  1.
        -12    1    3    3    0    0  0.21091910404E+02  0.12108760470E+02 -0.34913072470E+02  0.42548952912E+02  0.00000000000E+00 0.  1.
</event>
<event>
 7    1  0.2542335E-015  0.9000770E+02  0.7816164E-02  0.1186339E+00
        -11   -1    0    0    0    0  0.00000000000E+00  0.00000000000E+00  0.45593999997E+02  0.45594000000E+02  0.51100000000E-03 0.  1.
         11   -1    0    0    0    0 -0.00000000000E+00 -0.00000000000E+00 -0.45593999997E+02  0.45594000000E+02  0.51100000000E-03 0. -1.
    9900012    2    1    2    0    0 -0.14383028579E+00 -0.55917370324E+00 -0.10294436164E+01  0.90007696420E+02  0.89999957213E+02 0.  0.
        -12    1    1    2    0    0  0.14383028579E+00  0.55917370324E+00  0.10294436164E+01  0.11803035800E+01  0.00000000000E+00 0.  1.
         11    1    3    3    0    0  0.41012587407E+02  0.65882927917E+01 -0.11516734310E+02  0.43105372022E+02  0.51100000000E-03 0. -1.
        -11    1    3    3    0    0 -0.43942939607E+01 -0.65312277591E+01 -0.19116428495E+01  0.81006872609E+01  0.51100000000E-03 0.  1.
        -12    1    3    3    0    0 -0.36762123732E+02 -0.61623873585E+00  0.12398933543E+02  0.38801637137E+02  0.00000000000E+00 0.  1.
</event>
<event>
 7    1  0.2542335E-015  0.9000769E+02  0.7816164E-02  0.1186339E+00
        -11   -1    0    0    0    0  0.00000000000E+00  0.00000000000E+00  0.45593999997E+02  0.45594000000E+02  0.51100000000E-03 0. -1.
         11   -1    0    0    0    0 -0.00000000000E+00 -0.00000000000E+00 -0.45593999997E+02  0.45594000000E+02  0.51100000000E-03 0.  1.
    9900012    2    1    2    0    0  0.98094744590E-01 -0.84633381343E+00  0.81683618046E+00  0.90007692901E+02  0.89999953647E+02 0.  0.
        -12    1    1    2    0    0 -0.98094744590E-01  0.84633381343E+00 -0.81683618046E+00  0.11803070992E+01  0.00000000000E+00 0.  1.
         11    1    3    3    0    0  0.19725665862E+02  0.18265987506E+02 -0.31862867496E+02  0.41689213456E+02  0.51100000000E-03 0. -1.
        -11    1    3    3    0    0 -0.13807573589E+01 -0.11592856852E+02  0.20083291867E+01  0.11846273982E+02  0.51100000000E-03 0.  1.
        -12    1    3    3    0    0 -0.18246813758E+02 -0.75194644677E+01  0.30671374490E+02  0.36472205463E+02  0.00000000000E+00 0.  1.
</event>
<event>
 7    1  0.2542335E-015  0.9000773E+02  0.7816164E-02  0.1186339E+00
        -11   -1    0    0    0    0  0.00000000000E+00  0.00000000000E+00  0.45593999997E+02  0.45594000000E+02  0.51100000000E-03 0.  1.
         11   -1    0    0    0    0 -0.00000000000E+00 -0.00000000000E+00 -0.45593999997E+02  0.45594000000E+02  0.51100000000E-03 0. -1.
    9900012    2    1    2    0    0 -0.43679573810E+00 -0.10789513576E+00 -0.10911459364E+01  0.90007732517E+02  0.89999993786E+02 0.  0.
        -12    1    1    2    0    0  0.43679573810E+00  0.10789513576E+00  0.10911459364E+01  0.11802674831E+01  0.00000000000E+00 0.  1.
         11    1    3    3    0    0  0.39146979625E+01 -0.63802553152E+01 -0.42431157867E+01  0.86044494226E+01  0.51100000000E-03 0. -1.
        -11    1    3    3    0    0  0.41003994978E+00 -0.34283152513E+02 -0.14103442690E+02  0.37073032989E+02  0.51100000000E-03 0.  1.
         12    1    3    3    0    0 -0.47615336504E+01  0.40555512693E+02  0.17255412540E+02  0.44330250106E+02  0.00000000000E+00 0. -1.
</event>
<event>
 7    1  0.2542335E-015  0.9000731E+02  0.7816164E-02  0.1186340E+00
        -11   -1    0    0    0    0  0.00000000000E+00  0.00000000000E+00  0.45593999997E+02  0.45594000000E+02  0.51100000000E-03 0. -1.
         11   -1    0    0    0    0 -0.00000000000E+00 -0.00000000000E+00 -0.45593999997E+02  0.45594000000E+02  0.51100000000E-03 0.  1.
    9900012    2    1    2    0    0  0.41293278344E+00  0.10214359433E+01  0.42449122638E+00  0.90007306275E+02  0.89999561917E+02 0.  0.
        -12    1    1    2    0    0 -0.41293278344E+00 -0.10214359433E+01 -0.42449122638E+00  0.11806937246E+01  0.00000000000E+00 0.  1.
         11    1    3    3    0    0 -0.41327742039E+01  0.13400435055E+01  0.69966895191E+01  0.82358486937E+01  0.51100000000E-03 0. -1.
        -11    1    3    3    0    0 -0.33487548260E+02  0.19279300562E+02 -0.49344212324E+01  0.38954535445E+02  0.51100000000E-03 0.  1.
         12    1    3    3    0    0  0.38033255247E+02 -0.19597908124E+02 -0.16377770604E+01  0.42816922136E+02  0.00000000000E+00 0. -1.
</event>
<event>
 7    1  0.2866508E-015  0.9000768E+02  0.7816164E-02  0.1186339E+00
        -11   -1    0    0    0    0  0.00000000000E+00  0.00000000000E+00  0.45593999997E+02  0.45594000000E+02  0.51100000000E-03 0. -1.
         11   -1    0    0    0    0 -0.00000000000E+00 -0.00000000000E+00 -0.45593999997E+02  0.45594000000E+02  0.51100000000E-03 0.  1.
    9900012    2    1    2    0    0  0.44724505358E+00 -0.10198533803E+01  0.39117195993E+00  0.90007684552E+02  0.89999945188E+02 0.  0.
        -12    1    1    2    0    0 -0.44724505358E+00  0.10198533803E+01 -0.39117195993E+00  0.11803154483E+01  0.00000000000E+00 0.  1.
         11    1    3    3    0    0 -0.51387377047E+01  0.11253647059E+01  0.79450878966E+01  0.95287718445E+01  0.51100000000E-03 0. -1.
        -11    1    3    3    0    0  0.14659217317E+00  0.31259357490E+02 -0.27121124147E+02  0.41385073339E+02  0.51100000000E-03 0.  1.
         12    1    3    3    0    0  0.54393905851E+01 -0.33404575577E+02  0.19567208211E+02  0.39093839368E+02  0.00000000000E+00 0. -1.
</event>
<event>
 7    1  0.2542335E-015  0.9000775E+02  0.7816164E-02  0.1186339E+00
        -11   -1    0    0    0    0  0.00000000000E+00  0.00000000000E+00  0.45593999997E+02  0.45594000000E+02  0.51100000000E-03 0.  1.
         11   -1    0    0    0    0 -0.00000000000E+00 -0.00000000000E+00 -0.45593999997E+02  0.45594000000E+02  0.51100000000E-03 0. -1.
    9900012    2    1    2    0    0 -0.78037320444E+00 -0.65717820734E+00 -0.59339717462E+00  0.90007751831E+02  0.90000013355E+02 0.  0.
        -12    1    1    2    0    0  0.78037320444E+00  0.65717820734E+00  0.59339717462E+00  0.11802481693E+01  0.00000000000E+00 0.  1.
         11    1    3    3    0    0  0.18025751805E+00 -0.10598356144E+02  0.11745472254E+01  0.10664764750E+02  0.51100000000E-03 0. -1.
        -11    1    3    3    0    0  0.17438446557E+02 -0.21212861346E+02  0.22730515762E+02  0.35647738384E+02  0.51100000000E-03 0.  1.
         12    1    3    3    0    0 -0.18399077280E+02  0.31154039282E+02 -0.24498460162E+02  0.43695248697E+02  0.00000000000E+00 0. -1.
</event>
<event>
 7    1  0.2542335E-015  0.9000774E+02  0.7816164E-02  0.1186339E+00
        -11   -1    0    0    0    0  0.00000000000E+00  0.00000000000E+00  0.45593999997E+02  0.45594000000E+02  0.51100000000E-03 0. -1.
         11   -1    0    0    0    0 -0.00000000000E+00 -0.00000000000E+00 -0.45593999997E+02  0.45594000000E+02  0.51100000000E-03 0.  1.
    9900012    2    1    2    0    0 -0.34897333746E+00 -0.10914023554E+01  0.28296770569E+00  0.90007740616E+02  0.90000001992E+02 0.  0.
        -12    1    1    2    0    0  0.34897333746E+00  0.10914023554E+01 -0.28296770569E+00  0.11802593843E+01  0.00000000000E+00 0.  1.
         11    1    3    3    0    0  0.30827110217E+02  0.20554050588E+02  0.14900127964E+02  0.39934866139E+02  0.51100000000E-03 0. -1.
        -11    1    3    3    0    0 -0.43020558313E+01 -0.52913626339E+00  0.79934246831E+01  0.90929922461E+01  0.51100000000E-03 0.  1.
        -12    1    3    3    0    0 -0.26874027724E+02 -0.21116316680E+02 -0.22610584941E+02  0.40979882230E+02  0.00000000000E+00 0.  1.
</event>
<event>
 7    1  0.2542335E-015  0.9000779E+02  0.7816164E-02  0.1186339E+00
        -11   -1    0    0    0    0  0.00000000000E+00  0.00000000000E+00  0.45593999997E+02  0.45594000000E+02  0.51100000000E-03 0.  1.
         11   -1    0    0    0    0 -0.00000000000E+00 -0.00000000000E+00 -0.45593999997E+02  0.45594000000E+02  0.51100000000E-03 0. -1.
    9900012    2    1    2    0    0 -0.12900425386E+00  0.81924394984E+00 -0.83970100002E+00  0.90007787936E+02  0.90000049937E+02 0.  0.
        -12    1    1    2    0    0  0.12900425386E+00 -0.81924394984E+00  0.83970100002E+00  0.11802120641E+01  0.00000000000E+00 0.  1.
         11    1    3    3    0    0 -0.75262254383E+01  0.28374151784E+01 -0.10269228530E+02  0.13044234324E+02  0.51100000000E-03 0. -1.
        -11    1    3    3    0    0  0.17771769549E+02 -0.34731817183E+02  0.15738092107E+02  0.42069257911E+02  0.51100000000E-03 0.  1.
         12    1    3    3    0    0 -0.10374548365E+02  0.32713645955E+02 -0.63085645774E+01  0.34894295701E+02  0.00000000000E+00 0. -1.
</event>
<event>
 7    1  0.2542335E-015  0.9000770E+02  0.7816164E-02  0.1186339E+00
        -11   -1    0    0    0    0  0.00000000000E+00  0.00000000000E+00  0.45593999997E+02  0.45594000000E+02  0.51100000000E-03 0. -1.
         11   -1    0    0    0    0 -0.00000000000E+00 -0.00000000000E+00 -0.45593999997E+02  0.45594000000E+02  0.51100000000E-03 0.  1.
    9900012    2    1    2    0    0  0.79732444823E+00  0.43384627799E-01  0.86919137646E+00  0.90007702516E+02  0.89999963389E+02 0.  0.
        -12    1    1    2    0    0 -0.79732444823E+00 -0.43384627799E-01 -0.86919137646E+00  0.11802974839E+01  0.00000000000E+00 0.  1.
         11    1    3    3    0    0  0.83033094586E-01  0.64810052606E+01 -0.31436676345E+01  0.72036775428E+01  0.51100000000E-03 0. -1.
        -11    1    3    3    0    0  0.24613910918E+02  0.71275899152E+01 -0.29754068687E+02  0.39267693494E+02  0.51100000000E-03 0.  1.
         12    1    3    3    0    0 -0.23899619564E+02 -0.13565210548E+02  0.33766927698E+02  0.43536331479E+02  0.00000000000E+00 0. -1.
</event>
<event>
 8    1  0.2542335E-015  0.9000705E+02  0.7816164E-02  0.1186340E+00
        -11   -1    0    0    0    0  0.00000000000E+00  0.00000000000E+00  0.45593999997E+02  0.45594000000E+02  0.51100000000E-03 0. -1.
         11   -1    0    0    0    0 -0.00000000000E+00 -0.00000000000E+00 -0.45593999997E+02  0.45594000000E+02  0.51100000000E-03 0.  1.
    9900012    2    1    2    0    0  0.92877995678E-01  0.11579775797E+01 -0.21239668751E+00  0.90007046677E+02  0.89999298891E+02 0.  0.
         23    2    3    3    0    0  0.18678227450E+02  0.13439345232E+02 -0.16793766207E+02  0.62236756421E+02  0.55334357189E+02 0.  0.
        -12    1    1    2    0    0 -0.92877995678E-01 -0.11579775797E+01  0.21239668751E+00  0.11809533226E+01  0.00000000000E+00 0.  1.
         11    1    4    4    0    0 -0.97856274452E+00 -0.19243700279E+02  0.26119436571E+01  0.19444789415E+02  0.51100000000E-03 0. -1.
        -11    1    4    4    0    0  0.19656790195E+02  0.32683045511E+02 -0.19405709864E+02  0.42791967006E+02  0.51100000000E-03 0.  1.
         12    1    3    3    0    0 -0.18585349455E+02 -0.12281367652E+02  0.16581369520E+02  0.27770290256E+02  0.00000000000E+00 0. -1.
</event>
<event>
 7    1  0.3429104E-015  0.9000772E+02  0.7816164E-02  0.1186339E+00
        -11   -1    0    0    0    0  0.00000000000E+00  0.00000000000E+00  0.45593999997E+02  0.45594000000E+02  0.51100000000E-03 0. -1.
         11   -1    0    0    0    0 -0.00000000000E+00 -0.00000000000E+00 -0.45593999997E+02  0.45594000000E+02  0.51100000000E-03 0.  1.
    9900012    2    1    2    0    0  0.29658364344E+00  0.10955684275E+01  0.32377576277E+00  0.90007719194E+02  0.89999980287E+02 0.  0.
        -12    1    1    2    0    0 -0.29658364344E+00 -0.10955684275E+01 -0.32377576277E+00  0.11802808062E+01  0.00000000000E+00 0.  1.
         11    1    3    3    0    0 -0.48162283885E+01 -0.65228339555E+00  0.79492598559E+01  0.93173098068E+01  0.51100000000E-03 0. -1.
        -11    1    3    3    0    0 -0.14418230811E+02  0.25174406550E+02 -0.30854809740E+02  0.42351569147E+02  0.51100000000E-03 0.  1.
         12    1    3    3    0    0  0.19531042843E+02 -0.23426554727E+02  0.23229325647E+02  0.38338840240E+02  0.00000000000E+00 0. -1.
</event>
<event>
 7    1  0.2542335E-015  0.9000775E+02  0.7816164E-02  0.1186339E+00
        -11   -1    0    0    0    0  0.00000000000E+00  0.00000000000E+00  0.45593999997E+02  0.45594000000E+02  0.51100000000E-03 0.  1.
         11   -1    0    0    0    0 -0.00000000000E+00 -0.00000000000E+00 -0.45593999997E+02  0.45594000000E+02  0.51100000000E-03 0. -1.
    9900012    2    1    2    0    0 -0.99017095764E+00 -0.49607822308E+00 -0.40799919101E+00  0.90007747710E+02  0.90000009180E+02 0.  0.
        -12    1    1    2    0    0  0.99017095764E+00  0.49607822308E+00  0.40799919101E+00  0.11802522902E+01  0.00000000000E+00 0.  1.
         11    1    3    3    0    0  0.69938173304E+01  0.59022533356E+01 -0.10924144168E+01  0.92164768110E+01  0.51100000000E-03 0. -1.
        -11    1    3    3    0    0  0.80754165481E+01 -0.20094995009E+02 -0.33928028598E+02  0.40250867092E+02  0.51100000000E-03 0.  1.
         12    1    3    3    0    0 -0.16059404836E+02  0.13696663450E+02  0.34612443824E+02  0.40540403807E+02  0.00000000000E+00 0. -1.
</event>
<event>
 7    1  0.2542335E-015  0.9000779E+02  0.7816164E-02  0.1186339E+00
        -11   -1    0    0    0    0  0.00000000000E+00  0.00000000000E+00  0.45593999997E+02  0.45594000000E+02  0.51100000000E-03 0. -1.
         11   -1    0    0    0    0 -0.00000000000E+00 -0.00000000000E+00 -0.45593999997E+02  0.45594000000E+02  0.51100000000E-03 0.  1.
    9900012    2    1    2    0    0 -0.10787410861E+01  0.94181409766E-01  0.46941547848E+00  0.90007786731E+02  0.90000048716E+02 0.  0.
        -12    1    1    2    0    0  0.10787410861E+01 -0.94181409766E-01 -0.46941547848E+00  0.11802132689E+01  0.00000000000E+00 0.  1.
         11    1    3    3    0    0 -0.44979172715E+01  0.19529964001E+01 -0.70770363971E+01  0.86098721911E+01  0.51100000000E-03 0. -1.
        -11    1    3    3    0    0 -0.68554616570E+01 -0.20979889950E+02 -0.30468034560E+02  0.37622523401E+02  0.51100000000E-03 0.  1.
         12    1    3    3    0    0  0.10274637842E+02  0.19121074960E+02  0.38014486436E+02  0.43775391139E+02  0.00000000000E+00 0. -1.
</event>
<event>
 7    1  0.2542335E-015  0.9000768E+02  0.7816164E-02  0.1186339E+00
        -11   -1    0    0    0    0  0.00000000000E+00  0.00000000000E+00  0.45593999997E+02  0.45594000000E+02  0.51100000000E-03 0.  1.
         11   -1    0    0    0    0 -0.00000000000E+00 -0.00000000000E+00 -0.45593999997E+02  0.45594000000E+02  0.51100000000E-03 0. -1.
    9900012    2    1    2    0    0 -0.10649682354E+01  0.32230833338E-01 -0.50788632183E+00  0.90007684498E+02  0.89999945133E+02 0.  0.
        -12    1    1    2    0    0  0.10649682354E+01 -0.32230833338E-01  0.50788632183E+00  0.11803155023E+01  0.00000000000E+00 0.  1.
         11    1    3    3    0    0  0.17193334814E+02 -0.50525074889E+01 -0.90637484025E+01  0.20082084785E+02  0.51100000000E-03 0. -1.
        -11    1    3    3    0    0  0.14048957659E+01  0.88900260556E+01  0.35347541557E+02  0.36475402531E+02  0.51100000000E-03 0.  1.
         12    1    3    3    0    0 -0.19663198815E+02 -0.38052877334E+01 -0.26791679476E+02  0.33450197182E+02  0.00000000000E+00 0. -1.
</event>
<event>
 7    1  0.2542335E-015  0.9000770E+02  0.7816164E-02  0.1186339E+00
        -11   -1    0    0    0    0  0.00000000000E+00  0.00000000000E+00  0.45593999997E+02  0.45594000000E+02  0.51100000000E-03 0. -1.
         11   -1    0    0    0    0 -0.00000000000E+00 -0.00000000000E+00 -0.45593999997E+02  0.45594000000E+02  0.51100000000E-03 0.  1.
    9900012    2    1    2    0    0  0.62047114779E+00 -0.96634032779E+00 -0.27258236870E+00  0.90007703757E+02  0.89999964646E+02 0.  0.
        -12    1    1    2    0    0 -0.62047114779E+00  0.96634032779E+00  0.27258236870E+00  0.11802962434E+01  0.00000000000E+00 0.  1.
         11    1    3    3    0    0 -0.22181990770E+01  0.56177890502E+01 -0.91474155753E+01  0.10961531505E+02  0.51100000000E-03 0. -1.
        -11    1    3    3    0    0  0.59103080269E+01  0.19892569371E+02 -0.27187631176E+02  0.34202534210E+02  0.51100000000E-03 0.  1.
         12    1    3    3    0    0 -0.30716378022E+01 -0.26476698749E+02  0.36062464383E+02  0.44843638042E+02  0.00000000000E+00 0. -1.
</event>
<event>
 7    1  0.2542335E-015  0.9000794E+02  0.7816164E-02  0.1186339E+00
        -11   -1    0    0    0    0  0.00000000000E+00  0.00000000000E+00  0.45593999997E+02  0.45594000000E+02  0.51100000000E-03 0.  1.
         11   -1    0    0    0    0 -0.00000000000E+00 -0.00000000000E+00 -0.45593999997E+02  0.45594000000E+02  0.51100000000E-03 0. -1.
    9900012    2    1    2    0    0  0.91545303119E+00  0.19394240557E+00 -0.71894555193E+00  0.90007936182E+02  0.90000200139E+02 0.  0.
        -12    1    1    2    0    0 -0.91545303119E+00 -0.19394240557E+00  0.71894555193E+00  0.11800638185E+01  0.00000000000E+00 0.  1.
         11    1    3    3    0    0  0.22643243992E+02 -0.46663094270E+01  0.67271525999E+01  0.24077905319E+02  0.51100000000E-03 0. -1.
        -11    1    3    3    0    0  0.17498395667E+02 -0.73178857949E+01  0.98400984819E+01  0.21367565182E+02  0.51100000000E-03 0.  1.
         12    1    3    3    0    0 -0.39226186628E+02  0.12178137627E+02 -0.17286196634E+02  0.44562465681E+02  0.00000000000E+00 0. -1.
</event>
<event>
 7    1  0.2542335E-015  0.9000778E+02  0.7816164E-02  0.1186339E+00
        -11   -1    0    0    0    0  0.00000000000E+00  0.00000000000E+00  0.45593999997E+02  0.45594000000E+02  0.51100000000E-03 0.  1.
         11   -1    0    0    0    0 -0.00000000000E+00 -0.00000000000E+00 -0.45593999997E+02  0.45594000000E+02  0.51100000000E-03 0. -1.
    9900012    2    1    2    0    0 -0.32421179867E+00 -0.10462231623E+01 -0.43956629847E+00  0.90007781916E+02  0.90000043837E+02 0.  0.
        -12    1    1    2    0    0  0.32421179867E+00  0.10462231623E+01  0.43956629847E+00  0.11802180842E+01  0.00000000000E+00 0.  1.
         11    1    3    3    0    0 -0.14242163043E+02 -0.25613924675E+02 -0.29255763099E+02  0.41410288820E+02  0.51100000000E-03 0. -1.
        -11    1    3    3    0    0  0.30529718772E+01 -0.58761985390E+01  0.32060932146E+01  0.73572671906E+01  0.51100000000E-03 0.  1.
        -12    1    3    3    0    0  0.10864979367E+02  0.30443900051E+02  0.25610103586E+02  0.41240225905E+02  0.00000000000E+00 0.  1.
</event>
<event>
 7    1  0.2542335E-015  0.9000786E+02  0.7816164E-02  0.1186339E+00
        -11   -1    0    0    0    0  0.00000000000E+00  0.00000000000E+00  0.45593999997E+02  0.45594000000E+02  0.51100000000E-03 0.  1.
         11   -1    0    0    0    0 -0.00000000000E+00 -0.00000000000E+00 -0.45593999997E+02  0.45594000000E+02  0.51100000000E-03 0. -1.
    9900012    2    1    2    0    0 -0.61945613059E+00 -0.82392816295E+00 -0.57457744161E+00  0.90007863249E+02  0.90000126243E+02 0.  0.
        -12    1    1    2    0    0  0.61945613059E+00  0.82392816295E+00  0.57457744161E+00  0.11801367513E+01  0.00000000000E+00 0.  1.
         11    1    3    3    0    0  0.11086515397E+02  0.83927717107E+01 -0.37908573784E+02  0.40378328435E+02  0.51100000000E-03 0. -1.
        -11    1    3    3    0    0 -0.42148317932E+01 -0.50218390397E+01 -0.38210786894E+01  0.75884331055E+01  0.51100000000E-03 0.  1.
        -12    1    3    3    0    0 -0.74911397348E+01 -0.41948608340E+01  0.41155075032E+02  0.42041101708E+02  0.00000000000E+00 0.  1.
</event>
<event>
 7    1  0.2542335E-015  0.9000788E+02  0.7816164E-02  0.1186339E+00
        -11   -1    0    0    0    0  0.00000000000E+00  0.00000000000E+00  0.45593999997E+02  0.45594000000E+02  0.51100000000E-03 0. -1.
         11   -1    0    0    0    0 -0.00000000000E+00 -0.00000000000E+00 -0.45593999997E+02  0.45594000000E+02  0.51100000000E-03 0.  1.
    9900012    2    1    2    0    0  0.99252193775E+00 -0.46862215134E+00 -0.43356644589E+00  0.90007878659E+02  0.90000141857E+02 0.  0.
        -12    1    1    2    0    0 -0.99252193775E+00  0.46862215134E+00  0.43356644589E+00  0.11801213415E+01  0.00000000000E+00 0.  1.
         11    1    3    3    0    0 -0.36802699942E+02  0.70814263487E+01 -0.20694292643E+01  0.37534888569E+02  0.51100000000E-03 0. -1.
        -11    1    3    3    0    0 -0.20747441631E+00 -0.39712458514E+01  0.12229155660E+02  0.12859474626E+02  0.51100000000E-03 0.  1.
        -12    1    3    3    0    0  0.38002696296E+02 -0.35788026487E+01 -0.10593292841E+02  0.39613515464E+02  0.00000000000E+00 0.  1.
</event>
<event>
 7    1  0.2542335E-015  0.9000768E+02  0.7816164E-02  0.1186339E+00
        -11   -1    0    0    0    0  0.00000000000E+00  0.00000000000E+00  0.45593999997E+02  0.45594000000E+02  0.51100000000E-03 0.  1.
         11   -1    0    0    0    0 -0.00000000000E+00 -0.00000000000E+00 -0.45593999997E+02  0.45594000000E+02  0.51100000000E-03 0. -1.
    9900012    2    1    2    0    0 -0.72611275751E+00 -0.93051611817E+00  0.75610352898E-02  0.90007679216E+02  0.89999939782E+02 0.  0.
        -12    1    1    2    0    0  0.72611275751E+00  0.93051611817E+00 -0.75610352898E-02  0.11803207835E+01  0.00000000000E+00 0.  1.
         11    1    3    3    0    0 -0.18843392955E+02  0.29421231355E+02 -0.13735911389E+02  0.37541411460E+02  0.51100000000E-03 0. -1.
        -11    1    3    3    0    0  0.49496662390E+01  0.46352184653E+01 -0.69733042192E+01  0.97268400878E+01  0.51100000000E-03 0.  1.
        -12    1    3    3    0    0  0.13167613959E+02 -0.34986965938E+02  0.20716776643E+02  0.42739427668E+02  0.00000000000E+00 0.  1.
</event>
<event>
 7    1  0.2542335E-015  0.9000770E+02  0.7816164E-02  0.1186339E+00
        -11   -1    0    0    0    0  0.00000000000E+00  0.00000000000E+00  0.45593999997E+02  0.45594000000E+02  0.51100000000E-03 0.  1.
         11   -1    0    0    0    0 -0.00000000000E+00 -0.00000000000E+00 -0.45593999997E+02  0.45594000000E+02  0.51100000000E-03 0. -1.
    9900012    2    1    2    0    0 -0.20697203895E+00  0.52479261571E+00  0.10367607238E+01  0.90007696008E+02  0.89999956796E+02 0.  0.
        -12    1    1    2    0    0  0.20697203895E+00 -0.52479261571E+00 -0.10367607238E+01  0.11803039917E+01  0.00000000000E+00 0.  1.
         11    1    3    3    0    0  0.10413153921E+02 -0.60610665846E+01  0.77718122838E+00  0.12073703394E+02  0.51100000000E-03 0. -1.
        -11    1    3    3    0    0  0.11572547616E+02 -0.87690074492E+01  0.32674692920E+02  0.35755487798E+02  0.51100000000E-03 0.  1.
         12    1    3    3    0    0 -0.22192673576E+02  0.15354866650E+02 -0.32415113425E+02  0.42178504817E+02  0.00000000000E+00 0. -1.
</event>
<event>
 7    1  0.2542335E-015  0.9000778E+02  0.7816164E-02  0.1186339E+00
        -11   -1    0    0    0    0  0.00000000000E+00  0.00000000000E+00  0.45593999997E+02  0.45594000000E+02  0.51100000000E-03 0. -1.
         11   -1    0    0    0    0 -0.00000000000E+00 -0.00000000000E+00 -0.45593999997E+02  0.45594000000E+02  0.51100000000E-03 0.  1.
    9900012    2    1    2    0    0  0.36474973599E+00  0.11098871764E+01 -0.16742411686E+00  0.90007778517E+02  0.90000040393E+02 0.  0.
        -12    1    1    2    0    0 -0.36474973599E+00 -0.11098871764E+01  0.16742411686E+00  0.11802214831E+01  0.00000000000E+00 0.  1.
         11    1    3    3    0    0 -0.90741762112E+01  0.81495653679E+00 -0.30954320721E+01  0.96221893581E+01  0.51100000000E-03 0. -1.
        -11    1    3    3    0    0 -0.27297444791E+02 -0.53384866736E+01 -0.22144666730E+02  0.35553286725E+02  0.51100000000E-03 0.  1.
         12    1    3    3    0    0  0.36736370738E+02  0.56334173132E+01  0.25072674685E+02  0.44832302434E+02  0.00000000000E+00 0. -1.
</event>
<event>
 7    1  0.2542335E-015  0.9000754E+02  0.7816164E-02  0.1186339E+00
        -11   -1    0    0    0    0  0.00000000000E+00  0.00000000000E+00  0.45593999997E+02  0.45594000000E+02  0.51100000000E-03 0. -1.
         11   -1    0    0    0    0 -0.00000000000E+00 -0.00000000000E+00 -0.45593999997E+02  0.45594000000E+02  0.51100000000E-03 0.  1.
    9900012    2    1    2    0    0 -0.91972187415E-01  0.11763721187E+01 -0.34456064294E-01  0.90007535064E+02  0.89999793727E+02 0.  0.
        -12    1    1    2    0    0  0.91972187415E-01 -0.11763721187E+01  0.34456064294E-01  0.11804649360E+01  0.00000000000E+00 0.  1.
         11    1    3    3    0    0  0.31306246178E+02 -0.30915715020E+01  0.24476306762E+02  0.39858856695E+02  0.51100000000E-03 0. -1.
        -11    1    3    3    0    0 -0.20237048029E+01 -0.10161261664E+02 -0.23485943327E+01  0.10623677110E+02  0.51100000000E-03 0.  1.
        -12    1    3    3    0    0 -0.29374513562E+02  0.14429205285E+02 -0.22162168493E+02  0.39525001259E+02  0.00000000000E+00 0.  1.
</event>
<event>
 7    1  0.2542335E-015  0.9000776E+02  0.7816164E-02  0.1186339E+00
        -11   -1    0    0    0    0  0.00000000000E+00  0.00000000000E+00  0.45593999997E+02  0.45594000000E+02  0.51100000000E-03 0. -1.
         11   -1    0    0    0    0 -0.00000000000E+00 -0.00000000000E+00 -0.45593999997E+02  0.45594000000E+02  0.51100000000E-03 0.  1.
    9900012    2    1    2    0    0 -0.18107175375E+00 -0.55906182658E+00 -0.10235377990E+01  0.90007759884E+02  0.90000021514E+02 0.  0.
        -12    1    1    2    0    0  0.18107175375E+00  0.55906182658E+00  0.10235377990E+01  0.11802401162E+01  0.00000000000E+00 0.  1.
         11    1    3    3    0    0  0.35072771329E+02 -0.94810202235E+01  0.13443135969E+02  0.38738958919E+02  0.51100000000E-03 0. -1.
        -11    1    3    3    0    0  0.51663662382E+01  0.69311795666E+01 -0.15071010034E+01  0.87751891141E+01  0.51100000000E-03 0.  1.
        -12    1    3    3    0    0 -0.40420209321E+02  0.19907788303E+01 -0.12959572765E+02  0.42493611851E+02  0.00000000000E+00 0.  1.
</event>
<event>
 7    1  0.2542335E-015  0.9000777E+02  0.7816164E-02  0.1186339E+00
        -11   -1    0    0    0    0  0.00000000000E+00  0.00000000000E+00  0.45593999997E+02  0.45594000000E+02  0.51100000000E-03 0.  1.
         11   -1    0    0    0    0 -0.00000000000E+00 -0.00000000000E+00 -0.45593999997E+02  0.45594000000E+02  0.51100000000E-03 0. -1.
    9900012    2    1    2    0    0 -0.40418527864E+00  0.10229014357E+01 -0.42807479511E+00  0.90007770736E+02  0.90000032509E+02 0.  0.
        -12    1    1    2    0    0  0.40418527864E+00 -0.10229014357E+01  0.42807479511E+00  0.11802292645E+01  0.00000000000E+00 0.  1.
         11    1    3    3    0    0  0.19363553220E+02 -0.33334858696E+02 -0.12471244662E+02  0.40517797834E+02  0.51100000000E-03 0. -1.
        -11    1    3    3    0    0  0.57131804626E+01  0.10567084321E+02  0.79146196728E+01  0.14385579824E+02  0.51100000000E-03 0.  1.
        -12    1    3    3    0    0 -0.25480918962E+02  0.23790675811E+02  0.41285501935E+01  0.35104393078E+02  0.00000000000E+00 0.  1.
</event>
<event>
 7    1  0.2542335E-015  0.9000763E+02  0.7816164E-02  0.1186339E+00
        -11   -1    0    0    0    0  0.00000000000E+00  0.00000000000E+00  0.45593999997E+02  0.45594000000E+02  0.51100000000E-03 0.  1.
         11   -1    0    0    0    0 -0.00000000000E+00 -0.00000000000E+00 -0.45593999997E+02  0.45594000000E+02  0.51100000000E-03 0. -1.
    9900012    2    1    2    0    0  0.34555011281E+00 -0.57927716278E+00 -0.96866739071E+00  0.90007625726E+02  0.89999885586E+02 0.  0.
        -12    1    1    2    0    0 -0.34555011281E+00  0.57927716278E+00  0.96866739071E+00  0.11803742735E+01  0.00000000000E+00 0.  1.
         11    1    3    3    0    0  0.58716713934E+01 -0.29951118304E+01 -0.73080882931E+01  0.98415128202E+01  0.51100000000E-03 0. -1.
        -11    1    3    3    0    0  0.21079777668E+02 -0.25517103317E+02 -0.14711154528E+02  0.36220127774E+02  0.51100000000E-03 0.  1.
         12    1    3    3    0    0 -0.26605898948E+02  0.27932937984E+02  0.21050575430E+02  0.43945985132E+02  0.00000000000E+00 0. -1.
</event>
<event>
 7    1  0.2542335E-015  0.9000767E+02  0.7816164E-02  0.1186339E+00
        -11   -1    0    0    0    0  0.00000000000E+00  0.00000000000E+00  0.45593999997E+02  0.45594000000E+02  0.51100000000E-03 0. -1.
         11   -1    0    0    0    0 -0.00000000000E+00 -0.00000000000E+00 -0.45593999997E+02  0.45594000000E+02  0.51100000000E-03 0.  1.
    9900012    2    1    2    0    0 -0.93763518530E+00 -0.71204857834E+00  0.83674418510E-01  0.90007671941E+02  0.89999932411E+02 0.  0.
        -12    1    1    2    0    0  0.93763518530E+00  0.71204857834E+00 -0.83674418510E-01  0.11803280590E+01  0.00000000000E+00 0.  1.
         11    1    3    3    0    0 -0.19184459375E+01  0.56847699994E+01 -0.58702542663E+01  0.83938626492E+01  0.51100000000E-03 0. -1.
        -11    1    3    3    0    0 -0.16699596986E+02 -0.29344534929E+02 -0.22844663152E+02  0.40765879169E+02  0.51100000000E-03 0.  1.
         12    1    3    3    0    0  0.17680407738E+02  0.22947716351E+02  0.28798591836E+02  0.40847930122E+02  0.00000000000E+00 0. -1.
</event>
<event>
 7    1  0.2542335E-015  0.9000759E+02  0.7816164E-02  0.1186339E+00
        -11   -1    0    0    0    0  0.00000000000E+00  0.00000000000E+00  0.45593999997E+02  0.45594000000E+02  0.51100000000E-03 0. -1.
         11   -1    0    0    0    0 -0.00000000000E+00 -0.00000000000E+00 -0.45593999997E+02  0.45594000000E+02  0.51100000000E-03 0.  1.
    9900012    2    1    2    0    0 -0.37490268869E+00 -0.86288953513E+00  0.71290626773E+00  0.90007590867E+02  0.89999850266E+02 0.  0.
        -12    1    1    2    0    0  0.37490268869E+00  0.86288953513E+00 -0.71290626773E+00  0.11804091335E+01  0.00000000000E+00 0.  1.
         11    1    3    3    0    0  0.68812960871E+01  0.66794469015E+01  0.88535159187E+01  0.13051896074E+02  0.51100000000E-03 0. -1.
        -11    1    3    3    0    0 -0.18997491977E+01  0.31829955805E+02  0.97995713002E+01  0.33358458171E+02  0.51100000000E-03 0.  1.
         12    1    3    3    0    0 -0.53564495782E+01 -0.39372292242E+02 -0.17940180951E+02  0.43597236622E+02  0.00000000000E+00 0. -1.
</event>
<event>
 7    1  0.2542335E-015  0.9000787E+02  0.7816164E-02  0.1186339E+00
        -11   -1    0    0    0    0  0.00000000000E+00  0.00000000000E+00  0.45593999997E+02  0.45594000000E+02  0.51100000000E-03 0.  1.
         11   -1    0    0    0    0 -0.00000000000E+00 -0.00000000000E+00 -0.45593999997E+02  0.45594000000E+02  0.51100000000E-03 0. -1.
    9900012    2    1    2    0    0  0.10226486385E+01  0.18986941497E+00 -0.55753962163E+00  0.90007868201E+02  0.90000131261E+02 0.  0.
        -12    1    1    2    0    0 -0.10226486385E+01 -0.18986941497E+00  0.55753962163E+00  0.11801317987E+01  0.00000000000E+00 0.  1.
         11    1    3    3    0    0 -0.65772006012E+01 -0.26010595415E+02 -0.77169044706E+01  0.27917042402E+02  0.51100000000E-03 0. -1.
        -11    1    3    3    0    0 -0.12864272482E+02 -0.88304484295E+01  0.13981357007E+02  0.20951006419E+02  0.51100000000E-03 0.  1.
        -12    1    3    3    0    0  0.20464121722E+02  0.35030913260E+02 -0.68219921577E+01  0.41139819380E+02  0.00000000000E+00 0.  1.
</event>
<event>
 7    1  0.2542335E-015  0.9000775E+02  0.7816164E-02  0.1186339E+00
        -11   -1    0    0    0    0  0.00000000000E+00  0.00000000000E+00  0.45593999997E+02  0.45594000000E+02  0.51100000000E-03 0.  1.
         11   -1    0    0    0    0 -0.00000000000E+00 -0.00000000000E+00 -0.45593999997E+02  0.45594000000E+02  0.51100000000E-03 0. -1.
    9900012    2    1    2    0    0 -0.19374652744E+00  0.97563356324E+00 -0.63529450564E+00  0.90007746775E+02  0.90000008232E+02 0.  0.
        -12    1    1    2    0    0  0.19374652744E+00 -0.97563356324E+00  0.63529450564E+00  0.11802532252E+01  0.00000000000E+00 0.  1.
         11    1    3    3    0    0  0.15932611324E+02 -0.16079730132E+02 -0.29541760614E+02  0.37217219740E+02  0.51100000000E-03 0. -1.
        -11    1    3    3    0    0  0.85311936692E+01 -0.39909477575E+01  0.94208979153E-01  0.94190129535E+01  0.51100000000E-03 0.  1.
        -12    1    3    3    0    0 -0.24657551521E+02  0.21046311453E+02  0.28812257130E+02  0.43371514081E+02  0.00000000000E+00 0.  1.
</event>
<event>
 7    1  0.2542335E-015  0.9000779E+02  0.7816164E-02  0.1186339E+00
        -11   -1    0    0    0    0  0.00000000000E+00  0.00000000000E+00  0.45593999997E+02  0.45594000000E+02  0.51100000000E-03 0.  1.
         11   -1    0    0    0    0 -0.00000000000E+00 -0.00000000000E+00 -0.45593999997E+02  0.45594000000E+02  0.51100000000E-03 0. -1.
    9900012    2    1    2    0    0  0.28364140463E+00  0.10513367771E+01 -0.45511885605E+00  0.90007790426E+02  0.90000052460E+02 0.  0.
        -12    1    1    2    0    0 -0.28364140463E+00 -0.10513367771E+01  0.45511885605E+00  0.11802095740E+01  0.00000000000E+00 0.  1.
         11    1    3    3    0    0 -0.12072645105E+02 -0.23295221122E+02 -0.20609845540E+02  0.33364379515E+02  0.51100000000E-03 0. -1.
        -11    1    3    3    0    0  0.20505398693E+02  0.47841174554E+00 -0.49051092725E+01  0.21089342109E+02  0.51100000000E-03 0.  1.
        -12    1    3    3    0    0 -0.81491121836E+01  0.23868146154E+02  0.25059835957E+02  0.35554068802E+02  0.00000000000E+00 0.  1.
</event>
<event>
 7    1  0.2542335E-015  0.9000774E+02  0.7816164E-02  0.1186339E+00
        -11   -1    0    0    0    0  0.00000000000E+00  0.00000000000E+00  0.45593999997E+02  0.45594000000E+02  0.51100000000E-03 0. -1.
         11   -1    0    0    0    0 -0.00000000000E+00 -0.00000000000E+00 -0.45593999997E+02  0.45594000000E+02  0.51100000000E-03 0.  1.
    9900012    2    1    2    0    0 -0.89897226327E+00 -0.75375286746E+00 -0.12927184569E+00  0.90007743365E+02  0.90000004777E+02 0.  0.
        -12    1    1    2    0    0  0.89897226327E+00  0.75375286746E+00  0.12927184569E+00  0.11802566354E+01  0.00000000000E+00 0.  1.
         11    1    3    3    0    0 -0.24072365753E+02  0.16014329724E+02 -0.33220503528E+02  0.44040202138E+02  0.51100000000E-03 0. -1.
        -11    1    3    3    0    0  0.10055027668E+02 -0.30768910488E+01  0.40166909169E+01  0.11256315832E+02  0.51100000000E-03 0.  1.
        -12    1    3    3    0    0  0.13118365822E+02 -0.13691191542E+02  0.29074540765E+02  0.34711225394E+02  0.00000000000E+00 0.  1.
</event>
<event>
 7    1  0.2542335E-015  0.9000777E+02  0.7816164E-02  0.1186339E+00
        -11   -1    0    0    0    0  0.00000000000E+00  0.00000000000E+00  0.45593999997E+02  0.45594000000E+02  0.51100000000E-03 0. -1.
         11   -1    0    0    0    0 -0.00000000000E+00 -0.00000000000E+00 -0.45593999997E+02  0.45594000000E+02  0.51100000000E-03 0.  1.
    9900012    2    1    2    0    0  0.65044446068E+00 -0.26454709748E+00  0.94861847365E+00  0.90007771136E+02  0.90000032915E+02 0.  0.
        -12    1    1    2    0    0 -0.65044446068E+00  0.26454709748E+00 -0.94861847365E+00  0.11802288641E+01  0.00000000000E+00 0.  1.
         11    1    3    3    0    0  0.22424972264E+02  0.19758161856E+02  0.27729114037E+02  0.40769695933E+02  0.51100000000E-03 0. -1.
        -11    1    3    3    0    0  0.66647382994E+01 -0.47032600126E+01 -0.16772855150E+01  0.83278255449E+01  0.51100000000E-03 0.  1.
        -12    1    3    3    0    0 -0.28439266103E+02 -0.15319448941E+02 -0.25103210049E+02  0.40910249658E+02  0.00000000000E+00 0.  1.
</event>
<event>
 7    1  0.2542335E-015  0.9000773E+02  0.7816164E-02  0.1186339E+00
        -11   -1    0    0    0    0  0.00000000000E+00  0.00000000000E+00  0.45593999997E+02  0.45594000000E+02  0.51100000000E-03 0. -1.
         11   -1    0    0    0    0 -0.00000000000E+00 -0.00000000000E+00 -0.45593999997E+02  0.45594000000E+02  0.51100000000E-03 0.  1.
    9900012    2    1    2    0    0 -0.88130578891E+00 -0.65733529407E+00 -0.42924068978E+00  0.90007730051E+02  0.89999991288E+02 0.  0.
        -12    1    1    2    0    0  0.88130578891E+00  0.65733529407E+00  0.42924068978E+00  0.11802699488E+01  0.00000000000E+00 0.  1.
         11    1    3    3    0    0 -0.18744622517E+02  0.28411506077E+02  0.11153210912E+02  0.35818551964E+02  0.51100000000E-03 0. -1.
        -11    1    3    3    0    0 -0.16841052001E+01  0.89309335264E+01  0.20841923529E+01  0.93242502113E+01  0.51100000000E-03 0.  1.
        -12    1    3    3    0    0  0.19547421928E+02 -0.37999774898E+02 -0.13666643955E+02  0.44864927876E+02  0.00000000000E+00 0.  1.
</event>
<event>
 7    1  0.2542335E-015  0.9000765E+02  0.7816164E-02  0.1186339E+00
        -11   -1    0    0    0    0  0.00000000000E+00  0.00000000000E+00  0.45593999997E+02  0.45594000000E+02  0.51100000000E-03 0. -1.
         11   -1    0    0    0    0 -0.00000000000E+00 -0.00000000000E+00 -0.45593999997E+02  0.45594000000E+02  0.51100000000E-03 0.  1.
    9900012    2    1    2    0    0  0.10970623520E+01  0.14376902128E+00  0.41111533678E+00  0.90007647868E+02  0.89999908020E+02 0.  0.
        -12    1    1    2    0    0 -0.10970623520E+01 -0.14376902128E+00 -0.41111533678E+00  0.11803521321E+01  0.00000000000E+00 0.  1.
         11    1    3    3    0    0 -0.18901729124E+01  0.26871450379E+01  0.36035756968E+02  0.36185208064E+02  0.51100000000E-03 0. -1.
        -11    1    3    3    0    0 -0.92097755231E+00  0.35490120732E+01  0.84217451243E+01  0.91852859263E+01  0.51100000000E-03 0.  1.
        -12    1    3    3    0    0  0.39082128166E+01 -0.60923880899E+01 -0.44046386756E+02  0.44637153878E+02  0.00000000000E+00 0.  1.
</event>
<event>
 7    1  0.2542335E-015  0.9000774E+02  0.7816164E-02  0.1186339E+00
        -11   -1    0    0    0    0  0.00000000000E+00  0.00000000000E+00  0.45593999997E+02  0.45594000000E+02  0.51100000000E-03 0. -1.
         11   -1    0    0    0    0 -0.00000000000E+00 -0.00000000000E+00 -0.45593999997E+02  0.45594000000E+02  0.51100000000E-03 0.  1.
    9900012    2    1    2    0    0  0.62155194404E+00  0.57685160120E+00 -0.82092728119E+00  0.90007743168E+02  0.90000004578E+02 0.  0.
        -12    1    1    2    0    0 -0.62155194404E+00 -0.57685160120E+00  0.82092728119E+00  0.11802568322E+01  0.00000000000E+00 0.  1.
         11    1    3    3    0    0  0.27569149689E+02 -0.11720335027E+01 -0.22752592687E+02  0.35764677425E+02  0.51100000000E-03 0. -1.
        -11    1    3    3    0    0  0.18634945127E+00  0.93263692775E+01 -0.86085379138E+01  0.12693416218E+02  0.51100000000E-03 0.  1.
        -12    1    3    3    0    0 -0.27133947196E+02 -0.75774841736E+01  0.30540203319E+02  0.41549649525E+02  0.00000000000E+00 0.  1.
</event>
<event>
 7    1  0.2542335E-015  0.9000786E+02  0.7816164E-02  0.1186339E+00
        -11   -1    0    0    0    0  0.00000000000E+00  0.00000000000E+00  0.45593999997E+02  0.45594000000E+02  0.51100000000E-03 0. -1.
         11   -1    0    0    0    0 -0.00000000000E+00 -0.00000000000E+00 -0.45593999997E+02  0.45594000000E+02  0.51100000000E-03 0.  1.
    9900012    2    1    2    0    0 -0.81483343055E+00 -0.61347877063E+00  0.59365575311E+00  0.90007857265E+02  0.90000120181E+02 0.  0.
        -12    1    1    2    0    0  0.81483343055E+00  0.61347877063E+00 -0.59365575311E+00  0.11801427349E+01  0.00000000000E+00 0.  1.
         11    1    3    3    0    0  0.43905781657E+01  0.32436630654E+01 -0.10915890211E+02  0.12204719828E+02  0.51100000000E-03 0. -1.
        -11    1    3    3    0    0 -0.25640265277E+02 -0.17822484871E+02 -0.20489994398E+02  0.37348414172E+02  0.51100000000E-03 0.  1.
         12    1    3    3    0    0  0.20434853681E+02  0.13965343035E+02  0.31999540362E+02  0.40454723265E+02  0.00000000000E+00 0. -1.
</event>
<event>
 7    1  0.2542335E-015  0.9000793E+02  0.7816164E-02  0.1186339E+00
        -11   -1    0    0    0    0  0.00000000000E+00  0.00000000000E+00  0.45593999997E+02  0.45594000000E+02  0.51100000000E-03 0. -1.
         11   -1    0    0    0    0 -0.00000000000E+00 -0.00000000000E+00 -0.45593999997E+02  0.45594000000E+02  0.51100000000E-03 0.  1.
    9900012    2    1    2    0    0  0.15199280699E+00  0.88728553983E-01  0.11668770676E+01  0.90007925146E+02  0.90000188958E+02 0.  0.
        -12    1    1    2    0    0 -0.15199280699E+00 -0.88728553983E-01 -0.11668770676E+01  0.11800748538E+01  0.00000000000E+00 0.  1.
         11    1    3    3    0    0  0.32601878212E+02  0.72676534710E+01 -0.19048060913E+02  0.38451656332E+02  0.51100000000E-03 0. -1.
        -11    1    3    3    0    0  0.36303603882E+01  0.75414226860E+01  0.48157588888E+01  0.96562988051E+01  0.51100000000E-03 0.  1.
        -12    1    3    3    0    0 -0.36080245793E+02 -0.14720347603E+02  0.15399179092E+02  0.41899970009E+02  0.00000000000E+00 0.  1.
</event>
<event>
 7    1  0.2542335E-015  0.9000774E+02  0.7816164E-02  0.1186339E+00
        -11   -1    0    0    0    0  0.00000000000E+00  0.00000000000E+00  0.45593999997E+02  0.45594000000E+02  0.51100000000E-03 0.  1.
         11   -1    0    0    0    0 -0.00000000000E+00 -0.00000000000E+00 -0.45593999997E+02  0.45594000000E+02  0.51100000000E-03 0. -1.
    9900012    2    1    2    0    0 -0.39056755944E+00  0.93469543484E+00 -0.60565752966E+00  0.90007737479E+02  0.89999998814E+02 0.  0.
        -12    1    1    2    0    0  0.39056755944E+00 -0.93469543484E+00  0.60565752966E+00  0.11802625206E+01  0.00000000000E+00 0.  1.
         11    1    3    3    0    0 -0.14032637724E+02  0.12148246769E+00 -0.38810709794E+02  0.41269854306E+02  0.51100000000E-03 0. -1.
        -11    1    3    3    0    0  0.11088510886E+02  0.88385522526E+01  0.59093299060E+01  0.15362137214E+02  0.51100000000E-03 0.  1.
        -12    1    3    3    0    0  0.25535592781E+01 -0.80253392855E+01  0.32295722359E+02  0.33375745959E+02  0.00000000000E+00 0.  1.
</event>
<event>
 7    1  0.2542335E-015  0.9000768E+02  0.7816164E-02  0.1186339E+00
        -11   -1    0    0    0    0  0.00000000000E+00  0.00000000000E+00  0.45593999997E+02  0.45594000000E+02  0.51100000000E-03 0.  1.
         11   -1    0    0    0    0 -0.00000000000E+00 -0.00000000000E+00 -0.45593999997E+02  0.45594000000E+02  0.51100000000E-03 0. -1.
    9900012    2    1    2    0    0 -0.10535104552E+01 -0.42568149416E+00 -0.31946300216E+00  0.90007684100E+02  0.89999944730E+02 0.  0.
        -12    1    1    2    0    0  0.10535104552E+01  0.42568149416E+00  0.31946300216E+00  0.11803158999E+01  0.00000000000E+00 0.  1.
         11    1    3    3    0    0 -0.11658648969E+02 -0.53749829598E+00  0.52327965559E+01  0.12790432371E+02  0.51100000000E-03 0. -1.
        -11    1    3    3    0    0 -0.21327591142E+02 -0.54446753213E+01  0.24556673188E+02  0.32977883977E+02  0.51100000000E-03 0.  1.
         12    1    3    3    0    0  0.31932729655E+02  0.55564921231E+01 -0.30108932746E+02  0.44239367752E+02  0.00000000000E+00 0. -1.
</event>
<event>
 7    1  0.2542335E-015  0.9000774E+02  0.7816164E-02  0.1186339E+00
        -11   -1    0    0    0    0  0.00000000000E+00  0.00000000000E+00  0.45593999997E+02  0.45594000000E+02  0.51100000000E-03 0. -1.
         11   -1    0    0    0    0 -0.00000000000E+00 -0.00000000000E+00 -0.45593999997E+02  0.45594000000E+02  0.51100000000E-03 0.  1.
    9900012    2    1    2    0    0  0.47610109477E+00 -0.83306247917E+00  0.68728030992E+00  0.90007737499E+02  0.89999998834E+02 0.  0.
        -12    1    1    2    0    0 -0.47610109477E+00  0.83306247917E+00 -0.68728030992E+00  0.11802625009E+01  0.00000000000E+00 0.  1.
         11    1    3    3    0    0 -0.23625335463E+00  0.22766197724E+02  0.60147429997E+01  0.23548518171E+02  0.51100000000E-03 0. -1.
        -11    1    3    3    0    0  0.11485068719E+02  0.19014893101E+02 -0.32973967795E+01  0.22457644331E+02  0.51100000000E-03 0.  1.
        -12    1    3    3    0    0 -0.10772714270E+02 -0.42614153304E+02 -0.20300659103E+01  0.44001574996E+02  0.00000000000E+00 0.  1.
</event>
<event>
 7    1  0.2542335E-015  0.9000780E+02  0.7816164E-02  0.1186339E+00
        -11   -1    0    0    0    0  0.00000000000E+00  0.00000000000E+00  0.45593999997E+02  0.45594000000E+02  0.51100000000E-03 0.  1.
         11   -1    0    0    0    0 -0.00000000000E+00 -0.00000000000E+00 -0.45593999997E+02  0.45594000000E+02  0.51100000000E-03 0. -1.
    9900012    2    1    2    0    0  0.10085658424E+01 -0.19459239648E+00  0.58120121405E+00  0.90007802512E+02  0.90000064705E+02 0.  0.
        -12    1    1    2    0    0 -0.10085658424E+01  0.19459239648E+00 -0.58120121405E+00  0.11801974879E+01  0.00000000000E+00 0.  1.
         11    1    3    3    0    0  0.91337365217E+01 -0.83044014372E+01 -0.36058836438E+02  0.38113356079E+02  0.51100000000E-03 0. -1.
        -11    1    3    3    0    0  0.78104839997E+01  0.49473004940E+01 -0.24483643640E+01  0.95642004793E+01  0.51100000000E-03 0.  1.
        -12    1    3    3    0    0 -0.15935654679E+02  0.31625085467E+01  0.39088402016E+02  0.42330245954E+02  0.00000000000E+00 0.  1.
</event>
<event>
 7    1  0.2542335E-015  0.9000776E+02  0.7816164E-02  0.1186339E+00
        -11   -1    0    0    0    0  0.00000000000E+00  0.00000000000E+00  0.45593999997E+02  0.45594000000E+02  0.51100000000E-03 0.  1.
         11   -1    0    0    0    0 -0.00000000000E+00 -0.00000000000E+00 -0.45593999997E+02  0.45594000000E+02  0.51100000000E-03 0. -1.
    9900012    2    1    2    0    0 -0.99175864751E+00  0.62186231760E+00 -0.15056851403E+00  0.90007758993E+02  0.90000020612E+02 0.  0.
        -12    1    1    2    0    0  0.99175864751E+00 -0.62186231760E+00  0.15056851403E+00  0.11802410069E+01  0.00000000000E+00 0.  1.
         11    1    3    3    0    0  0.35220101175E+00 -0.33580236669E+01  0.71366321396E+01  0.78950545950E+01  0.51100000000E-03 0. -1.
        -11    1    3    3    0    0 -0.41265754657E+02  0.33020985089E-01  0.39339703571E+00  0.41267643007E+02  0.51100000000E-03 0.  1.
         12    1    3    3    0    0  0.39921794998E+02  0.39468649994E+01 -0.76805976894E+01  0.40845061391E+02  0.00000000000E+00 0. -1.
</event>
<event>
 7    1  0.2542335E-015  0.9000752E+02  0.7816164E-02  0.1186339E+00
        -11   -1    0    0    0    0  0.00000000000E+00  0.00000000000E+00  0.45593999997E+02  0.45594000000E+02  0.51100000000E-03 0.  1.
         11   -1    0    0    0    0 -0.00000000000E+00 -0.00000000000E+00 -0.45593999997E+02  0.45594000000E+02  0.51100000000E-03 0. -1.
    9900012    2    1    2    0    0 -0.20225623460E+00 -0.10230636906E+00 -0.11585172964E+01  0.90007518529E+02  0.89999776973E+02 0.  0.
        -12    1    1    2    0    0  0.20225623460E+00  0.10230636906E+00  0.11585172964E+01  0.11804814711E+01  0.00000000000E+00 0.  1.
         11    1    3    3    0    0 -0.74942855521E+01 -0.59883775224E+01  0.41310536049E+01  0.10444643864E+02  0.51100000000E-03 0. -1.
        -11    1    3    3    0    0 -0.28090688635E+02  0.26338667013E+02 -0.19068913653E+01  0.38554486158E+02  0.51100000000E-03 0.  1.
         12    1    3    3    0    0  0.35382717952E+02 -0.20452595860E+02 -0.33826795360E+01  0.41008388507E+02  0.00000000000E+00 0. -1.
</event>
<event>
 7    1  0.3187245E-015  0.9000769E+02  0.7816164E-02  0.1186339E+00
        -11   -1    0    0    0    0  0.00000000000E+00  0.00000000000E+00  0.45593999997E+02  0.45594000000E+02  0.51100000000E-03 0.  1.
         11   -1    0    0    0    0 -0.00000000000E+00 -0.00000000000E+00 -0.45593999997E+02  0.45594000000E+02  0.51100000000E-03 0. -1.
    9900012    2    1    2    0    0 -0.44635657810E+00  0.10828170130E+01 -0.14630131137E+00  0.90007690315E+02  0.89999951027E+02 0.  0.
        -12    1    1    2    0    0  0.44635657810E+00 -0.10828170130E+01  0.14630131137E+00  0.11803096849E+01  0.00000000000E+00 0.  1.
         11    1    3    3    0    0 -0.14305105015E+01  0.51023693892E+01  0.82181547677E+01  0.97784764522E+01  0.51100000000E-03 0. -1.
        -11    1    3    3    0    0 -0.16045932782E+01 -0.37239096038E+02  0.14309496633E+02  0.39926015171E+02  0.51100000000E-03 0.  1.
         12    1    3    3    0    0  0.25887472017E+01  0.33219543662E+02 -0.22673952712E+02  0.40303198692E+02  0.00000000000E+00 0. -1.
</event>
<event>
 7    1  0.2542335E-015  0.9000771E+02  0.7816164E-02  0.1186339E+00
        -11   -1    0    0    0    0  0.00000000000E+00  0.00000000000E+00  0.45593999997E+02  0.45594000000E+02  0.51100000000E-03 0.  1.
         11   -1    0    0    0    0 -0.00000000000E+00 -0.00000000000E+00 -0.45593999997E+02  0.45594000000E+02  0.51100000000E-03 0. -1.
    9900012    2    1    2    0    0  0.10028392398E+01 -0.62033573870E+00  0.50753756212E-01  0.90007712360E+02  0.89999973363E+02 0.  0.
        -12    1    1    2    0    0 -0.10028392398E+01  0.62033573870E+00 -0.50753756212E-01  0.11802876401E+01  0.00000000000E+00 0.  1.
         11    1    3    3    0    0  0.92046063931E+01 -0.17698019584E+00 -0.86056668791E+00  0.92464412682E+01  0.51100000000E-03 0. -1.
        -11    1    3    3    0    0 -0.17776372780E+01  0.35653802561E+02 -0.17474137290E+02  0.39745428739E+02  0.51100000000E-03 0.  1.
         12    1    3    3    0    0 -0.64241298753E+01 -0.36097158104E+02  0.18385457734E+02  0.41015842353E+02  0.00000000000E+00 0. -1.
</event>
<event>
 7    1  0.2542335E-015  0.9000765E+02  0.7816164E-02  0.1186339E+00
        -11   -1    0    0    0    0  0.00000000000E+00  0.00000000000E+00  0.45593999997E+02  0.45594000000E+02  0.51100000000E-03 0.  1.
         11   -1    0    0    0    0 -0.00000000000E+00 -0.00000000000E+00 -0.45593999997E+02  0.45594000000E+02  0.51100000000E-03 0. -1.
    9900012    2    1    2    0    0 -0.68914746429E+00  0.83458853404E+00  0.47092713150E+00  0.90007646404E+02  0.89999906536E+02 0.  0.
        -12    1    1    2    0    0  0.68914746429E+00 -0.83458853404E+00 -0.47092713150E+00  0.11803535961E+01  0.00000000000E+00 0.  1.
         11    1    3    3    0    0 -0.11156618306E+02  0.11284298663E+02  0.29685860668E+01  0.16143668475E+02  0.51100000000E-03 0. -1.
        -11    1    3    3    0    0  0.20743758025E+02  0.24728333677E+02 -0.14383222363E+02  0.35336540143E+02  0.51100000000E-03 0.  1.
         12    1    3    3    0    0 -0.10276287183E+02 -0.35178043807E+02  0.11885563428E+02  0.38527437786E+02  0.00000000000E+00 0. -1.
</event>
<event>
 7    1  0.2542335E-015  0.9000771E+02  0.7816164E-02  0.1186339E+00
        -11   -1    0    0    0    0  0.00000000000E+00  0.00000000000E+00  0.45593999997E+02  0.45594000000E+02  0.51100000000E-03 0.  1.
         11   -1    0    0    0    0 -0.00000000000E+00 -0.00000000000E+00 -0.45593999997E+02  0.45594000000E+02  0.51100000000E-03 0. -1.
    9900012    2    1    2    0    0 -0.36837748207E+00  0.60851421499E+00 -0.94185693001E+00  0.90007709360E+02  0.89999970323E+02 0.  0.
        -12    1    1    2    0    0  0.36837748207E+00 -0.60851421499E+00  0.94185693001E+00  0.11802906404E+01  0.00000000000E+00 0.  1.
         11    1    3    3    0    0 -0.34075869462E+02 -0.63566290364E+01 -0.17589299991E+02  0.38871005734E+02  0.51100000000E-03 0. -1.
        -11    1    3    3    0    0  0.21010952930E+01 -0.16189440954E+01 -0.90985422362E+01  0.94772914115E+01  0.51100000000E-03 0.  1.
        -12    1    3    3    0    0  0.31606396687E+02  0.85840873468E+01  0.25745985297E+02  0.41659412214E+02  0.00000000000E+00 0.  1.
</event>
<event>
 7    1  0.2542335E-015  0.9000771E+02  0.7816164E-02  0.1186339E+00
        -11   -1    0    0    0    0  0.00000000000E+00  0.00000000000E+00  0.45593999997E+02  0.45594000000E+02  0.51100000000E-03 0.  1.
         11   -1    0    0    0    0 -0.00000000000E+00 -0.00000000000E+00 -0.45593999997E+02  0.45594000000E+02  0.51100000000E-03 0. -1.
    9900012    2    1    2    0    0  0.27629308982E+00  0.43700612992E+00 -0.10610247911E+01  0.90007709427E+02  0.89999970392E+02 0.  0.
        -12    1    1    2    0    0 -0.27629308982E+00 -0.43700612992E+00  0.10610247911E+01  0.11802905729E+01  0.00000000000E+00 0.  1.
         11    1    3    3    0    0  0.70875581157E+01  0.33422191358E+02 -0.25169591234E+01  0.34258012766E+02  0.51100000000E-03 0. -1.
        -11    1    3    3    0    0  0.89134551415E+01  0.73117531242E+01  0.45242552455E+01  0.12384680137E+02  0.51100000000E-03 0.  1.
        -12    1    3    3    0    0 -0.15724720167E+02 -0.40296938352E+02 -0.30683209132E+01  0.43365016524E+02  0.00000000000E+00 0.  1.
</event>
<event>
 7    1  0.2542335E-015  0.9000781E+02  0.7816164E-02  0.1186339E+00
        -11   -1    0    0    0    0  0.00000000000E+00  0.00000000000E+00  0.45593999997E+02  0.45594000000E+02  0.51100000000E-03 0. -1.
         11   -1    0    0    0    0 -0.00000000000E+00 -0.00000000000E+00 -0.45593999997E+02  0.45594000000E+02  0.51100000000E-03 0.  1.
    9900012    2    1    2    0    0 -0.56697080920E+00 -0.86429766871E+00 -0.56953910996E+00  0.90007813084E+02  0.90000075417E+02 0.  0.
        -12    1    1    2    0    0  0.56697080920E+00  0.86429766871E+00  0.56953910996E+00  0.11801869159E+01  0.00000000000E+00 0.  1.
         11    1    3    3    0    0 -0.10466374212E+01 -0.29908694609E+02 -0.13047530784E+02  0.32647565344E+02  0.51100000000E-03 0. -1.
        -11    1    3    3    0    0 -0.15360129936E+02  0.88111941824E+00  0.18947046745E+02  0.24406977357E+02  0.51100000000E-03 0.  1.
        -12    1    3    3    0    0  0.15839796548E+02  0.28163277522E+02 -0.64690550703E+01  0.32953270383E+02  0.00000000000E+00 0.  1.
</event>
<event>
 7    1  0.2542335E-015  0.9000771E+02  0.7816164E-02  0.1186339E+00
        -11   -1    0    0    0    0  0.00000000000E+00  0.00000000000E+00  0.45593999997E+02  0.45594000000E+02  0.51100000000E-03 0.  1.
         11   -1    0    0    0    0 -0.00000000000E+00 -0.00000000000E+00 -0.45593999997E+02  0.45594000000E+02  0.51100000000E-03 0. -1.
    9900012    2    1    2    0    0  0.55732956459E+00  0.76047137341E+00 -0.71003877604E+00  0.90007708503E+02  0.89999969456E+02 0.  0.
        -12    1    1    2    0    0 -0.55732956459E+00 -0.76047137341E+00  0.71003877604E+00  0.11802914965E+01  0.00000000000E+00 0.  1.
         11    1    3    3    0    0 -0.33345128426E+01  0.82071680963E+01 -0.47979076894E+00  0.88716843667E+01  0.51100000000E-03 0. -1.
        -11    1    3    3    0    0  0.31002395658E+01  0.36257132532E+02  0.63287118650E+01  0.36935670279E+02  0.51100000000E-03 0.  1.
         12    1    3    3    0    0  0.79160284139E+00 -0.43703829255E+02 -0.65589598721E+01  0.44200353858E+02  0.00000000000E+00 0. -1.
</event>
<event>
 7    1  0.2542335E-015  0.9000771E+02  0.7816164E-02  0.1186339E+00
        -11   -1    0    0    0    0  0.00000000000E+00  0.00000000000E+00  0.45593999997E+02  0.45594000000E+02  0.51100000000E-03 0. -1.
         11   -1    0    0    0    0 -0.00000000000E+00 -0.00000000000E+00 -0.45593999997E+02  0.45594000000E+02  0.51100000000E-03 0.  1.
    9900012    2    1    2    0    0 -0.10189573298E+01  0.48502994436E+00  0.34575859218E+00  0.90007713132E+02  0.89999974145E+02 0.  0.
        -12    1    1    2    0    0  0.10189573298E+01 -0.48502994436E+00 -0.34575859218E+00  0.11802868680E+01  0.00000000000E+00 0.  1.
         11    1    3    3    0    0 -0.71475258420E+01  0.26847686851E+00  0.56416634734E+01  0.91097515059E+01  0.51100000000E-03 0. -1.
        -11    1    3    3    0    0 -0.33719960100E+02  0.10313354041E+01  0.14110276329E+02  0.36567735234E+02  0.51100000000E-03 0.  1.
         12    1    3    3    0    0  0.39848528612E+02 -0.81478232827E+00 -0.19406181210E+02  0.44330226392E+02  0.00000000000E+00 0. -1.
</event>
<event>
 7    1  0.2542335E-015  0.9000771E+02  0.7816164E-02  0.1186339E+00
        -11   -1    0    0    0    0  0.00000000000E+00  0.00000000000E+00  0.45593999997E+02  0.45594000000E+02  0.51100000000E-03 0.  1.
         11   -1    0    0    0    0 -0.00000000000E+00 -0.00000000000E+00 -0.45593999997E+02  0.45594000000E+02  0.51100000000E-03 0. -1.
    9900012    2    1    2    0    0 -0.37285717624E+00  0.10472753257E+01 -0.39658053270E+00  0.90007710120E+02  0.89999971094E+02 0.  0.
        -12    1    1    2    0    0  0.37285717624E+00 -0.10472753257E+01  0.39658053270E+00  0.11802898799E+01  0.00000000000E+00 0.  1.
         11    1    3    3    0    0  0.13626242993E+02  0.36390973343E+02 -0.81195635502E+01  0.39697666827E+02  0.51100000000E-03 0. -1.
        -11    1    3    3    0    0 -0.60912180635E+01  0.53691233924E+01 -0.19752891672E-01  0.81197791804E+01  0.51100000000E-03 0.  1.
        -12    1    3    3    0    0 -0.79078821062E+01 -0.40712821410E+02  0.77427359092E+01  0.42190264113E+02  0.00000000000E+00 0.  1.
</event>
<event>
 7    1  0.2542335E-015  0.9000775E+02  0.7816164E-02  0.1186339E+00
        -11   -1    0    0    0    0  0.00000000000E+00  0.00000000000E+00  0.45593999997E+02  0.45594000000E+02  0.51100000000E-03 0.  1.
         11   -1    0    0    0    0 -0.00000000000E+00 -0.00000000000E+00 -0.45593999997E+02  0.45594000000E+02  0.51100000000E-03 0. -1.
    9900012    2    1    2    0    0  0.11058734061E+01 -0.27467588004E+00 -0.30756604052E+00  0.90007745918E+02  0.90000007364E+02 0.  0.
        -12    1    1    2    0    0 -0.11058734061E+01  0.27467588004E+00  0.30756604052E+00  0.11802540822E+01  0.00000000000E+00 0.  1.
         11    1    3    3    0    0  0.86380596008E+01 -0.11251381971E+02  0.21497373682E+02  0.25755518736E+02  0.51100000000E-03 0. -1.
        -11    1    3    3    0    0  0.87178612379E+01 -0.14217957841E+02  0.10869723269E+02  0.19907343217E+02  0.51100000000E-03 0.  1.
        -12    1    3    3    0    0 -0.16250047433E+02  0.25194663932E+02 -0.32674662991E+02  0.44344883964E+02  0.00000000000E+00 0.  1.
</event>
<event>
 7    1  0.2542335E-015  0.9000775E+02  0.7816164E-02  0.1186339E+00
        -11   -1    0    0    0    0  0.00000000000E+00  0.00000000000E+00  0.45593999997E+02  0.45594000000E+02  0.51100000000E-03 0.  1.
         11   -1    0    0    0    0 -0.00000000000E+00 -0.00000000000E+00 -0.45593999997E+02  0.45594000000E+02  0.51100000000E-03 0. -1.
    9900012    2    1    2    0    0  0.92069190624E+00 -0.73651327887E+00 -0.53604833813E-01  0.90007746267E+02  0.90000007718E+02 0.  0.
        -12    1    1    2    0    0 -0.92069190624E+00  0.73651327887E+00  0.53604833813E-01  0.11802537330E+01  0.00000000000E+00 0.  1.
         11    1    3    3    0    0  0.43715212740E+01 -0.75107771817E+01 -0.33512618192E+02  0.34621056461E+02  0.51100000000E-03 0. -1.
        -11    1    3    3    0    0  0.18894104215E+02 -0.23017163503E+01  0.90618679471E+01  0.21080856795E+02  0.51100000000E-03 0.  1.
        -12    1    3    3    0    0 -0.22344933583E+02  0.90759802531E+01  0.24397145411E+02  0.34305833011E+02  0.00000000000E+00 0.  1.
</event>
<event>
 7    1  0.2542335E-015  0.9000792E+02  0.7816164E-02  0.1186339E+00
        -11   -1    0    0    0    0  0.00000000000E+00  0.00000000000E+00  0.45593999997E+02  0.45594000000E+02  0.51100000000E-03 0. -1.
         11   -1    0    0    0    0 -0.00000000000E+00 -0.00000000000E+00 -0.45593999997E+02  0.45594000000E+02  0.51100000000E-03 0.  1.
    9900012    2    1    2    0    0 -0.79813694596E+00  0.86922126898E+00 -0.31683280403E-02  0.90007924478E+02  0.90000188281E+02 0.  0.
        -12    1    1    2    0    0  0.79813694596E+00 -0.86922126898E+00  0.31683280403E-02  0.11800755218E+01  0.00000000000E+00 0.  1.
         11    1    3    3    0    0  0.14636468823E+02  0.21631248981E+02  0.77702714549E+01  0.27249115047E+02  0.51100000000E-03 0. -1.
        -11    1    3    3    0    0  0.11928135466E+02 -0.16108717380E+02  0.16441601509E+02  0.25924842367E+02  0.51100000000E-03 0.  1.
        -12    1    3    3    0    0 -0.27362741235E+02 -0.46533103323E+01 -0.24215041292E+02  0.36833967064E+02  0.00000000000E+00 0.  1.
</event>
<event>
 7    1  0.2542335E-015  0.9000773E+02  0.7816164E-02  0.1186339E+00
        -11   -1    0    0    0    0  0.00000000000E+00  0.00000000000E+00  0.45593999997E+02  0.45594000000E+02  0.51100000000E-03 0. -1.
         11   -1    0    0    0    0 -0.00000000000E+00 -0.00000000000E+00 -0.45593999997E+02  0.45594000000E+02  0.51100000000E-03 0.  1.
    9900012    2    1    2    0    0 -0.52525107892E+00  0.57524905049E-01  0.10553813401E+01  0.90007734105E+02  0.89999995395E+02 0.  0.
        -12    1    1    2    0    0  0.52525107892E+00 -0.57524905049E-01 -0.10553813401E+01  0.11802658953E+01  0.00000000000E+00 0.  1.
         11    1    3    3    0    0 -0.41981961349E+01  0.89646913112E+01 -0.25288312165E+01  0.10216923640E+02  0.51100000000E-03 0. -1.
        -11    1    3    3    0    0  0.36257066040E+02  0.28533272018E+01 -0.16292649238E+02  0.39851809663E+02  0.51100000000E-03 0.  1.
         12    1    3    3    0    0 -0.32584120984E+02 -0.11760493608E+02  0.19876861795E+02  0.39939000801E+02  0.00000000000E+00 0. -1.
</event>
<event>
 7    1  0.2542335E-015  0.9000780E+02  0.7816164E-02  0.1186339E+00
        -11   -1    0    0    0    0  0.00000000000E+00  0.00000000000E+00  0.45593999997E+02  0.45594000000E+02  0.51100000000E-03 0. -1.
         11   -1    0    0    0    0 -0.00000000000E+00 -0.00000000000E+00 -0.45593999997E+02  0.45594000000E+02  0.51100000000E-03 0.  1.
    9900012    2    1    2    0    0 -0.98074193443E+00  0.56113063592E+00  0.34082235353E+00  0.90007795692E+02  0.90000057795E+02 0.  0.
        -12    1    1    2    0    0  0.98074193443E+00 -0.56113063592E+00 -0.34082235353E+00  0.11802043082E+01  0.00000000000E+00 0.  1.
         11    1    3    3    0    0  0.37866769136E+02 -0.10832181827E+02  0.87658342310E+01  0.40349327354E+02  0.51100000000E-03 0. -1.
        -11    1    3    3    0    0 -0.30363245972E+01 -0.61654835030E+01 -0.69095090329E+01  0.97454486414E+01  0.51100000000E-03 0.  1.
        -12    1    3    3    0    0 -0.35811186473E+02  0.17558795966E+02 -0.15155028446E+01  0.39913019696E+02  0.00000000000E+00 0.  1.
</event>
<event>
 7    1  0.2542335E-015  0.9000774E+02  0.7816164E-02  0.1186339E+00
        -11   -1    0    0    0    0  0.00000000000E+00  0.00000000000E+00  0.45593999997E+02  0.45594000000E+02  0.51100000000E-03 0. -1.
         11   -1    0    0    0    0 -0.00000000000E+00 -0.00000000000E+00 -0.45593999997E+02  0.45594000000E+02  0.51100000000E-03 0.  1.
    9900012    2    1    2    0    0 -0.62218486998E+00  0.97844129071E+00  0.22037241657E+00  0.90007735041E+02  0.89999996343E+02 0.  0.
        -12    1    1    2    0    0  0.62218486998E+00 -0.97844129071E+00 -0.22037241657E+00  0.11802649591E+01  0.00000000000E+00 0.  1.
         11    1    3    3    0    0 -0.33459898631E+02 -0.41460157218E+01  0.25355309977E+02  0.42185850792E+02  0.51100000000E-03 0. -1.
        -11    1    3    3    0    0  0.55301829080E+01  0.58337321789E+01  0.30256596434E+01  0.85889446773E+01  0.51100000000E-03 0.  1.
        -12    1    3    3    0    0  0.27307530853E+02 -0.70927516643E+00 -0.28160597203E+02  0.39232939571E+02  0.00000000000E+00 0.  1.
</event>
<event>
 7    1  0.2542335E-015  0.9000773E+02  0.7816164E-02  0.1186339E+00
        -11   -1    0    0    0    0  0.00000000000E+00  0.00000000000E+00  0.45593999997E+02  0.45594000000E+02  0.51100000000E-03 0. -1.
         11   -1    0    0    0    0 -0.00000000000E+00 -0.00000000000E+00 -0.45593999997E+02  0.45594000000E+02  0.51100000000E-03 0.  1.
    9900012    2    1    2    0    0  0.10296889535E+01 -0.51641572031E+00 -0.25706343530E+00  0.90007734713E+02  0.89999996012E+02 0.  0.
        -12    1    1    2    0    0 -0.10296889535E+01  0.51641572031E+00  0.25706343530E+00  0.11802652867E+01  0.00000000000E+00 0.  1.
         11    1    3    3    0    0 -0.96982852724E+01 -0.10657431746E+02  0.12875601817E+02  0.19324044894E+02  0.51100000000E-03 0. -1.
        -11    1    3    3    0    0 -0.83605041607E+01 -0.22227787347E+02  0.10845286980E+02  0.26107332497E+02  0.51100000000E-03 0.  1.
         12    1    3    3    0    0  0.19088478387E+02  0.32368803372E+02 -0.23977952233E+02  0.44576357323E+02  0.00000000000E+00 0. -1.
</event>
<event>
 7    1  0.2542335E-015  0.9000788E+02  0.7816164E-02  0.1186339E+00
        -11   -1    0    0    0    0  0.00000000000E+00  0.00000000000E+00  0.45593999997E+02  0.45594000000E+02  0.51100000000E-03 0.  1.
         11   -1    0    0    0    0 -0.00000000000E+00 -0.00000000000E+00 -0.45593999997E+02  0.45594000000E+02  0.51100000000E-03 0. -1.
    9900012    2    1    2    0    0  0.32876170012E+00  0.11048597303E+01  0.25274092449E+00  0.90007882525E+02  0.90000145775E+02 0.  0.
        -12    1    1    2    0    0 -0.32876170012E+00 -0.11048597303E+01 -0.25274092449E+00  0.11801174746E+01  0.00000000000E+00 0.  1.
         11    1    3    3    0    0 -0.18682601062E+01 -0.91797515871E+01 -0.34910074010E+02  0.36145144939E+02  0.51100000000E-03 0. -1.
        -11    1    3    3    0    0  0.11271711049E+01 -0.60724966143E+01 -0.65753160536E+01  0.90211147480E+01  0.51100000000E-03 0.  1.
        -12    1    3    3    0    0  0.10698507014E+01  0.16357107932E+02  0.41738130988E+02  0.44841622838E+02  0.00000000000E+00 0.  1.
</event>
<event>
 7    1  0.2542335E-015  0.9000681E+02  0.7816164E-02  0.1186341E+00
        -11   -1    0    0    0    0  0.00000000000E+00  0.00000000000E+00  0.45593999997E+02  0.45594000000E+02  0.51100000000E-03 0. -1.
         11   -1    0    0    0    0 -0.00000000000E+00 -0.00000000000E+00 -0.45593999997E+02  0.45594000000E+02  0.51100000000E-03 0.  1.
    9900012    2    1    2    0    0  0.71964746503E+00 -0.10316851768E+00  0.93095921262E+00  0.90006805150E+02  0.89999054174E+02 0.  0.
        -12    1    1    2    0    0 -0.71964746503E+00  0.10316851768E+00 -0.93095921262E+00  0.11811948495E+01  0.00000000000E+00 0.  1.
         11    1    3    3    0    0 -0.65727990888E+01 -0.68220111921E+00 -0.69632721756E+01  0.95997003017E+01  0.51100000000E-03 0. -1.
        -11    1    3    3    0    0 -0.22830909503E+02 -0.25589535750E+02 -0.11327349155E+02  0.36116251298E+02  0.51100000000E-03 0.  1.
         12    1    3    3    0    0  0.30123356057E+02  0.26168568351E+02  0.19221580543E+02  0.44290853551E+02  0.00000000000E+00 0. -1.
</event>
<event>
 7    1  0.2542335E-015  0.9000770E+02  0.7816164E-02  0.1186339E+00
        -11   -1    0    0    0    0  0.00000000000E+00  0.00000000000E+00  0.45593999997E+02  0.45594000000E+02  0.51100000000E-03 0. -1.
         11   -1    0    0    0    0 -0.00000000000E+00 -0.00000000000E+00 -0.45593999997E+02  0.45594000000E+02  0.51100000000E-03 0.  1.
    9900012    2    1    2    0    0 -0.31301006392E+00 -0.78706051525E+00  0.82198460654E+00  0.90007704169E+02  0.89999965064E+02 0.  0.
        -12    1    1    2    0    0  0.31301006392E+00  0.78706051525E+00 -0.82198460654E+00  0.11802958308E+01  0.00000000000E+00 0.  1.
         11    1    3    3    0    0 -0.97818934580E+01 -0.10448935257E+00 -0.16920779766E+01  0.99277130190E+01  0.51100000000E-03 0. -1.
        -11    1    3    3    0    0  0.28700401493E+02  0.27623349317E+02  0.16493494351E+02  0.43113777723E+02  0.51100000000E-03 0.  1.
         12    1    3    3    0    0 -0.19231518099E+02 -0.28305920480E+02 -0.13979431768E+02  0.36966213427E+02  0.00000000000E+00 0. -1.
</event>
<event>
 7    1  0.2542335E-015  0.9000776E+02  0.7816164E-02  0.1186339E+00
        -11   -1    0    0    0    0  0.00000000000E+00  0.00000000000E+00  0.45593999997E+02  0.45594000000E+02  0.51100000000E-03 0. -1.
         11   -1    0    0    0    0 -0.00000000000E+00 -0.00000000000E+00 -0.45593999997E+02  0.45594000000E+02  0.51100000000E-03 0.  1.
    9900012    2    1    2    0    0  0.75287143806E+00  0.30103082955E+00  0.85762880107E+00  0.90007761836E+02  0.90000023493E+02 0.  0.
        -12    1    1    2    0    0 -0.75287143806E+00 -0.30103082955E+00 -0.85762880107E+00  0.11802381637E+01  0.00000000000E+00 0.  1.
         11    1    3    3    0    0 -0.21018531560E+02  0.17912093514E+02  0.24253756321E+02  0.36754135262E+02  0.51100000000E-03 0. -1.
        -11    1    3    3    0    0 -0.34640187498E+01 -0.33695271674E+01  0.87372854221E+01  0.99846530255E+01  0.51100000000E-03 0.  1.
        -12    1    3    3    0    0  0.25235421747E+02 -0.14241535517E+02 -0.32133412942E+02  0.43268973548E+02  0.00000000000E+00 0.  1.
</event>
<event>
 7    1  0.2542335E-015  0.9000775E+02  0.7816164E-02  0.1186339E+00
        -11   -1    0    0    0    0  0.00000000000E+00  0.00000000000E+00  0.45593999997E+02  0.45594000000E+02  0.51100000000E-03 0.  1.
         11   -1    0    0    0    0 -0.00000000000E+00 -0.00000000000E+00 -0.45593999997E+02  0.45594000000E+02  0.51100000000E-03 0. -1.
    9900012    2    1    2    0    0  0.73658668814E+00 -0.30501751740E+00 -0.87028277583E+00  0.90007750982E+02  0.90000012495E+02 0.  0.
        -12    1    1    2    0    0 -0.73658668814E+00  0.30501751740E+00  0.87028277583E+00  0.11802490182E+01  0.00000000000E+00 0.  1.
         11    1    3    3    0    0 -0.73843686418E+01 -0.82197795270E+01 -0.18896790896E+01  0.11210020653E+02  0.51100000000E-03 0. -1.
        -11    1    3    3    0    0 -0.22069686641E+02 -0.18129391013E+02 -0.18878463573E+02  0.34236563409E+02  0.51100000000E-03 0.  1.
         12    1    3    3    0    0  0.30190641971E+02  0.26044153022E+02  0.19897859887E+02  0.44561166920E+02  0.00000000000E+00 0. -1.
</event>
<event>
 7    1  0.2542335E-015  0.9000772E+02  0.7816164E-02  0.1186339E+00
        -11   -1    0    0    0    0  0.00000000000E+00  0.00000000000E+00  0.45593999997E+02  0.45594000000E+02  0.51100000000E-03 0.  1.
         11   -1    0    0    0    0 -0.00000000000E+00 -0.00000000000E+00 -0.45593999997E+02  0.45594000000E+02  0.51100000000E-03 0. -1.
    9900012    2    1    2    0    0  0.30320725215E+00 -0.72480723095E+00  0.88078678817E+00  0.90007718031E+02  0.89999979109E+02 0.  0.
        -12    1    1    2    0    0 -0.30320725215E+00  0.72480723095E+00 -0.88078678817E+00  0.11802819689E+01  0.00000000000E+00 0.  1.
         11    1    3    3    0    0  0.30286928522E+02  0.87705966358E+01 -0.21466484048E+02  0.38144873080E+02  0.51100000000E-03 0. -1.
        -11    1    3    3    0    0  0.10728283128E+01  0.10047878377E+02  0.50345236029E+01  0.11289696570E+02  0.51100000000E-03 0.  1.
        -12    1    3    3    0    0 -0.31056549582E+02 -0.19543282244E+02  0.17312747233E+02  0.40573148382E+02  0.00000000000E+00 0.  1.
</event>
<event>
 7    1  0.2542335E-015  0.9000768E+02  0.7816164E-02  0.1186339E+00
        -11   -1    0    0    0    0  0.00000000000E+00  0.00000000000E+00  0.45593999997E+02  0.45594000000E+02  0.51100000000E-03 0. -1.
         11   -1    0    0    0    0 -0.00000000000E+00 -0.00000000000E+00 -0.45593999997E+02  0.45594000000E+02  0.51100000000E-03 0.  1.
    9900012    2    1    2    0    0 -0.56387673732E+00  0.78917906512E+00  0.67260444818E+00  0.90007679147E+02  0.89999939712E+02 0.  0.
        -12    1    1    2    0    0  0.56387673732E+00 -0.78917906512E+00 -0.67260444818E+00  0.11803208528E+01  0.00000000000E+00 0.  1.
         11    1    3    3    0    0  0.61915894619E+01  0.29562960161E+01  0.88584852387E+01  0.11204830529E+02  0.51100000000E-03 0. -1.
        -11    1    3    3    0    0  0.26035076209E+02  0.13167307749E+01  0.21989990672E+02  0.34104525552E+02  0.51100000000E-03 0.  1.
         12    1    3    3    0    0 -0.32790542408E+02 -0.34838477259E+01 -0.30175871463E+02  0.44698323066E+02  0.00000000000E+00 0. -1.
</event>
<event>
 7    1  0.2542335E-015  0.9000778E+02  0.7816164E-02  0.1186339E+00
        -11   -1    0    0    0    0  0.00000000000E+00  0.00000000000E+00  0.45593999997E+02  0.45594000000E+02  0.51100000000E-03 0. -1.
         11   -1    0    0    0    0 -0.00000000000E+00 -0.00000000000E+00 -0.45593999997E+02  0.45594000000E+02  0.51100000000E-03 0.  1.
    9900012    2    1    2    0    0  0.10647236525E+01  0.50918808020E+00 -0.16304658657E-03  0.90007784349E+02  0.90000046302E+02 0.  0.
        -12    1    1    2    0    0 -0.10647236525E+01 -0.50918808020E+00  0.16304658657E-03  0.11802156514E+01  0.00000000000E+00 0.  1.
         11    1    3    3    0    0 -0.74941532211E+01 -0.55319587130E+01  0.26105128907E+00  0.93184251749E+01  0.51100000000E-03 0. -1.
        -11    1    3    3    0    0 -0.20387397058E+02 -0.15884029592E+02 -0.25625681430E+02  0.36395383003E+02  0.51100000000E-03 0.  1.
         12    1    3    3    0    0  0.28946273932E+02  0.21925176385E+02  0.25364467094E+02  0.44293976171E+02  0.00000000000E+00 0. -1.
</event>
<event>
 7    1  0.2542335E-015  0.9000769E+02  0.7816164E-02  0.1186339E+00
        -11   -1    0    0    0    0  0.00000000000E+00  0.00000000000E+00  0.45593999997E+02  0.45594000000E+02  0.51100000000E-03 0. -1.
         11   -1    0    0    0    0 -0.00000000000E+00 -0.00000000000E+00 -0.45593999997E+02  0.45594000000E+02  0.51100000000E-03 0.  1.
    9900012    2    1    2    0    0  0.92060572841E+00 -0.30853037007E+00 -0.67113929766E+00  0.90007689086E+02  0.89999949782E+02 0.  0.
        -12    1    1    2    0    0 -0.92060572841E+00  0.30853037007E+00  0.67113929766E+00  0.11803109138E+01  0.00000000000E+00 0.  1.
         11    1    3    3    0    0 -0.15028812917E+01  0.57428589789E+01 -0.89730115484E+01  0.10758904123E+02  0.51100000000E-03 0. -1.
        -11    1    3    3    0    0 -0.13064245465E+02 -0.32447611200E+02 -0.17597748705E+02  0.39156132878E+02  0.51100000000E-03 0.  1.
         12    1    3    3    0    0  0.15487732485E+02  0.26396221852E+02  0.25899620956E+02  0.40092652085E+02  0.00000000000E+00 0. -1.
</event>
<event>
 7    1  0.2542335E-015  0.9000782E+02  0.7816164E-02  0.1186339E+00
        -11   -1    0    0    0    0  0.00000000000E+00  0.00000000000E+00  0.45593999997E+02  0.45594000000E+02  0.51100000000E-03 0. -1.
         11   -1    0    0    0    0 -0.00000000000E+00 -0.00000000000E+00 -0.45593999997E+02  0.45594000000E+02  0.51100000000E-03 0.  1.
    9900012    2    1    2    0    0 -0.95051046516E+00 -0.40471533250E+00  0.57057875925E+00  0.90007820028E+02  0.90000082453E+02 0.  0.
        -12    1    1    2    0    0  0.95051046516E+00  0.40471533250E+00 -0.57057875925E+00  0.11801799716E+01  0.00000000000E+00 0.  1.
         11    1    3    3    0    0 -0.22834937042E+02 -0.44537903589E+01  0.26929526951E+02  0.35587498091E+02  0.51100000000E-03 0. -1.
        -11    1    3    3    0    0 -0.40802534673E+01  0.20809104829E+00  0.92913934055E+01  0.10149963641E+02  0.51100000000E-03 0.  1.
        -12    1    3    3    0    0  0.25964680044E+02  0.38409839781E+01 -0.35650341597E+02  0.44270358297E+02  0.00000000000E+00 0.  1.
</event>
<event>
 7    1  0.2542335E-015  0.9000777E+02  0.7816164E-02  0.1186339E+00
        -11   -1    0    0    0    0  0.00000000000E+00  0.00000000000E+00  0.45593999997E+02  0.45594000000E+02  0.51100000000E-03 0.  1.
         11   -1    0    0    0    0 -0.00000000000E+00 -0.00000000000E+00 -0.45593999997E+02  0.45594000000E+02  0.51100000000E-03 0. -1.
    9900012    2    1    2    0    0  0.81171071249E+00 -0.50421832049E+00 -0.69269678638E+00  0.90007771533E+02  0.90000033318E+02 0.  0.
        -12    1    1    2    0    0 -0.81171071249E+00  0.50421832049E+00  0.69269678638E+00  0.11802284666E+01  0.00000000000E+00 0.  1.
         11    1    3    3    0    0  0.12525351500E+02 -0.39320934927E+01 -0.51496798869E+01  0.14101949958E+02  0.51100000000E-03 0. -1.
        -11    1    3    3    0    0  0.24472391977E+02  0.51126713304E+01  0.24076339282E+02  0.34708896420E+02  0.51100000000E-03 0.  1.
         12    1    3    3    0    0 -0.36186032764E+02 -0.16847961582E+01 -0.19619356181E+02  0.41196925155E+02  0.00000000000E+00 0. -1.
</event>
<event>
 7    1  0.2542335E-015  0.9000768E+02  0.7816164E-02  0.1186339E+00
        -11   -1    0    0    0    0  0.00000000000E+00  0.00000000000E+00  0.45593999997E+02  0.45594000000E+02  0.51100000000E-03 0. -1.
         11   -1    0    0    0    0 -0.00000000000E+00 -0.00000000000E+00 -0.45593999997E+02  0.45594000000E+02  0.51100000000E-03 0.  1.
    9900012    2    1    2    0    0  0.41727289375E+00 -0.67872957776E+00  0.87083548599E+00  0.90007684385E+02  0.89999945019E+02 0.  0.
        -12    1    1    2    0    0 -0.41727289375E+00  0.67872957776E+00 -0.87083548599E+00  0.11803156151E+01  0.00000000000E+00 0.  1.
         11    1    3    3    0    0  0.15685696965E+02  0.22204378961E+02  0.24373643196E+02  0.36512326922E+02  0.51100000000E-03 0. -1.
        -11    1    3    3    0    0 -0.73620154388E+00  0.98706590834E+01 -0.12635572375E+02  0.16050843995E+02  0.51100000000E-03 0.  1.
        -12    1    3    3    0    0 -0.14532222528E+02 -0.32753767622E+02 -0.10867235335E+02  0.37444513468E+02  0.00000000000E+00 0.  1.
</event>
<event>
 7    1  0.2542335E-015  0.9000781E+02  0.7816164E-02  0.1186339E+00
        -11   -1    0    0    0    0  0.00000000000E+00  0.00000000000E+00  0.45593999997E+02  0.45594000000E+02  0.51100000000E-03 0. -1.
         11   -1    0    0    0    0 -0.00000000000E+00 -0.00000000000E+00 -0.45593999997E+02  0.45594000000E+02  0.51100000000E-03 0.  1.
    9900012    2    1    2    0    0 -0.34476966505E+00 -0.56173497723E+00  0.97899932933E+00  0.90007808493E+02  0.90000070765E+02 0.  0.
        -12    1    1    2    0    0  0.34476966505E+00  0.56173497723E+00 -0.97899932933E+00  0.11801915071E+01  0.00000000000E+00 0.  1.
         11    1    3    3    0    0 -0.36976593859E+01 -0.61227663413E+01  0.10255057167E-01  0.71526958576E+01  0.51100000000E-03 0. -1.
        -11    1    3    3    0    0  0.35912468890E+02  0.20102425697E+02 -0.14972545609E+02  0.43794863431E+02  0.51100000000E-03 0.  1.
         12    1    3    3    0    0 -0.32559579169E+02 -0.14541394333E+02  0.15941289881E+02  0.39060249204E+02  0.00000000000E+00 0. -1.
</event>
<event>
 7    1  0.2542335E-015  0.9000769E+02  0.7816164E-02  0.1186339E+00
        -11   -1    0    0    0    0  0.00000000000E+00  0.00000000000E+00  0.45593999997E+02  0.45594000000E+02  0.51100000000E-03 0. -1.
         11   -1    0    0    0    0 -0.00000000000E+00 -0.00000000000E+00 -0.45593999997E+02  0.45594000000E+02  0.51100000000E-03 0.  1.
    9900012    2    1    2    0    0 -0.23554898384E+00 -0.43935298199E-01  0.11557335121E+01  0.90007689200E+02  0.89999949897E+02 0.  0.
        -12    1    1    2    0    0  0.23554898384E+00  0.43935298199E-01 -0.11557335121E+01  0.11803108002E+01  0.00000000000E+00 0.  1.
         11    1    3    3    0    0 -0.36613580933E+02 -0.94196949828E+01  0.22380407089E+02  0.43933672553E+02  0.51100000000E-03 0. -1.
        -11    1    3    3    0    0  0.97302341013E+01 -0.34169014420E+01 -0.12267664523E+01  0.10385452678E+02  0.51100000000E-03 0.  1.
        -12    1    3    3    0    0  0.26647797847E+02  0.12792661127E+02 -0.19997907125E+02  0.35688563969E+02  0.00000000000E+00 0.  1.
</event>
<event>
 7    1  0.2542335E-015  0.9000772E+02  0.7816164E-02  0.1186339E+00
        -11   -1    0    0    0    0  0.00000000000E+00  0.00000000000E+00  0.45593999997E+02  0.45594000000E+02  0.51100000000E-03 0. -1.
         11   -1    0    0    0    0 -0.00000000000E+00 -0.00000000000E+00 -0.45593999997E+02  0.45594000000E+02  0.51100000000E-03 0.  1.
    9900012    2    1    2    0    0  0.14442929000E-01  0.11797656354E+01 -0.31848067645E-01  0.90007716198E+02  0.89999977252E+02 0.  0.
        -12    1    1    2    0    0 -0.14442929000E-01 -0.11797656354E+01  0.31848067645E-01  0.11802838015E+01  0.00000000000E+00 0.  1.
         11    1    3    3    0    0  0.42307926759E+01 -0.91766122969E+01  0.47043092817E+00  0.10115884807E+02  0.51100000000E-03 0. -1.
        -11    1    3    3    0    0  0.98681238831E+01  0.42918678886E+02  0.35600064570E+01  0.44182196782E+02  0.51100000000E-03 0.  1.
         12    1    3    3    0    0 -0.14084473630E+02 -0.32562300953E+02 -0.40622854528E+01  0.35709634609E+02  0.00000000000E+00 0. -1.
</event>
<event>
 7    1  0.2542335E-015  0.9000770E+02  0.7816164E-02  0.1186339E+00
        -11   -1    0    0    0    0  0.00000000000E+00  0.00000000000E+00  0.45593999997E+02  0.45594000000E+02  0.51100000000E-03 0. -1.
         11   -1    0    0    0    0 -0.00000000000E+00 -0.00000000000E+00 -0.45593999997E+02  0.45594000000E+02  0.51100000000E-03 0.  1.
    9900012    2    1    2    0    0 -0.26177217234E+00  0.11206056447E+01  0.26235426847E+00  0.90007698579E+02  0.89999959401E+02 0.  0.
        -12    1    1    2    0    0  0.26177217234E+00 -0.11206056447E+01 -0.26235426847E+00  0.11803014205E+01  0.00000000000E+00 0.  1.
         11    1    3    3    0    0 -0.11546792999E+01 -0.35638551525E+01 -0.15966399749E+02  0.16400008203E+02  0.51100000000E-03 0. -1.
        -11    1    3    3    0    0  0.20838759233E+02 -0.23040567565E+02  0.23169936412E+02  0.38755226663E+02  0.51100000000E-03 0.  1.
         12    1    3    3    0    0 -0.19945852106E+02  0.27725028362E+02 -0.69411823941E+01  0.34852463714E+02  0.00000000000E+00 0. -1.
</event>
<event>
 7    1  0.2542335E-015  0.9000785E+02  0.7816164E-02  0.1186339E+00
        -11   -1    0    0    0    0  0.00000000000E+00  0.00000000000E+00  0.45593999997E+02  0.45594000000E+02  0.51100000000E-03 0. -1.
         11   -1    0    0    0    0 -0.00000000000E+00 -0.00000000000E+00 -0.45593999997E+02  0.45594000000E+02  0.51100000000E-03 0.  1.
    9900012    2    1    2    0    0  0.10686470276E+01  0.45404267786E+00  0.21114340388E+00  0.90007854772E+02  0.90000117655E+02 0.  0.
        -12    1    1    2    0    0 -0.10686470276E+01 -0.45404267786E+00 -0.21114340388E+00  0.11801452283E+01  0.00000000000E+00 0.  1.
         11    1    3    3    0    0  0.97769303875E+01  0.17786197789E+01 -0.24503316215E+01  0.10235036953E+02  0.51100000000E-03 0. -1.
        -11    1    3    3    0    0 -0.19818396694E+02 -0.22887152422E+02 -0.27615092174E+02  0.40977846570E+02  0.51100000000E-03 0.  1.
         12    1    3    3    0    0  0.11110113334E+02  0.21562575321E+02  0.30276567199E+02  0.38794971248E+02  0.00000000000E+00 0. -1.
</event>
<event>
 7    1  0.2542335E-015  0.9000774E+02  0.7816164E-02  0.1186339E+00
        -11   -1    0    0    0    0  0.00000000000E+00  0.00000000000E+00  0.45593999997E+02  0.45594000000E+02  0.51100000000E-03 0. -1.
         11   -1    0    0    0    0 -0.00000000000E+00 -0.00000000000E+00 -0.45593999997E+02  0.45594000000E+02  0.51100000000E-03 0.  1.
    9900012    2    1    2    0    0  0.66811895636E+00  0.62735970492E+00 -0.74367209151E+00  0.90007740995E+02  0.90000002376E+02 0.  0.
        -12    1    1    2    0    0 -0.66811895636E+00 -0.62735970492E+00  0.74367209151E+00  0.11802590050E+01  0.00000000000E+00 0.  1.
         11    1    3    3    0    0  0.62218385671E+01 -0.37743093782E+02  0.62947359982E+01  0.38766946036E+02  0.51100000000E-03 0. -1.
        -11    1    3    3    0    0  0.32241538770E+01 -0.24522791848E+01 -0.85463858014E+01  0.94577773261E+01  0.51100000000E-03 0.  1.
        -12    1    3    3    0    0 -0.87778734878E+01  0.40822732672E+02  0.15079777116E+01  0.41783017633E+02  0.00000000000E+00 0.  1.
</event>
<event>
 7    1  0.2542335E-015  0.9000781E+02  0.7816164E-02  0.1186339E+00
        -11   -1    0    0    0    0  0.00000000000E+00  0.00000000000E+00  0.45593999997E+02  0.45594000000E+02  0.51100000000E-03 0. -1.
         11   -1    0    0    0    0 -0.00000000000E+00 -0.00000000000E+00 -0.45593999997E+02  0.45594000000E+02  0.51100000000E-03 0.  1.
    9900012    2    1    2    0    0 -0.69275587758E+00  0.85521751860E+00 -0.42607501939E+00  0.90007810341E+02  0.90000072637E+02 0.  0.
        -12    1    1    2    0    0  0.69275587758E+00 -0.85521751860E+00  0.42607501939E+00  0.11801896594E+01  0.00000000000E+00 0.  1.
         11    1    3    3    0    0  0.31915213304E+01 -0.11526158483E+02  0.36631789059E+01  0.12508277968E+02  0.51100000000E-03 0. -1.
        -11    1    3    3    0    0 -0.70522819865E+01 -0.18131264344E+02 -0.31061863983E+02  0.36651286775E+02  0.51100000000E-03 0.  1.
         12    1    3    3    0    0  0.31680047786E+01  0.30512640345E+02  0.26972610057E+02  0.40848245598E+02  0.00000000000E+00 0. -1.
</event>
<event>
 7    1  0.2542335E-015  0.9000786E+02  0.7816164E-02  0.1186339E+00
        -11   -1    0    0    0    0  0.00000000000E+00  0.00000000000E+00  0.45593999997E+02  0.45594000000E+02  0.51100000000E-03 0.  1.
         11   -1    0    0    0    0 -0.00000000000E+00 -0.00000000000E+00 -0.45593999997E+02  0.45594000000E+02  0.51100000000E-03 0. -1.
    9900012    2    1    2    0    0  0.18700246247E+00  0.22036017644E+00 -0.11442085266E+01  0.90007855229E+02  0.90000118118E+02 0.  0.
        -12    1    1    2    0    0 -0.18700246247E+00 -0.22036017644E+00  0.11442085266E+01  0.11801447711E+01  0.00000000000E+00 0.  1.
         11    1    3    3    0    0  0.15272245285E+01  0.16149193051E+01  0.97840137258E+01  0.10033309722E+02  0.51100000000E-03 0. -1.
        -11    1    3    3    0    0  0.14258493395E+02  0.31305836428E+02  0.12756887005E+02  0.36689210876E+02  0.51100000000E-03 0.  1.
         12    1    3    3    0    0 -0.15598715461E+02 -0.32700395557E+02 -0.23685109258E+02  0.43285334631E+02  0.00000000000E+00 0. -1.
</event>
<event>
 8    1  0.2542335E-015  0.9000772E+02  0.7816164E-02  0.1186339E+00
        -11   -1    0    0    0    0  0.00000000000E+00  0.00000000000E+00  0.45593999997E+02  0.45594000000E+02  0.51100000000E-03 0. -1.
         11   -1    0    0    0    0 -0.00000000000E+00 -0.00000000000E+00 -0.45593999997E+02  0.45594000000E+02  0.51100000000E-03 0.  1.
    9900012    2    1    2    0    0  0.28583973858E+00  0.66040966177E+00  0.93552514806E+00  0.90007723515E+02  0.89999984666E+02 0.  0.
         23    2    3    3    0    0 -0.62783734705E+01  0.45698476802E+01 -0.24307844336E+02  0.63633487913E+02  0.58292778339E+02 0.  0.
        -12    1    1    2    0    0 -0.28583973858E+00 -0.66040966177E+00 -0.93552514806E+00  0.11802764846E+01  0.00000000000E+00 0.  1.
         11    1    4    4    0    0 -0.25073487988E+02 -0.93228875382E+01  0.38643875992E+01  0.27028309672E+02  0.51100000000E-03 0. -1.
        -11    1    4    4    0    0  0.18795114518E+02  0.13892735218E+02 -0.28172231935E+02  0.36605178241E+02  0.51100000000E-03 0.  1.
         12    1    3    3    0    0  0.65642132091E+01 -0.39094380184E+01  0.25243369484E+02  0.26374235602E+02  0.00000000000E+00 0. -1.
</event>
<event>
 7    1  0.2542335E-015  0.9000763E+02  0.7816164E-02  0.1186339E+00
        -11   -1    0    0    0    0  0.00000000000E+00  0.00000000000E+00  0.45593999997E+02  0.45594000000E+02  0.51100000000E-03 0.  1.
         11   -1    0    0    0    0 -0.00000000000E+00 -0.00000000000E+00 -0.45593999997E+02  0.45594000000E+02  0.51100000000E-03 0. -1.
    9900012    2    1    2    0    0  0.79374724544E-01 -0.80787465581E+00 -0.85691366377E+00  0.90007634449E+02  0.89999894424E+02 0.  0.
        -12    1    1    2    0    0 -0.79374724544E-01  0.80787465581E+00  0.85691366377E+00  0.11803655508E+01  0.00000000000E+00 0.  1.
         11    1    3    3    0    0  0.33573007528E+02 -0.55581052070E+01 -0.14637030598E+02  0.37044325246E+02  0.51100000000E-03 0. -1.
        -11    1    3    3    0    0  0.98986020185E+00 -0.55260717403E+01 -0.88325411117E+01  0.10465709477E+02  0.51100000000E-03 0.  1.
        -12    1    3    3    0    0 -0.34483493005E+02  0.10276302291E+02  0.22612658046E+02  0.42497599727E+02  0.00000000000E+00 0.  1.
</event>
<event>
 7    1  0.2542335E-015  0.9000775E+02  0.7816164E-02  0.1186339E+00
        -11   -1    0    0    0    0  0.00000000000E+00  0.00000000000E+00  0.45593999997E+02  0.45594000000E+02  0.51100000000E-03 0.  1.
         11   -1    0    0    0    0 -0.00000000000E+00 -0.00000000000E+00 -0.45593999997E+02  0.45594000000E+02  0.51100000000E-03 0. -1.
    9900012    2    1    2    0    0 -0.73436701549E+00 -0.11164931615E+00 -0.91718237200E+00  0.90007752574E+02  0.90000014108E+02 0.  0.
        -12    1    1    2    0    0  0.73436701549E+00  0.11164931615E+00  0.91718237200E+00  0.11802474261E+01  0.00000000000E+00 0.  1.
         11    1    3    3    0    0  0.71750222328E+01 -0.22555177174E+02 -0.28879053314E+02  0.37339211052E+02  0.51100000000E-03 0. -1.
        -11    1    3    3    0    0 -0.55179169290E+01 -0.96764926499E+01  0.20406935533E+01  0.11324590398E+02  0.51100000000E-03 0.  1.
        -12    1    3    3    0    0 -0.23914723194E+01  0.32120020508E+02  0.25921177389E+02  0.41343951124E+02  0.00000000000E+00 0.  1.
</event>
<event>
 7    1  0.2542335E-015  0.9000779E+02  0.7816164E-02  0.1186339E+00
        -11   -1    0    0    0    0  0.00000000000E+00  0.00000000000E+00  0.45593999997E+02  0.45594000000E+02  0.51100000000E-03 0. -1.
         11   -1    0    0    0    0 -0.00000000000E+00 -0.00000000000E+00 -0.45593999997E+02  0.45594000000E+02  0.51100000000E-03 0.  1.
    9900012    2    1    2    0    0  0.14198413353E+00  0.11665239660E+01  0.10937750860E+00  0.90007787690E+02  0.90000049687E+02 0.  0.
        -12    1    1    2    0    0 -0.14198413353E+00 -0.11665239660E+01 -0.10937750860E+00  0.11802123100E+01  0.00000000000E+00 0.  1.
         11    1    3    3    0    0 -0.13551766348E+02  0.25824168926E+02 -0.17036907109E+02  0.33775646196E+02  0.51100000000E-03 0. -1.
        -11    1    3    3    0    0 -0.24969612730E+01  0.82007399229E+01 -0.80602135609E+01  0.11766647517E+02  0.51100000000E-03 0.  1.
        -12    1    3    3    0    0  0.16190711755E+02 -0.32858384883E+02  0.25206498178E+02  0.44465493977E+02  0.00000000000E+00 0.  1.
</event>
<event>
 7    1  0.2542335E-015  0.9000767E+02  0.7816164E-02  0.1186339E+00
        -11   -1    0    0    0    0  0.00000000000E+00  0.00000000000E+00  0.45593999997E+02  0.45594000000E+02  0.51100000000E-03 0. -1.
         11   -1    0    0    0    0 -0.00000000000E+00 -0.00000000000E+00 -0.45593999997E+02  0.45594000000E+02  0.51100000000E-03 0.  1.
    9900012    2    1    2    0    0 -0.10115983779E+01 -0.60813385488E+00  0.34390538367E-02  0.90007673820E+02  0.89999934315E+02 0.  0.
        -12    1    1    2    0    0  0.10115983779E+01  0.60813385488E+00 -0.34390538367E-02  0.11803261798E+01  0.00000000000E+00 0.  1.
         11    1    3    3    0    0 -0.32756607842E+02 -0.51669316973E+01 -0.30058439555E+02  0.44757148359E+02  0.51100000000E-03 0. -1.
        -11    1    3    3    0    0  0.65189891480E+01 -0.32662084407E+01  0.50039771461E+01  0.88433661368E+01  0.51100000000E-03 0.  1.
        -12    1    3    3    0    0  0.25226020316E+02  0.78250062831E+01  0.25057901463E+02  0.36407159324E+02  0.00000000000E+00 0.  1.
</event>
<event>
 7    1  0.2542335E-015  0.9000780E+02  0.7816164E-02  0.1186339E+00
        -11   -1    0    0    0    0  0.00000000000E+00  0.00000000000E+00  0.45593999997E+02  0.45594000000E+02  0.51100000000E-03 0. -1.
         11   -1    0    0    0    0 -0.00000000000E+00 -0.00000000000E+00 -0.45593999997E+02  0.45594000000E+02  0.51100000000E-03 0.  1.
    9900012    2    1    2    0    0 -0.40631547270E+00  0.33531011800E+00  0.10561014334E+01  0.90007798587E+02  0.90000060728E+02 0.  0.
        -12    1    1    2    0    0  0.40631547270E+00 -0.33531011800E+00 -0.10561014334E+01  0.11802014134E+01  0.00000000000E+00 0.  1.
         11    1    3    3    0    0 -0.37946091218E+02  0.45005754488E+01  0.63890435565E+01  0.38742494704E+02  0.51100000000E-03 0. -1.
        -11    1    3    3    0    0  0.30974188665E+01  0.11853493522E+02  0.24421185292E+01  0.12492527986E+02  0.51100000000E-03 0.  1.
        -12    1    3    3    0    0  0.34442356879E+02 -0.16018758853E+02 -0.77750606523E+01  0.38772775896E+02  0.00000000000E+00 0.  1.
</event>
<event>
 7    1  0.2542335E-015  0.9000765E+02  0.7816164E-02  0.1186339E+00
        -11   -1    0    0    0    0  0.00000000000E+00  0.00000000000E+00  0.45593999997E+02  0.45594000000E+02  0.51100000000E-03 0.  1.
         11   -1    0    0    0    0 -0.00000000000E+00 -0.00000000000E+00 -0.45593999997E+02  0.45594000000E+02  0.51100000000E-03 0. -1.
    9900012    2    1    2    0    0 -0.38174324545E+00  0.10127745035E+01  0.47094266822E+00  0.90007649587E+02  0.89999909762E+02 0.  0.
        -12    1    1    2    0    0  0.38174324545E+00 -0.10127745035E+01 -0.47094266822E+00  0.11803504128E+01  0.00000000000E+00 0.  1.
         11    1    3    3    0    0 -0.29688533341E+02 -0.17791138228E+02 -0.22391951375E+02  0.41222968088E+02  0.51100000000E-03 0. -1.
        -11    1    3    3    0    0  0.72699083696E+01 -0.45969058889E+01 -0.11280288019E+01  0.86749962935E+01  0.51100000000E-03 0.  1.
        -12    1    3    3    0    0  0.22036881726E+02  0.23400818620E+02  0.23990922845E+02  0.40109685205E+02  0.00000000000E+00 0.  1.
</event>
<event>
 7    1  0.2542335E-015  0.9000780E+02  0.7816164E-02  0.1186339E+00
        -11   -1    0    0    0    0  0.00000000000E+00  0.00000000000E+00  0.45593999997E+02  0.45594000000E+02  0.51100000000E-03 0. -1.
         11   -1    0    0    0    0 -0.00000000000E+00 -0.00000000000E+00 -0.45593999997E+02  0.45594000000E+02  0.51100000000E-03 0.  1.
    9900012    2    1    2    0    0 -0.85776367921E+00 -0.79031692736E+00 -0.18028559825E+00  0.90007804138E+02  0.90000066353E+02 0.  0.
        -12    1    1    2    0    0  0.85776367921E+00  0.79031692736E+00  0.18028559825E+00  0.11801958617E+01  0.00000000000E+00 0.  1.
         11    1    3    3    0    0 -0.13628226849E+02  0.31541703972E+02 -0.12477670742E+02  0.36555436311E+02  0.51100000000E-03 0. -1.
        -11    1    3    3    0    0  0.89973807556E-01  0.64151978144E+01 -0.59826324269E+01  0.87723856105E+01  0.51100000000E-03 0.  1.
        -12    1    3    3    0    0  0.12680489362E+02 -0.38747218714E+02  0.18280017570E+02  0.44679982217E+02  0.00000000000E+00 0.  1.
</event>
<event>
 8    1  0.2542335E-015  0.9000785E+02  0.7816164E-02  0.1186339E+00
        -11   -1    0    0    0    0  0.00000000000E+00  0.00000000000E+00  0.45593999997E+02  0.45594000000E+02  0.51100000000E-03 0.  1.
         11   -1    0    0    0    0 -0.00000000000E+00 -0.00000000000E+00 -0.45593999997E+02  0.45594000000E+02  0.51100000000E-03 0. -1.
    9900012    2    1    2    0    0  0.15083702234E+00  0.11367848497E+01  0.27879868831E+00  0.90007847336E+02  0.90000110121E+02 0.  0.
         23    2    3    3    0    0  0.81279329349E+01 -0.25084986089E+02 -0.23473500666E+01  0.62474013828E+02  0.56587741875E+02 0.  0.
        -12    1    1    2    0    0 -0.15083702234E+00 -0.11367848497E+01 -0.27879868831E+00  0.11801526640E+01  0.00000000000E+00 0.  1.
         11    1    4    4    0    0  0.53479552431E+01 -0.28892840729E+02 -0.25463665753E+02  0.38881809944E+02  0.51100000000E-03 0. -1.
        -11    1    4    4    0    0  0.27799776917E+01  0.38078546400E+01  0.23116315686E+02  0.23592203884E+02  0.51100000000E-03 0.  1.
        -12    1    3    3    0    0 -0.79770959125E+01  0.26221770939E+02  0.26261487549E+01  0.27533833508E+02  0.00000000000E+00 0.  1.
</event>
<event>
 7    1  0.2542335E-015  0.9000781E+02  0.7816164E-02  0.1186339E+00
        -11   -1    0    0    0    0  0.00000000000E+00  0.00000000000E+00  0.45593999997E+02  0.45594000000E+02  0.51100000000E-03 0. -1.
         11   -1    0    0    0    0 -0.00000000000E+00 -0.00000000000E+00 -0.45593999997E+02  0.45594000000E+02  0.51100000000E-03 0.  1.
    9900012    2    1    2    0    0  0.46994036130E+00  0.10121828300E+01 -0.38403410193E+00  0.90007813483E+02  0.90000075820E+02 0.  0.
        -12    1    1    2    0    0 -0.46994036130E+00 -0.10121828300E+01  0.38403410193E+00  0.11801865175E+01  0.00000000000E+00 0.  1.
         11    1    3    3    0    0  0.33428204573E+01 -0.41021953505E+02 -0.71490747060E+01  0.41774207202E+02  0.51100000000E-03 0. -1.
        -11    1    3    3    0    0  0.44719612060E+01  0.51655401068E+01 -0.54135012690E+01  0.87170658982E+01  0.51100000000E-03 0.  1.
        -12    1    3    3    0    0 -0.73448413020E+01  0.36868596228E+02  0.12178541873E+02  0.39516540382E+02  0.00000000000E+00 0.  1.
</event>
<event>
 7    1  0.2542335E-015  0.9000697E+02  0.7816164E-02  0.1186341E+00
        -11   -1    0    0    0    0  0.00000000000E+00  0.00000000000E+00  0.45593999997E+02  0.45594000000E+02  0.51100000000E-03 0. -1.
         11   -1    0    0    0    0 -0.00000000000E+00 -0.00000000000E+00 -0.45593999997E+02  0.45594000000E+02  0.51100000000E-03 0.  1.
    9900012    2    1    2    0    0 -0.71422519413E+00  0.49443320737E+00 -0.80015545071E+00  0.90006970547E+02  0.89999221754E+02 0.  0.
        -12    1    1    2    0    0  0.71422519413E+00 -0.49443320737E+00  0.80015545071E+00  0.11810294534E+01  0.00000000000E+00 0.  1.
         11    1    3    3    0    0 -0.60381259161E+01  0.96545796566E+01 -0.56011718113E+01  0.12690271819E+02  0.51100000000E-03 0. -1.
        -11    1    3    3    0    0 -0.13594493006E+02  0.14319818069E+02 -0.27028370775E+02  0.33472380504E+02  0.51100000000E-03 0.  1.
         12    1    3    3    0    0  0.18918393728E+02 -0.23479964519E+02  0.31829387135E+02  0.43844318223E+02  0.00000000000E+00 0. -1.
</event>
<event>
 7    1  0.2542335E-015  0.9000775E+02  0.7816164E-02  0.1186339E+00
        -11   -1    0    0    0    0  0.00000000000E+00  0.00000000000E+00  0.45593999997E+02  0.45594000000E+02  0.51100000000E-03 0.  1.
         11   -1    0    0    0    0 -0.00000000000E+00 -0.00000000000E+00 -0.45593999997E+02  0.45594000000E+02  0.51100000000E-03 0. -1.
    9900012    2    1    2    0    0  0.76005536130E+00 -0.90269596344E+00  0.20927137546E-01  0.90007753373E+02  0.90000014918E+02 0.  0.
        -12    1    1    2    0    0 -0.76005536130E+00  0.90269596344E+00 -0.20927137546E-01  0.11802466267E+01  0.00000000000E+00 0.  1.
         11    1    3    3    0    0  0.22087629449E+02 -0.28262179773E+02  0.66220442159E+01  0.36475548661E+02  0.51100000000E-03 0. -1.
        -11    1    3    3    0    0 -0.12870555862E+02  0.62321890554E+01  0.15999915932E+02  0.21459000413E+02  0.51100000000E-03 0.  1.
         12    1    3    3    0    0 -0.84570182256E+01  0.21127294755E+02 -0.22601033010E+02  0.32073204300E+02  0.00000000000E+00 0. -1.
</event>
<event>
 7    1  0.2542335E-015  0.9000776E+02  0.7816164E-02  0.1186339E+00
        -11   -1    0    0    0    0  0.00000000000E+00  0.00000000000E+00  0.45593999997E+02  0.45594000000E+02  0.51100000000E-03 0.  1.
         11   -1    0    0    0    0 -0.00000000000E+00 -0.00000000000E+00 -0.45593999997E+02  0.45594000000E+02  0.51100000000E-03 0. -1.
    9900012    2    1    2    0    0  0.86457524378E+00 -0.72882694959E+00 -0.33805431480E+00  0.90007762823E+02  0.90000024492E+02 0.  0.
        -12    1    1    2    0    0 -0.86457524378E+00  0.72882694959E+00  0.33805431480E+00  0.11802371772E+01  0.00000000000E+00 0.  1.
         11    1    3    3    0    0 -0.42479142910E+02  0.84839134387E+01  0.93698734825E+01  0.44319847686E+02  0.51100000000E-03 0. -1.
        -11    1    3    3    0    0  0.84301569157E+01 -0.31357266845E+01 -0.20236706347E+00  0.89967371948E+01  0.51100000000E-03 0.  1.
        -12    1    3    3    0    0  0.34913561238E+02 -0.60770137038E+01 -0.95055607338E+01  0.36691177942E+02  0.00000000000E+00 0.  1.
</event>
<event>
 7    1  0.2542335E-015  0.9000781E+02  0.7816164E-02  0.1186339E+00
        -11   -1    0    0    0    0  0.00000000000E+00  0.00000000000E+00  0.45593999997E+02  0.45594000000E+02  0.51100000000E-03 0.  1.
         11   -1    0    0    0    0 -0.00000000000E+00 -0.00000000000E+00 -0.45593999997E+02  0.45594000000E+02  0.51100000000E-03 0. -1.
    9900012    2    1    2    0    0 -0.72242651839E+00  0.62149754858E+00 -0.69619914556E+00  0.90007808267E+02  0.90000070536E+02 0.  0.
        -12    1    1    2    0    0  0.72242651839E+00 -0.62149754858E+00  0.69619914556E+00  0.11801917334E+01  0.00000000000E+00 0.  1.
         11    1    3    3    0    0 -0.52459256734E+01  0.89329254740E+00 -0.12291407392E+02  0.13393894269E+02  0.51100000000E-03 0. -1.
        -11    1    3    3    0    0 -0.22328435138E+02 -0.16191969218E+02 -0.18533049403E+02  0.33229697611E+02  0.51100000000E-03 0.  1.
         12    1    3    3    0    0  0.26851934293E+02  0.15920174219E+02  0.30128257650E+02  0.43384216386E+02  0.00000000000E+00 0. -1.
</event>
<event>
 7    1  0.2542335E-015  0.9000773E+02  0.7816164E-02  0.1186339E+00
        -11   -1    0    0    0    0  0.00000000000E+00  0.00000000000E+00  0.45593999997E+02  0.45594000000E+02  0.51100000000E-03 0. -1.
         11   -1    0    0    0    0 -0.00000000000E+00 -0.00000000000E+00 -0.45593999997E+02  0.45594000000E+02  0.51100000000E-03 0.  1.
    9900012    2    1    2    0    0  0.70361586596E+00 -0.34371495885E+00  0.88307044646E+00  0.90007733643E+02  0.89999994927E+02 0.  0.
        -12    1    1    2    0    0 -0.70361586596E+00  0.34371495885E+00 -0.88307044646E+00  0.11802663569E+01  0.00000000000E+00 0.  1.
         11    1    3    3    0    0 -0.11565879066E+02 -0.50268628026E+01 -0.29606146657E+01  0.12953924026E+02  0.51100000000E-03 0. -1.
        -11    1    3    3    0    0 -0.11992790206E+02 -0.30793267424E+02 -0.42516466180E+01  0.33318595931E+02  0.51100000000E-03 0.  1.
         12    1    3    3    0    0  0.24262285138E+02  0.35476415268E+02  0.80953317302E+01  0.43735213686E+02  0.00000000000E+00 0. -1.
</event>
<event>
 7    1  0.2542335E-015  0.9000781E+02  0.7816164E-02  0.1186339E+00
        -11   -1    0    0    0    0  0.00000000000E+00  0.00000000000E+00  0.45593999997E+02  0.45594000000E+02  0.51100000000E-03 0. -1.
         11   -1    0    0    0    0 -0.00000000000E+00 -0.00000000000E+00 -0.45593999997E+02  0.45594000000E+02  0.51100000000E-03 0.  1.
    9900012    2    1    2    0    0 -0.11170468177E+00  0.11364347820E+01  0.29812899525E+00  0.90007812368E+02  0.90000074691E+02 0.  0.
        -12    1    1    2    0    0  0.11170468177E+00 -0.11364347820E+01 -0.29812899525E+00  0.11801876323E+01  0.00000000000E+00 0.  1.
         11    1    3    3    0    0  0.30947202228E+02 -0.20613956056E+02  0.13492353749E+02  0.39556391645E+02  0.51100000000E-03 0. -1.
        -11    1    3    3    0    0  0.52944479447E+01  0.34208815298E+01  0.25508339956E+01  0.68000267511E+01  0.51100000000E-03 0.  1.
        -12    1    3    3    0    0 -0.36353354855E+02  0.18329509308E+02 -0.15745058749E+02  0.43651393972E+02  0.00000000000E+00 0.  1.
</event>
<event>
 7    1  0.2542335E-015  0.9000775E+02  0.7816164E-02  0.1186339E+00
        -11   -1    0    0    0    0  0.00000000000E+00  0.00000000000E+00  0.45593999997E+02  0.45594000000E+02  0.51100000000E-03 0.  1.
         11   -1    0    0    0    0 -0.00000000000E+00 -0.00000000000E+00 -0.45593999997E+02  0.45594000000E+02  0.51100000000E-03 0. -1.
    9900012    2    1    2    0    0  0.24721157423E+00 -0.51610442076E-01 -0.11529106530E+01  0.90007754189E+02  0.90000015744E+02 0.  0.
        -12    1    1    2    0    0 -0.24721157423E+00  0.51610442076E-01  0.11529106530E+01  0.11802458109E+01  0.00000000000E+00 0.  1.
         11    1    3    3    0    0 -0.68752389668E-01 -0.51777316026E+01 -0.18782787492E+01  0.55083175980E+01  0.51100000000E-03 0. -1.
        -11    1    3    3    0    0  0.42318879269E+02  0.32727839394E+01 -0.19080391029E+00  0.42445671907E+02  0.51100000000E-03 0.  1.
         12    1    3    3    0    0 -0.42002915305E+02  0.18533372212E+01  0.91617200644E+00  0.42053764684E+02  0.00000000000E+00 0. -1.
</event>
<event>
 7    1  0.2734139E-015  0.9000774E+02  0.7816164E-02  0.1186339E+00
        -11   -1    0    0    0    0  0.00000000000E+00  0.00000000000E+00  0.45593999997E+02  0.45594000000E+02  0.51100000000E-03 0. -1.
         11   -1    0    0    0    0 -0.00000000000E+00 -0.00000000000E+00 -0.45593999997E+02  0.45594000000E+02  0.51100000000E-03 0.  1.
    9900012    2    1    2    0    0 -0.33911460166E+00  0.37335677902E+00  0.10670652085E+01  0.90007736404E+02  0.89999997724E+02 0.  0.
        -12    1    1    2    0    0  0.33911460166E+00 -0.37335677902E+00 -0.10670652085E+01  0.11802635963E+01  0.00000000000E+00 0.  1.
         11    1    3    3    0    0  0.61997824966E+01 -0.68615296434E+01  0.18750460381E+00  0.92494891908E+01  0.51100000000E-03 0. -1.
        -11    1    3    3    0    0  0.12916370792E+02 -0.33304139185E+02 -0.12390223377E+01  0.35742600604E+02  0.51100000000E-03 0.  1.
         12    1    3    3    0    0 -0.19455267890E+02  0.40539025608E+02  0.21185829424E+01  0.45015646609E+02  0.00000000000E+00 0. -1.
</event>
<event>
 7    1  0.2542335E-015  0.9000778E+02  0.7816164E-02  0.1186339E+00
        -11   -1    0    0    0    0  0.00000000000E+00  0.00000000000E+00  0.45593999997E+02  0.45594000000E+02  0.51100000000E-03 0. -1.
         11   -1    0    0    0    0 -0.00000000000E+00 -0.00000000000E+00 -0.45593999997E+02  0.45594000000E+02  0.51100000000E-03 0.  1.
    9900012    2    1    2    0    0  0.87039402085E-01 -0.77788903213E+00  0.88330565998E+00  0.90007781337E+02  0.90000043251E+02 0.  0.
        -12    1    1    2    0    0 -0.87039402085E-01  0.77788903213E+00 -0.88330565998E+00  0.11802186631E+01  0.00000000000E+00 0.  1.
         11    1    3    3    0    0 -0.30057329388E+02 -0.81335457536E+01 -0.23495778935E+02  0.39008322760E+02  0.51100000000E-03 0. -1.
        -11    1    3    3    0    0  0.84939874630E+00  0.69217072564E+01 -0.57022311648E+01  0.90081601946E+01  0.51100000000E-03 0.  1.
        -12    1    3    3    0    0  0.29294970044E+02  0.43394946513E+00  0.30081315760E+02  0.41991298383E+02  0.00000000000E+00 0.  1.
</event>
<event>
 7    1  0.2542335E-015  0.9000774E+02  0.7816164E-02  0.1186339E+00
        -11   -1    0    0    0    0  0.00000000000E+00  0.00000000000E+00  0.45593999997E+02  0.45594000000E+02  0.51100000000E-03 0.  1.
         11   -1    0    0    0    0 -0.00000000000E+00 -0.00000000000E+00 -0.45593999997E+02  0.45594000000E+02  0.51100000000E-03 0. -1.
    9900012    2    1    2    0    0  0.10765514642E+01  0.61023352971E-02 -0.48375471577E+00  0.90007737775E+02  0.89999999114E+02 0.  0.
        -12    1    1    2    0    0 -0.10765514642E+01 -0.61023352971E-02  0.48375471577E+00  0.11802622245E+01  0.00000000000E+00 0.  1.
         11    1    3    3    0    0  0.25156915522E+02 -0.11602441313E+02 -0.24970094599E+02  0.37296014097E+02  0.51100000000E-03 0. -1.
        -11    1    3    3    0    0  0.84383990737E+01  0.25060591222E+01 -0.28634991630E+01  0.92567023808E+01  0.51100000000E-03 0.  1.
        -12    1    3    3    0    0 -0.32518763131E+02  0.91024845257E+01  0.27349839046E+02  0.43455021298E+02  0.00000000000E+00 0.  1.
</event>
<event>
 7    1  0.2542335E-015  0.9000776E+02  0.7816164E-02  0.1186339E+00
        -11   -1    0    0    0    0  0.00000000000E+00  0.00000000000E+00  0.45593999997E+02  0.45594000000E+02  0.51100000000E-03 0.  1.
         11   -1    0    0    0    0 -0.00000000000E+00 -0.00000000000E+00 -0.45593999997E+02  0.45594000000E+02  0.51100000000E-03 0. -1.
    9900012    2    1    2    0    0 -0.42613824324E+00  0.10389383123E+01 -0.36330569496E+00  0.90007755260E+02  0.90000016829E+02 0.  0.
        -12    1    1    2    0    0  0.42613824324E+00 -0.10389383123E+01  0.36330569496E+00  0.11802447403E+01  0.00000000000E+00 0.  1.
         11    1    3    3    0    0  0.79430835732E+01  0.32236975980E+02  0.11064825394E+02  0.34996364929E+02  0.51100000000E-03 0. -1.
        -11    1    3    3    0    0  0.74866465800E+01  0.75513306803E+01  0.24335413897E+01  0.10908464421E+02  0.51100000000E-03 0.  1.
        -12    1    3    3    0    0 -0.15855868396E+02 -0.38749368348E+02 -0.13861672479E+02  0.44102925910E+02  0.00000000000E+00 0.  1.
</event>
<event>
 7    1  0.2542335E-015  0.9000790E+02  0.7816164E-02  0.1186339E+00
        -11   -1    0    0    0    0  0.00000000000E+00  0.00000000000E+00  0.45593999997E+02  0.45594000000E+02  0.51100000000E-03 0.  1.
         11   -1    0    0    0    0 -0.00000000000E+00 -0.00000000000E+00 -0.45593999997E+02  0.45594000000E+02  0.51100000000E-03 0. -1.
    9900012    2    1    2    0    0 -0.73627640686E+00  0.33665607177E+00 -0.85860691100E+00  0.90007895731E+02  0.90000159155E+02 0.  0.
        -12    1    1    2    0    0  0.73627640686E+00 -0.33665607177E+00  0.85860691100E+00  0.11801042689E+01  0.00000000000E+00 0.  1.
         11    1    3    3    0    0 -0.44829464929E+01 -0.57073872371E+01 -0.74880058667E+01  0.10427910167E+02  0.51100000000E-03 0. -1.
        -11    1    3    3    0    0  0.39837798383E+02  0.10757049562E+02 -0.45241716196E+01  0.41511834751E+02  0.51100000000E-03 0.  1.
         12    1    3    3    0    0 -0.36091128297E+02 -0.47130062532E+01  0.11153570575E+02  0.38068150813E+02  0.00000000000E+00 0. -1.
</event>
<event>
 7    1  0.2542335E-015  0.9000773E+02  0.7816164E-02  0.1186339E+00
        -11   -1    0    0    0    0  0.00000000000E+00  0.00000000000E+00  0.45593999997E+02  0.45594000000E+02  0.51100000000E-03 0.  1.
         11   -1    0    0    0    0 -0.00000000000E+00 -0.00000000000E+00 -0.45593999997E+02  0.45594000000E+02  0.51100000000E-03 0. -1.
    9900012    2    1    2    0    0  0.86881890801E+00  0.78578954224E+00  0.14394071925E+00  0.90007732899E+02  0.89999994173E+02 0.  0.
        -12    1    1    2    0    0 -0.86881890801E+00 -0.78578954224E+00 -0.14394071925E+00  0.11802671012E+01  0.00000000000E+00 0.  1.
         11    1    3    3    0    0  0.83586529996E+01  0.22740706291E+01  0.18796617698E+01  0.88640626027E+01  0.51100000000E-03 0. -1.
        -11    1    3    3    0    0  0.17433554817E+02 -0.29432153219E+02  0.18173766686E+02  0.38735852546E+02  0.51100000000E-03 0.  1.
         12    1    3    3    0    0 -0.24923388909E+02  0.27943872132E+02 -0.19909487736E+02  0.42407817750E+02  0.00000000000E+00 0. -1.
</event>
<event>
 7    1  0.2542335E-015  0.9000771E+02  0.7816164E-02  0.1186339E+00
        -11   -1    0    0    0    0  0.00000000000E+00  0.00000000000E+00  0.45593999997E+02  0.45594000000E+02  0.51100000000E-03 0. -1.
         11   -1    0    0    0    0 -0.00000000000E+00 -0.00000000000E+00 -0.45593999997E+02  0.45594000000E+02  0.51100000000E-03 0.  1.
    9900012    2    1    2    0    0  0.43964119101E+00 -0.75130421130E+00  0.79708225072E+00  0.90007710837E+02  0.89999971820E+02 0.  0.
        -12    1    1    2    0    0 -0.43964119101E+00  0.75130421130E+00 -0.79708225072E+00  0.11802891634E+01  0.00000000000E+00 0.  1.
         11    1    3    3    0    0 -0.32598348770E+02 -0.20683625054E+02  0.20735101579E+01  0.38662179614E+02  0.51100000000E-03 0. -1.
        -11    1    3    3    0    0  0.59476948406E+01 -0.77002802569E+01  0.67281113829E+01  0.11829491663E+02  0.51100000000E-03 0.  1.
        -12    1    3    3    0    0  0.27090295120E+02  0.27632601100E+02 -0.80045392901E+01  0.39516039560E+02  0.00000000000E+00 0.  1.
</event>
<event>
 7    1  0.2542335E-015  0.9000816E+02  0.7816164E-02  0.1186338E+00
        -11   -1    0    0    0    0  0.00000000000E+00  0.00000000000E+00  0.45593999997E+02  0.45594000000E+02  0.51100000000E-03 0.  1.
         11   -1    0    0    0    0 -0.00000000000E+00 -0.00000000000E+00 -0.45593999997E+02  0.45594000000E+02  0.51100000000E-03 0. -1.
    9900012    2    1    2    0    0  0.17482060960E+00  0.39942072802E+00 -0.10963240072E+01  0.90008158700E+02  0.90000425594E+02 0.  0.
        -12    1    1    2    0    0 -0.17482060960E+00 -0.39942072802E+00  0.10963240072E+01  0.11798412997E+01  0.00000000000E+00 0.  1.
         11    1    3    3    0    0 -0.21868399697E+02 -0.13167337692E+02  0.33350544886E+02  0.41998387251E+02  0.51100000000E-03 0. -1.
        -11    1    3    3    0    0 -0.16264628859E+01  0.81868320898E+01 -0.45724309712E+01  0.95171805926E+01  0.51100000000E-03 0.  1.
        -12    1    3    3    0    0  0.23669683193E+02  0.53799263305E+01 -0.29874437922E+02  0.38492590857E+02  0.00000000000E+00 0.  1.
</event>
<event>
 7    1  0.2542335E-015  0.9000775E+02  0.7816164E-02  0.1186339E+00
        -11   -1    0    0    0    0  0.00000000000E+00  0.00000000000E+00  0.45593999997E+02  0.45594000000E+02  0.51100000000E-03 0.  1.
         11   -1    0    0    0    0 -0.00000000000E+00 -0.00000000000E+00 -0.45593999997E+02  0.45594000000E+02  0.51100000000E-03 0. -1.
    9900012    2    1    2    0    0 -0.49014800237E+00  0.92789372164E+00 -0.54014627671E+00  0.90007750101E+02  0.90000011603E+02 0.  0.
        -12    1    1    2    0    0  0.49014800237E+00 -0.92789372164E+00  0.54014627671E+00  0.11802498986E+01  0.00000000000E+00 0.  1.
         11    1    3    3    0    0  0.18558342990E+02 -0.24804387732E+02 -0.24655448147E+02  0.39592434490E+02  0.51100000000E-03 0. -1.
        -11    1    3    3    0    0  0.82292330586E+01  0.54320036076E+01  0.26722384054E+01  0.10216055906E+02  0.51100000000E-03 0.  1.
        -12    1    3    3    0    0 -0.27277724051E+02  0.20300277846E+02  0.21443063465E+02  0.40199259705E+02  0.00000000000E+00 0.  1.
</event>
